/*--------------------------------*- C++ -*----------------------------------*\
| =========                 |                                                 |
| \\      /  F ield         | OpenFOAM: The Open Source CFD Toolbox           |
|  \\    /   O peration     | Version:  4.0                                   |
|   \\  /    A nd           | Web:      www.OpenFOAM.org                      |
|    \\/     M anipulation  |                                                 |
\*---------------------------------------------------------------------------*/
FoamFile
{
    version     2.0;
    format      ascii;
    class       volScalarField;
    location    "0.46";
    object      k;
}
// * * * * * * * * * * * * * * * * * * * * * * * * * * * * * * * * * * * * * //

dimensions      [0 2 -2 0 0 0 0];

internalField   nonuniform List<scalar> 
1740
(
0.0086316512
0.0089862142
0.018272393
0.0091732666
0.0097662319
0.027228539
0.009501279
0.010378797
0.034506381
0.009725609
0.010749463
0.041369408
0.0098558301
0.010970482
0.047201139
0.0099481754
0.011256064
0.051781311
0.01003395
0.01165714
0.055810511
0.010089648
0.011926058
0.058880022
0.010069953
0.012127591
0.061493809
0.010045452
0.012336256
0.063921868
0.010011434
0.012850423
0.066304502
0.010045768
0.013600888
0.067687321
0.0099581764
0.013790859
0.068269172
0.009865749
0.013525371
0.06921596
0.0097472509
0.013605354
0.069657392
0.0096160501
0.013764215
0.070541965
0.0094663356
0.013991571
0.071539186
0.0093238196
0.014257048
0.071824783
0.0092001412
0.014101125
0.071856743
0.0091163114
0.014067335
0.071945957
0.0090212812
0.01427605
0.072680977
0.0088630488
0.014547127
0.072550105
0.0087327045
0.014557949
0.07247541
0.0086225291
0.014424812
0.073051797
0.0085941288
0.01470778
0.07310276
0.0085150518
0.014973569
0.073181914
0.0084054158
0.01504609
0.072709279
0.0083691346
0.015274989
0.07217141
0.008387031
0.015145191
0.071500181
0.008975213
0.016255411
0.066454527
0.012755179
0.018166333
0.047187044
0.023921204
0.031146967
0.039765927
0.010302365
0.012552344
0.013733322
0.0042748125
0.0046048385
0.0046648096
0.0020764175
0.0021187468
0.0020922775
0.0011421964
0.0011428287
0.0011242448
0.00068975922
0.00068708967
0.00067875951
0.00044688334
0.00044548109
0.00044261217
0.00030483549
0.00030444113
0.00030395896
0.00021532876
0.00021540339
0.00021580544
0.00015520702
0.00015543775
0.00015606819
0.00011271889
0.00011296453
0.00011356404
8.1619316e-05
8.1826479e-05
8.2309593e-05
5.8432869e-05
5.8588502e-05
5.8943061e-05
4.1106639e-05
4.1214491e-05
4.1457061e-05
2.8312097e-05
2.8381937e-05
2.8537849e-05
1.9078402e-05
1.9120874e-05
1.9215256e-05
1.2614162e-05
1.2638473e-05
1.2692339e-05
8.2413707e-06
8.2544599e-06
8.2834484e-06
5.3882627e-06
5.3949455e-06
5.4097577e-06
3.5959162e-06
3.599234e-06
3.6065757e-06
2.5127859e-06
2.5144548e-06
2.5181369e-06
1.8849988e-06
1.8859219e-06
1.8879547e-06
1.5398086e-06
1.5404298e-06
1.5417961e-06
1.3646387e-06
1.3651545e-06
1.3662878e-06
1.2887891e-06
1.2892736e-06
1.2903378e-06
1.2693116e-06
1.2697849e-06
1.2708246e-06
1.2808955e-06
1.2813576e-06
1.2823723e-06
1.3090322e-06
1.3094775e-06
1.310455e-06
1.3456041e-06
1.3460276e-06
1.3469565e-06
1.3861486e-06
1.3865468e-06
1.3874198e-06
1.4282148e-06
1.4285863e-06
1.4294003e-06
1.4704047e-06
1.4707492e-06
1.4715039e-06
1.5118191e-06
1.5121373e-06
1.5128342e-06
1.5517353e-06
1.5520284e-06
1.55267e-06
1.5894047e-06
1.5896739e-06
1.5902632e-06
1.6239044e-06
1.6241513e-06
1.6246915e-06
1.654006e-06
1.654232e-06
1.6547266e-06
1.6780375e-06
1.6782443e-06
1.6786965e-06
1.6937327e-06
1.6939216e-06
1.6943348e-06
1.6980678e-06
1.6982403e-06
1.6986176e-06
1.687104e-06
1.6872615e-06
1.6876058e-06
1.6558682e-06
1.6560117e-06
1.6563254e-06
1.598332e-06
1.5984622e-06
1.5987468e-06
1.5075838e-06
1.5077005e-06
1.5079555e-06
1.3763364e-06
1.376438e-06
1.3766605e-06
1.1979613e-06
1.1980447e-06
1.1982282e-06
9.6815775e-07
9.682195e-07
9.6835651e-07
6.8694749e-07
6.8698599e-07
6.8707311e-07
3.6120881e-07
3.6122646e-07
3.6126786e-07
0.056152042
0.060792965
0.046128547
0.046626019
0.012495052
0.011365219
0.0043601584
0.0041273437
0.00200068
0.001941317
0.0010942598
0.0010786887
0.00066939101
0.00066709463
0.00044060581
0.00044235888
0.00030448311
0.00030715426
0.00021703021
0.00021955712
0.00015731657
0.00015939069
0.0001146103
0.00011619405
8.3106034e-05
8.4255085e-05
5.9510046e-05
6.0306351e-05
4.1838227e-05
4.2364638e-05
2.8780229e-05
2.9111324e-05
1.9360976e-05
1.9558577e-05
1.2775134e-05
1.2886849e-05
8.3279117e-06
8.3877099e-06
5.4324554e-06
5.4629092e-06
3.6178044e-06
3.6328296e-06
2.5237545e-06
2.5312503e-06
1.8910485e-06
1.8951669e-06
1.5438708e-06
1.5466286e-06
1.3680058e-06
1.3702882e-06
1.2919492e-06
1.2940892e-06
1.2723973e-06
1.274485e-06
1.283906e-06
1.2859405e-06
1.3119314e-06
1.3138883e-06
1.3483584e-06
1.3502151e-06
1.3887366e-06
1.390479e-06
1.4306273e-06
1.4322495e-06
1.4726407e-06
1.4741427e-06
1.5138833e-06
1.5152685e-06
1.5536353e-06
1.5549091e-06
1.5911495e-06
1.5923182e-06
1.6255037e-06
1.6265741e-06
1.6554698e-06
1.6564486e-06
1.6793758e-06
1.6802699e-06
1.6949551e-06
1.6957712e-06
1.6991838e-06
1.6999281e-06
1.6881222e-06
1.6888006e-06
1.6567958e-06
1.657413e-06
1.5991733e-06
1.5997325e-06
1.5083379e-06
1.5088392e-06
1.3769946e-06
1.3774336e-06
1.1985055e-06
1.1988732e-06
9.6856713e-07
9.6885512e-07
6.8721306e-07
6.8742394e-07
3.6134131e-07
3.6147824e-07
5.1401262e-06
2.6997865e-05
0.0001343939
0.00030488258
0.00046205329
0.00057297786
0.00064324351
0.00068684161
0.00071554828
0.00073649297
0.00075371709
0.00077023047
0.00078570546
0.000799895
0.00081248676
0.00082293099
0.00083024509
0.00083276546
0.00082777766
0.00081100425
0.00077589472
0.00071274789
0.00060797709
0.00044421757
0.00020052474
2.5653976e-06
5.4769858e-05
0.0002510805
0.00051588867
0.00072773785
0.00085917081
0.00093502875
0.00097947884
0.0010079454
0.0010284587
0.0010452677
0.0010608996
0.0010752342
0.001087997
0.0010987922
0.0011069967
0.0011114789
0.0011103264
0.0011003433
0.0010764085
0.0010305257
0.00095043131
0.00081783155
0.00060712074
0.00028707438
7.9898969e-06
0.00016010872
0.00061638289
0.0010802208
0.0013631133
0.0015056741
0.0015729568
0.0016043636
0.0016198989
0.0016280136
0.0016330912
0.0016360686
0.0016381276
0.0016386237
0.0016370659
0.001632981
0.0016253085
0.001612253
0.0015904021
0.0015541595
0.0014945037
0.001396725
0.0012361267
0.00096978695
0.00052215092
3.7744135e-05
0.00058019259
0.0016876582
0.0024388466
0.0027753408
0.002888816
0.0028977613
0.0028671437
0.0028268028
0.0027816573
0.0027367787
0.0026940604
0.0026539969
0.002613409
0.0025717571
0.0025294508
0.0024859859
0.0024399301
0.0023885367
0.0023270301
0.0022475007
0.0021366663
0.0019702032
0.0016951634
0.001154597
0.00028203202
0.0024508773
0.004920759
0.0060417468
0.0063874221
0.0063251073
0.006095173
0.0058314786
0.0055811697
0.0053298985
0.0050891452
0.0048644028
0.0046605158
0.0044630086
0.0042712784
0.0040900202
0.0039201468
0.0037610603
0.0036109475
0.0034663103
0.0033214805
0.0031682023
0.0029954528
0.0027948698
0.0025847982
0.0023586528
0.010523189
0.016580701
0.018535328
0.018077124
0.016520261
0.014704184
0.01301536
0.011532921
0.010255481
0.0091628324
0.0082324394
0.0074389202
0.0067584721
0.0061734249
0.005670466
0.0052382124
0.0048663332
0.0045454119
0.0042666032
0.0040210438
0.0037997448
0.003594092
0.0034033733
0.003243009
0.04489333
0.034050612
0.026567339
0.02141798
0.017772476
0.01507206
0.012983052
0.011324894
0.0099922051
0.0089097119
0.0080188835
0.0072750034
0.0066447041
0.0061036289
0.0056340731
0.0052236349
0.0048636627
0.0045476205
0.0042699938
0.0040255316
0.0038086317
0.0036132993
0.0034337859
0.0032714201
0.0031413469
0.037262418
0.030978183
0.02777863
0.025151931
0.022280799
0.019304202
0.016584239
0.014284379
0.012402018
0.010859853
0.0095882889
0.0085305161
0.0076431213
0.0068963108
0.0062662994
0.005733586
0.0052818274
0.0048972985
0.0045682488
0.0042841413
0.0040348946
0.0038107042
0.003602389
0.0034090808
0.0032465935
0.01022497
0.0095514659
0.0092120751
0.0088920129
0.0084291816
0.0078635802
0.0073058803
0.0068086632
0.0063570615
0.0059582894
0.0056094839
0.0053045744
0.0050183458
0.0047538533
0.0045125067
0.0042935931
0.0040950037
0.0039138153
0.0037461426
0.0035869337
0.0034294496
0.003264727
0.003081277
0.0028705172
0.0026509556
0.0039689035
0.0038958278
0.0038732991
0.0038323152
0.0037376235
0.0036023565
0.0034625114
0.0033329289
0.003216142
0.0031142921
0.0030264224
0.0029494021
0.0028776453
0.0028105802
0.0027480244
0.0026891503
0.0026322838
0.0025748213
0.0025129807
0.0024412605
0.0023513482
0.0022298335
0.0020523727
0.0017652817
0.001206274
0.0019242188
0.0019377104
0.0019628378
0.0019776048
0.0019710897
0.0019468525
0.0019158809
0.0018851573
0.0018577389
0.0018349402
0.0018165596
0.0018013484
0.001787638
0.0017747674
0.0017623776
0.0017492501
0.0017335055
0.0017123503
0.0016817231
0.0016356609
0.0015651249
0.0014557564
0.0012833956
0.001005198
0.00054395945
0.0010828964
0.001101321
0.0011249627
0.0011450489
0.0011570254
0.0011616552
0.0011625552
0.0011627159
0.0011638665
0.0011667577
0.001171354
0.0011770884
0.0011831769
0.0011889394
0.0011936221
0.0011960117
0.0011942866
0.0011858207
0.0011668964
0.0011322424
0.0010742872
0.00098197904
0.00083906324
0.00062222062
0.00030084985
0.00067420578
0.00068842586
0.00070567344
0.00072209886
0.00073556527
0.0007460224
0.00075468777
0.00076286264
0.00077144565
0.00078086535
0.00079113139
0.00080194765
0.00081283347
0.00082319803
0.00083224924
0.00083883915
0.00084134899
0.00083754758
0.0008244165
0.00079792295
0.00075274415
0.00068198837
0.00057702659
0.00042726451
0.00021535392
0.00044883614
0.00045908718
0.00047126544
0.00048357821
0.00049493673
0.00050513951
0.00051458363
0.00052382338
0.00053330079
0.00054323816
0.00055363478
0.00056429566
0.00057486807
0.00058485213
0.00059354999
0.00059998797
0.00060284118
0.00060035601
0.00059028085
0.00056983008
0.00053575756
0.00048474585
0.00041466839
0.00032827151
0.00023901051
0.00031236844
0.00031971119
0.00032832417
0.00033733725
0.00034617421
0.00035464878
0.00036286929
0.00037106107
0.00037942539
0.000388064
0.00039695183
0.00040593626
0.00041473929
0.00042294857
0.00042998591
0.00043506412
0.00043714641
0.00043491683
0.00042677972
0.00041092676
0.00038555765
0.00034944592
0.0003032653
0.0002524885
0.00021254638
0.00022355101
0.00022881621
0.00023493682
0.00024147445
0.00024811209
0.00025471119
0.00026128089
0.0002679025
0.00027465735
0.0002815783
0.00028862358
0.00029566449
0.00030247714
0.00030872903
0.00031395856
0.00031755136
0.00031872197
0.0003165108
0.00030981253
0.00029746521
0.0002784533
0.00025231861
0.00021993732
0.00018485473
0.00015178639
0.00016235777
0.00016611844
0.0001704632
0.00017516115
0.00018003262
0.00018498078
0.00018998365
0.00019506068
0.00020023545
0.00020550564
0.0002108228
0.00021607897
0.00022109566
0.00022561208
0.00022927152
0.00023160852
0.00023204242
0.0002298839
0.00022436444
0.00021470039
0.00020020166
0.00018040736
0.00015510025
0.00012351722
7.921927e-05
0.00011834073
0.00012099639
0.00012405064
0.00012737759
0.0001308718
0.00013446731
0.00013813582
0.00014187155
0.00014567234
0.00014952091
0.00015337026
0.00015713264
0.00016066994
0.00016378416
0.00016620848
0.00016760022
0.00016753911
0.00016553416
0.00016104317
0.00015350509
0.00014237531
0.000127121
0.00010703904
8.0509502e-05
4.3004683e-05
8.5764382e-05
8.760271e-05
8.9709733e-05
9.2014213e-05
9.445293e-05
9.6980927e-05
9.9572333e-05
0.00010221328
0.00010489171
0.0001075863
0.00011025661
0.00011283459
0.00011521734
0.00011726004
0.00011877009
0.00011950289
0.00011916112
0.00011739905
0.00011383228
0.00010804979
9.9618437e-05
8.8055526e-05
7.2722514e-05
5.2563542e-05
2.5770021e-05
6.1332329e-05
6.2569175e-05
6.3982565e-05
6.5531067e-05
6.7176045e-05
6.8887237e-05
7.0643475e-05
7.2430135e-05
7.4233221e-05
7.6033005e-05
7.779748e-05
7.9476592e-05
8.0997016e-05
8.2257317e-05
8.3123858e-05
8.3428079e-05
8.2965662e-05
8.1498233e-05
7.875709e-05
7.4446796e-05
6.8244324e-05
5.9789213e-05
4.8669731e-05
3.4449393e-05
1.6825234e-05
4.3034814e-05
4.3836898e-05
4.475083e-05
4.575202e-05
4.6816454e-05
4.7923944e-05
4.9058686e-05
5.0208007e-05
5.1359487e-05
5.2497111e-05
5.3597412e-05
5.4625555e-05
5.5531806e-05
5.6248344e-05
5.66865e-05
5.6734753e-05
5.6257655e-05
5.5095949e-05
5.3067551e-05
4.9968926e-05
4.5577039e-05
3.9656156e-05
3.1987071e-05
2.2465038e-05
1.124229e-05
2.9529482e-05
3.0027154e-05
3.0592462e-05
3.1210662e-05
3.1866802e-05
3.2547513e-05
3.3241587e-05
3.3939407e-05
3.4631183e-05
3.5305141e-05
3.5945136e-05
3.6528164e-05
3.702219e-05
3.7384069e-05
3.7557704e-05
3.7472471e-05
3.7042166e-05
3.61644e-05
3.4720628e-05
3.2577335e-05
2.9590327e-05
2.5617393e-05
2.0552801e-05
1.4414264e-05
7.4640934e-06
1.9806631e-05
2.0100466e-05
2.0432994e-05
2.0795416e-05
2.1178468e-05
2.1573522e-05
2.1972961e-05
2.2369914e-05
2.2757478e-05
2.3127591e-05
2.3469734e-05
2.3769515e-05
2.4007296e-05
2.4156899e-05
2.4184398e-05
2.4046972e-05
2.3691913e-05
2.3055901e-05
2.2064818e-05
2.0634943e-05
1.8677505e-05
1.6110147e-05
1.2881891e-05
9.0256612e-06
4.728383e-06
1.302637e-05
1.3190942e-05
1.337635e-05
1.3577377e-05
1.3788398e-05
1.4003986e-05
1.4219189e-05
1.4429417e-05
1.4630052e-05
1.4815914e-05
1.4980519e-05
1.5115251e-05
1.5208577e-05
1.5245246e-05
1.5205492e-05
1.5064248e-05
1.479032e-05
1.4345773e-05
1.3685747e-05
1.2759507e-05
1.1514078e-05
9.9022989e-06
7.8972861e-06
5.5165387e-06
2.8504058e-06
8.4620944e-06
8.5494842e-06
8.6474259e-06
8.7528815e-06
8.8625153e-06
8.9730123e-06
9.0812674e-06
9.1843661e-06
9.2793894e-06
9.3631257e-06
9.4317131e-06
9.4801743e-06
9.501922e-06
9.4882835e-06
9.4279748e-06
9.3065909e-06
9.1059793e-06
8.8037986e-06
8.3733413e-06
7.7843497e-06
7.005577e-06
6.0098295e-06
4.7818412e-06
3.3293758e-06
1.699628e-06
5.5006645e-06
5.5448107e-06
5.5939759e-06
5.6464208e-06
5.7002212e-06
5.7534203e-06
5.8041415e-06
5.8506118e-06
5.8910623e-06
5.9235773e-06
5.9459007e-06
5.9551928e-06
5.9477375e-06
5.9186127e-06
5.8613356e-06
5.7673997e-06
5.6260051e-06
5.423891e-06
5.1451013e-06
4.7714367e-06
4.28425e-06
3.6675078e-06
2.9122273e-06
2.0224211e-06
1.0295882e-06
3.6513863e-06
3.6729575e-06
3.696783e-06
3.7218892e-06
3.7471877e-06
3.7715546e-06
3.7938866e-06
3.8131264e-06
3.8282181e-06
3.8380255e-06
3.8412169e-06
3.8361269e-06
3.820577e-06
3.7916649e-06
3.7455115e-06
3.6769571e-06
3.5793065e-06
3.4439994e-06
3.2610209e-06
3.0190128e-06
2.7063896e-06
2.3132808e-06
1.8342737e-06
1.2720929e-06
6.4639331e-07
2.5404726e-06
2.5511353e-06
2.5628142e-06
2.5749749e-06
2.5870021e-06
2.5982533e-06
2.608084e-06
2.6158558e-06
2.6209207e-06
2.6225712e-06
2.619966e-06
2.6120391e-06
2.5973791e-06
2.5740856e-06
2.5395965e-06
2.4905033e-06
2.4223098e-06
2.3291831e-06
2.2040776e-06
2.0392868e-06
1.8270188e-06
1.5607134e-06
1.2369159e-06
8.5773733e-07
4.3621046e-07
1.9002227e-06
1.9060562e-06
1.9124308e-06
1.9190454e-06
1.9255521e-06
1.9315741e-06
1.9367233e-06
1.9405995e-06
1.9427759e-06
1.9427677e-06
1.9399789e-06
1.9336318e-06
1.9226774e-06
1.9056829e-06
1.8806995e-06
1.845116e-06
1.795504e-06
1.7275244e-06
1.635767e-06
1.5143341e-06
1.3573621e-06
1.1599921e-06
9.1977816e-07
6.3847855e-07
3.2677376e-07
1.5500164e-06
1.5539409e-06
1.5582648e-06
1.5628115e-06
1.5673726e-06
1.5717162e-06
1.5755909e-06
1.5787226e-06
1.5808002e-06
1.5814476e-06
1.5801819e-06
1.576354e-06
1.569072e-06
1.557106e-06
1.5387768e-06
1.5118325e-06
1.4733307e-06
1.4195673e-06
1.3460403e-06
1.2477226e-06
1.119679e-06
9.578633e-07
7.6026085e-07
5.2825569e-07
2.7034674e-07
1.3730987e-06
1.3763774e-06
1.3800374e-06
1.3839658e-06
1.3880264e-06
1.3920613e-06
1.3958903e-06
1.3993032e-06
1.4020453e-06
1.4037909e-06
1.4041048e-06
1.4023881e-06
1.3978077e-06
1.3892095e-06
1.3750155e-06
1.3531141e-06
1.3207591e-06
1.2745051e-06
1.2102391e-06
1.1233433e-06
1.0092949e-06
8.6440554e-07
6.8685013e-07
4.7790032e-07
2.4549991e-07
1.2967293e-06
1.2998256e-06
1.3033158e-06
1.307119e-06
1.3111349e-06
1.3152432e-06
1.3192989e-06
1.3231235e-06
1.3264886e-06
1.32909e-06
1.3305095e-06
1.330163e-06
1.3272318e-06
1.3205781e-06
1.3086465e-06
1.2893599e-06
1.2600245e-06
1.2172755e-06
1.1571183e-06
1.0750929e-06
9.6682291e-07
8.2875194e-07
6.5914199e-07
4.592559e-07
2.3754227e-07
1.2770624e-06
1.2800929e-06
1.2835264e-06
1.2872973e-06
1.2913236e-06
1.2955036e-06
1.29971e-06
1.3037797e-06
1.3074964e-06
1.3105637e-06
1.3125676e-06
1.3129231e-06
1.3108066e-06
1.3050709e-06
1.2941477e-06
1.2759441e-06
1.2477515e-06
1.2061944e-06
1.1472745e-06
1.0665501e-06
9.596566e-07
8.2306096e-07
6.5507086e-07
4.5693394e-07
2.3668819e-07
1.2884519e-06
1.2914071e-06
1.2947617e-06
1.2984583e-06
1.3024241e-06
1.3065672e-06
1.3107698e-06
1.3148763e-06
1.3186761e-06
1.321875e-06
1.3240572e-06
1.3246311e-06
1.3227603e-06
1.3172773e-06
1.3065849e-06
1.2885527e-06
1.2604252e-06
1.2187723e-06
1.159536e-06
1.0782197e-06
9.7040205e-07
8.3252473e-07
6.6296639e-07
4.631558e-07
2.4093375e-07
1.3163024e-06
1.3191425e-06
1.3223675e-06
1.3259243e-06
1.3297457e-06
1.3337455e-06
1.3378112e-06
1.341792e-06
1.3454794e-06
1.3485794e-06
1.3506722e-06
1.3511571e-06
1.3491816e-06
1.343554e-06
1.3326418e-06
1.3142669e-06
1.2856127e-06
1.2431744e-06
1.1828073e-06
1.0999238e-06
9.9000949e-07
8.4945007e-07
6.766855e-07
4.7336765e-07
2.4817829e-07
1.3525037e-06
1.3551942e-06
1.3582478e-06
1.3616145e-06
1.3652306e-06
1.3690139e-06
1.3728557e-06
1.3766078e-06
1.3800634e-06
1.382927e-06
1.3847741e-06
1.3849939e-06
1.3827171e-06
1.3767254e-06
1.3653489e-06
1.3463577e-06
1.3168679e-06
1.2732912e-06
1.2113832e-06
1.1264484e-06
1.0138608e-06
8.6992461e-07
6.9308364e-07
4.8508118e-07
2.5471992e-07
1.3926248e-06
1.3951452e-06
1.3980032e-06
1.4011511e-06
1.4045283e-06
1.4080556e-06
1.411627e-06
1.4150967e-06
1.4182583e-06
1.4208147e-06
1.422336e-06
1.422201e-06
1.4195229e-06
1.4130568e-06
1.401094e-06
1.3813514e-06
1.3508754e-06
1.3059903e-06
1.2423472e-06
1.155135e-06
1.0396075e-06
8.9197034e-07
7.1062514e-07
4.9728488e-07
2.6077179e-07
1.4342455e-06
1.4365877e-06
1.4392407e-06
1.4421592e-06
1.4452849e-06
1.4485412e-06
1.4518247e-06
1.4549909e-06
1.4578337e-06
1.4600541e-06
1.4612162e-06
1.4606884e-06
1.4575662e-06
1.4505778e-06
1.4379754e-06
1.4174228e-06
1.385896e-06
1.3396307e-06
1.2741721e-06
1.184591e-06
1.0660172e-06
9.1454816e-07
7.2852504e-07
5.0967402e-07
2.6706566e-07
1.4759892e-06
1.4781538e-06
1.4806027e-06
1.4832927e-06
1.4861678e-06
1.4891537e-06
1.4921488e-06
1.4950102e-06
1.4975313e-06
1.4994107e-06
1.5002068e-06
1.499277e-06
1.4956992e-06
1.4881746e-06
1.474917e-06
1.4535368e-06
1.4209403e-06
1.3732755e-06
1.3059823e-06
1.214014e-06
1.0923772e-06
9.3706252e-07
7.4637347e-07
5.2219614e-07
2.7289716e-07
1.51697e-06
1.5189627e-06
1.5212144e-06
1.5236837e-06
1.5263167e-06
1.5290411e-06
1.5317572e-06
1.5343227e-06
1.5365307e-06
1.5380771e-06
1.538514e-06
1.5371881e-06
1.5331594e-06
1.5251026e-06
1.5111933e-06
1.4889899e-06
1.4553302e-06
1.4062765e-06
1.337166e-06
1.2428376e-06
1.1181788e-06
9.5907329e-07
7.6377188e-07
5.342645e-07
2.7930931e-07
1.5564726e-06
1.5583018e-06
1.560366e-06
1.5626258e-06
1.565029e-06
1.5675052e-06
1.569956e-06
1.5722398e-06
1.5741489e-06
1.5753761e-06
1.5754674e-06
1.5737583e-06
1.5692915e-06
1.5607155e-06
1.5461687e-06
1.523159e-06
1.4884581e-06
1.438046e-06
1.3671621e-06
1.2705374e-06
1.1429473e-06
9.8017592e-07
7.8042272e-07
5.4577532e-07
2.8539062e-07
1.5937516e-06
1.5954269e-06
1.597315e-06
1.5993779e-06
1.6015652e-06
1.6038081e-06
1.6060093e-06
1.6080275e-06
1.6096541e-06
1.6105786e-06
1.6103407e-06
1.608265e-06
1.6033769e-06
1.5942995e-06
1.5791358e-06
1.5553452e-06
1.5196374e-06
1.4679152e-06
1.3953279e-06
1.2965082e-06
1.1661326e-06
9.9990205e-07
7.9599498e-07
5.5668856e-07
2.9160767e-07
1.6278859e-06
1.6294175e-06
1.6311411e-06
1.6330202e-06
1.6350059e-06
1.6370309e-06
1.6389987e-06
1.6407682e-06
1.6421294e-06
1.6427686e-06
1.6422191e-06
1.6397946e-06
1.6345043e-06
1.624947e-06
1.6091922e-06
1.5846548e-06
1.5479875e-06
1.4950242e-06
1.4208348e-06
1.3199682e-06
1.1870189e-06
1.0176224e-06
8.0993476e-07
5.6633975e-07
2.9566933e-07
1.6576473e-06
1.6590454e-06
1.6606161e-06
1.6623245e-06
1.664123e-06
1.6659453e-06
1.6676958e-06
1.6692333e-06
1.6703463e-06
1.6707179e-06
1.6698748e-06
1.667121e-06
1.6614496e-06
1.6514378e-06
1.6351244e-06
1.6098851e-06
1.5723235e-06
1.5182159e-06
1.4425682e-06
1.3398647e-06
1.2046412e-06
1.0324899e-06
8.2155535e-07
5.7428104e-07
2.9972856e-07
1.681364e-06
1.6826384e-06
1.6840678e-06
1.6856182e-06
1.6872434e-06
1.688878e-06
1.690427e-06
1.6917489e-06
1.6926308e-06
1.6927524e-06
1.6916348e-06
1.6885723e-06
1.6825445e-06
1.6721091e-06
1.6552796e-06
1.6293995e-06
1.5910346e-06
1.5359192e-06
1.4590167e-06
1.3547737e-06
1.2176971e-06
1.0433652e-06
8.2993103e-07
5.7989589e-07
3.0250906e-07
1.6967688e-06
1.6979293e-06
1.6992284e-06
1.7006331e-06
1.7020984e-06
1.7035598e-06
1.7049224e-06
1.7060447e-06
1.7067126e-06
1.7066025e-06
1.7052306e-06
1.7018833e-06
1.695529e-06
1.6847105e-06
1.6674228e-06
1.6409879e-06
1.601949e-06
1.5460204e-06
1.4681519e-06
1.3627886e-06
1.2244509e-06
1.0487464e-06
8.3387672e-07
5.8241874e-07
3.0373285e-07
1.700837e-06
1.7018928e-06
1.703072e-06
1.7043428e-06
1.7056608e-06
1.7069625e-06
1.7081535e-06
1.709092e-06
1.7095629e-06
1.7092405e-06
1.7076373e-06
1.7040343e-06
1.6973927e-06
1.686247e-06
1.6685833e-06
1.6417172e-06
1.6021908e-06
1.5457274e-06
1.4673024e-06
1.3614073e-06
1.2226314e-06
1.046671e-06
8.3183351e-07
5.8081786e-07
3.0301197e-07
1.689628e-06
1.6905874e-06
1.6916562e-06
1.6928035e-06
1.693986e-06
1.6951406e-06
1.6961738e-06
1.696944e-06
1.6972358e-06
1.6967229e-06
1.6949162e-06
1.6910952e-06
1.6842205e-06
1.6728273e-06
1.6549076e-06
1.6277907e-06
1.5880466e-06
1.5314474e-06
1.453044e-06
1.3474369e-06
1.2093545e-06
1.0346549e-06
8.218287e-07
5.7379742e-07
2.9994919e-07
1.6581648e-06
1.659035e-06
1.6600015e-06
1.6610343e-06
1.662091e-06
1.6631098e-06
1.6639982e-06
1.6646156e-06
1.6647478e-06
1.6640699e-06
1.6620954e-06
1.6581083e-06
1.6510775e-06
1.6395532e-06
1.6215529e-06
1.5944482e-06
1.5548755e-06
1.4987073e-06
1.4211352e-06
1.3169461e-06
1.1810932e-06
1.0096751e-06
8.0140595e-07
5.593452e-07
2.9259463e-07
1.6004128e-06
1.6011985e-06
1.6020683e-06
1.602993e-06
1.6039315e-06
1.6048236e-06
1.6055789e-06
1.6060594e-06
1.6060543e-06
1.6052437e-06
1.6031494e-06
1.5990689e-06
1.5919931e-06
1.5805067e-06
1.5626804e-06
1.5359662e-06
1.4971182e-06
1.4421742e-06
1.3665484e-06
1.2653096e-06
1.1337347e-06
9.6824955e-07
7.6782823e-07
5.3559489e-07
2.8018861e-07
1.5094487e-06
1.5101513e-06
1.5109263e-06
1.5117454e-06
1.5125694e-06
1.513341e-06
1.5139736e-06
1.5143345e-06
1.5142197e-06
1.5133194e-06
1.5111715e-06
1.5071005e-06
1.5001384e-06
1.4889317e-06
1.4716412e-06
1.4458492e-06
1.4084927e-06
1.3558574e-06
1.2836782e-06
1.1874143e-06
1.0627778e-06
9.0661292e-07
7.1818395e-07
5.0059036e-07
2.6170265e-07
1.3779685e-06
1.3785854e-06
1.3792628e-06
1.3799736e-06
1.3806821e-06
1.3813362e-06
1.3818558e-06
1.382118e-06
1.3819312e-06
1.3810013e-06
1.3788928e-06
1.3749755e-06
1.3683502e-06
1.3577598e-06
1.3415033e-06
1.3173556e-06
1.282518e-06
1.2336229e-06
1.1668382e-06
1.0781319e-06
9.6376646e-07
8.2109343e-07
6.496978e-07
4.5268213e-07
2.3737266e-07
1.199327e-06
1.199855e-06
1.200429e-06
1.2010246e-06
1.2016144e-06
1.2021551e-06
1.2025741e-06
1.2027673e-06
1.2025638e-06
1.2016912e-06
1.199751e-06
1.1961854e-06
1.190201e-06
1.1806782e-06
1.1661115e-06
1.1445417e-06
1.1135313e-06
1.0701747e-06
1.0111946e-06
9.3318235e-07
8.3305939e-07
7.087584e-07
5.6017638e-07
3.9027085e-07
2.0582112e-07
9.6922894e-07
9.6968254e-07
9.7015367e-07
9.7063109e-07
9.711188e-07
9.7157339e-07
9.7191701e-07
9.7208438e-07
9.7194249e-07
9.7124639e-07
9.696441e-07
9.6668817e-07
9.6174739e-07
9.5386087e-07
9.4179046e-07
9.2392329e-07
8.9829178e-07
8.6258498e-07
8.1420335e-07
7.5044586e-07
6.6898089e-07
5.6837075e-07
4.487857e-07
3.1291076e-07
1.6664636e-07
6.8774585e-07
6.8818639e-07
6.8857861e-07
6.8896876e-07
6.8951414e-07
6.8999115e-07
6.9030952e-07
6.9049433e-07
6.9048701e-07
6.9008571e-07
6.8900108e-07
6.8695695e-07
6.836087e-07
6.7799738e-07
6.6929918e-07
6.5634777e-07
6.3775626e-07
6.1195746e-07
5.7714009e-07
5.3133188e-07
4.7300284e-07
4.0134795e-07
3.1669904e-07
2.2118172e-07
1.1915814e-07
3.6175291e-07
3.6219014e-07
3.6250918e-07
3.6291288e-07
3.6407611e-07
3.6471749e-07
3.650259e-07
3.6520302e-07
3.6529485e-07
3.6518539e-07
3.6470201e-07
3.6383317e-07
3.6281406e-07
3.6002929e-07
3.5543264e-07
3.4847218e-07
3.3840943e-07
3.2457643e-07
3.0600666e-07
2.8149781e-07
2.5031442e-07
2.1218213e-07
1.6742365e-07
1.1738037e-07
6.4534189e-08
)
;

boundaryField
{
    Walls
    {
        type            kqRWallFunction;
        value           nonuniform List<scalar> 
38
(
5.1401262e-06
2.5653976e-06
7.9898969e-06
3.7744135e-05
0.00028203202
0.0023586528
0.056152042
0.060792965
0.018272393
0.027228539
0.034506381
0.041369408
0.047201139
0.051781311
0.055810511
0.058880022
0.061493809
0.063921868
0.066304502
0.067687321
0.068269172
0.06921596
0.069657392
0.070541965
0.071539186
0.071824783
0.071856743
0.071945957
0.072680977
0.072550105
0.07247541
0.073051797
0.07310276
0.073181914
0.072709279
0.07217141
0.071500181
0.066454527
)
;
    }
    Inlet
    {
        type            turbulentIntensityKineticEnergyInlet;
        intensity       0.05;
        value           nonuniform List<scalar> 3(0.007501535 0.0081149973 0.0099939416);
    }
    Outlet
    {
        type            inletOutlet;
        inletValue      uniform 0;
        value           nonuniform List<scalar> 
86
(
3.6120881e-07
3.6122646e-07
3.6126786e-07
3.6134131e-07
3.6147824e-07
3.6175291e-07
3.6219014e-07
3.6250918e-07
3.6291288e-07
3.6407611e-07
3.6471749e-07
3.650259e-07
3.6520302e-07
3.6529485e-07
3.6518539e-07
3.6470201e-07
3.6383317e-07
3.6281406e-07
3.6002929e-07
3.5543264e-07
3.4847218e-07
3.3840943e-07
3.2457643e-07
3.0600666e-07
2.8149781e-07
2.5031442e-07
2.1218213e-07
1.6742365e-07
1.1738037e-07
6.4534189e-08
0.0031413469
0.0032465935
0.0026509556
0
0
0
0
0.00023901051
0.00021254638
0.00015178639
0
0
0
0
1.124229e-05
7.4640934e-06
4.728383e-06
2.8504058e-06
1.699628e-06
1.0295882e-06
6.4639331e-07
4.3621046e-07
3.2677376e-07
2.7034674e-07
2.4549991e-07
2.3754227e-07
2.3668819e-07
2.4093375e-07
2.4817829e-07
2.5471992e-07
2.6077179e-07
2.6706566e-07
2.7289716e-07
2.7930931e-07
2.8539062e-07
2.9160767e-07
2.9566933e-07
2.9972856e-07
3.0250906e-07
3.0373285e-07
3.0301197e-07
2.9994919e-07
2.9259463e-07
2.8018861e-07
2.6170265e-07
2.3737266e-07
2.0582112e-07
1.6664636e-07
1.1915814e-07
6.4534189e-08
0
0
0
0
0.0025847982
0.003243009
)
;
    }
    Front
    {
        type            wedge;
    }
    Back
    {
        type            wedge;
    }
    defaultFaces
    {
        type            empty;
    }
}


// ************************************************************************* //
