/*--------------------------------*- C++ -*----------------------------------*\
| =========                 |                                                 |
| \\      /  F ield         | OpenFOAM: The Open Source CFD Toolbox           |
|  \\    /   O peration     | Version:  4.0                                   |
|   \\  /    A nd           | Web:      www.OpenFOAM.org                      |
|    \\/     M anipulation  |                                                 |
\*---------------------------------------------------------------------------*/
FoamFile
{
    version     2.0;
    format      ascii;
    class       volScalarField;
    location    "0.46";
    object      nut;
}
// * * * * * * * * * * * * * * * * * * * * * * * * * * * * * * * * * * * * * //

dimensions      [0 2 -1 0 0 0 0];

internalField   nonuniform List<scalar> 
1740
(
2.2735895e-05
1.2753758e-05
1.2248752e-06
1.5863514e-05
7.4141898e-06
1.8118851e-06
3.4058437e-05
5.5432309e-06
2.2828112e-06
2.5083644e-05
4.7613315e-06
2.7218589e-06
1.9598103e-05
4.3147144e-06
3.0910913e-06
1.616711e-05
4.0102716e-06
3.3793594e-06
1.3799035e-05
3.8159927e-06
3.6316872e-06
1.2002102e-05
3.6875635e-06
3.8220068e-06
1.0536961e-05
3.602499e-06
3.9834784e-06
9.5442569e-06
3.5453537e-06
4.1335735e-06
8.6499664e-06
3.522713e-06
4.279749e-06
7.7530521e-06
3.5347382e-06
4.3639797e-06
7.2029437e-06
3.5212833e-06
4.3992263e-06
6.834918e-06
3.4875052e-06
4.4568008e-06
6.5475303e-06
3.482993e-06
4.48348e-06
6.2300727e-06
3.4867815e-06
4.5381219e-06
5.9259548e-06
3.493368e-06
4.5987789e-06
5.6421694e-06
3.5050529e-06
4.615582e-06
5.3849845e-06
3.4864801e-06
4.6177525e-06
5.1651973e-06
3.4835299e-06
4.6222776e-06
4.987127e-06
3.5012753e-06
4.6675699e-06
4.8488737e-06
3.5250261e-06
4.6606132e-06
4.72339e-06
3.5302592e-06
4.6552533e-06
4.5966547e-06
3.5230726e-06
4.689676e-06
4.471997e-06
3.548012e-06
4.6929634e-06
4.3692895e-06
3.5686344e-06
4.6989915e-06
4.2871834e-06
3.5721059e-06
4.6699559e-06
4.2039234e-06
3.5892989e-06
4.6365531e-06
4.1562715e-06
3.5841552e-06
4.5956514e-06
3.0450521e-06
3.3600336e-06
4.287588e-06
1.9013967e-06
2.1651535e-06
4.405779e-06
7.1790547e-06
7.3652051e-06
6.7207506e-06
6.5470757e-06
6.7499467e-06
6.3798101e-06
5.1845216e-06
5.1211003e-06
4.8731952e-06
4.3401069e-06
4.267522e-06
4.1314036e-06
3.7950883e-06
3.7518631e-06
3.6910774e-06
3.421797e-06
3.4041005e-06
3.3884525e-06
3.1439843e-06
3.1419015e-06
3.1504605e-06
2.9092908e-06
2.9151162e-06
2.9347679e-06
2.6805704e-06
2.689513e-06
2.7125838e-06
2.4333726e-06
2.4427551e-06
2.4650496e-06
2.1553703e-06
2.1638423e-06
2.18328e-06
1.8465055e-06
1.8534885e-06
1.8692393e-06
1.5185223e-06
1.5238777e-06
1.5358482e-06
1.1922648e-06
1.1961016e-06
1.2046357e-06
8.9181822e-07
8.9438248e-07
9.0007227e-07
6.3693752e-07
6.3853298e-07
6.4207058e-07
4.3743304e-07
4.3835622e-07
4.4040638e-07
2.9238772e-07
2.9288425e-07
2.9399442e-07
1.9368177e-07
1.9393834e-07
1.9451329e-07
1.3044239e-07
1.3057374e-07
1.3086575e-07
9.1810615e-08
9.1878432e-08
9.202871e-08
6.9297924e-08
6.9336213e-08
6.9421108e-08
5.6927878e-08
5.6953672e-08
5.7011124e-08
5.0726316e-08
5.0747238e-08
5.0794254e-08
4.816301e-08
4.8182029e-08
4.8225229e-08
4.7682174e-08
4.7700243e-08
4.7741653e-08
4.8354145e-08
4.8371481e-08
4.841139e-08
4.9637408e-08
4.9654002e-08
4.9692191e-08
5.1224595e-08
5.1240379e-08
5.1276575e-08
5.2945963e-08
5.2960872e-08
5.2994885e-08
5.471019e-08
5.4724184e-08
5.4755928e-08
5.6468919e-08
5.6481982e-08
5.6511457e-08
5.8196166e-08
5.8208308e-08
5.8235574e-08
5.9876865e-08
5.9888111e-08
5.9913266e-08
6.150079e-08
6.151118e-08
6.1534343e-08
6.305958e-08
6.3069162e-08
6.3090465e-08
6.4545447e-08
6.4554276e-08
6.4573857e-08
6.595079e-08
6.5958923e-08
6.5976929e-08
6.7268236e-08
6.7275735e-08
6.7292313e-08
6.8490851e-08
6.8497782e-08
6.8513084e-08
6.9612386e-08
6.9618815e-08
6.9632994e-08
7.062751e-08
7.0633507e-08
7.0646719e-08
7.1532148e-08
7.1537795e-08
7.1550202e-08
7.2315571e-08
7.2320928e-08
7.2332665e-08
7.2961506e-08
7.2966612e-08
7.2977786e-08
7.3454148e-08
7.3459045e-08
7.3469759e-08
7.3765801e-08
7.3770526e-08
7.3780863e-08
7.3839634e-08
7.3844216e-08
7.3854241e-08
7.350639e-08
7.3510836e-08
7.3520566e-08
4.1657507e-06
4.4919029e-06
6.7313487e-06
8.4603099e-06
5.9990279e-06
6.0418676e-06
4.7284877e-06
4.8328545e-06
4.0834495e-06
4.1917662e-06
3.6927414e-06
3.7933993e-06
3.4165792e-06
3.508734e-06
3.1908736e-06
3.2741166e-06
2.9785973e-06
3.0523373e-06
2.7545666e-06
2.8183227e-06
2.5023043e-06
2.5558673e-06
2.2144562e-06
2.2579651e-06
1.8939783e-06
1.9279495e-06
1.5544404e-06
1.5797532e-06
1.2178113e-06
1.2356626e-06
9.0882854e-07
9.20659e-07
6.475075e-07
6.5484298e-07
4.4355912e-07
4.4781239e-07
2.957076e-07
2.9802141e-07
1.9540083e-07
1.9659867e-07
1.3131481e-07
1.319195e-07
9.2259446e-08
9.2569921e-08
6.955157e-08
6.972737e-08
5.7099706e-08
5.7219466e-08
5.0867116e-08
5.0966003e-08
4.8292545e-08
4.8384184e-08
4.7806445e-08
4.7894791e-08
4.8473929e-08
4.8559196e-08
4.9751966e-08
4.983333e-08
5.1333055e-08
5.1409723e-08
5.304774e-08
5.3119251e-08
5.4805041e-08
5.4871266e-08
5.655687e-08
5.6617911e-08
5.8277429e-08
5.8333526e-08
5.9951757e-08
6.0003219e-08
6.1569691e-08
6.1616851e-08
6.3122901e-08
6.31661e-08
6.4603618e-08
6.4643195e-08
6.6004252e-08
6.6040543e-08
6.7317439e-08
6.7350776e-08
6.8536252e-08
6.8566963e-08
6.9654442e-08
6.9682851e-08
7.0666683e-08
7.0693104e-08
7.1568916e-08
7.1593652e-08
7.2350333e-08
7.2373655e-08
7.2994592e-08
7.3016759e-08
7.3485865e-08
7.3507104e-08
7.3796406e-08
7.3816912e-08
7.3869325e-08
7.3889261e-08
7.3535231e-08
7.3554714e-08
4.2627688e-10
1.3213585e-08
1.929772e-07
8.2618129e-07
1.6430895e-06
2.2296158e-06
2.574508e-06
2.7828143e-06
2.9268494e-06
3.042214e-06
3.1460356e-06
3.2521313e-06
3.3575398e-06
3.4611054e-06
3.5620245e-06
3.6589421e-06
3.749406e-06
3.829283e-06
3.8918806e-06
3.9266223e-06
3.9169019e-06
3.8364651e-06
3.6426692e-06
3.257982e-06
2.4402874e-06
2.1275248e-10
2.6886216e-08
3.5990987e-07
1.3770836e-06
2.5699449e-06
3.3779953e-06
3.8508245e-06
4.1573282e-06
4.3918624e-06
4.5971682e-06
4.7938044e-06
4.9941173e-06
5.1960679e-06
5.3985623e-06
5.5999303e-06
5.7974254e-06
5.9862975e-06
6.1587724e-06
6.3021466e-06
6.3961292e-06
6.4084004e-06
6.2866384e-06
5.9431369e-06
5.2170664e-06
3.6791053e-06
6.6261221e-10
7.8852478e-08
8.5772712e-07
2.5077997e-06
3.7927987e-06
4.528892e-06
4.9921411e-06
5.3374771e-06
5.6374573e-06
5.9244474e-06
6.2137554e-06
6.5121086e-06
6.8180734e-06
7.1304809e-06
7.4479025e-06
7.7672638e-06
8.0823275e-06
8.3831248e-06
8.6519896e-06
8.8601949e-06
8.9610991e-06
8.8771162e-06
8.4728844e-06
7.4901064e-06
5.2859754e-06
3.1300781e-09
2.8555313e-07
2.0639655e-06
4.0046298e-06
5.0447378e-06
5.6319379e-06
6.0381986e-06
6.3802377e-06
6.7082826e-06
7.0408957e-06
7.3889042e-06
7.7554278e-06
8.1369343e-06
8.5321489e-06
8.9409486e-06
9.3619792e-06
9.7902577e-06
1.0216248e-05
1.0623278e-05
1.098342e-05
1.125042e-05
1.1345815e-05
1.1125936e-05
1.02819e-05
7.8854981e-06
2.3382756e-08
1.1394849e-06
3.9920499e-06
5.6008336e-06
6.4522952e-06
6.9729203e-06
7.3559892e-06
7.7016062e-06
8.0504488e-06
8.4044113e-06
8.7768293e-06
9.1746639e-06
9.5876844e-06
1.0011218e-05
1.0448017e-05
1.090278e-05
1.1374848e-05
1.185963e-05
1.2347203e-05
1.2819315e-05
1.3244804e-05
1.3573438e-05
1.3728544e-05
1.3614367e-05
1.320262e-05
1.9513563e-07
2.7559674e-06
5.9074567e-06
7.7130675e-06
8.6284624e-06
9.0455583e-06
9.24169e-06
9.3782964e-06
9.5164328e-06
9.6742859e-06
9.8599948e-06
1.0079937e-05
1.0334684e-05
1.062441e-05
1.0950338e-05
1.1313537e-05
1.1714223e-05
1.2150504e-05
1.2617407e-05
1.3105121e-05
1.359595e-05
1.4061007e-05
1.445711e-05
1.4735576e-05
1.483891e-05
4.3347813e-06
4.312121e-06
4.360843e-06
4.4767639e-06
4.6573813e-06
4.8906656e-06
5.1658469e-06
5.4805651e-06
5.8375389e-06
6.2387666e-06
6.6835253e-06
7.1684696e-06
7.6877481e-06
8.2342693e-06
8.8013113e-06
9.3840678e-06
9.9800229e-06
1.0587824e-05
1.1205624e-05
1.1828919e-05
1.2447505e-05
1.3042345e-05
1.3582784e-05
1.4032055e-05
1.4322458e-05
9.1194143e-06
9.3765308e-06
9.7771842e-06
1.0197041e-05
1.0374008e-05
1.0337574e-05
1.0220074e-05
1.0122552e-05
1.0084841e-05
1.0108785e-05
1.0190256e-05
1.0324631e-05
1.0509966e-05
1.0746003e-05
1.1032611e-05
1.1369249e-05
1.1754049e-05
1.2183178e-05
1.264969e-05
1.3141453e-05
1.3638e-05
1.4107383e-05
1.4503355e-05
1.4775859e-05
1.4870778e-05
6.4130255e-06
6.8227778e-06
7.2547083e-06
7.6551112e-06
7.95707e-06
8.1739897e-06
8.3657894e-06
8.5725231e-06
8.8023829e-06
9.0699601e-06
9.3720284e-06
9.6995542e-06
1.0047632e-05
1.0422534e-05
1.0828172e-05
1.1265222e-05
1.1730813e-05
1.2217784e-05
1.2712741e-05
1.3193044e-05
1.362226e-05
1.3944281e-05
1.407683e-05
1.3921224e-05
1.3455965e-05
5.1454062e-06
5.5021292e-06
5.8527953e-06
6.169526e-06
6.4355574e-06
6.6635372e-06
6.8837279e-06
7.1165525e-06
7.3730971e-06
7.6599787e-06
7.975152e-06
8.3159525e-06
8.6822174e-06
9.075083e-06
9.4941725e-06
9.9359016e-06
1.0392236e-05
1.084901e-05
1.1283325e-05
1.1659403e-05
1.1921662e-05
1.1981517e-05
1.1685623e-05
1.0715027e-05
8.1160736e-06
4.4346911e-06
4.7245052e-06
5.0151106e-06
5.2860485e-06
5.5315104e-06
5.7596122e-06
5.9848117e-06
6.2198701e-06
6.4733165e-06
6.749304e-06
7.0475395e-06
7.3668364e-06
7.7068805e-06
8.0667111e-06
8.4435671e-06
8.8306206e-06
9.2159147e-06
9.5804658e-06
9.8955396e-06
1.0118546e-05
1.0186488e-05
1.0004455e-05
9.422212e-06
8.1747305e-06
5.6271578e-06
3.981394e-06
4.2108952e-06
4.4489764e-06
4.6798828e-06
4.8998697e-06
5.1136049e-06
5.3291959e-06
5.5543677e-06
5.7948089e-06
6.0533782e-06
6.3303371e-06
6.6248563e-06
6.9357562e-06
7.2604495e-06
7.5937604e-06
7.9268131e-06
8.2456435e-06
8.5295673e-06
8.7490721e-06
8.8629604e-06
8.8142776e-06
8.5238272e-06
7.8773171e-06
6.6878852e-06
4.4742949e-06
3.6587211e-06
3.8422674e-06
4.0381955e-06
4.2348597e-06
4.4288761e-06
4.6223452e-06
4.8198326e-06
5.0261156e-06
5.2449259e-06
5.4782611e-06
5.7264259e-06
5.9885876e-06
6.2629469e-06
6.5460451e-06
6.8318043e-06
7.110641e-06
7.3684871e-06
7.5856392e-06
7.7354992e-06
7.7832051e-06
7.6841295e-06
7.3818008e-06
6.8025058e-06
5.8292944e-06
4.0945215e-06
3.3968993e-06
3.5460924e-06
3.7085947e-06
3.8761314e-06
4.0455815e-06
4.2175361e-06
4.3944468e-06
4.5791797e-06
4.774079e-06
4.9804003e-06
5.1982008e-06
5.4264432e-06
5.6629006e-06
5.9036704e-06
6.1424975e-06
6.3701093e-06
6.5735463e-06
6.7355291e-06
6.8339882e-06
6.841971e-06
6.7283405e-06
6.4602003e-06
6.0098753e-06
5.3780654e-06
4.6508794e-06
3.154157e-06
3.2767462e-06
3.4120361e-06
3.5542642e-06
3.7007346e-06
3.8512059e-06
4.0068414e-06
4.1692525e-06
4.3398037e-06
4.519149e-06
4.7070411e-06
4.902233e-06
5.1022973e-06
5.3032591e-06
5.4991353e-06
5.6814779e-06
5.8389952e-06
5.9573191e-06
6.0190904e-06
6.0046423e-06
5.8938552e-06
5.6705165e-06
5.33281e-06
4.920195e-06
4.5744037e-06
2.9027385e-06
3.0035814e-06
3.1158103e-06
3.2354308e-06
3.3602006e-06
3.4894763e-06
3.6236461e-06
3.7635046e-06
3.9097408e-06
4.0625681e-06
4.2214953e-06
4.3851632e-06
4.5511528e-06
4.715713e-06
4.873453e-06
5.0170673e-06
5.1371613e-06
5.2222695e-06
5.2592004e-06
5.2339336e-06
5.1334687e-06
4.9494408e-06
4.6853883e-06
4.3718179e-06
4.0603574e-06
2.6249928e-06
2.7071305e-06
2.7990655e-06
2.8980013e-06
3.0021237e-06
3.1106335e-06
3.2234667e-06
3.3408999e-06
3.4631784e-06
3.5902222e-06
3.7214085e-06
3.8554e-06
3.9899734e-06
4.1218238e-06
4.2463724e-06
4.3576174e-06
4.4480896e-06
4.5089729e-06
4.5304706e-06
4.5025e-06
4.4157537e-06
4.262877e-06
4.0380213e-06
3.7256194e-06
3.2112253e-06
2.3132802e-06
2.3788117e-06
2.4524665e-06
2.5322748e-06
2.6167922e-06
2.7052092e-06
2.7972231e-06
2.8927965e-06
2.9919077e-06
3.0943146e-06
3.1993722e-06
3.3058809e-06
3.4119507e-06
3.5148664e-06
3.610976e-06
3.695624e-06
3.7631682e-06
3.807108e-06
3.8203442e-06
3.7955311e-06
3.7253122e-06
3.6016925e-06
3.4118471e-06
3.1194737e-06
2.5674718e-06
1.9707774e-06
2.0214494e-06
2.0785897e-06
2.1408082e-06
2.2069844e-06
2.276377e-06
2.3485851e-06
2.4234089e-06
2.5006813e-06
2.5800995e-06
2.6610798e-06
2.7426377e-06
2.8232896e-06
2.9009675e-06
2.9729621e-06
3.0359036e-06
3.0857951e-06
3.1181056e-06
3.1278935e-06
3.1098613e-06
3.0580751e-06
2.9646503e-06
2.8153973e-06
2.5749559e-06
2.1123783e-06
1.6115211e-06
1.6490968e-06
1.6915756e-06
1.7379882e-06
1.7874922e-06
1.8394624e-06
1.893486e-06
1.9493014e-06
2.0066854e-06
2.065342e-06
2.1247952e-06
2.1843053e-06
2.2428041e-06
2.2988475e-06
2.3505918e-06
2.3957989e-06
2.4318674e-06
2.4558781e-06
2.464608e-06
2.4544043e-06
2.4206996e-06
2.3567153e-06
2.2502821e-06
2.0750668e-06
1.7488594e-06
1.2580187e-06
1.2844651e-06
1.3144146e-06
1.3472068e-06
1.3822293e-06
1.4189894e-06
1.4571237e-06
1.4963686e-06
1.5365021e-06
1.5772692e-06
1.6183179e-06
1.6591416e-06
1.6990408e-06
1.7371029e-06
1.7721981e-06
1.8029929e-06
1.8279701e-06
1.8454393e-06
1.853489e-06
1.8497964e-06
1.8311512e-06
1.7924664e-06
1.7248417e-06
1.6111384e-06
1.4040098e-06
9.3546069e-07
9.529719e-07
9.7282066e-07
9.9457056e-07
1.017795e-06
1.0421269e-06
1.067276e-06
1.0930194e-06
1.1191634e-06
1.1455118e-06
1.1718256e-06
1.1977879e-06
1.2229872e-06
1.2469108e-06
1.2689499e-06
1.2884094e-06
1.3045199e-06
1.3164278e-06
1.3231334e-06
1.3233204e-06
1.3149985e-06
1.2948729e-06
1.257319e-06
1.1924658e-06
1.0771807e-06
6.640154e-07
6.74866e-07
6.8716472e-07
7.0063423e-07
7.1498944e-07
7.2997343e-07
7.4537213e-07
7.6101253e-07
7.7674863e-07
7.9244169e-07
8.079412e-07
8.230687e-07
8.3761006e-07
8.5131586e-07
8.6390664e-07
8.7507864e-07
8.8450475e-07
8.9181995e-07
8.9657386e-07
8.9811865e-07
8.9539483e-07
8.8659187e-07
8.6867385e-07
8.3661551e-07
7.7949644e-07
4.5312834e-07
4.5941658e-07
4.6653845e-07
4.7432338e-07
4.8258986e-07
4.9116755e-07
4.9990954e-07
5.0869375e-07
5.1741763e-07
5.259915e-07
5.3432934e-07
5.4234127e-07
5.4993268e-07
5.5700586e-07
5.6346166e-07
5.6919905e-07
5.7410989e-07
5.7806392e-07
5.8088454e-07
5.8229728e-07
5.8182429e-07
5.7862825e-07
5.7131737e-07
5.5762129e-07
5.3229089e-07
3.0091374e-07
3.043354e-07
3.0820567e-07
3.1242347e-07
3.1687842e-07
3.2146344e-07
3.2608366e-07
3.3065936e-07
3.3512462e-07
3.3942485e-07
3.4351492e-07
3.4735681e-07
3.5091943e-07
3.5418072e-07
3.5712611e-07
3.5974078e-07
3.6200557e-07
3.6387696e-07
3.6528369e-07
3.6612263e-07
3.6621268e-07
3.6522459e-07
3.6259847e-07
3.5736382e-07
3.4695726e-07
1.9809383e-07
1.99858e-07
2.0184601e-07
2.0399985e-07
2.0625583e-07
2.085509e-07
2.1082822e-07
2.130403e-07
2.1514899e-07
2.1712498e-07
2.1894786e-07
2.2060662e-07
2.221005e-07
2.2343949e-07
2.2464267e-07
2.2572053e-07
2.2667956e-07
2.2749037e-07
2.2810506e-07
2.2848671e-07
2.2858194e-07
2.2827831e-07
2.2735992e-07
2.2539447e-07
2.2115589e-07
1.3267244e-07
1.3355739e-07
1.3454939e-07
1.3561601e-07
1.3672127e-07
1.3782906e-07
1.3890625e-07
1.3992499e-07
1.4086342e-07
1.4170581e-07
1.424428e-07
1.4307221e-07
1.436e-07
1.4404172e-07
1.4442673e-07
1.4480648e-07
1.4522028e-07
1.4561108e-07
1.4589483e-07
1.4605728e-07
1.4609528e-07
1.4597614e-07
1.4560977e-07
1.4478298e-07
1.4288769e-07
9.2956158e-08
9.3409402e-08
9.3915947e-08
9.4458231e-08
9.5016162e-08
9.5569483e-08
9.609936e-08
9.6589715e-08
9.702811e-08
9.7406063e-08
9.7719165e-08
9.7967587e-08
9.8156594e-08
9.8297563e-08
9.840978e-08
9.8524265e-08
9.8679751e-08
9.8921077e-08
9.9116434e-08
9.922787e-08
9.9265783e-08
9.9223223e-08
9.9056715e-08
9.8651583e-08
9.769091e-08
6.9946528e-08
7.0204485e-08
7.0493898e-08
7.0805168e-08
7.1127294e-08
7.1448826e-08
7.1759023e-08
7.2048569e-08
7.23101e-08
7.2538586e-08
7.2731411e-08
7.2888604e-08
7.3013194e-08
7.3111862e-08
7.3196092e-08
7.3284311e-08
7.3400101e-08
7.358763e-08
7.3792933e-08
7.3931487e-08
7.4011942e-08
7.4034136e-08
7.397401e-08
7.3766336e-08
7.3231913e-08
5.7369517e-08
5.7547545e-08
5.7749613e-08
5.7970395e-08
5.8203636e-08
5.8442716e-08
5.8681174e-08
5.8913228e-08
5.9134065e-08
5.934005e-08
5.9528891e-08
5.9699777e-08
5.9853673e-08
5.9993815e-08
6.0126485e-08
6.0262133e-08
6.0416785e-08
6.0613942e-08
6.0859291e-08
6.104488e-08
6.1177044e-08
6.125652e-08
6.12672e-08
6.1166714e-08
6.0835941e-08
5.1090577e-08
5.1239693e-08
5.141114e-08
5.1601768e-08
5.1807734e-08
5.2024819e-08
5.2248738e-08
5.2475385e-08
5.2701072e-08
5.2922663e-08
5.3137721e-08
5.3344696e-08
5.354318e-08
5.3734319e-08
5.3921399e-08
5.4110716e-08
5.4312965e-08
5.4541582e-08
5.4819044e-08
5.5043059e-08
5.5216409e-08
5.5338121e-08
5.5394051e-08
5.534899e-08
5.510259e-08
4.8500059e-08
4.86396e-08
4.8801416e-08
4.8983382e-08
4.9182799e-08
4.9396572e-08
4.9621404e-08
4.9853963e-08
5.0091031e-08
5.0329657e-08
5.0567304e-08
5.0802037e-08
5.1032755e-08
5.1259517e-08
5.1483985e-08
5.1710083e-08
5.1945019e-08
5.2200713e-08
5.2494515e-08
5.2741536e-08
5.2940405e-08
5.3087936e-08
5.3169857e-08
5.3153229e-08
5.2947755e-08
4.8006677e-08
4.8141789e-08
4.8299077e-08
4.8476859e-08
4.8672931e-08
4.8884704e-08
4.9109334e-08
4.9343861e-08
4.9585347e-08
4.9831013e-08
5.0078398e-08
5.0325526e-08
5.0571101e-08
5.0814745e-08
5.1057329e-08
5.1301504e-08
5.155262e-08
5.1820391e-08
5.2118206e-08
5.2374474e-08
5.2585201e-08
5.2745156e-08
5.2839152e-08
5.2834482e-08
5.2642327e-08
4.8667153e-08
4.8797556e-08
4.8949472e-08
4.9121392e-08
4.9311338e-08
4.9516974e-08
4.9735722e-08
4.9964891e-08
5.0201804e-08
5.0443941e-08
5.0689074e-08
5.0935422e-08
5.1181788e-08
5.1427726e-08
5.1673778e-08
5.1921885e-08
5.2176164e-08
5.2444411e-08
5.2737362e-08
5.2993237e-08
5.3206339e-08
5.3369608e-08
5.3466641e-08
5.3464124e-08
5.3272613e-08
4.9936176e-08
5.0060227e-08
5.0204577e-08
5.0367802e-08
5.0548062e-08
5.0743209e-08
5.0950896e-08
5.1168701e-08
5.1394247e-08
5.162534e-08
5.1860087e-08
5.2097015e-08
5.2335173e-08
5.2574234e-08
5.2814644e-08
5.3057916e-08
5.3307218e-08
5.356847e-08
5.3851751e-08
5.4101645e-08
5.4311517e-08
5.4472694e-08
5.4567363e-08
5.4560716e-08
5.4362153e-08
5.1506383e-08
5.1622693e-08
5.1757747e-08
5.1910189e-08
5.207831e-08
5.226015e-08
5.2453603e-08
5.2656532e-08
5.2866889e-08
5.3082833e-08
5.3302842e-08
5.3525794e-08
5.3751037e-08
5.3978441e-08
5.4208475e-08
5.4442401e-08
5.4682716e-08
5.4934073e-08
5.5204718e-08
5.5445752e-08
5.56495e-08
5.5805747e-08
5.5895115e-08
5.5880529e-08
5.5666278e-08
5.3209141e-08
5.3316992e-08
5.344191e-08
5.3582613e-08
5.3737533e-08
5.3904904e-08
5.4082868e-08
5.426958e-08
5.4463319e-08
5.4662599e-08
5.4866256e-08
5.5073519e-08
5.5284043e-08
5.5497919e-08
5.5715692e-08
5.5938472e-08
5.6168242e-08
5.6408598e-08
5.6665939e-08
5.6897129e-08
5.7093556e-08
5.7243569e-08
5.7326202e-08
5.7301921e-08
5.7069272e-08
5.4954255e-08
5.5053536e-08
5.5168232e-08
5.5297151e-08
5.5438865e-08
5.5591807e-08
5.5754357e-08
5.592495e-08
5.6102175e-08
5.6284873e-08
5.6472218e-08
5.6663764e-08
5.6859455e-08
5.7059602e-08
5.7264849e-08
5.7476204e-08
5.7695235e-08
5.7924622e-08
5.8169081e-08
5.8390506e-08
5.8579347e-08
5.8722657e-08
5.8797967e-08
5.8763583e-08
5.851379e-08
5.6694185e-08
5.678518e-08
5.6890051e-08
5.7007697e-08
5.7136833e-08
5.7276075e-08
5.7424028e-08
5.7579382e-08
5.7741006e-08
5.7908038e-08
5.8079955e-08
5.8256605e-08
5.8438197e-08
5.8625248e-08
5.8818507e-08
5.9018911e-08
5.9227683e-08
5.9446717e-08
5.9679277e-08
5.9891412e-08
6.0072827e-08
6.0209378e-08
6.0277193e-08
6.02326e-08
5.996297e-08
5.8403442e-08
5.8486646e-08
5.8582334e-08
5.8689492e-08
5.880697e-08
5.8933554e-08
5.906805e-08
5.9209376e-08
5.9356648e-08
5.950927e-08
5.9666984e-08
5.9829901e-08
5.999847e-08
6.0173397e-08
6.035553e-08
6.0545759e-08
6.0745013e-08
6.0954509e-08
6.117625e-08
6.1379757e-08
6.1554083e-08
6.1683984e-08
6.1744234e-08
6.168898e-08
6.1400372e-08
6.0067214e-08
6.0143208e-08
6.023044e-08
6.0327987e-08
6.0434817e-08
6.0549869e-08
6.0672127e-08
6.080071e-08
6.0934953e-08
6.1074488e-08
6.1219296e-08
6.1369718e-08
6.1526415e-08
6.1690265e-08
6.1862208e-08
6.2043098e-08
6.2233616e-08
6.2434395e-08
6.2646343e-08
6.2841881e-08
6.3009478e-08
6.3132901e-08
6.318568e-08
6.3120026e-08
6.2813577e-08
6.1675385e-08
6.1744766e-08
6.1824282e-08
6.1913087e-08
6.2010262e-08
6.2114881e-08
6.2226084e-08
6.2343164e-08
6.2465648e-08
6.2593368e-08
6.2726512e-08
6.2865624e-08
6.3011554e-08
6.3165328e-08
6.3327973e-08
6.3500314e-08
6.3682821e-08
6.3875619e-08
6.4078671e-08
6.4266809e-08
6.4427981e-08
6.4545067e-08
6.4590474e-08
6.4514654e-08
6.4191173e-08
6.3219631e-08
6.3282983e-08
6.3355491e-08
6.3436384e-08
6.3524842e-08
6.3620057e-08
6.3721307e-08
6.3828036e-08
6.3939937e-08
6.4057018e-08
6.4179645e-08
6.430854e-08
6.4444714e-08
6.4589328e-08
6.4743482e-08
6.4907976e-08
6.5083095e-08
6.5268531e-08
6.546343e-08
6.5644607e-08
6.5799555e-08
6.591035e-08
6.5948322e-08
6.5862027e-08
6.5516529e-08
6.4692172e-08
6.4750056e-08
6.481623e-08
6.4889991e-08
6.4970606e-08
6.5057372e-08
6.5149686e-08
6.5247126e-08
6.5349526e-08
6.5457045e-08
6.5570203e-08
6.5689876e-08
6.5817214e-08
6.5953488e-08
6.6099863e-08
6.6257113e-08
6.6425364e-08
6.6603931e-08
6.6791262e-08
6.696577e-08
6.711457e-08
6.7219015e-08
6.7249435e-08
6.715258e-08
6.6788417e-08
6.6085401e-08
6.6138357e-08
6.6198838e-08
6.6266202e-08
6.6339794e-08
6.6419002e-08
6.6503326e-08
6.6592459e-08
6.6686356e-08
6.6785305e-08
6.6889958e-08
6.7001319e-08
6.7120654e-08
6.7249326e-08
6.7388547e-08
6.7539066e-08
6.7700867e-08
6.7872936e-08
6.8053123e-08
6.8221093e-08
6.8363685e-08
6.8461635e-08
6.8484379e-08
6.837705e-08
6.7994939e-08
6.7391941e-08
6.7440491e-08
6.7495891e-08
6.7557557e-08
6.76249e-08
6.7697387e-08
6.7774608e-08
6.7856351e-08
6.7942676e-08
6.8033979e-08
6.8131021e-08
6.823491e-08
6.8347006e-08
6.8468743e-08
6.8601365e-08
6.874559e-08
6.8901271e-08
6.9067107e-08
6.9240391e-08
6.9401767e-08
6.9537943e-08
6.962916e-08
6.9644141e-08
6.9526707e-08
6.9128071e-08
6.8604853e-08
6.8649502e-08
6.8700411e-08
6.8757045e-08
6.8818875e-08
6.8885433e-08
6.8956386e-08
6.9031604e-08
6.9111231e-08
6.9195753e-08
6.9286019e-08
6.9383218e-08
6.9488783e-08
6.96042e-08
6.9730726e-08
6.986904e-08
7.0018887e-08
7.0178742e-08
7.0345036e-08
7.0499517e-08
7.0628897e-08
7.0713035e-08
7.0720177e-08
7.0593361e-08
7.0181073e-08
6.9717873e-08
6.9759107e-08
6.980609e-08
6.9858327e-08
6.9915339e-08
6.9976716e-08
7.0042187e-08
7.0111688e-08
7.0185437e-08
7.0263988e-08
7.0348257e-08
7.0439499e-08
7.0539199e-08
7.0648873e-08
7.0769775e-08
7.0902539e-08
7.1046883e-08
7.1201594e-08
7.1359709e-08
7.1506638e-08
7.1628648e-08
7.1705257e-08
7.1704534e-08
7.1569671e-08
7.1149695e-08
7.0725648e-08
7.0763933e-08
7.0807521e-08
7.0855953e-08
7.0908792e-08
7.0965677e-08
7.1026389e-08
7.1090919e-08
7.115954e-08
7.1232861e-08
7.1311853e-08
7.1397817e-08
7.1492275e-08
7.1596757e-08
7.1712482e-08
7.1839987e-08
7.197891e-08
7.2127878e-08
7.2277041e-08
7.2415674e-08
7.2529618e-08
7.2598116e-08
7.2589384e-08
7.2448152e-08
7.2035647e-08
7.1624085e-08
7.1659847e-08
7.1700519e-08
7.1745673e-08
7.1794906e-08
7.1847898e-08
7.1904474e-08
7.1964669e-08
7.2028804e-08
7.2097529e-08
7.2171858e-08
7.2253127e-08
7.2342884e-08
7.2442659e-08
7.2553602e-08
7.2676006e-08
7.2808787e-08
7.2948807e-08
7.3088921e-08
7.3218815e-08
7.3324022e-08
7.3383638e-08
7.3366036e-08
7.3216626e-08
7.2798622e-08
7.2402317e-08
7.2435953e-08
7.2474165e-08
7.2516543e-08
7.2562716e-08
7.2612395e-08
7.2665436e-08
7.2721909e-08
7.2782158e-08
7.2846851e-08
7.2917001e-08
7.2993931e-08
7.3079145e-08
7.3174093e-08
7.3279806e-08
7.3396407e-08
7.3522539e-08
7.3654687e-08
7.3786277e-08
7.3907252e-08
7.4003137e-08
7.4053073e-08
7.4025635e-08
7.3866548e-08
7.3438328e-08
7.304398e-08
7.3075902e-08
7.3112132e-08
7.315228e-08
7.3195995e-08
7.3243016e-08
7.3293223e-08
7.3346706e-08
7.3403822e-08
7.3465236e-08
7.3531944e-08
7.3605236e-08
7.3686561e-08
7.3777277e-08
7.3878292e-08
7.398957e-08
7.4109548e-08
7.4234499e-08
7.4357915e-08
7.4469851e-08
7.4555943e-08
7.4595537e-08
7.4557587e-08
7.4388555e-08
7.3953053e-08
7.3533181e-08
7.3563751e-08
7.359842e-08
7.3636809e-08
7.3678591e-08
7.3723526e-08
7.3771508e-08
7.3822647e-08
7.3877303e-08
7.3936115e-08
7.4000043e-08
7.4070345e-08
7.4148419e-08
7.4235537e-08
7.43325e-08
7.443914e-08
7.4553686e-08
7.4672079e-08
7.4787688e-08
7.4890607e-08
7.4966657e-08
7.4995551e-08
7.4946858e-08
7.476823e-08
7.4328793e-08
7.3842111e-08
7.3871669e-08
7.390514e-08
7.394217e-08
7.3982486e-08
7.4025846e-08
7.4072131e-08
7.4121487e-08
7.4174278e-08
7.4231096e-08
7.429284e-08
7.4360755e-08
7.4436233e-08
7.452044e-08
7.4614176e-08
7.4717271e-08
7.482779e-08
7.4940753e-08
7.5049287e-08
7.5143559e-08
7.5209724e-08
7.5228079e-08
7.5169147e-08
7.4982657e-08
7.4546e-08
7.391385e-08
7.3942774e-08
7.3975383e-08
7.4011425e-08
7.4050885e-08
7.4093233e-08
7.4138294e-08
7.4186338e-08
7.4237781e-08
7.4293139e-08
7.4353225e-08
7.4419359e-08
7.4493117e-08
7.4575223e-08
7.4666871e-08
7.4768571e-08
7.4879032e-08
7.4989136e-08
7.509214e-08
7.5178736e-08
7.5235812e-08
7.5244604e-08
7.517698e-08
7.4985471e-08
7.4556672e-08
7.3579001e-08
7.3607818e-08
7.3639907e-08
7.3675568e-08
7.3716399e-08
7.3758754e-08
7.3803022e-08
7.3850029e-08
7.3900412e-08
7.3954621e-08
7.4013391e-08
7.4078526e-08
7.4152925e-08
7.4233891e-08
7.4324855e-08
7.4430545e-08
7.4560631e-08
7.4674908e-08
7.4775207e-08
7.4855827e-08
7.4905454e-08
7.4906836e-08
7.4833849e-08
7.464401e-08
7.4240663e-08
)
;

boundaryField
{
    Walls
    {
        type            nutUWallFunction;
        Cmu             0.09;
        kappa           0.41;
        E               9.8;
        value           uniform 0;
    }
    Inlet
    {
        type            calculated;
        value           nonuniform List<scalar> 3(1.7685265e-05 1.1851403e-05 8.1971294e-07);
    }
    Outlet
    {
        type            calculated;
        value           nonuniform List<scalar> 
86
(
7.350639e-08
7.3510836e-08
7.3520566e-08
7.3535231e-08
7.3554714e-08
7.3579001e-08
7.3607818e-08
7.3639907e-08
7.3675568e-08
7.3716399e-08
7.3758754e-08
7.3803022e-08
7.3850029e-08
7.3900412e-08
7.3954621e-08
7.4013391e-08
7.4078526e-08
7.4152925e-08
7.4233891e-08
7.4324855e-08
7.4430545e-08
7.4560631e-08
7.4674908e-08
7.4775207e-08
7.4855827e-08
7.4905454e-08
7.4906836e-08
7.4833849e-08
7.464401e-08
7.4240663e-08
1.4322458e-05
1.4870778e-05
1.3455965e-05
0
0
0
0
4.6508794e-06
4.5744037e-06
4.0603574e-06
0
0
0
0
1.4040098e-06
1.0771807e-06
7.7949644e-07
5.3229089e-07
3.4695726e-07
2.2115589e-07
1.4288769e-07
9.769091e-08
7.3231913e-08
6.0835941e-08
5.510259e-08
5.2947755e-08
5.2642327e-08
5.3272613e-08
5.4362153e-08
5.5666278e-08
5.7069272e-08
5.851379e-08
5.996297e-08
6.1400372e-08
6.2813577e-08
6.4191173e-08
6.5516529e-08
6.6788417e-08
6.7994939e-08
6.9128071e-08
7.0181073e-08
7.1149695e-08
7.2035647e-08
7.2798622e-08
7.3438328e-08
7.3953053e-08
7.4328793e-08
7.4546e-08
7.4556672e-08
7.4240663e-08
0
0
0
0
1.320262e-05
1.483891e-05
)
;
    }
    Front
    {
        type            wedge;
    }
    Back
    {
        type            wedge;
    }
    defaultFaces
    {
        type            empty;
    }
}


// ************************************************************************* //
