/*--------------------------------*- C++ -*----------------------------------*\
| =========                 |                                                 |
| \\      /  F ield         | OpenFOAM: The Open Source CFD Toolbox           |
|  \\    /   O peration     | Version:  4.0                                   |
|   \\  /    A nd           | Web:      www.OpenFOAM.org                      |
|    \\/     M anipulation  |                                                 |
\*---------------------------------------------------------------------------*/
FoamFile
{
    version     2.0;
    format      ascii;
    class       volScalarField;
    location    "0.46";
    object      omega;
}
// * * * * * * * * * * * * * * * * * * * * * * * * * * * * * * * * * * * * * //

dimensions      [0 0 -1 0 0 0 0];

internalField   nonuniform List<scalar> 
1740
(
58.441947
611.20305
14917.76
160.46142
1317.2352
15027.74
278.96991
1872.3371
15115.74
387.72712
2257.6591
15198.954
502.89715
2542.5742
15270.056
615.33417
2806.8085
15322.819
727.14866
3054.8118
15367.654
840.65671
3234.1295
15405.525
955.67904
3366.4385
15437.214
1052.5127
3479.5558
15464.069
1157.3957
3647.8769
15492.615
1295.7178
3847.7781
15510.457
1382.5148
3916.4298
15518.45
1443.4334
3878.2369
15530.414
1488.6912
3906.2249
15536.456
1543.4892
3947.5417
15544.308
1597.4363
4005.1809
15556.127
1652.5239
4067.5701
15561.371
1708.4805
4044.5162
15560.977
1764.9493
4038.2416
15565.045
1808.9135
4077.3857
15571.481
1827.8572
4126.814
15566.644
1848.8214
4123.762
15568.521
1875.827
4094.3841
15577.152
1921.7653
4145.358
15577.1
1948.8413
4195.8821
15573.962
1960.5916
4212.1064
15569.586
1990.7914
4255.7028
15565.747
2017.9218
4225.5957
15558.226
2140.0862
4305.5632
15499.28
3198.5983
4567.3008
10710.261
3332.0828
4228.9342
5916.8878
1573.5828
1859.6213
2152.6224
824.53363
899.18929
957.2384
478.42543
496.48175
506.43261
300.967
304.60299
304.58444
201.57807
201.84177
200.31548
142.13918
141.7871
140.49126
104.78
104.43533
103.57172
80.329454
80.090109
79.557151
63.782679
63.632146
63.312393
52.296762
52.205528
52.015335
44.202044
44.147282
44.033737
38.480086
38.446983
38.378182
34.477776
34.45735
34.414604
31.746489
31.733556
31.706175
29.953334
29.945006
29.927016
28.836783
28.831513
28.819608
28.186446
28.183352
28.175529
27.820184
27.817839
27.811763
27.567082
27.564763
27.559354
27.369231
27.367194
27.362515
27.201374
27.199667
27.195687
27.04841
27.047068
27.043776
26.901988
26.901059
26.898471
26.7589
26.758392
26.75649
26.620253
26.620093
26.61878
26.489879
26.489939
26.489061
26.371888
26.372045
26.371448
26.268712
26.268884
26.268456
26.180439
26.180588
26.180259
26.105097
26.105209
26.104942
26.039186
26.039263
26.039037
25.977984
25.978033
25.977836
25.915441
25.915468
25.915295
25.843646
25.843658
25.843506
25.751907
25.751909
25.751776
25.625447
25.625445
25.625333
25.443782
25.443779
25.443689
25.178789
25.17879
25.178727
24.792622
24.792632
24.792601
24.235687
24.235712
24.235721
23.445088
23.44513
23.445186
22.344247
22.344304
22.344407
20.847291
20.847361
20.847504
18.863871
18.863944
18.864103
16.308967
16.309016
16.309135
13.124751
13.124747
13.124765
9.3032353
9.3031795
9.3030962
4.9139784
4.9139213
4.9138341
13479.453
13533.9
5982.8489
5323.4121
2082.8461
1881.0771
922.10421
854.0178
489.94851
463.12625
296.32722
284.35939
195.92433
190.12402
138.08313
135.10785
102.22366
100.6292
78.78924
77.903471
62.868681
62.362663
51.755506
51.45963
43.879084
43.701916
38.283905
38.17454
34.355262
34.284955
31.667391
31.620094
29.900774
29.867583
28.801423
28.77734
28.162656
28.144655
27.801598
27.787111
27.55062
27.538231
27.354971
27.344199
27.189155
27.17967
27.038156
27.029762
26.893717
26.886319
26.752561
26.74612
26.615603
26.610097
26.486527
26.481916
26.369439
26.365654
26.266866
26.263808
26.178997
26.176555
26.103936
26.101995
26.038229
26.036685
25.977181
25.975946
25.914759
25.913762
25.843064
25.842252
25.75141
25.750744
25.625032
25.624486
25.443448
25.443006
25.178545
25.178199
24.792482
24.792233
24.235672
24.235526
23.445217
23.445186
22.344523
22.344614
20.847698
20.847907
18.864337
18.864622
16.309334
16.309624
13.124855
13.125111
9.3030911
9.303435
4.9138529
4.914413
12058.187
2043.19
696.42371
369.02625
281.21006
256.98502
249.85104
246.81547
244.47732
242.09111
239.57679
236.83868
234.01225
231.10969
228.0969
224.90954
221.43377
217.47295
212.69349
206.53992
198.08888
185.78245
166.90428
136.34746
82.172592
12058.133
2037.0981
697.62049
374.62407
283.17255
254.3434
242.81261
235.60296
229.50296
223.7157
218.04554
212.42986
206.93228
201.53458
196.21534
190.94626
185.67051
180.28373
174.59818
168.29062
160.80857
151.18275
137.60941
116.37205
78.028313
12058.179
2030.4843
718.62353
430.74447
359.39512
332.4597
315.08661
300.58464
287.34566
274.79586
262.81871
251.23486
240.26254
229.8055
219.80227
210.2389
201.09412
192.32124
183.81924
175.40918
166.77683
157.33995
145.89207
129.47572
98.780431
12058.528
2031.8201
817.6775
609.00675
550.14569
512.93464
479.90493
449.37882
421.38993
395.07151
370.39034
347.3774
326.16669
306.30138
287.63807
270.18334
253.92446
238.82839
224.83989
211.86753
199.77039
188.32198
177.08201
164.86869
146.4203
12061.539
2150.8641
1232.6397
1078.7228
989.94573
907.09589
828.60004
757.17694
693.27436
634.17868
579.83869
530.19957
486.094
445.80075
408.81236
375.13555
344.63289
317.13135
292.45065
270.39747
250.77611
233.41193
218.19159
205.28826
195.77919
12087.248
3818.3286
2806.7411
2403.1071
2095.0574
1826.3396
1591.0709
1387.817
1211.8954
1060.0762
929.29384
816.71534
719.80139
636.12679
563.76567
501.21072
447.16687
400.50462
360.2493
325.56764
295.75306
270.23277
248.60377
230.96304
218.54765
10356.539
7896.488
6092.2483
4784.2551
3815.9804
3081.8014
2513.2474
2066.3735
1711.7154
1428.1207
1199.7985
1014.8614
864.32386
741.24718
640.14019
556.64932
487.33983
429.51419
381.0581
340.31271
305.97552
277.04369
252.80428
233.13906
219.33016
4086.0539
3303.8001
2841.1688
2466.5911
2147.7522
1867.3822
1622.7123
1411.144
1229.7684
1074.2986
940.92721
826.22965
727.22605
641.75591
567.97971
504.30647
449.36236
401.97218
361.13523
326.00212
295.85677
270.12127
248.38315
230.71963
218.32036
1594.4065
1399.938
1269.8064
1161.5785
1059.3323
962.02472
873.30436
794.24261
722.19779
656.92565
598.53466
546.88848
499.45555
456.11301
416.73763
381.13703
349.08097
320.33758
294.67623
271.88066
251.75334
234.1266
218.88998
206.19718
197.0097
771.34891
708.05822
661.78618
621.16849
580.77696
540.60724
502.99946
468.33475
436.1996
406.56668
379.48147
354.66798
331.44128
309.70298
289.44328
270.64985
253.29331
237.33237
222.71633
209.38126
197.23325
186.10611
175.63229
164.74823
148.62778
433.90142
410.14039
391.38474
374.1178
356.33843
338.01798
320.12385
303.08627
286.98409
271.87102
257.75799
244.5213
231.95351
220.01128
208.72429
198.08915
188.09913
178.73351
169.9476
161.6498
153.64715
145.51081
136.20959
122.96405
96.666819
271.98926
261.54084
252.85878
244.67471
236.13392
227.16952
218.14833
209.33362
200.84639
192.74488
185.03818
177.67758
170.5909
163.75562
157.18458
150.88179
144.8385
139.02472
133.37373
127.74991
121.88035
115.20401
106.51637
93.036977
67.239611
184.27362
179.17177
174.7497
170.51305
166.08396
161.39478
156.57966
151.77976
147.08419
142.53891
138.15448
133.91265
129.7845
125.75502
121.81983
117.96955
114.18205
110.41226
106.57573
102.51856
97.960887
92.387804
84.825593
73.296093
52.595626
132.13113
129.46284
127.07386
124.75795
122.34007
119.77124
117.09861
114.39241
111.70757
109.0752
106.50508
103.98997
101.51477
99.06585
96.630074
94.188018
91.707148
89.132717
86.374287
83.284492
79.626999
75.03573
68.997837
61.038958
51.390391
99.03389
97.569716
96.225292
94.910573
93.542026
92.087722
90.562429
88.999422
87.42916
85.871035
84.331499
82.806397
81.284816
79.752576
78.19155
76.57587
74.866718
73.005461
70.904355
68.434844
65.416884
61.62506
56.867824
51.316768
46.46428
77.013828
76.181123
75.401513
74.634406
73.838475
72.994101
72.104418
71.184316
70.249505
69.310419
68.369988
67.423828
66.461652
65.468155
64.4222
63.294219
62.04243
60.607903
58.908675
56.833968
54.242718
50.979215
46.941108
42.283264
37.382518
61.850746
61.363293
60.90004
60.442053
59.968421
59.467239
58.937681
58.385672
57.818404
57.240369
56.651347
56.045796
55.412816
54.735984
53.992325
53.150266
52.166758
50.98365
49.523428
47.684706
45.338049
42.320565
38.409963
33.153474
24.669484
51.157108
50.864212
50.581993
50.301647
50.012301
49.706806
49.383199
49.043044
48.688784
48.321172
47.937612
47.531246
47.090348
46.59755
46.028685
45.350994
44.52076
43.480291
42.1541
40.44364
38.218357
35.294795
31.372755
25.808681
16.749817
43.518046
43.336582
43.158942
42.981064
42.797281
42.603192
42.396731
42.177481
41.945254
41.698508
41.433035
41.140903
40.809606
40.421013
39.950086
39.363203
38.616018
37.650762
36.392631
34.744248
32.575537
29.701825
25.830284
20.413375
12.19953
38.058657
37.941481
37.824243
37.705127
37.581169
37.449658
37.308686
37.156971
36.992954
36.813759
36.614107
36.385295
36.114174
35.781981
35.362949
34.822655
34.116031
33.184967
31.95522
30.33192
28.191983
25.369722
21.62828
16.601582
9.6206902
34.208406
34.128525
34.046206
33.960651
33.870251
33.773292
33.668169
33.553234
33.426241
33.283546
33.119211
32.923987
32.68421
32.380548
31.986547
31.466986
30.776025
29.855194
28.631166
27.013204
24.889828
22.123793
18.544931
13.943581
8.0072729
31.56678
31.508961
31.447175
31.381043
31.309646
31.231814
31.146195
31.051058
30.943814
30.820407
30.674475
30.496355
30.271937
29.981349
29.597468
29.084289
28.395248
27.471617
26.241214
24.617875
22.502175
19.783712
16.346529
12.08778
6.9292864
29.828572
29.784381
29.735219
29.680845
29.620672
29.553845
29.479182
29.394935
29.298382
29.185227
29.048815
28.879139
28.661661
28.375954
27.994226
27.479784
26.785512
25.852641
24.610151
22.975743
20.859519
18.170872
14.829376
10.788302
6.0659455
28.74764
28.712378
28.671484
28.624727
28.571669
28.511627
28.443524
28.365627
28.275133
28.167592
28.036116
27.870368
27.655343
27.369992
26.985851
26.465695
25.762176
24.816931
23.560185
21.912359
19.789614
17.113404
13.822941
9.8929843
5.3549776
28.12133
28.092309
28.057322
28.016082
27.968188
27.91301
27.849502
27.775914
27.68937
27.585269
27.456488
27.292323
27.077218
26.789385
26.399567
25.87027
25.154252
24.194438
22.922845
21.261591
19.129804
16.455161
13.187704
9.3164882
4.8986669
27.767974
27.743752
27.714078
27.678553
27.636655
27.587607
27.530193
27.462465
27.381316
27.281879
27.156697
26.994624
26.779487
26.48866
26.091818
25.551064
24.819199
23.842289
22.55584
20.882776
18.742732
16.06595
12.808886
8.9728069
4.6554861
27.521815
27.500969
27.475287
27.44432
27.407497
27.364001
27.31257
27.251217
27.176808
27.084461
26.966733
26.812523
26.60569
26.323379
25.933644
25.392213
24.647429
23.652042
22.351861
20.67006
18.524826
15.846979
12.597188
8.7862048
4.523786
27.329794
27.311333
27.288382
27.260461
27.226969
27.18706
27.139452
27.082137
27.011973
26.924106
26.811178
26.662278
26.461585
26.186668
25.806343
25.278071
24.547182
23.545873
22.237257
20.551553
18.405323
15.729316
12.486946
8.6946129
4.4652103
27.166791
27.150063
27.129026
27.103182
27.071915
27.034371
26.989265
26.934602
26.867282
26.782542
26.673192
26.528589
26.333287
26.065304
25.693987
25.177504
24.461874
23.475744
22.166987
20.482938
18.339772
15.668341
12.433802
8.6554191
4.4621771
27.018118
27.002731
26.983122
26.958786
26.929117
26.893279
26.850023
26.797421
26.73248
26.650594
26.54479
26.404689
26.215132
25.954443
25.592329
25.087603
24.386115
23.419815
22.117253
20.43943
18.302273
15.63692
12.408938
8.6363261
4.4438655
26.875772
26.861546
26.843158
26.820124
26.791876
26.757638
26.716249
26.665896
26.603733
26.525327
26.423881
26.289175
26.106177
25.853301
25.500367
25.006398
24.317566
23.367585
22.076983
20.408447
18.278893
15.620435
12.399348
8.6343096
4.4553243
26.736655
26.723607
26.706516
26.684947
26.658404
26.626204
26.587294
26.539986
26.481559
26.40769
26.311656
26.183261
26.007449
25.762593
25.418517
24.934399
24.256889
23.319135
22.042652
20.384179
18.262477
15.610928
12.396911
8.6402259
4.486352
26.601767
26.590058
26.574552
26.554882
26.530632
26.501206
26.465641
26.422329
26.368604
26.300163
26.210254
26.088611
25.920072
25.682918
25.346953
24.871476
24.203455
23.276443
22.012931
20.363929
18.249557
15.604484
12.397452
8.6484039
4.4961574
26.474775
26.464585
26.450984
26.433663
26.412265
26.38625
26.354694
26.316005
26.267503
26.204833
26.121156
26.006089
25.844355
25.614146
25.285261
24.817141
24.157107
23.239318
21.986992
20.346364
18.238467
15.599229
12.399627
8.6629268
4.522657
26.359697
26.35111
26.33958
26.32484
26.306562
26.284217
26.256874
26.222905
26.179572
26.122432
26.044542
25.935403
25.779634
25.55537
25.23243
24.77042
24.117047
23.207204
21.964139
20.33069
18.228353
15.594053
12.40092
8.6759795
4.565277
26.258953
26.251909
26.242406
26.230197
26.214956
26.196134
26.172762
26.143154
26.104494
26.052246
25.979367
25.875262
25.724472
25.505098
25.187001
24.729948
24.081978
23.178532
21.943473
20.316225
18.218687
15.588441
12.399718
8.6806833
4.5758389
26.172661
26.16699
26.159304
26.149361
26.136821
26.121103
26.101186
26.075321
26.040614
25.992447
25.923693
25.823681
25.676901
25.461438
25.147205
24.69412
24.05052
23.152326
21.924056
20.302167
18.208841
15.582018
12.396166
8.6783283
4.5693905
26.098898
26.094377
26.088216
26.080172
26.069886
26.056739
26.039663
26.016848
25.985333
25.940434
25.874956
25.778175
25.634544
25.42215
25.110962
24.661037
24.020978
23.127138
21.904629
20.287391
18.197833
15.574026
12.39031
8.6732973
4.5641491
26.034225
26.030626
26.025688
26.019166
26.010679
25.999576
25.984747
25.964332
25.935317
25.892963
25.830027
25.735744
25.594548
25.384534
25.075729
24.628322
23.991151
23.100948
21.883347
20.270252
18.184215
15.563398
12.382353
8.6696595
4.5510948
25.973983
25.971103
25.967118
25.96178
25.95469
25.945171
25.932077
25.913509
25.886413
25.846008
25.785014
25.69264
25.553308
25.34513
25.03819
24.592802
23.95802
23.070918
21.857599
20.248331
18.165794
15.548174
12.36993
8.6606149
4.548984
25.912182
25.909854
25.906602
25.90217
25.896149
25.887839
25.876067
25.858905
25.833266
25.794339
25.734817
25.643891
25.50598
25.299219
24.993753
24.550015
23.917269
23.032913
21.823494
20.218004
18.139291
15.525596
12.351259
8.6466269
4.5434544
25.840967
25.839063
25.83637
25.83263
25.827422
25.82003
25.809262
25.793165
25.768629
25.730819
25.67241
25.582582
25.44576
25.240105
24.935833
24.493504
23.862595
22.980837
21.775231
20.173839
18.099785
15.491533
12.323721
8.6288699
4.5428001
25.749689
25.748114
25.745851
25.742642
25.738056
25.731365
25.72136
25.706073
25.682374
25.645412
25.587849
25.498863
25.362891
25.158135
24.854892
24.413869
23.784786
22.905743
21.704253
20.107793
18.039923
15.439493
12.281355
8.5988813
4.5128967
25.623616
25.6223
25.620375
25.617579
25.613475
25.607326
25.597911
25.583246
25.560191
25.523882
25.466977
25.378659
25.24339
25.03943
24.737183
24.297544
23.67053
22.794689
21.598157
20.008202
17.949027
15.360087
12.216539
8.5518834
4.4877327
25.442291
25.441189
25.439537
25.437073
25.433353
25.427634
25.418684
25.404511
25.381966
25.346181
25.289817
25.202075
25.067463
24.864325
24.563218
24.125289
23.500949
22.629332
21.43938
19.858575
17.812046
15.240144
12.118545
8.4808556
4.4489938
25.177622
25.176705
25.175286
25.1731
25.1697
25.164335
25.15577
25.142006
25.11989
25.084561
25.028695
24.941533
24.807656
24.605542
24.305971
23.870445
23.24992
22.384322
21.203692
19.636224
17.608385
15.061886
11.973394
8.3769067
4.39377
24.791789
24.791044
24.789837
24.7879
24.784782
24.77973
24.771505
24.758109
24.736397
24.701523
24.646203
24.559747
24.42686
24.226224
23.928954
23.497063
22.882266
22.025579
20.858648
19.310874
17.31064
14.801669
11.762322
8.2276555
4.3175739
24.23522
24.234648
24.233648
24.231951
24.229103
24.224352
24.21646
24.20344
24.182165
24.147831
24.093222
24.007769
23.876377
23.678046
23.384384
22.958145
22.352095
21.508611
20.362247
18.843521
16.883671
14.429275
11.461321
8.0173266
4.215748
23.445028
23.444641
23.443858
23.44241
23.439844
23.435411
23.427887
23.415306
23.394584
23.360986
23.307421
23.223515
23.094488
22.899825
22.611863
22.194438
21.601821
20.778475
19.662332
18.185926
16.284289
13.907731
11.040264
7.7206276
4.0618033
22.344617
22.344431
22.343887
22.342713
22.340464
22.336403
22.329333
22.317332
22.29739
22.264892
22.212943
22.131484
22.006216
21.817348
21.538289
21.134434
20.562328
19.769674
18.697067
17.281208
15.461982
13.194352
10.465718
7.3152085
3.8488174
20.848071
20.848091
20.847792
20.846904
20.844994
20.841359
20.834852
20.823635
20.80482
20.773985
20.724543
20.646929
20.527586
20.347798
20.082494
19.699183
19.157292
18.408297
17.397249
16.066276
14.361253
12.242745
9.7018277
6.7769563
3.5635704
18.864915
18.865117
18.865033
18.864397
18.86281
18.85963
18.853801
18.843628
18.82642
18.798025
18.752296
18.680404
18.569874
18.403495
18.158288
17.804612
17.305706
16.617919
15.692186
14.477427
12.926756
11.007273
8.7140401
6.0853734
3.209775
16.310011
16.310411
16.310526
16.310112
16.308868
16.306262
16.301336
16.292661
16.277852
16.253101
16.212842
16.149316
16.051603
15.904488
15.687774
15.375537
14.935966
14.331658
13.52087
12.460606
11.112399
9.4506726
7.4743145
5.2197418
2.7690631
13.125694
13.126582
13.127012
13.126895
13.126334
13.124786
13.121224
13.114745
13.103498
13.084091
13.051649
12.999978
12.92042
12.79999
12.622138
12.365592
12.004788
11.510226
10.848915
9.9868289
8.8948724
7.5553007
5.9703444
4.1731084
2.2354836
9.3046952
9.3070134
9.3082129
9.3089514
9.3113558
9.3124719
9.3111061
9.3075672
9.301019
9.2886869
9.2665931
9.2308904
9.1768035
9.0914563
8.9638038
8.7783913
8.5171542
8.1606149
7.6857589
7.067582
6.2869375
5.33391
4.212713
2.9496611
1.5982223
4.9165238
4.920539
4.9227273
4.925824
4.9388754
4.9447349
4.9459479
4.945198
4.9430691
4.9379658
4.9275139
4.9114527
4.8927814
4.8499315
4.7821505
4.6818437
4.5387147
4.346526
4.0923546
3.7605331
3.3417382
2.8326137
2.2372717
1.5725357
0.86925664
)
;

boundaryField
{
    Walls
    {
        Cmu             0.09;
        kappa           0.41;
        E               9.8;
        beta1           0.075;
        type            omegaWallFunction;
        value           nonuniform List<scalar> 
38
(
12058.187
12058.133
12058.179
12058.528
12061.539
12087.248
13479.453
13533.9
14917.76
15027.74
15115.74
15198.954
15270.056
15322.819
15367.654
15405.525
15437.214
15464.069
15492.615
15510.457
15518.45
15530.414
15536.456
15544.308
15556.127
15561.371
15560.977
15565.045
15571.481
15566.644
15568.521
15577.152
15577.1
15573.962
15569.586
15565.747
15558.226
15499.28
)
;
    }
    Inlet
    {
        type            turbulentMixingLengthDissipationRateInlet;
        mixingLength    0.03;
        phi             phi;
        k               k;
        value           nonuniform List<scalar> 3(0.0043557664 0.0044991591 0.0047064935);
    }
    Outlet
    {
        type            inletOutlet;
        inletValue      uniform 1e-05;
        value           nonuniform List<scalar> 
86
(
4.9139784
4.9139213
4.9138341
4.9138529
4.914413
4.9165238
4.920539
4.9227273
4.925824
4.9388754
4.9447349
4.9459479
4.945198
4.9430691
4.9379658
4.9275139
4.9114527
4.8927814
4.8499315
4.7821505
4.6818437
4.5387147
4.346526
4.0923546
3.7605331
3.3417382
2.8326137
2.2372717
1.5725357
0.86925664
219.33016
218.32036
197.0097
1e-05
1e-05
1e-05
1e-05
51.390391
46.46428
37.382518
1e-05
1e-05
1e-05
1e-05
8.0072729
6.9292864
6.0659455
5.3549776
4.8986669
4.6554861
4.523786
4.4652103
4.4621771
4.4438655
4.4553243
4.486352
4.4961574
4.522657
4.565277
4.5758389
4.5693905
4.5641491
4.5510948
4.548984
4.5434544
4.5428001
4.5128967
4.4877327
4.4489938
4.39377
4.3175739
4.215748
4.0618033
3.8488174
3.5635704
3.209775
2.7690631
2.2354836
1.5982223
0.86925664
1e-05
1e-05
1e-05
1e-05
195.77919
218.54765
)
;
    }
    Front
    {
        type            wedge;
    }
    Back
    {
        type            wedge;
    }
    defaultFaces
    {
        type            empty;
    }
}


// ************************************************************************* //
