/*--------------------------------*- C++ -*----------------------------------*\
| =========                 |                                                 |
| \\      /  F ield         | OpenFOAM: The Open Source CFD Toolbox           |
|  \\    /   O peration     | Version:  4.0                                   |
|   \\  /    A nd           | Web:      www.OpenFOAM.org                      |
|    \\/     M anipulation  |                                                 |
\*---------------------------------------------------------------------------*/
FoamFile
{
    version     2.0;
    format      ascii;
    class       volScalarField;
    location    "0.46";
    object      p;
}
// * * * * * * * * * * * * * * * * * * * * * * * * * * * * * * * * * * * * * //

dimensions      [0 2 -2 0 0 0 0];

internalField   nonuniform List<scalar> 
1740
(
491.39129
491.47569
491.58062
474.59912
474.6946
474.9328
457.8794
457.92346
458.12302
440.89677
440.94119
440.95298
423.98062
423.93408
423.69476
407.16857
407.16116
406.80568
390.98482
391.09276
390.87877
375.34862
375.23159
375.1036
359.14539
359.01234
358.83489
342.64578
342.68017
342.75424
326.61233
326.7091
327.09416
310.67876
310.74657
311.1309
294.24712
294.3145
294.55712
277.56507
277.81174
277.83614
260.95824
261.13004
261.0403
244.45442
244.48686
244.52781
227.9058
227.9608
228.30785
211.33895
211.40648
211.74529
195.03679
195.13112
194.98163
178.50045
178.62574
178.2635
161.97423
162.02253
161.82163
145.74555
145.53005
145.67739
129.22096
128.84313
129.10364
112.3916
112.21207
112.08361
95.828838
95.691743
95.233183
79.409035
79.357558
79.145156
63.009722
63.14093
63.525533
47.045995
46.89481
47.3939
31.293229
31.221743
31.197442
16.355309
16.398959
15.772471
4.3085433
3.7934414
1.7585672
-0.4059697
-0.35296686
-0.23891144
0.013110098
0.016143169
0.015793999
0.10684164
0.10701704
0.094904483
0.098005549
0.097472777
0.092719594
0.084743283
0.083683142
0.080314279
0.07265121
0.07143865
0.068358292
0.062294708
0.061166134
0.058652273
0.053829588
0.052911967
0.050903578
0.047154507
0.04641398
0.044811739
0.041771714
0.041173536
0.039888867
0.037247615
0.036761714
0.035721919
0.03332436
0.032926952
0.032078594
0.029863431
0.029536414
0.028838532
0.026797265
0.026526233
0.02594727
0.024083323
0.023857052
0.023372969
0.021681359
0.021491022
0.021083148
0.01955156
0.019390323
0.019044174
0.01765737
0.017519875
0.01722417
0.015967227
0.015849269
0.015595216
0.014455121
0.014353391
0.014133992
0.01310009
0.013011965
0.01282167
0.011884973
0.011808344
0.011642684
0.01079508
0.010728217
0.010583516
0.0098173178
0.0097587894
0.0096319999
0.0089398016
0.0088884125
0.0087769896
0.0081516512
0.0081063984
0.0080082078
0.0074428962
0.0074029447
0.0073161997
0.0068044102
0.006769058
0.0066922525
0.0062278562
0.0061965077
0.0061283624
0.0057056317
0.0056777786
0.0056172004
0.0052308195
0.0052060285
0.0051520834
0.0047971516
0.0047750531
0.0047269445
0.004398979
0.0043792575
0.0043363056
0.0040312405
0.0040136274
0.0039752519
0.0036894285
0.0036736949
0.0036394021
0.0033695477
0.0033555
0.0033248712
0.0030680816
0.0030555566
0.0030282383
0.0027819722
0.0027708319
0.0027465264
0.0025085955
0.0024987241
0.0024771814
0.002245713
0.0022370133
0.0022180228
0.0019914005
0.0019837921
0.0019671798
0.0017440014
0.0017374185
0.0017230421
0.0015021074
0.0014964967
0.0014842414
0.0012645446
0.0012598631
0.0012496359
0.0010303408
0.0010265536
0.0010182794
0.00079869326
0.00079577373
0.00078939374
0.00056893907
0.00056686703
0.00056233905
0.00034076751
0.00033952924
0.0003368236
0.00011343048
0.00011301815
0.00011211826
-1.1944578
-0.84195084
-0.21357216
-0.17201766
0.00724667
-0.012416718
0.076400264
0.054747333
0.083045832
0.069967596
0.074090821
0.065867999
0.063490237
0.057417317
0.054839885
0.050107543
0.047932456
0.044319874
0.042483227
0.039640961
0.038034905
0.035767686
0.034226725
0.032390618
0.030857697
0.029351866
0.02783267
0.026585263
0.025111113
0.024068901
0.022671989
0.021793829
0.020490589
0.019744751
0.018539565
0.017901856
0.016791914
0.016243188
0.015222782
0.014748114
0.013811521
0.013399083
0.012541315
0.012181612
0.01139809
0.011083335
0.010369434
0.010093208
0.0094440719
0.009201009
0.0086115686
0.0083971527
0.0078622245
0.0076726555
0.0071870683
0.0070190988
0.0065777865
0.0064286535
0.0060266986
0.0058940436
0.005526738
0.0054085338
0.005071454
0.0049659646
0.0046549802
0.00456072
0.0042720074
0.0041876995
0.0039177651
0.0038423147
0.0035879983
0.003520471
0.0032789325
0.0032185345
0.0029872428
0.0029333025
0.0027100345
0.0026619862
0.0024448228
0.0024021899
0.0021894866
0.0021518687
0.0019422081
0.0019092727
0.0017014246
0.0016729005
0.0014658082
0.0014414763
0.0012342496
0.0012139328
0.001005829
0.00098938458
0.00077979254
0.0007671093
0.00055552458
0.00054652187
0.00033275158
0.00032737153
0.00011076417
0.000108975
0.040621231
0.039437048
0.037504349
0.035228595
0.032843822
0.030457335
0.028094896
0.025763242
0.02348536
0.021278137
0.019152267
0.017124256
0.015208847
0.013415538
0.01174744
0.010202551
0.0087748791
0.0074549738
0.006232124
0.0050959622
0.0040375056
0.0030473025
0.0021159103
0.0012356926
0.00040051719
0.04073977
0.039417826
0.037319499
0.034890835
0.032362675
0.029829228
0.02732564
0.024878122
0.022489123
0.020185336
0.018008495
0.015973398
0.01408388
0.012337731
0.010730251
0.0092552513
0.0079074611
0.0066790146
0.005554904
0.0045230811
0.0035728247
0.0026914514
0.0018676494
0.0010945863
0.00036397664
0.036625882
0.034942295
0.032486295
0.02971072
0.02675262
0.023698961
0.020642687
0.01771059
0.015067323
0.012730404
0.010693766
0.008930544
0.0074104152
0.0061038338
0.0049912473
0.0040526135
0.0032652089
0.0026071441
0.0020635878
0.0016173387
0.0012485292
0.00093733767
0.00066697575
0.00042214841
0.0001767982
0.020755422
0.018452705
0.015083211
0.011128922
0.0072324871
0.0037936173
0.00096775063
-0.0012197893
-0.0028886965
-0.0041096873
-0.0049358359
-0.0054568863
-0.0057299385
-0.0057815226
-0.0056514194
-0.0053754386
-0.0049826174
-0.0044963588
-0.0039380964
-0.0033309574
-0.0027012448
-0.0020617717
-0.0014202562
-0.00079181133
-0.00021519467
-0.030913852
-0.033161114
-0.036257221
-0.037072155
-0.036835489
-0.035401253
-0.033488248
-0.031227116
-0.028743453
-0.026171663
-0.023648803
-0.021253431
-0.01895895
-0.01655037
-0.014319981
-0.012293648
-0.01046572
-0.0088222021
-0.0073426845
-0.0060005188
-0.0047640742
-0.0036140284
-0.002538206
-0.0015174336
-0.0005371849
-0.19254641
-0.15265183
-0.13730227
-0.10969573
-0.086873684
-0.066958244
-0.050053707
-0.036423373
-0.025657262
-0.017226705
-0.010695704
-0.0057264879
-0.0020485841
0.00044892345
0.0022026593
0.0033191806
0.0039315254
0.0041484121
0.0040548197
0.0037198835
0.0032023285
0.0025543226
0.0018169217
0.0010314753
0.00019456134
-0.29187643
-0.098268996
-0.052111587
-0.018123753
0.012767634
0.036911613
0.051623947
0.05793577
0.059054528
0.05759196
0.054706239
0.050979135
0.046778303
0.042359653
0.037907388
0.033535147
0.029308074
0.025262113
0.021404353
0.017725307
0.014206621
0.010827546
0.007559734
0.0043895492
0.0012278955
-0.14663697
-0.13288217
-0.11446647
-0.093833212
-0.073880864
-0.056182607
-0.041213215
-0.029167069
-0.019744939
-0.012351005
-0.0067510363
-0.0025931426
0.00040590563
0.0025191023
0.0039196279
0.0047424699
0.0051027327
0.0051145965
0.0048493125
0.0043654321
0.0037132161
0.002938139
0.0020802316
0.0011810793
0.00023508118
-0.03045957
-0.039634987
-0.043724705
-0.044742723
-0.043825203
-0.041552271
-0.038768968
-0.035687801
-0.032429193
-0.029347168
-0.026337079
-0.02333344
-0.020454484
-0.017799812
-0.01538386
-0.013205298
-0.011258715
-0.0094650264
-0.0078395204
-0.0063692001
-0.0050341961
-0.0038115198
-0.0026793022
-0.0016094152
-0.00057753774
0.036461741
0.02300615
0.012940318
0.0054553231
-0.00012476
-0.0041675088
-0.0070366863
-0.0089580363
-0.010133447
-0.010780724
-0.011013958
-0.010939682
-0.010612525
-0.010085235
-0.0094069079
-0.0086121888
-0.0077238786
-0.0068268414
-0.005903354
-0.0049588246
-0.0040027755
-0.0030462185
-0.0021020593
-0.001186197
-0.00033988087
0.05737118
0.046975658
0.038357928
0.031238965
0.025084383
0.019838694
0.015517261
0.011980252
0.0091368394
0.0068581646
0.0050350855
0.0035871491
0.0024527549
0.0015797445
0.00092238719
0.00044930133
0.0001306793
-7.8408665e-05
-0.00019661632
-0.00024061256
-0.00022709399
-0.00017316848
-9.6311221e-05
-1.3032053e-05
4.5098698e-05
0.057173269
0.049613321
0.043337083
0.037867502
0.033169849
0.029009301
0.025220949
0.021738963
0.018709881
0.016097124
0.013819691
0.011845385
0.010133726
0.0086506529
0.00736645
0.0062498176
0.005274019
0.0044107335
0.0036410326
0.0029494131
0.0023221921
0.001747013
0.0012134568
0.00071592018
0.00024771534
0.051106779
0.045288782
0.040349182
0.036017046
0.032209684
0.028825248
0.025788176
0.023096331
0.020585863
0.018246288
0.016120277
0.01420301
0.012471395
0.010913632
0.0095085861
0.0082341966
0.0070719768
0.0060058599
0.0050221634
0.0041092538
0.003257171
0.0024574496
0.0017026889
0.00099063333
0.00032112659
0.045126752
0.040534446
0.036411554
0.032770254
0.029541623
0.026705449
0.02417573
0.021885205
0.019714826
0.01768135
0.015781241
0.014038138
0.012432667
0.010948754
0.0095810426
0.0083273857
0.0071725299
0.00610608
0.0051168373
0.0041951436
0.0033324935
0.0025214095
0.001756162
0.0010292666
0.000333486
0.04042671
0.036669557
0.033193365
0.030045084
0.027260545
0.024767703
0.022529594
0.02048698
0.018605643
0.01684353
0.015198497
0.01363767
0.012171514
0.010797326
0.0095127346
0.0083147501
0.0071957892
0.0061495998
0.0051697752
0.0042501838
0.003384759
0.0025669049
0.001791132
0.0010513418
0.00034087345
0.036550578
0.033467794
0.030540344
0.027839915
0.025391956
0.023179717
0.02117697
0.019349791
0.017664553
0.016087056
0.014603903
0.013193404
0.011854761
0.010585547
0.0093837506
0.0082470942
0.0071727746
0.0061569194
0.0051957974
0.0042856212
0.0034232655
0.002601787
0.001818183
0.001068512
0.00034694047
0.033270893
0.030720294
0.028243889
0.025910792
0.023758778
0.021785918
0.019982035
0.018323488
0.016784765
0.015342552
0.013984516
0.012697661
0.011471588
0.010298846
0.0091764037
0.0081035102
0.0070794854
0.0061015461
0.0051681014
0.0042768398
0.0034251769
0.0026096261
0.0018274167
0.001075712
0.00034996201
0.030345854
0.02821927
0.026110787
0.024089521
0.02219139
0.020429687
0.018798775
0.017285895
0.015872452
0.014544783
0.013293775
0.012106702
0.010975648
0.0098914629
0.0088483748
0.0078452033
0.0068800641
0.0059486148
0.005052998
0.0041922989
0.0033645776
0.0025677625
0.0018000099
0.0010596988
0.00034413063
0.027658713
0.025873334
0.024074284
0.022318845
0.020643122
0.019066023
0.017591369
0.016212526
0.014910371
0.013679872
0.01251815
0.011417795
0.010367797
0.0093623678
0.0083961713
0.0074640828
0.0065621873
0.0056916145
0.0048482132
0.0040313729
0.0032411397
0.0024769337
0.0017379225
0.0010235902
0.00033239567
0.025170944
0.023662068
0.022119701
0.020591384
0.019110271
0.017696443
0.01635884
0.015095018
0.013900037
0.012765846
0.011695034
0.01067775
0.009706202
0.0087747775
0.0078786421
0.0070130368
0.0061749924
0.0053630662
0.0045750307
0.0038097799
0.0030668905
0.0023462104
0.0016477575
0.00097165432
0.00031653605
0.02287762
0.021593027
0.020264071
0.018929855
0.017618987
0.016348896
0.015132015
0.013979504
0.012887067
0.011849448
0.010862552
0.0099217495
0.0090221839
0.0081594041
0.0073295493
0.0065281828
0.0057521902
0.0049995366
0.0042684418
0.0035574753
0.0028660305
0.0021938548
0.0015406189
0.00090926788
0.00029841885
0.020782278
0.019681115
0.018530101
0.017361857
0.016201064
0.01506523
0.01396517
0.012907888
0.011909974
0.010960488
0.010050428
0.0091804372
0.0083477246
0.007548967
0.0067803213
0.0060387063
0.0053212042
0.0046255362
0.0039499175
0.0032929265
0.0026537817
0.0020324022
0.0014274631
0.00084239491
0.00027606244
0.018879848
0.017930727
0.016929718
0.015903966
0.014875084
0.013859221
0.012867748
0.011909324
0.010991051
0.010119518
0.0092793647
0.0084745623
0.0077035377
0.0069635565
0.0062516523
0.005565237
0.0049018905
0.0042594479
0.0036361705
0.0030307876
0.0024423845
0.0018704856
0.0013144249
0.0007754962
0.00025350149
0.017157785
0.016335546
0.015461495
0.014558415
0.013645105
0.012736286
0.011843039
0.01097373
0.010134405
0.0093287223
0.0085570938
0.0078126864
0.0070985708
0.0064128271
0.0057533076
0.0051178839
0.0045045526
0.0039114906
0.0033370873
0.0027800807
0.0022394949
0.0017146349
0.0012048108
0.00071078752
0.00023225707
0.015599556
0.014883878
0.014117833
0.013320659
0.012508649
0.011695001
0.01089
0.010101513
0.0093352894
0.0085950365
0.0078819538
0.0071961431
0.0065354694
0.0059003426
0.0052894836
0.0047012898
0.0041342389
0.003586817
0.0030576051
0.0025453931
0.002049159
0.0015680921
0.0011014662
0.00064980625
0.0002125797
0.01418871
0.013563243
0.012889695
0.012184353
0.011461306
0.010732293
0.0100067
0.0092917829
0.008593006
0.0079142321
0.0072577871
0.0066247824
0.0060142622
0.005427038
0.0048618243
0.0043175499
0.0037933625
0.0032880649
0.0028004213
0.002329332
0.0018738216
0.0014330387
0.001006166
0.00059345285
0.00019430126
0.012910954
0.012362492
0.011768684
0.011143349
0.010498665
0.009844991
0.0091908574
0.0085429368
0.007906435
0.0072851971
0.0066819619
0.0060985637
0.0055351995
0.0049919414
0.0044700952
0.0039667952
0.0034824846
0.0030161274
0.0025666029
0.0021330813
0.0017146978
0.0013105928
0.00091993512
0.00054241142
0.00017741145
0.011754262
0.011271966
0.010747277
0.010191911
0.0096164329
0.0090299548
0.0084401286
0.0078531945
0.0072740033
0.0067063514
0.0061530481
0.0056160886
0.0050966894
0.0045951518
0.0041112277
0.0036469594
0.0032004898
0.0027704363
0.0023557604
0.0019564869
0.0015717636
0.0012006828
0.00084230022
0.00049675862
0.00016296427
0.01070812
0.010282962
0.0098184106
0.0093244567
0.0088102231
0.0082837486
0.0077518817
0.0072203353
0.0066937447
0.0061756883
0.0056689855
0.005175749
0.004697419
0.004234863
0.003788565
0.0033588096
0.0029450602
0.0025474734
0.0021656234
0.0017980711
0.0014440925
0.0011029154
0.00077366741
0.0004560313
0.00014916392
0.0097629048
0.00938728
0.0089752226
0.0085352791
0.0080753476
0.00760249
0.0071228397
0.0066415873
0.0061630949
0.0056907333
0.0052272815
0.0047748634
0.0043350323
0.0039088456
0.00349704
0.0031000364
0.0027178594
0.0023503228
0.0019970855
0.0016573605
0.0013303851
0.0010155205
0.00071195544
0.00041960261
0.0001374296
0.0089095421
0.0085769962
0.0082108859
0.0078185331
0.0074067899
0.0069818635
0.0065492244
0.0061135847
0.00567894
0.0052485085
0.0048249711
0.0044104062
0.0040064016
0.0036141255
0.003234372
0.0028676733
0.0025142837
0.0021741891
0.0018471658
0.0015326614
0.0012300718
0.00093878723
0.00065809909
0.0003879253
0.00012726732
0.0081393902
0.0078444198
0.0075186135
0.0071682618
0.0067993151
0.006417231
0.0060268799
0.0056325183
0.0052377827
0.0048457121
0.0044588297
0.0040791583
0.0037082857
0.0033473988
0.0029973598
0.0026587422
0.0023318892
0.0020169063
0.0017137034
0.0014219588
0.001141216
0.00087095483
0.00061053707
0.00035994721
0.0001182493
0.0074442356
0.0071821172
0.0068917354
0.0065785042
0.0062475933
0.0059037981
0.0055514505
0.0051943752
0.0048358958
0.0044788098
0.0041254872
0.003777856
0.0034374572
0.0031054888
0.0027828348
0.0024701156
0.0021677176
0.0018758178
0.0015944174
0.0013233298
0.0010622404
0.00081075144
0.00056828362
0.00033507416
0.00011019147
0.0068162915
0.0065829677
0.0063237814
0.0060433999
0.0057463169
0.0054367435
0.0051185261
0.0047950989
0.0044694699
0.0041442208
0.003821539
0.0035032428
0.0031908057
0.0028853959
0.0025879032
0.0022989711
0.002019024
0.0017482995
0.0014868578
0.0012346086
0.00099135446
0.00075682487
0.0005305302
0.00031287521
0.00010298747
0.0062482403
0.0060402132
0.0058085508
0.005557277
0.0052903015
0.005011322
0.0047237488
0.0044306565
0.0041347637
0.0038384293
0.0035436697
0.0032521779
0.0029653468
0.0026842967
0.0024099
0.0021428063
0.0018834681
0.0016321604
0.0013890008
0.0011539781
0.00092698353
0.00070786261
0.00049620796
0.00029278118
9.6593102e-05
0.0057332582
0.0055475036
0.0053401682
0.0051147208
0.0048745665
0.0046229521
0.0043628974
0.0040971488
0.0038281559
0.0035580636
0.0032887219
0.0030216983
0.002758297
0.0024995806
0.0022463908
0.0019993714
0.0017589876
0.0015255435
0.0012992027
0.0010800059
0.00086789137
0.00066273463
0.00046413223
0.00027402406
9.0880369e-05
0.0052650249
0.005098921
0.0049131235
0.0047106262
0.0044943956
0.0042672815
0.004031955
0.0037908649
0.0035462122
0.003299941
0.0030537411
0.0028090567
0.0025671016
0.0023288764
0.0020951852
0.0018666576
0.0016437622
0.0014268269
0.0012160474
0.0010115052
0.00081316392
0.00062090907
0.00043401206
0.00025661836
8.5901001e-05
0.0048376967
0.0046889826
0.0045222954
0.0043402325
0.0041453791
0.0039402345
0.0037271587
0.0035083319
0.0032857282
0.0030611045
0.0028359991
0.0026117375
0.002389444
0.0021700556
0.0019543372
0.0017428981
0.0015362064
0.0013346049
0.0011383216
0.00094748188
0.00076207312
0.00058219524
0.0004054836
0.00024055357
8.1559357e-05
0.0044459421
0.0043126451
0.0041629658
0.003999147
0.0038234413
0.0036380409
0.0034450293
0.003246345
0.0030437556
0.0028388453
0.0026330112
0.0024274663
0.0022232484
0.0020212316
0.0018221394
0.0016265585
0.0014349527
0.0012476762
0.0010649843
0.00088704122
0.00071391592
0.00054560533
0.00038152705
0.00022602831
7.6177515e-05
0.0040849027
0.0039653312
0.0038308371
0.0036833588
0.0035248569
0.003357254
0.003182389
0.0030019829
0.0028176161
0.0026307144
0.0024425441
0.002254213
0.0020666768
0.0018807484
0.0016971093
0.0015163217
0.0013388419
0.0011650316
0.0009951705
0.00082946685
0.00066806694
0.00051107781
0.00035844365
0.00021228163
7.100419e-05
0.0037502036
0.0036429069
0.0035220273
0.0033892405
0.0032462556
0.0030947579
0.0029363685
0.0027726141
0.0026049054
0.0024345235
0.0022626141
0.0020901871
0.0019181207
0.0017471694
0.0015779729
0.0014110678
0.0012468987
0.0010858302
0.00092815877
0.00077412557
0.00062393225
0.00047776359
0.00033568185
0.00019886515
6.6361814e-05
0.0034379388
0.0033416717
0.0032330542
0.0031135406
0.0029846186
0.002847764
0.0027044048
0.0025558938
0.0024034883
0.0022483379
0.0020914772
0.0019338249
0.0017761863
0.0016192601
0.0014636452
0.0013098514
0.0011583089
0.0010093792
0.00086336646
0.00072053041
0.00058110359
0.00044531702
0.00031328897
0.00018572556
6.1983948e-05
0.0031446382
0.0030583371
0.0029608277
0.0028533732
0.002737267
0.0026138008
0.0024842307
0.0023497535
0.0022114882
0.0020704642
0.0019276141
0.0017837718
0.0016396741
0.0014959658
0.0013532063
0.0012118773
0.001072392
0.00093510428
0.00080031897
0.00066830274
0.00053929765
0.00041353709
0.00029114759
0.0001726857
5.7654266e-05
0.0028672436
0.002790007
0.0027026264
0.0026061991
0.0025018466
0.002390699
0.00227386
0.002152386
0.0020272706
0.0018994333
0.0017697126
0.0016388634
0.001507558
0.0013763895
0.0012458776
0.0011164751
0.00098857555
0.00086252117
0.00073861153
0.00061711139
0.00049825826
0.00038226398
0.00026924644
0.00015969635
5.3238851e-05
0.0026030914
0.0025341592
0.0024560807
0.0023698045
0.0022763073
0.0021765733
0.0020715696
0.0019622268
0.0018494246
0.0017339814
0.0016166484
0.0014981066
0.0013789668
0.0012597723
0.0011410029
0.0010230808
0.00090637719
0.00079121832
0.00067789229
0.00056665419
0.00045772927
0.00035130937
0.00024751189
0.00014678918
4.8850607e-05
0.0023498913
0.0022886213
0.0022191468
0.0021422864
0.0020588869
0.0019698036
0.0018758808
0.0017779355
0.0016767437
0.0015730308
0.0014674662
0.0013606609
0.0012531668
0.0011454779
0.001038034
0.00093122524
0.00082539722
0.00072085607
0.00061787308
0.00051668826
0.00041751216
0.00032052435
0.0002258549
0.00013394791
4.4544793e-05
0.002105689
0.0020515422
0.0019900856
0.0019220229
0.0018480853
0.0017690128
0.0016855394
0.0015983782
0.0015082104
0.0014156747
0.0013213644
0.0012258236
0.0011295469
0.0010329794
0.0009365203
0.00084052609
0.00074531433
0.00065116774
0.00055833764
0.00046704695
0.0003774928
0.00028984904
0.00020426055
0.00012114876
4.0279793e-05
0.0018688159
0.001821344
0.0017674177
0.0017076388
0.0016426342
0.0015730409
0.0014994926
0.0014226074
0.0013429771
0.0012611615
0.0011776814
0.001093017
0.0010076071
0.00092184826
0.00083609861
0.00075067927
0.00066587807
0.00058195223
0.00049913157
0.00041762156
0.00033760695
0.00025925652
0.00018272105
0.00010837805
3.6028554e-05
0.0016378429
0.0015966794
0.0015498844
0.0014979678
0.0014414629
0.0013809129
0.0013168594
0.0012498327
0.0011803427
0.0011088734
0.0010358775
0.00096177384
0.00088694578
0.00081174331
0.00073648256
0.00066144865
0.00058689797
0.00051306096
0.00044014499
0.00036833731
0.00029780907
0.00022872013
0.00016121677
9.5625605e-05
3.1783549e-05
0.0014115565
0.0013764052
0.0013364184
0.0012920232
0.0012436672
0.0011918074
0.0011369007
0.0010793955
0.0010197248
0.00095830088
0.00089551086
0.0008317142
0.00076724141
0.00070239502
0.00063744956
0.00057265345
0.00050823094
0.00044438467
0.0003812983
0.00031913921
0.00025806235
0.00019821392
0.00013972829
8.28808e-05
2.7541586e-05
0.0011889398
0.0011595618
0.0011261237
0.0010889762
0.0010484876
0.0010050352
0.00095899684
0.00091074416
0.00086063737
0.00080902027
0.00075621671
0.00070252842
0.00064823386
0.00059358847
0.00053882503
0.00048415484
0.00042976941
0.0003758426
0.0003225329
0.00026998586
0.00021833736
0.00016771591
0.00011823948
7.0133778e-05
2.330317e-05
0.00096914861
0.00094535312
0.00091825678
0.00088813934
0.00085529525
0.0008200267
0.00078263731
0.00074342604
0.00070268353
0.00066068769
0.00061770096
0.00057396847
0.00052971717
0.00048515575
0.00044047498
0.00039584856
0.0003514345
0.00030737683
0.00026380748
0.0002208483
0.00017861344
0.00013721099
9.6739617e-05
5.7382545e-05
1.9065051e-05
0.00075149844
0.00073313676
0.00071222124
0.00068896508
0.00066359297
0.00063633607
0.00060742697
0.00057709516
0.00054556406
0.00051304773
0.00047974865
0.00044585642
0.00041154697
0.00037698233
0.00034231101
0.00030766861
0.00027317888
0.00023895497
0.00020510099
0.00017171344
0.00013888288
0.00010669506
7.5227758e-05
4.4624888e-05
1.4824782e-05
0.00053543955
0.00052240204
0.00050754805
0.00049102783
0.00047299963
0.00045362643
0.00043307234
0.00041149953
0.00038906603
0.00036592355
0.00034221587
0.00031807787
0.00029363482
0.00026900228
0.00024428633
0.00021958403
0.0001949842
0.00017056827
0.00014641135
0.00012258324
9.9149568e-05
7.6172489e-05
5.3707951e-05
3.1860535e-05
1.058467e-05
0.00032074786
0.0003129545
0.0003040742
0.00029419659
0.00028341595
0.00027182911
0.00025953358
0.00024662588
0.00023320016
0.00021934696
0.00020515228
0.00019069683
0.00017605564
0.00016129798
0.00014648745
0.00013168236
0.00011693615
0.00010229788
8.7812875e-05
7.3523279e-05
5.946875e-05
4.5686888e-05
3.2211001e-05
1.9109276e-05
6.3534583e-06
0.00010677196
0.00010417959
0.00010122552
9.7939825e-05
9.4353856e-05
9.0499706e-05
8.6409577e-05
8.2115411e-05
7.764845e-05
7.303879e-05
6.8315031e-05
6.3504032e-05
5.8630772e-05
5.3718275e-05
4.8787688e-05
4.3858413e-05
3.8948246e-05
3.4073541e-05
2.9249392e-05
2.4489813e-05
1.9807949e-05
1.5216468e-05
1.0726077e-05
6.3646886e-06
2.1204809e-06
)
;

boundaryField
{
    Walls
    {
        type            zeroGradient;
    }
    Inlet
    {
        type            fixedValue;
        value           uniform 500;
    }
    Outlet
    {
        type            fixedValue;
        value           uniform 0;
    }
    Front
    {
        type            wedge;
    }
    Back
    {
        type            wedge;
    }
    defaultFaces
    {
        type            empty;
    }
}


// ************************************************************************* //
