/*--------------------------------*- C++ -*----------------------------------*\
| =========                 |                                                 |
| \\      /  F ield         | OpenFOAM: The Open Source CFD Toolbox           |
|  \\    /   O peration     | Version:  4.0                                   |
|   \\  /    A nd           | Web:      www.OpenFOAM.org                      |
|    \\/     M anipulation  |                                                 |
\*---------------------------------------------------------------------------*/
FoamFile
{
    version     2.0;
    format      ascii;
    class       surfaceScalarField;
    location    "0.46";
    object      phi;
}
// * * * * * * * * * * * * * * * * * * * * * * * * * * * * * * * * * * * * * //

dimensions      [0 3 -1 0 0 0 0];

internalField   nonuniform List<scalar> 
3364
(
-2.1128702e-10
1.5637038e-08
-5.9637833e-10
4.8517511e-08
8.8428374e-08
-5.2600301e-10
1.6163007e-08
-1.5861257e-09
4.9577635e-08
8.6842236e-08
-3.3607091e-10
1.6499071e-08
-1.3336517e-09
5.0575224e-08
8.550858e-08
-4.5988457e-11
1.6545042e-08
-2.7779062e-10
5.0807027e-08
8.5230791e-08
2.5190203e-10
1.6293078e-08
1.2016209e-09
4.9857265e-08
8.643239e-08
2.7824838e-11
1.6265223e-08
1.4211465e-09
4.8463897e-08
8.7853497e-08
-1.0596074e-10
1.6371149e-08
1.7298976e-10
4.8184897e-08
8.802647e-08
1.1548272e-10
1.6255604e-08
-5.8400392e-13
4.8300926e-08
8.802588e-08
9.4330747e-11
1.6161237e-08
6.0564056e-10
4.7789598e-08
8.8631499e-08
7.1679387e-11
1.6089531e-08
8.5737337e-11
4.7775491e-08
8.871719e-08
-2.4826365e-10
1.6337748e-08
-1.5355303e-09
4.9062674e-08
8.7181617e-08
-6.7152681e-10
1.700923e-08
-2.2879267e-09
5.0679028e-08
8.489366e-08
-4.1540815e-10
1.742461e-08
-1.411729e-09
5.1675351e-08
8.3481904e-08
-2.1144481e-10
1.7636045e-08
3.7845618e-10
5.1085442e-08
8.3860335e-08
2.4028272e-11
1.7611986e-08
1.4004102e-09
4.9709007e-08
8.5260705e-08
1.5423856e-10
1.7457684e-08
5.425913e-10
4.9320587e-08
8.5803252e-08
8.6214822e-11
1.7371418e-08
-1.3854159e-09
5.0792141e-08
8.4417801e-08
5.7838766e-11
1.7313534e-08
-1.6830508e-09
5.2532977e-08
8.2734708e-08
-3.5784087e-10
1.7671336e-08
4.3006418e-11
5.2132107e-08
8.2777675e-08
-5.313286e-10
1.8202614e-08
1.5580031e-09
5.004274e-08
8.433564e-08
-3.0665119e-10
1.8509232e-08
1.0428448e-09
4.8693208e-08
8.5378447e-08
4.4942219e-10
1.8059788e-08
-8.0191241e-10
4.994454e-08
8.4576504e-08
9.6739985e-10
1.7092336e-08
-9.7765062e-10
5.1889565e-08
8.3598815e-08
3.0935773e-10
1.678294e-08
8.1393888e-10
5.13849e-08
8.4412697e-08
-2.0031008e-10
1.6983227e-08
1.4567163e-09
4.9727819e-08
8.5869372e-08
-2.2081216e-10
1.7204016e-08
-1.7805411e-10
4.9685065e-08
8.5691298e-08
-2.7791425e-11
1.7231762e-08
-1.7917519e-09
5.1449031e-08
8.3899517e-08
4.3284619e-10
1.6798886e-08
-1.8301754e-09
5.3712007e-08
8.2069307e-08
1.8953964e-10
1.6609369e-08
-8.2081727e-11
5.398369e-08
8.198723e-08
1.0957834e-09
1.551379e-08
6.050365e-09
4.9029218e-08
8.8037602e-08
1.1202512e-08
4.3106268e-09
4.9197119e-08
1.1032754e-08
1.0580596e-08
1.2665156e-07
4.7808206e-09
-4.7065997e-10
1.7052694e-08
-1.2405903e-09
-1.4149421e-09
2.9046376e-08
-3.8426103e-10
-8.6363972e-11
-1.4062258e-09
-2.1855264e-10
-3.1502189e-10
-2.5060422e-09
-9.6705129e-11
1.0356039e-11
-3.4923549e-10
3.4013532e-11
3.8013254e-11
-7.0222992e-10
-6.3288263e-12
1.6686578e-11
-2.6117128e-11
5.380654e-11
8.3355867e-11
-7.1454025e-11
1.6363452e-12
1.5050482e-11
8.7442007e-12
4.6699317e-11
7.6006366e-11
1.6094565e-11
2.6762923e-12
1.2374269e-11
1.2017214e-11
3.7358478e-11
5.9983329e-11
2.8041193e-11
2.7322409e-12
9.6422507e-12
1.1769283e-11
2.8321794e-11
4.4256533e-11
2.7496491e-11
2.3011101e-12
7.3412811e-12
8.9774688e-12
2.1645679e-11
3.3648523e-11
1.9585805e-11
1.3898365e-12
5.9515812e-12
5.568266e-12
1.7467512e-11
2.7179709e-11
1.2037471e-11
7.9110913e-13
5.160597e-12
3.1604871e-12
1.5098395e-11
2.3776412e-11
6.5641843e-12
5.6598401e-13
4.5947136e-12
2.1898447e-12
1.3474752e-11
2.1397475e-11
4.569116e-12
4.8636936e-13
4.1084174e-12
1.8330453e-12
1.2128233e-11
1.93147e-11
3.9160651e-12
4.5848608e-13
3.6499819e-12
1.7838751e-12
1.080295e-11
1.7283584e-11
3.8151563e-12
4.359555e-13
3.2140609e-12
1.7221687e-12
9.5168085e-12
1.5275529e-11
3.7303324e-12
3.9248722e-13
2.8215981e-12
1.5410046e-12
8.3683411e-12
1.3471269e-11
3.3453408e-12
3.3562945e-13
2.485987e-12
1.3253554e-12
7.3786526e-12
1.1905261e-11
2.891421e-12
2.807106e-13
2.2052906e-12
1.1127982e-12
6.546594e-12
1.0594329e-11
2.4237746e-12
2.3805097e-13
1.9672504e-12
9.3212795e-13
5.852539e-12
9.5133595e-12
2.0131306e-12
2.0286972e-13
1.7643887e-12
8.0095284e-13
5.2544717e-12
8.5599317e-12
1.7544046e-12
1.7999064e-13
1.5844037e-12
7.1268909e-13
4.7217838e-12
7.702246e-12
1.5703904e-12
1.6256237e-13
1.421845e-12
6.4438591e-13
4.2399664e-12
6.92499e-12
1.4216506e-12
1.4656892e-13
1.2752784e-12
5.8180838e-13
3.8047297e-12
6.2209528e-12
1.2858482e-12
1.311699e-13
1.1441098e-12
5.2096455e-13
3.4149354e-12
5.5869181e-12
1.1549982e-12
1.1758238e-13
1.026528e-12
4.6684044e-13
3.0656761e-12
5.0204467e-12
1.0333083e-12
1.0495769e-13
9.2157032e-13
4.1760104e-13
2.7530304e-12
4.5115237e-12
9.2651907e-13
9.3041125e-14
8.285289e-13
3.7006733e-13
2.4760013e-12
4.0607983e-12
8.2078696e-13
8.2259822e-14
7.4626857e-13
3.2741849e-13
2.2308394e-12
3.6608445e-12
7.2736611e-13
7.2551971e-14
6.7371597e-13
2.889569e-13
2.0144311e-12
3.3075818e-12
6.4221334e-13
6.370453e-14
6.1001076e-13
2.5384122e-13
1.8242911e-12
2.9969849e-12
5.6443208e-13
5.5579526e-14
5.5443055e-13
2.2143363e-13
1.6584339e-12
2.7257483e-12
4.9266464e-13
4.8200017e-14
5.0622991e-13
1.9206698e-13
1.5145641e-12
2.4905398e-12
4.2727048e-13
4.1613041e-14
4.6461631e-13
1.6578231e-13
1.3903924e-12
2.2876412e-12
3.6867649e-13
3.5648171e-14
4.2896768e-13
1.420152e-13
1.2840233e-12
2.1137476e-12
3.1590511e-13
3.0386723e-14
3.985806e-13
1.2110447e-13
1.1933038e-12
1.9657835e-12
2.690656e-13
2.5668574e-14
3.7291178e-13
1.0235302e-13
1.1166181e-12
1.840087e-12
2.2804733e-13
2.1547627e-14
3.5136402e-13
8.5890402e-14
1.0522744e-12
1.7346535e-12
1.9132248e-13
1.7928404e-14
3.3343558e-13
7.1463079e-14
9.9873924e-13
1.6470082e-12
1.5910755e-13
1.4805162e-14
3.1863049e-13
5.8980422e-14
9.5456383e-13
1.5749117e-12
1.3107664e-13
1.2307931e-14
3.0632273e-13
4.9027837e-14
9.1784411e-13
1.5148335e-12
1.091064e-13
1.0028853e-14
2.9629413e-13
3.9911902e-14
8.8796155e-13
1.466185e-12
8.8561269e-14
8.0583879e-15
2.8823608e-13
3.206063e-14
8.6396006e-13
1.4270858e-12
7.1161104e-14
6.4060027e-15
2.8183048e-13
2.5482191e-14
8.4488487e-13
1.3959507e-12
5.6618978e-14
5.0355185e-15
2.7679542e-13
1.9991666e-14
8.2992991e-13
1.3715196e-12
4.4424721e-14
3.9545873e-15
2.7284135e-13
1.5553349e-14
8.1833252e-13
1.3526814e-12
3.4393832e-14
3.1739248e-15
2.6966798e-13
1.2246332e-14
8.0926162e-13
1.338275e-12
2.6655362e-14
2.2552375e-15
2.6741333e-13
9.5361118e-15
8.0198236e-13
1.3260802e-12
2.1733606e-14
1.7612156e-15
2.6565272e-13
7.297147e-15
7.964481e-13
1.3169182e-12
1.6461963e-14
1.337031e-15
2.6431628e-13
5.2392639e-15
7.9254754e-13
1.3105371e-12
1.1623115e-14
7.1410422e-16
2.7093664e-15
5.939517e-15
1.3612991e-07
-9.4836156e-09
-8.6630241e-09
1.4478668e-07
2.096659e-08
-1.4050193e-09
-1.3856198e-09
1.3688658e-08
-3.5022925e-09
-4.0863795e-10
-5.6053723e-10
-4.3272297e-09
-1.1105202e-09
-2.9317053e-13
-9.3717889e-11
-1.577275e-09
-1.6103505e-10
8.9299343e-11
6.2658761e-11
-3.1739515e-10
1.2678683e-11
9.2718458e-11
9.1161474e-11
-1.5820175e-11
4.5119838e-11
7.5640711e-11
8.080103e-11
5.5480889e-11
4.7400753e-11
5.5736665e-11
6.136349e-11
6.6838195e-11
3.3621526e-11
4.1701216e-11
4.5863407e-11
4.9121718e-11
1.9517837e-11
3.4221298e-11
3.7863014e-11
2.7518665e-11
1.06844e-11
3.0101587e-11
3.4064731e-11
1.4483247e-11
7.1325828e-12
2.7538551e-11
3.1850917e-11
9.3469028e-12
6.353095e-12
2.510184e-11
2.9635456e-11
8.568935e-12
6.19887e-12
2.2718345e-11
2.6944402e-11
8.8901832e-12
6.2330288e-12
2.0215792e-11
2.4115015e-11
9.0625865e-12
5.7061433e-12
1.7855088e-11
2.1526241e-11
8.2950351e-12
4.8614197e-12
1.5885162e-11
1.9372371e-11
7.0153774e-12
4.0354659e-12
1.4273526e-11
1.7465275e-11
5.9426277e-12
3.4382879e-12
1.2848411e-11
1.5759329e-11
5.1442817e-12
3.0243031e-12
1.1578542e-11
1.4235523e-11
4.5481428e-12
2.7113269e-12
1.0437624e-11
1.2864429e-11
4.0824416e-12
2.4563012e-12
9.4029828e-12
1.1612111e-11
3.7086287e-12
2.2281015e-12
8.4607311e-12
1.0471704e-11
3.3685079e-12
2.0068949e-12
7.6088311e-12
9.434981e-12
3.043612e-12
1.7982494e-12
6.8438837e-12
8.4953288e-12
2.7378919e-12
1.6132838e-12
6.1571109e-12
7.6563685e-12
2.4522324e-12
1.4307823e-12
5.5471065e-12
6.9037239e-12
2.1834141e-12
1.269262e-12
5.0052012e-12
6.2362116e-12
1.9367613e-12
1.1213464e-12
4.5260587e-12
5.6461482e-12
1.7113971e-12
9.8638771e-13
4.1040942e-12
5.1241654e-12
1.5083586e-12
8.6135848e-13
3.7353922e-12
4.6686424e-12
1.3168706e-12
7.4673942e-13
3.4159159e-12
4.2733984e-12
1.1419738e-12
6.4408609e-13
3.1405e-12
3.9321229e-12
9.8535339e-13
5.5295008e-13
2.9034498e-12
3.6393698e-12
8.456964e-13
4.7052354e-13
2.7019878e-12
3.3902837e-12
7.1960444e-13
3.9855939e-13
2.5314727e-12
3.1801281e-12
6.0871108e-13
3.3465784e-13
2.3881353e-12
3.0027354e-12
5.1204791e-13
2.7881571e-13
2.268426e-12
2.854041e-12
4.2750867e-13
2.3030441e-13
2.1691979e-12
2.729923e-12
3.5442201e-13
1.8938655e-13
2.0889183e-12
2.6326452e-12
2.8666504e-13
1.539328e-13
2.0235479e-12
2.5525104e-12
2.3406904e-13
1.2408095e-13
1.9706299e-12
2.4872969e-12
1.8929675e-13
9.8861769e-14
1.9283894e-12
2.4352477e-12
1.5091404e-13
7.7634195e-14
1.8951828e-12
2.3943022e-12
1.1858323e-13
6.0160959e-14
1.8694189e-12
2.3623922e-12
9.2075078e-14
4.654978e-14
1.849528e-12
2.3375831e-12
7.1363409e-14
3.7397434e-14
1.833868e-12
2.3185881e-12
5.639732e-14
2.8944198e-14
1.8213897e-12
2.3035327e-12
4.4004594e-14
2.0368455e-14
1.8126483e-12
2.2928581e-12
3.1048085e-14
1.0345761e-14
1.5819827e-14
1.589475e-12
-1.5899077e-12
1.4065963e-12
1.7964679e-13
-1.7030102e-12
3.1095088e-12
-8.2450784e-12
6.5447436e-12
-1.8701831e-11
1.0461004e-11
-3.3807278e-11
1.5110625e-11
-5.4080636e-11
2.0279085e-11
-7.9450789e-11
2.5376174e-11
-1.1030249e-10
3.0857808e-11
-1.4665993e-10
3.6363471e-11
-1.8734643e-10
4.0692311e-11
-2.3093353e-10
4.3592577e-11
-2.7612754e-10
4.5199047e-11
-3.2190405e-10
4.5781043e-11
-3.6744222e-10
4.5542107e-11
-4.120258e-10
4.4586921e-11
-4.548393e-10
4.2816192e-11
-4.9491764e-10
4.0080422e-11
-5.3144891e-10
3.6532758e-11
-5.636652e-10
3.221727e-11
-5.9086415e-10
2.7199479e-11
-6.1251254e-10
2.1648595e-11
-6.2818882e-10
1.5676248e-11
-6.3742601e-10
9.2370248e-12
2.4770245e-12
-3.7228229e-11
3.564311e-11
-8.4781727e-11
4.7740502e-11
-1.4432737e-10
6.2663655e-11
-2.1738862e-10
7.9614913e-11
-3.0493523e-10
9.801659e-11
-4.0782007e-10
1.1800427e-10
-5.275042e-10
1.3997169e-10
-6.6542921e-10
1.6330919e-10
-8.1916721e-10
1.8460323e-10
-9.8503732e-10
2.0224035e-10
-1.1603101e-09
2.1597123e-10
-1.3425248e-09
2.2581267e-10
-1.5292704e-09
2.3194932e-10
-1.7186319e-09
2.351466e-10
-1.9087402e-09
2.3565379e-10
-2.0988212e-09
2.3467071e-10
-2.2984487e-09
2.424458e-10
-2.488491e-09
2.3012427e-10
-2.6614223e-09
2.0946489e-10
-2.8123662e-09
1.8316161e-10
-2.9377361e-09
1.5256921e-10
-3.0347942e-09
1.1870605e-10
-3.1012147e-09
8.2095814e-11
-3.1330377e-09
4.1058785e-11
1.0563359e-11
-1.1324813e-10
1.489007e-10
-2.5421836e-10
1.8872545e-10
-4.2607166e-10
2.3453401e-10
-6.3213989e-10
2.8570075e-10
-8.7437084e-10
3.4026478e-10
-1.1544316e-09
3.980814e-10
-1.4761587e-09
4.617138e-10
-1.9022876e-09
5.8945161e-10
-2.3638124e-09
6.4613986e-10
-2.8347228e-09
6.7316088e-10
-3.3001662e-09
6.8142314e-10
-3.7515573e-09
6.7721081e-10
-4.1827844e-09
6.6318193e-10
-4.5880846e-09
6.404511e-10
-4.9613653e-09
6.0893757e-10
-5.2968234e-09
5.7013081e-10
-5.5794892e-09
5.2511259e-10
-5.8238483e-09
4.744834e-10
-6.0337073e-09
4.1932313e-10
-6.2112632e-09
3.6071591e-10
-6.3586426e-09
2.9994631e-10
-6.4767686e-09
2.368292e-10
-6.5657095e-09
1.7103341e-10
-6.6275395e-09
1.02885e-10
3.4134558e-11
-3.6000852e-10
5.0892683e-10
-7.7890805e-10
6.076514e-10
-1.2698117e-09
7.2546648e-10
-2.0670131e-09
1.0829286e-09
-2.9316373e-09
1.2049119e-09
-3.7555853e-09
1.2220484e-09
-4.488348e-09
1.1944919e-09
-5.0352866e-09
1.1364026e-09
-5.4461766e-09
1.0570398e-09
-5.7370567e-09
9.6404882e-10
-5.9223647e-09
8.6673727e-10
-6.0145944e-09
7.6944515e-10
-6.0242658e-09
6.7285675e-10
-5.9529943e-09
5.6918209e-10
-5.8166672e-09
4.7261201e-10
-5.6325234e-09
3.8598784e-10
-5.4177354e-09
3.1032497e-10
-5.1893591e-09
2.4610688e-10
-4.9633877e-09
1.9335103e-10
-4.7539144e-09
1.512417e-10
-4.5738453e-09
1.1987585e-10
-4.4307497e-09
9.3731948e-11
-4.3297403e-09
7.00221e-11
-4.2742379e-09
4.7380538e-11
2.5337118e-11
-2.213655e-09
2.7226093e-09
-3.9633608e-09
2.357388e-09
-5.4756813e-09
2.2378168e-09
-6.1687848e-09
1.7760534e-09
-6.2539404e-09
1.2900849e-09
-5.7887206e-09
7.5684264e-10
-5.0293566e-09
4.3513949e-10
-4.0413653e-09
1.4842112e-10
-2.8893297e-09
-9.4987437e-11
-1.63573e-09
-2.8954401e-10
-3.9193704e-10
-3.7705119e-10
8.4549226e-10
-4.6798496e-10
2.1439571e-09
-6.2560915e-10
3.5591708e-09
-8.4603155e-10
4.9434121e-09
-9.1162764e-10
6.2558335e-09
-9.2643006e-10
7.4735227e-09
-9.073589e-10
8.5817745e-09
-8.6213785e-10
9.5703991e-09
-7.952648e-10
1.0431117e-08
-7.0946572e-10
1.1157341e-08
-6.0633598e-10
1.1739575e-08
-4.8848846e-10
1.2167633e-08
-3.5802181e-10
1.2432406e-08
-2.173764e-10
-6.5081182e-11
1.0090078e-09
1.7136884e-09
4.1756647e-09
-8.0921623e-10
7.8734582e-09
-1.4599046e-09
1.1550091e-08
-1.9005484e-09
1.5275235e-08
-2.4350341e-09
1.8924885e-08
-2.8927798e-09
2.2519741e-08
-3.1596846e-09
2.5897955e-08
-3.2297554e-09
2.8967933e-08
-3.1649241e-09
3.1707584e-08
-3.0291489e-09
3.4183389e-08
-2.8528079e-09
3.6357979e-08
-2.6425231e-09
3.8157382e-08
-2.4249582e-09
3.95305e-08
-2.2190945e-09
4.0623946e-08
-2.0050185e-09
4.1488735e-08
-1.7911639e-09
4.2164911e-08
-1.5834796e-09
4.2685994e-08
-1.3831654e-09
4.3081091e-08
-1.1903072e-09
4.3375685e-08
-1.0040055e-09
4.3591763e-08
-8.2235896e-10
4.3746443e-08
-6.4311406e-10
4.3851911e-08
-4.6343682e-10
4.3915352e-08
-2.8076378e-10
-8.9196341e-11
1.4885142e-07
-2.3498391e-09
1.4753191e-07
5.1120909e-10
1.4500627e-07
1.0665204e-09
1.4156546e-07
1.5409659e-09
1.3703505e-07
2.0959794e-09
1.3157115e-07
2.5716474e-09
1.2554651e-07
2.8654029e-09
1.19354e-07
2.9631375e-09
1.1326243e-07
2.926974e-09
1.074266e-07
2.8069683e-09
1.0191558e-07
2.6584662e-09
9.677999e-08
2.4932851e-09
9.2050871e-08
2.3043596e-09
8.7727962e-08
2.1039922e-09
8.3822021e-08
1.9010833e-09
8.0330756e-08
1.7002463e-09
7.7243041e-08
1.5043688e-09
7.4545566e-08
1.3144321e-09
7.2224457e-08
1.1309152e-09
7.0267216e-08
9.5334102e-10
6.8664487e-08
7.8046889e-10
6.7411098e-08
6.1036819e-10
6.6507625e-08
4.4012459e-10
6.5959893e-08
2.6705195e-10
8.5355612e-11
1.303265e-08
-1.6937087e-09
1.5363256e-08
-1.8192842e-09
1.7999416e-08
-1.5695248e-09
2.0735697e-08
-1.1952048e-09
2.3561517e-08
-7.2973389e-10
2.6483913e-08
-3.5064788e-10
2.9413644e-08
-6.4235211e-11
3.2190944e-08
1.8592609e-10
3.4771104e-08
3.4690145e-10
3.712672e-08
4.5144028e-10
3.9212809e-08
5.7246362e-10
4.0844248e-08
8.6193007e-10
4.2138827e-08
1.0098644e-09
4.3167565e-08
1.0753356e-09
4.3973068e-08
1.0956585e-09
4.4591753e-08
1.0816385e-09
4.5056397e-08
1.0397993e-09
4.5397657e-08
9.7324361e-10
4.564185e-08
8.8679256e-10
4.5811908e-08
7.8335041e-10
4.5927374e-08
6.65068e-10
4.6004132e-08
5.336745e-10
4.6053685e-08
3.9063221e-10
4.6083207e-08
2.375894e-10
7.2118863e-11
-5.1838154e-09
-8.3713387e-10
-5.9115695e-09
-1.0915397e-09
-6.285124e-09
-1.1959804e-09
-6.2381222e-09
-1.2422162e-09
-5.7325785e-09
-1.2352855e-09
-4.899949e-09
-1.183283e-09
-3.8566631e-09
-1.1075241e-09
-2.6562701e-09
-1.0144671e-09
-1.3993009e-09
-9.1006536e-10
-1.4193392e-10
-8.0592188e-10
1.131444e-09
-7.0090726e-10
2.5854287e-09
-5.9204527e-10
4.0814479e-09
-4.861432e-10
5.5456998e-09
-3.8890253e-10
6.9433507e-09
-3.0197672e-10
8.2510967e-09
-2.2609028e-10
9.4640276e-09
-1.7311312e-10
1.0572456e-08
-1.3516493e-10
1.1562831e-08
-1.0356173e-10
1.2424816e-08
-7.8613843e-11
1.3149721e-08
-5.9815555e-11
1.3729531e-08
-4.6114057e-11
1.415627e-08
-3.6085611e-11
1.4421308e-08
-2.7427731e-11
-1.7168877e-11
-2.2218933e-09
-1.9251627e-10
-3.0373672e-09
-2.7606783e-10
-3.8805818e-09
-3.5277051e-10
-4.6957735e-09
-4.2703163e-10
-5.4263548e-09
-5.0471308e-10
-5.9678597e-09
-6.4178827e-10
-6.3791848e-09
-6.9620984e-10
-6.6704768e-09
-7.2318628e-10
-6.8471915e-09
-7.333617e-10
-6.9216591e-09
-7.3146511e-10
-6.9032748e-09
-7.1930191e-10
-6.7951675e-09
-7.0016231e-10
-6.6079818e-09
-6.7333796e-10
-6.3575193e-09
-6.393733e-10
-6.0601428e-09
-5.9936077e-10
-5.7316171e-09
-5.5462271e-10
-5.3985718e-09
-5.0616433e-10
-5.0775868e-09
-4.5615523e-10
-4.7776188e-09
-4.0353441e-10
-4.508007e-09
-3.4822975e-10
-4.2775502e-09
-2.9027613e-10
-4.0939886e-09
-2.2967901e-10
-3.9636177e-09
-1.6645968e-10
-3.8902218e-09
-1.0082664e-10
-3.4046501e-11
-5.295285e-10
1.9620196e-11
-7.8465135e-10
-2.0942149e-11
-1.0807766e-09
-5.6643106e-11
-1.413268e-09
-9.4539078e-11
-1.7853501e-09
-1.3263069e-10
-2.2555656e-09
-1.7157366e-10
-2.746222e-09
-2.0555555e-10
-3.2384265e-09
-2.3098512e-10
-3.7210862e-09
-2.5070638e-10
-4.1870846e-09
-2.6547189e-10
-4.630189e-09
-2.7620361e-10
-5.0453035e-09
-2.8505449e-10
-5.4224573e-09
-2.9619146e-10
-5.7405461e-09
-3.212921e-10
-6.0208072e-09
-3.1910752e-10
-6.2673302e-09
-3.0810781e-10
-6.4832807e-09
-2.9022206e-10
-6.6721176e-09
-2.6732662e-10
-6.8358008e-09
-2.3985958e-10
-6.9758309e-09
-2.0820792e-10
-7.0933065e-09
-1.7280885e-10
-7.1887765e-09
-1.3421725e-10
-7.2620784e-09
-9.3165906e-11
-7.3131303e-09
-4.9782916e-11
-1.1407031e-11
-7.3927987e-11
7.7729924e-11
-1.6029666e-10
6.542845e-11
-2.6908107e-10
5.2143075e-11
-4.0027068e-10
3.6652035e-11
-5.5432661e-10
2.1426399e-11
-7.3080079e-10
4.9012531e-12
-9.2199831e-10
-1.4357754e-11
-1.1266555e-09
-2.6328137e-11
-1.3368626e-09
-4.0499953e-11
-1.550076e-09
-5.2259625e-11
-1.765477e-09
-6.0804084e-11
-1.9834582e-09
-6.7075219e-11
-2.2085101e-09
-7.1141933e-11
-2.4564737e-09
-7.3331155e-11
-2.7019804e-09
-7.3604026e-11
-2.9381097e-09
-7.1981906e-11
-3.15976e-09
-6.8575542e-11
-3.3632768e-09
-6.3813892e-11
-3.5453196e-09
-5.7821045e-11
-3.7028282e-09
-5.070374e-11
-3.8330444e-09
-4.2597274e-11
-3.9335936e-09
-3.3672659e-11
-4.0026902e-09
-2.4073935e-11
-4.0384817e-09
-1.3996093e-11
-3.8384956e-12
5.675027e-11
7.6461209e-11
5.0429863e-11
7.1749391e-11
3.4073167e-11
6.8500183e-11
6.7611793e-12
6.3964318e-11
-3.0537286e-11
5.8725045e-11
-7.7221212e-11
5.1585239e-11
-1.3457639e-10
4.2997364e-11
-1.9604229e-10
3.5137568e-11
-2.6390847e-10
2.7365916e-11
-3.3532404e-10
1.9155521e-11
-4.0853167e-10
1.2403008e-11
-4.8217386e-10
6.5663189e-12
-5.5599266e-10
2.6761177e-12
-6.2887744e-10
-4.4723388e-13
-6.9974517e-10
-2.7372528e-12
-7.675792e-10
-4.1489382e-12
-8.3140967e-10
-4.7462297e-12
-8.902427e-10
-4.9820953e-12
-9.4312795e-10
-4.9370829e-12
-9.8914704e-10
-4.6860005e-12
-1.0274542e-09
-4.2914612e-12
-1.0573271e-09
-3.8011571e-12
-1.0784366e-09
-2.9657535e-12
-1.0905473e-09
-1.8867253e-12
-5.3595454e-13
8.3264358e-11
6.0035439e-11
9.6457216e-11
5.8556815e-11
1.0794148e-10
5.7016124e-11
1.1818121e-10
5.3724726e-11
1.2529088e-10
5.1615492e-11
1.2772159e-10
4.9154619e-11
1.2524983e-10
4.5469203e-11
1.1985183e-10
4.0535632e-11
1.1244658e-10
3.4771213e-11
1.0334934e-10
2.8252788e-11
9.3046348e-11
2.2706017e-11
8.2230837e-11
1.7381837e-11
7.2289764e-11
1.2617193e-11
6.328718e-11
8.5553475e-12
5.5228875e-11
5.3210496e-12
4.8484655e-11
2.5952825e-12
4.320982e-11
5.2861154e-13
3.9104107e-11
-8.7636888e-13
3.5898478e-11
-1.7314313e-12
3.3357219e-11
-2.1447103e-12
3.1287483e-11
-2.2216835e-12
2.9499189e-11
-2.0128123e-12
2.8096589e-11
-1.56309e-12
2.7232936e-11
-1.0229962e-12
-6.2556027e-13
6.2863382e-11
4.6294145e-11
7.6122582e-11
4.5297927e-11
8.9591818e-11
4.3547151e-11
1.0207118e-10
4.1245591e-11
1.1408815e-10
3.9598736e-11
1.2537014e-10
3.7872839e-11
1.3525955e-10
3.558001e-11
1.4334008e-10
3.2455313e-11
1.4950145e-10
2.861005e-11
1.5301091e-10
2.4743546e-11
1.5568481e-10
2.0032342e-11
1.5701603e-10
1.6050836e-11
1.5773948e-10
1.1893981e-11
1.5871525e-10
7.5798075e-12
1.599306e-10
4.1059487e-12
1.6132757e-10
1.1985611e-12
1.6289743e-10
-1.0409873e-12
1.6463967e-10
-2.6183363e-12
1.6648327e-10
-3.5747542e-12
1.6832088e-10
-3.9820396e-12
1.7006147e-10
-3.9619873e-12
1.7151435e-10
-3.4654139e-12
1.7257293e-10
-2.6213841e-12
1.7311691e-10
-1.5666914e-12
-3.5315842e-13
3.4919591e-11
3.889354e-11
4.1655409e-11
3.8562398e-11
4.8031094e-11
3.7171727e-11
5.3750775e-11
3.5526151e-11
5.9866545e-11
3.3483193e-11
6.5977387e-11
3.1762214e-11
7.1552318e-11
3.000529e-11
7.5929389e-11
2.8078449e-11
7.8623966e-11
2.5915677e-11
7.9885923e-11
2.3481788e-11
7.894e-11
2.0978459e-11
7.7204894e-11
1.7786131e-11
7.4253214e-11
1.4845844e-11
7.0554114e-11
1.1279085e-11
6.6701006e-11
7.9592281e-12
6.2845162e-11
5.0545712e-12
5.9076828e-11
2.7275078e-12
5.5532838e-11
9.2581095e-13
5.241138e-11
-4.5314467e-13
4.9791413e-11
-1.3619255e-12
4.7616915e-11
-1.7873479e-12
4.6059009e-11
-1.9073728e-12
4.5158625e-11
-1.7208715e-12
4.4841909e-11
-1.2498537e-12
-5.1463847e-13
1.7579568e-11
3.5797462e-11
2.0108376e-11
3.6033815e-11
2.1245073e-11
3.6035237e-11
2.2050654e-11
3.472076e-11
2.2250125e-11
3.3283898e-11
2.2529819e-11
3.1482684e-11
2.2389729e-11
3.0145532e-11
2.164744e-11
2.882088e-11
2.005385e-11
2.7509399e-11
1.7607443e-11
2.5928316e-11
1.450506e-11
2.408095e-11
1.0251202e-11
2.2040084e-11
4.7992463e-12
2.0297882e-11
-1.3651903e-12
1.7443591e-11
-7.8939475e-12
1.4488042e-11
-1.5017756e-11
1.2178424e-11
-2.1951112e-11
9.6608967e-12
-2.8673062e-11
7.6477838e-12
-3.474935e-11
5.6231563e-12
-4.018073e-11
4.0694588e-12
-4.4865756e-11
2.8976753e-12
-4.8786981e-11
2.0138418e-12
-5.1894173e-11
1.3863046e-12
-5.4190153e-11
1.0461058e-12
4.793716e-13
1.0907735e-11
3.4236798e-11
1.165208e-11
3.5289626e-11
1.2089022e-11
3.5598438e-11
1.1376907e-11
3.5433006e-11
1.0438582e-11
3.4222339e-11
8.7146297e-12
3.320674e-11
6.3075683e-12
3.2552685e-11
4.0833887e-12
3.1045139e-11
1.5026633e-12
3.0090192e-11
-1.776711e-12
2.9207745e-11
-5.5835135e-12
2.7887796e-11
-1.0020976e-11
2.6477578e-11
-1.4518567e-11
2.4795491e-11
-1.9781526e-11
2.2706557e-11
-2.5754672e-11
2.0461182e-11
-3.1802854e-11
1.8226589e-11
-3.8157732e-11
1.6015747e-11
-4.4354306e-11
1.3844322e-11
-5.0214563e-11
1.1483369e-11
-5.5417618e-11
9.2724635e-12
-5.9878273e-11
7.3582728e-12
-6.3477482e-11
5.6129894e-12
-6.6064929e-11
3.9736858e-12
-6.743012e-11
2.4112287e-12
8.4456245e-13
1.0288903e-11
3.2516948e-11
1.1465873e-11
3.4112765e-11
1.2177676e-11
3.4886734e-11
1.2602618e-11
3.5008154e-11
1.2131318e-11
3.469372e-11
1.1026043e-11
3.4312086e-11
9.9361304e-12
3.3642658e-11
8.5545606e-12
3.242676e-11
6.9999649e-12
3.1644829e-11
5.0036736e-12
3.1204068e-11
2.6360413e-12
3.025545e-11
2.3220915e-14
2.909041e-11
-2.8768631e-12
2.7695578e-11
-6.2530737e-12
2.6082762e-11
-1.0031198e-11
2.4239292e-11
-1.4019587e-11
2.2214956e-11
-1.8035916e-11
2.0032046e-11
-2.1957257e-11
1.7765627e-11
-2.5849265e-11
1.5375334e-11
-2.9520096e-11
1.2943248e-11
-3.2707516e-11
1.054564e-11
-3.5281312e-11
8.1867305e-12
-3.7152664e-11
5.8449797e-12
-3.8199304e-11
3.4578088e-12
1.0951432e-12
1.144371e-11
2.9963505e-11
1.3483424e-11
3.2073129e-11
1.5148907e-11
3.3221325e-11
1.6430558e-11
3.3726571e-11
1.7331935e-11
3.3792404e-11
1.7862753e-11
3.3781324e-11
1.8221177e-11
3.3284283e-11
1.8285237e-11
3.2362743e-11
1.8143136e-11
3.1786966e-11
1.8016666e-11
3.1330567e-11
1.7741593e-11
3.0530544e-11
1.7176915e-11
2.9655104e-11
1.6274661e-11
2.8597841e-11
1.5066261e-11
2.7291165e-11
1.358976e-11
2.571579e-11
1.1908299e-11
2.3896409e-11
1.0003088e-11
2.1937243e-11
7.9665864e-12
1.9802111e-11
5.9055935e-12
1.7436304e-11
3.9066736e-12
1.4942142e-11
2.0785164e-12
1.2373768e-11
5.0900112e-13
9.7562133e-12
-8.2631661e-13
7.1802619e-12
-1.6994614e-12
4.330917e-12
1.2150292e-12
1.1871452e-11
2.7154693e-11
1.4423568e-11
2.9521069e-11
1.6672584e-11
3.0972363e-11
1.8634297e-11
3.1764909e-11
2.0322568e-11
3.2104181e-11
2.2088223e-11
3.2015713e-11
2.3601384e-11
3.1771161e-11
2.4873207e-11
3.1090955e-11
2.6060611e-11
3.0599593e-11
2.7179124e-11
3.0212081e-11
2.814095e-11
2.9568741e-11
2.8850915e-11
2.8945158e-11
2.9350766e-11
2.8098004e-11
2.9764016e-11
2.6877926e-11
2.9856867e-11
2.5622945e-11
2.970159e-11
2.4051688e-11
2.9389602e-11
2.224923e-11
2.8954609e-11
2.02371e-11
2.8386055e-11
1.800485e-11
2.7771557e-11
1.5556629e-11
2.7146459e-11
1.2998852e-11
2.6608285e-11
1.0294372e-11
2.6364589e-11
7.4239381e-12
2.6170673e-11
4.5248133e-12
1.5447458e-12
1.0858263e-11
2.4591495e-11
1.3527066e-11
2.6852299e-11
1.6125898e-11
2.8373565e-11
1.8546701e-11
2.9344139e-11
2.0808751e-11
2.9842163e-11
2.2841344e-11
2.9983151e-11
2.4756114e-11
2.9856418e-11
2.6470611e-11
2.9376485e-11
2.8284657e-11
2.878557e-11
2.998119e-11
2.8515568e-11
3.1709576e-11
2.7840373e-11
3.3178688e-11
2.7476061e-11
3.4520613e-11
2.6756091e-11
3.5628622e-11
2.5769927e-11
3.6673515e-11
2.4578059e-11
3.754754e-11
2.3177667e-11
3.8262338e-11
2.1534434e-11
3.8827034e-11
1.9672402e-11
3.9195949e-11
1.7635932e-11
3.940881e-11
1.5343763e-11
3.9547249e-11
1.2860405e-11
3.9645483e-11
1.0196127e-11
3.983588e-11
7.2335288e-12
3.9869304e-11
4.4913759e-12
1.6819222e-12
9.4194513e-12
2.2187429e-11
1.1928583e-11
2.4343179e-11
1.4426932e-11
2.5875229e-11
1.6861648e-11
2.6909437e-11
1.9189055e-11
2.7514771e-11
2.140267e-11
2.776955e-11
2.3484002e-11
2.77751e-11
2.5310323e-11
2.7550176e-11
2.6973627e-11
2.7122276e-11
2.888595e-11
2.6603254e-11
3.072728e-11
2.5999051e-11
3.2573459e-11
2.5629889e-11
3.4302807e-11
2.5026747e-11
3.5910608e-11
2.4162129e-11
3.74068e-11
2.3081869e-11
3.8775682e-11
2.1808784e-11
3.9972847e-11
2.0337266e-11
4.1006027e-11
1.8639218e-11
4.1895902e-11
1.6746051e-11
4.2601458e-11
1.4638199e-11
4.3137336e-11
1.2324519e-11
4.3504516e-11
9.8289359e-12
4.3555272e-11
7.1827611e-12
4.365696e-11
4.3896759e-12
1.4649996e-12
8.0821818e-12
2.0047863e-11
1.0326364e-11
2.2098989e-11
1.2587412e-11
2.3614177e-11
1.4827808e-11
2.4669037e-11
1.7013168e-11
2.532941e-11
1.9129609e-11
2.5653108e-11
2.11489e-11
2.5755808e-11
2.3038534e-11
2.5660542e-11
2.4771195e-11
2.5389614e-11
2.6468296e-11
2.4906152e-11
2.8189958e-11
2.4277386e-11
3.0137909e-11
2.3681934e-11
3.1987621e-11
2.317703e-11
3.3759306e-11
2.2390439e-11
3.5441196e-11
2.1399973e-11
3.7014991e-11
2.0234982e-11
3.8466376e-11
1.8885873e-11
3.9760458e-11
1.7345128e-11
4.0895153e-11
1.5611347e-11
4.1859899e-11
1.3673443e-11
4.263885e-11
1.1545557e-11
4.321921e-11
9.2485638e-12
4.3592857e-11
6.8091011e-12
4.3827227e-11
4.1552936e-12
1.3216285e-12
7.0183226e-12
1.8173797e-11
9.0175832e-12
2.0099706e-11
1.1055144e-11
2.1576596e-11
1.3089431e-11
2.2634734e-11
1.5074015e-11
2.334481e-11
1.6993655e-11
2.3733455e-11
1.8916883e-11
2.3832566e-11
2.0796785e-11
2.3780628e-11
2.2594304e-11
2.3592083e-11
2.4267701e-11
2.3232743e-11
2.5898216e-11
2.264686e-11
2.7708729e-11
2.187141e-11
2.953083e-11
2.1354919e-11
3.132664e-11
2.0594618e-11
3.3056065e-11
1.9670538e-11
3.4700523e-11
1.8590512e-11
3.6243096e-11
1.7343289e-11
3.7662547e-11
1.5925666e-11
3.8941086e-11
1.4332796e-11
4.0049838e-11
1.256468e-11
4.0974092e-11
1.062129e-11
4.1712899e-11
8.509744e-12
4.2284425e-11
6.2375613e-12
4.2603163e-11
3.8365442e-12
1.2932907e-12
6.2262888e-12
1.6495618e-11
8.0295577e-12
1.8296406e-11
9.8980701e-12
1.9708055e-11
1.1777442e-11
2.0755336e-11
1.365854e-11
2.1463688e-11
1.549116e-11
2.1900812e-11
1.7275801e-11
2.2047904e-11
1.9052726e-11
2.2003684e-11
2.0836969e-11
2.1807822e-11
2.2578911e-11
2.1490785e-11
2.4208701e-11
2.1017054e-11
2.5739999e-11
2.0340097e-11
2.7589419e-11
1.9505484e-11
2.9362683e-11
1.882134e-11
3.1074429e-11
1.7958778e-11
3.2714268e-11
1.6950661e-11
3.4271019e-11
1.5786524e-11
3.5724787e-11
1.4471886e-11
3.7044479e-11
1.3013092e-11
3.8210391e-11
1.1398756e-11
3.9202316e-11
9.6293531e-12
3.9998023e-11
7.7140258e-12
4.0643997e-11
5.5915748e-12
4.1042728e-11
3.437804e-12
1.2334566e-12
5.6324882e-12
1.4945535e-11
7.2793714e-12
1.6649488e-11
9.025279e-12
1.7962115e-11
1.0786298e-11
1.8994286e-11
1.2558113e-11
1.9691844e-11
1.433729e-11
2.012161e-11
1.6051372e-11
2.0333798e-11
1.7761664e-11
2.0293369e-11
1.9467865e-11
2.01016e-11
2.1183415e-11
1.9775215e-11
2.2874428e-11
1.9326023e-11
2.44483e-11
1.8766207e-11
2.5958116e-11
1.7995652e-11
2.7684493e-11
1.7094948e-11
2.9407119e-11
1.6236139e-11
3.1003162e-11
1.5354605e-11
3.2526163e-11
1.4263511e-11
3.3959787e-11
1.3038251e-11
3.5260188e-11
1.171268e-11
3.6422365e-11
1.0236569e-11
3.7416802e-11
8.6349059e-12
3.8215281e-11
6.9155367e-12
3.866229e-11
5.1445565e-12
3.8999367e-11
3.1007193e-12
9.6288011e-13
5.1328069e-12
1.3521319e-11
6.6717079e-12
1.5110552e-11
8.2668346e-12
1.6366955e-11
9.9430029e-12
1.7318086e-11
1.1627422e-11
1.8007396e-11
1.3319042e-11
1.8429962e-11
1.5019615e-11
1.86332e-11
1.6662424e-11
1.8650537e-11
1.8305441e-11
1.8458561e-11
1.9945282e-11
1.8135354e-11
2.1578448e-11
1.7692839e-11
2.3201981e-11
1.7142658e-11
2.4722539e-11
1.6475078e-11
2.6156253e-11
1.566122e-11
2.7729241e-11
1.4663138e-11
2.9247874e-11
1.383596e-11
3.0729055e-11
1.2782321e-11
3.2128385e-11
1.1638911e-11
3.337753e-11
1.0463526e-11
3.4488321e-11
9.1257697e-12
3.5455381e-11
7.6678369e-12
3.6271545e-11
6.0993652e-12
3.7080119e-11
4.3359747e-12
3.7454304e-11
2.7265286e-12
1.0012293e-12
4.671311e-12
1.2218482e-11
6.0960952e-12
1.3685733e-11
7.5961328e-12
1.4866885e-11
9.1470522e-12
1.5767136e-11
1.0744645e-11
1.6409774e-11
1.2348029e-11
1.6826552e-11
1.3955329e-11
1.7025876e-11
1.5564168e-11
1.7041675e-11
1.7125275e-11
1.6897433e-11
1.8684657e-11
1.6575953e-11
2.0234992e-11
1.6142487e-11
2.1776469e-11
1.5601166e-11
2.3289393e-11
1.496214e-11
2.472619e-11
1.4224411e-11
2.6016232e-11
1.3373085e-11
2.7393939e-11
1.2458243e-11
2.8781464e-11
1.1394786e-11
3.0002945e-11
1.0417422e-11
3.1166159e-11
9.3003037e-12
3.2204942e-11
8.0869803e-12
3.3085887e-11
6.7868852e-12
3.3789951e-11
5.3952958e-12
3.4187861e-11
3.9380584e-12