/*--------------------------------*- C++ -*----------------------------------*\
| =========                 |                                                 |
| \\      /  F ield         | OpenFOAM: The Open Source CFD Toolbox           |
|  \\    /   O peration     | Version:  4.0                                   |
|   \\  /    A nd           | Web:      www.OpenFOAM.org                      |
|    \\/     M anipulation  |                                                 |
\*---------------------------------------------------------------------------*/
FoamFile
{
    version     2.0;
    format      ascii;
    class       volVectorField;
    location    "0.46";
    object      U;
}
// * * * * * * * * * * * * * * * * * * * * * * * * * * * * * * * * * * * * * //

dimensions      [0 1 -1 0 0 0 0];

internalField   nonuniform List<vector> 
1740
(
(1.3961855 -0.004904398 6.1820758e-06)
(1.4594532 -0.012871332 7.4774299e-07)
(1.6237606 -0.0063611254 4.6562739e-08)
(1.4929324 -0.015834776 8.841074e-06)
(1.5276213 -0.03146957 1.7245524e-06)
(1.641296 -0.018282399 2.8466445e-07)
(1.4980145 -0.0091734056 1.0727268e-05)
(1.5200282 -0.026565179 2.4818971e-06)
(1.5533429 -0.016893351 4.4899831e-07)
(1.5111282 -0.00084074114 1.2986041e-05)
(1.5561656 -0.0032124491 3.0206146e-06)
(1.5598921 -0.0093706759 5.6216546e-07)
(1.5042662 0.0085965465 1.4275233e-05)
(1.54286 0.021210732 4.1270872e-06)
(1.5457202 0.0076711987 7.7232158e-07)
(1.4607245 0.0030608053 1.6139724e-05)
(1.4713376 0.020120777 5.0263423e-06)
(1.5906391 0.01154675 9.4913927e-07)
(1.5167797 0.0054181998 1.6771093e-05)
(1.4872068 -0.0001382898 5.5888381e-06)
(1.6621544 -0.0095011495 1.1384331e-06)
(1.5232845 0.0085810311 1.7654309e-05)
(1.4944538 -0.0019992066 6.4681204e-06)
(1.595167 -0.0080022668 1.3299502e-06)
(1.4593465 0.00066777296 1.843941e-05)
(1.4559388 0.010790059 7.092605e-06)
(1.5962879 0.0075264702 1.5146742e-06)
(1.4902864 -0.0022854824 1.884919e-05)
(1.440658 0.0052812879 7.7236952e-06)
(1.6474869 0.0035798929 1.7089213e-06)
(1.4643666 -0.011899355 1.9332348e-05)
(1.5037835 -0.020668929 8.2544156e-06)
(1.6566525 -0.014518005 1.870584e-06)
(1.5503272 -0.0262646 1.9786365e-05)
(1.5297223 -0.042169234 8.9076668e-06)
(1.5779654 -0.020792995 2.1261887e-06)
(1.5934135 -0.016681443 2.0618841e-05)
(1.5681063 -0.026852838 9.4111939e-06)
(1.5132135 -0.010924561 2.2968465e-06)
(1.6014818 -0.0085521718 2.0730657e-05)
(1.5856318 0.0049870434 9.9661281e-06)
(1.5328117 0.0047650764 2.5019929e-06)
(1.6029658 -0.0006669703 2.0414055e-05)
(1.5173042 0.026441022 1.0372829e-05)
(1.5239145 0.014336476 2.7188778e-06)
(1.6039114 0.0022697831 2.0319552e-05)
(1.5105202 0.012456023 1.0795896e-05)
(1.593938 0.0074914039 2.8728517e-06)
(1.6070598 0.0023767234 2.079857e-05)
(1.5058083 -0.011444264 1.1178805e-05)
(1.5912837 -0.018941541 3.0762868e-06)
(1.5917722 0.007342577 2.1097894e-05)
(1.6011257 -0.023642002 1.1672736e-05)
(1.511971 -0.018985548 3.2371457e-06)
(1.6066402 -0.0079936849 2.1451042e-05)
(1.6460513 -0.010475674 1.2072416e-05)
(1.5211048 0.0007629293 3.4125858e-06)
(1.6154938 -0.017777891 2.1701207e-05)
(1.5390683 0.010884849 1.2484337e-05)
(1.4970085 0.01601049 3.557445e-06)
(1.704238 -0.014105445 2.2023659e-05)
(1.4858358 0.011331097 1.2828744e-05)
(1.5757281 0.010961241 3.7468325e-06)
(1.7053073 0.013930766 2.2013549e-05)
(1.4908708 -0.0038294167 1.3109997e-05)
(1.5819804 -0.0061538439 3.9310657e-06)
(1.6067989 0.0269735 2.20449e-05)
(1.560754 0.0031718291 1.341508e-05)
(1.5141071 -0.0052557578 4.0773974e-06)
(1.4963698 0.0033287428 2.2209573e-05)
(1.6036305 0.019577204 1.3682068e-05)
(1.531634 0.010499739 4.2845697e-06)
(1.5667093 -0.010189881 2.2230788e-05)
(1.5253616 0.015130068 1.398416e-05)
(1.5442484 0.010793827 4.4154973e-06)
(1.5599357 -0.0036643345 2.2331842e-05)
(1.5096362 -0.0090359076 1.4354155e-05)
(1.6017095 -0.0051051369 4.5232833e-06)
(1.5537888 0.0069801137 2.2200509e-05)
(1.5060188 -0.030876517 1.4648442e-05)
(1.5402764 -0.016805499 4.6778721e-06)
(1.5228994 0.007769047 2.24813e-05)
(1.5463222 -0.013140748 1.4879534e-05)
(1.4692188 -0.018145258 4.8521632e-06)
(1.3757269 0.0084671928 2.2269291e-05)
(1.5864394 -0.00147103 1.5077067e-05)
(1.4502913 -0.0014671441 4.8783846e-06)
(1.2756598 0.022689222 2.3450193e-05)
(1.3448538 0.11048011 1.5681027e-05)
(1.3522056 0.059642963 5.4994444e-06)
(0.83809245 0.36842129 1.1704633e-05)
(0.81128536 0.9341189 1.0007382e-05)
(0.74387099 1.2564163 5.4121999e-06)
(0.22035815 0.11046584 1.4993073e-06)
(0.19321931 0.36526286 3.0765925e-06)
(0.088147694 0.49933719 6.9053078e-07)
(-0.02654434 -0.013425266 1.2304893e-06)
(-0.023941085 -0.02725811 1.6814492e-06)
(-0.017384115 -0.032212837 5.8556249e-07)
(-0.0044013895 -0.002823872 4.5244127e-07)
(-0.0042296447 -0.0071028565 7.341605e-07)
(-0.0039981317 -0.0095177772 3.327575e-07)
(0.0011806899 -0.0001489748 1.2031583e-07)
(0.001258514 -0.00042221984 2.422276e-07)
(0.0007977235 -0.00068214574 1.0486721e-07)
(0.0013488767 5.8293828e-05 2.3528672e-08)
(0.0013932233 0.00017106766 5.125056e-08)
(0.001305362 0.0002659754 -1.1451968e-08)
(0.0011930773 7.8681274e-05 -5.8619729e-09)
(0.0012026753 0.00021221539 -1.6056351e-08)
(0.0011575979 0.0003593101 -5.6758325e-08)
(0.0010003614 7.7612223e-05 -1.4642613e-08)
(0.00098933891 0.00020710944 -3.6525618e-08)
(0.00093243874 0.00034648321 -6.7705191e-08)
(0.00080536315 6.8395835e-05 -1.4844862e-08)
(0.00078829779 0.00016542448 -3.7383888e-08)
(0.00073979254 0.00025519336 -6.23581e-08)
(0.00064202489 4.05698e-05 -1.1646951e-08)
(0.00062777047 0.00010270795 -3.0917165e-08)
(0.00058921115 0.0001550155 -5.0899773e-08)
(0.00052775048 2.464888e-05 -8.4048157e-09)
(0.00051638838 5.9480217e-05 -2.3381444e-08)
(0.00048640183 8.8622769e-05 -3.8912085e-08)
(0.00044995915 1.8194096e-05 -5.9701255e-09)
(0.0004410957 4.0080973e-05 -1.7065498e-08)
(0.00041783435 6.1230182e-05 -2.8717553e-08)
(0.00039317746 1.5298859e-05 -4.3442819e-09)
(0.00038627924 3.5012943e-05 -1.2352941e-08)
(0.0003680608 5.2805199e-05 -2.0783247e-08)
(0.00034740331 1.3882509e-05 -3.212867e-09)
(0.00034202338 3.2974611e-05 -8.8933241e-09)
(0.00032768031 5.1759156e-05 -1.4807012e-08)
(0.00030755986 1.30063e-05 -2.3768735e-09)
(0.00030336171 3.0637126e-05 -6.3202881e-09)
(0.00029198828 4.9192216e-05 -1.0348646e-08)
(0.00027217614 1.1640767e-05 -1.7066947e-09)
(0.0002688877 2.7807619e-05 -4.3739445e-09)
(0.00025979411 4.4047475e-05 -7.0428076e-09)
(0.00024108256 9.9464429e-06 -1.1659869e-09)
(0.00023849467 2.3896952e-05 -2.9125332e-09)
(0.00023116967 3.7871771e-05 -4.6358839e-09)
(0.00021406633 8.3360691e-06 -7.6031971e-10)
(0.00021201697 2.004416e-05 -1.8605985e-09)
(0.00020606552 3.1772383e-05 -2.9422615e-09)
(0.00019068043 7.0931288e-06 -4.8242706e-10)
(0.00018904873 1.6850219e-05 -1.1466091e-09)
(0.0001841667 2.6418345e-05 -1.8032246e-09)
(0.0001703613 6.0494201e-06 -3.0451836e-10)
(0.00016905323 1.4433746e-05 -6.8996822e-10)
(0.0001650118 2.2922796e-05 -1.0737214e-09)
(0.00015254494 5.3682339e-06 -1.9787685e-10)
(0.00015148761 1.2824685e-05 -4.1328248e-10)
(0.00014811379 2.0477098e-05 -6.27282e-10)
(0.00013676059 4.8460086e-06 -1.3607813e-10)
(0.00013589877 1.1585774e-05 -2.5242616e-10)
(0.00013305754 1.8521327e-05 -3.6452256e-10)
(0.0001226742 4.3671721e-06 -9.8338726e-11)
(0.00012196701 1.0446689e-05 -1.5912873e-10)
(0.00011955817 1.6739703e-05 -2.1338545e-10)
(0.00011006827 3.9087842e-06 -7.4478769e-11)
(0.00010948494 9.3422591e-06 -1.0479392e-10)
(0.00010743263 1.5009091e-05 -1.2775702e-10)
(9.8792091e-05 3.5026073e-06 -6.1328637e-11)
(9.8308911e-05 8.3802976e-06 -7.5431441e-11)
(9.6552737e-05 1.3427188e-05 -8.0618911e-11)
(8.8726765e-05 3.1255829e-06 -5.2475423e-11)
(8.8325207e-05 7.4847626e-06 -5.8031142e-11)
(8.6816475e-05 1.1984396e-05 -5.4534465e-11)
(7.976955e-05 2.767827e-06 -4.6302949e-11)
(7.9434279e-05 6.6371946e-06 -4.7382546e-11)
(7.8132646e-05 1.0652578e-05 -3.9934352e-11)
(7.1826467e-05 2.4441119e-06 -4.2146224e-11)
(7.1544999e-05 5.8718272e-06 -4.0901731e-11)
(7.0417103e-05 9.4352737e-06 -3.1821742e-11)
(6.4810177e-05 2.1529498e-06 -3.9400926e-11)
(6.457302e-05 5.1814051e-06 -3.7028477e-11)
(6.3591954e-05 8.3289109e-06 -2.7497919e-11)
(5.8639355e-05 1.8877373e-06 -3.7451318e-11)
(5.8439163e-05 4.5510923e-06 -3.454412e-11)
(5.7583075e-05 7.3183148e-06 -2.5215112e-11)
(5.3238326e-05 1.6444481e-06 -3.5993143e-11)
(5.3069185e-05 3.9703057e-06 -3.2786815e-11)
(5.2319828e-05 6.3851626e-06 -2.3965783e-11)
(4.8536063e-05 1.4235706e-06 -3.4907784e-11)
(4.8393093e-05 3.4440822e-06 -3.1565249e-11)
(4.7734823e-05 5.5377285e-06 -2.3330876e-11)
(4.4465187e-05 1.2264741e-06 -3.415375e-11)
(4.4344357e-05 2.973747e-06 -3.0636802e-11)
(4.3763808e-05 4.7787552e-06 -2.2955072e-11)
(4.0961641e-05 1.0481819e-06 -3.3473677e-11)
(4.0859608e-05 2.5481439e-06 -2.9805702e-11)
(4.0345405e-05 4.0936171e-06 -2.2652458e-11)
(3.7964917e-05 8.9110793e-07 -3.2959487e-11)
(3.7878901e-05 2.1734276e-06 -2.9082981e-11)
(3.7421262e-05 3.4881704e-06 -2.2409522e-11)
(3.5418563e-05 7.5021623e-07 -3.2312275e-11)
(3.5346191e-05 1.8360696e-06 -2.8269526e-11)
(3.493665e-05 2.953325e-06 -2.2184362e-11)
(3.3270112e-05 6.2756693e-07 -3.1922642e-11)
(3.3209334e-05 1.5414175e-06 -2.7660178e-11)
(3.2840542e-05 2.4776111e-06 -2.1981852e-11)
(3.147002e-05 5.2001951e-07 -3.1642366e-11)
(3.1419121e-05 1.283279e-06 -2.719136e-11)
(3.1084727e-05 2.0607254e-06 -2.1852979e-11)
(2.9971137e-05 4.273915e-07 -3.1411897e-11)
(2.9928663e-05 1.0598432e-06 -2.680336e-11)
(2.962326e-05 1.6987948e-06 -2.1779338e-11)
(2.8730198e-05 3.536927e-07 -3.125724e-11)
(2.8694913e-05 8.8148371e-07 -2.6485638e-11)
(2.8413921e-05 1.4136172e-06 -2.1746723e-11)
(2.7710261e-05 2.8660087e-07 -3.109717e-11)
(2.7681066e-05 7.1815129e-07 -2.6194122e-11)
(2.7420493e-05 1.1486083e-06 -2.172395e-11)
(2.6880604e-05 2.2883842e-07 -3.0947724e-11)
(2.685649e-05 5.7728897e-07 -2.5939699e-11)
(2.6612748e-05 9.2280759e-07 -2.1720766e-11)
(2.6213999e-05 1.8070462e-07 -3.0830879e-11)
(2.6194089e-05 4.5918828e-07 -2.5750277e-11)
(2.5964057e-05 7.3388944e-07 -2.1756303e-11)
(2.5684979e-05 1.4107591e-07 -3.0784662e-11)
(2.5668543e-05 3.607561e-07 -2.5671145e-11)
(2.5449623e-05 5.7568975e-07 -2.1854125e-11)
(2.5270578e-05 1.1011493e-07 -3.086634e-11)
(2.5257015e-05 2.8162499e-07 -2.5755969e-11)
(2.5047102e-05 4.4652681e-07 -2.2035072e-11)
(2.4951242e-05 8.8138959e-08 -3.1066639e-11)
(2.4939987e-05 2.2270747e-07 -2.5948627e-11)
(2.4737262e-05 3.4841471e-07 -2.2220887e-11)
(2.4710672e-05 6.1663647e-08 -3.1182727e-11)
(2.4701196e-05 1.695181e-07 -2.595717e-11)
(2.4503901e-05 2.7974083e-07 -2.2057592e-11)
(2.45229e-05 4.8308304e-08 -3.1109942e-11)
(2.4514654e-05 1.3014599e-07 -2.5357873e-11)
(2.4321214e-05 2.1209218e-07 -2.1051185e-11)
(2.4392956e-05 3.7020328e-08 -3.0490097e-11)
(2.4385433e-05 9.5251348e-08 -2.3205487e-11)
(2.4194459e-05 1.5048159e-07 -1.8299591e-11)
(2.4190181e-05 2.0008626e-08 -2.755113e-11)
(2.418243e-05 5.00033e-08 -1.7087367e-11)
(2.3993644e-05 7.7343723e-08 -1.2162282e-11)
(-0.045217376 1.9453188 -3.5721501e-07)
(-0.032493335 1.6904389 -3.4416251e-06)
(-0.061364132 0.341124 -2.5723369e-07)
(-0.043219302 0.15118366 -1.0078787e-06)
(-0.015127617 -0.040184264 -2.0543771e-07)
(-0.01185524 -0.04262151 -6.2538655e-07)
(-0.0039475554 -0.01211039 -1.0802256e-07)
(-0.0043067918 -0.013869168 -4.046634e-07)
(0.00014543411 -0.0014171108 -1.0987211e-07)
(-0.00057056609 -0.002396491 -2.9202151e-07)
(0.0010488327 0.0002188665 -1.2127688e-07)
(0.00067418715 2.5078757e-05 -2.2966191e-07)
(0.001028636 0.00047957823 -1.2016501e-07)
(0.00084164691 0.0005247624 -1.8676345e-07)
(0.00083092473 0.00048223877 -1.0859069e-07)
(0.00069905335 0.0005780081 -1.5177144e-07)
(0.00066037419 0.00033896453 -9.1036578e-08)
(0.00055912469 0.00041487761 -1.205855e-07)
(0.00052939914 0.000200839 -7.2016525e-08)
(0.00045730164 0.00023800479 -9.3053519e-08)
(0.00044176962 0.00011155731 -5.46547e-08)
(0.00038784192 0.00012781429 -6.9945514e-08)
(0.00038392157 7.6333583e-05 -4.0314838e-08)
(0.00034310594 8.5149076e-05 -5.1411522e-08)
(0.00034184845 6.7087362e-05 -2.9121788e-08)
(0.00031029034 7.5864116e-05 -3.7044041e-08)
(0.00030707466 6.5591356e-05 -2.0630745e-08)
(0.0002822241 7.6283484e-05 -2.6152142e-08)
(0.00027566296 6.4445846e-05 -1.4298547e-08)
(0.00025587287 7.6944287e-05 -1.8039318e-08)
(0.00024675309 5.9355352e-05 -9.6474723e-09)
(0.00023087003 7.1195921e-05 -1.2110375e-08)
(0.00022065938 5.1352586e-05 -6.3084497e-09)
(0.00020777483 6.0799871e-05 -7.885154e-09)
(0.00019748801 4.2669831e-05 -3.9874957e-09)
(0.00018692695 5.1032421e-05 -4.9697587e-09)
(0.00017709618 3.587965e-05 -2.4373201e-09)
(0.00016836155 4.3914682e-05 -3.0323192e-09)
(0.00015914056 3.1425484e-05 -1.4453889e-09)
(0.00015184023 3.8733149e-05 -1.794422e-09)
(0.00014319088 2.8150636e-05 -8.3605234e-10)
(0.00013703369 3.4709108e-05 -1.0330427e-09)
(0.00012889517 2.5457271e-05 -4.7525387e-10)
(0.00012366449 3.1472419e-05 -5.810187e-10)
(0.00011601695 2.2949072e-05 -2.6752364e-10)
(0.00011154772 2.8487604e-05 -3.2037746e-10)
(0.00010440544 2.0577448e-05 -1.5078441e-10)
(0.00010056763 2.5661195e-05 -1.7414081e-10)
(9.3953687e-05 1.8372113e-05 -8.6555074e-11)
(9.0645165e-05 2.3013028e-05 -9.4044065e-11)
(8.4576433e-05 1.6371064e-05 -5.1842509e-11)
(8.1713215e-05 2.0575991e-05 -5.1120852e-11)
(7.6194768e-05 1.4582878e-05 -3.3272115e-11)
(7.3708805e-05 1.8381648e-05 -2.8645906e-11)
(6.8734122e-05 1.2928641e-05 -2.3544511e-11)
(6.65698e-05 1.6349728e-05 -1.7261346e-11)
(6.2125206e-05 1.141384e-05 -1.8722024e-11)
(6.023488e-05 1.4442365e-05 -1.1869795e-11)
(5.6301219e-05 1.0034978e-05 -1.6545337e-11)
(5.4645472e-05 1.265961e-05 -9.6600544e-12)
(5.1196409e-05 8.759631e-06 -1.5721109e-11)
(4.9741902e-05 1.1033469e-05 -9.0632515e-12)
(4.6746718e-05 7.5925686e-06 -1.5547141e-11)
(4.5464458e-05 9.5570804e-06 -9.2084338e-12)
(4.2891289e-05 6.5487396e-06 -1.5640736e-11)
(4.1756716e-05 8.2415884e-06 -9.6384021e-12)
(3.9571766e-05 5.6173717e-06 -1.5813665e-11)
(3.8563978e-05 7.0729731e-06 -1.0148647e-11)
(3.6732079e-05 4.7813516e-06 -1.5997268e-11)
(3.5832766e-05 6.0172521e-06 -1.0643937e-11)
(3.4319288e-05 4.0515939e-06 -1.6212405e-11)
(3.3512376e-05 5.0920008e-06 -1.1138762e-11)
(3.2284005e-05 3.3998756e-06 -1.6378851e-11)
(3.155545e-05 4.2796538e-06 -1.1593456e-11)
(3.0579527e-05 2.8299148e-06 -1.6561406e-11)
(2.9917152e-05 3.5691955e-06 -1.2017295e-11)
(2.916131e-05 2.3351297e-06 -1.6767524e-11)
(2.8554711e-05 2.9541616e-06 -1.2431155e-11)
(2.7988364e-05 1.9292583e-06 -1.6982541e-11)
(2.7428709e-05 2.4056131e-06 -1.2833551e-11)
(2.7025345e-05 1.5671646e-06 -1.7195008e-11)
(2.6504933e-05 1.9603971e-06 -1.3222055e-11)
(2.6242652e-05 1.2615743e-06 -1.7407292e-11)
(2.5754581e-05 1.5831317e-06 -1.3589702e-11)
(2.5614322e-05 1.0045283e-06 -1.7628996e-11)
(2.5152541e-05 1.2617908e-06 -1.3940998e-11)
(2.5116356e-05 7.8850307e-07 -1.786797e-11)
(2.467583e-05 9.9126353e-07 -1.4275952e-11)
(2.4727159e-05 6.1083542e-07 -1.8110878e-11)
(2.4303805e-05 7.691885e-07 -1.4564398e-11)
(2.4427925e-05 4.731079e-07 -1.8253045e-11)
(2.4018209e-05 5.9554486e-07 -1.4697007e-11)
(2.4202571e-05 3.8216411e-07 -1.7988078e-11)
(2.3803163e-05 4.7350126e-07 -1.4426496e-11)
(2.4025622e-05 2.9324368e-07 -1.6876379e-11)
(2.3633664e-05 3.6859491e-07 -1.339328e-11)
(2.3902556e-05 2.0669636e-07 -1.4189875e-11)
(2.3515414e-05 2.5995178e-07 -1.1037833e-11)
(2.3705177e-05 1.0535712e-07 -8.9406961e-12)
(2.3322558e-05 1.3242394e-07 -6.7543406e-12)
(-0.0043190465 2.5352612e-05 -1.072715e-07)
(-0.0042053569 -1.2091309e-06 -2.5414523e-07)
(-0.0039901913 1.1290469e-05 -3.590265e-07)
(-0.0037394326 -2.9761722e-05 -4.2473053e-07)
(-0.0034776268 -6.2349896e-05 -4.596459e-07)
(-0.0032152743 -0.00011506271 -4.7327775e-07)
(-0.0029556898 -0.000174282 -4.7283705e-07)
(-0.0027007572 -0.00024391331 -4.6341336e-07)
(-0.002451902 -0.00032182558 -4.4854945e-07)
(-0.002211445 -0.00040541264 -4.3068969e-07)
(-0.0019821521 -0.0004928501 -4.1152305e-07)
(-0.0017656628 -0.00058017649 -3.9205675e-07)
(-0.0015629385 -0.00066346326 -3.727642e-07)
(-0.0013743473 -0.00074038021 -3.5371376e-07)
(-0.0011997903 -0.00080989157 -3.3475274e-07)
(-0.0010388226 -0.00087100738 -3.1559998e-07)
(-0.00089083828 -0.00092430558 -2.958682e-07)
(-0.00075491289 -0.00096927383 -2.7500937e-07)
(-0.00062968002 -0.0010037843 -2.5242359e-07)
(-0.00051394902 -0.0010279821 -2.274142e-07)
(-0.00040667669 -0.0010414609 -1.9922651e-07)
(-0.00030669162 -0.0010447696 -1.6674163e-07)
(-0.00021289624 -0.0010386495 -1.2898497e-07)
(-0.00012452892 -0.0010281606 -8.5330987e-08)
(-4.0655833e-05 -0.00097615349 -3.5172217e-08)
(0.00020927955 -0.00010014863 -1.233771e-07)
(0.00023607263 -0.00045039727 -2.8826007e-07)
(0.00026385968 -0.00065725332 -3.9962933e-07)
(0.00029010577 -0.00097459311 -4.6321237e-07)
(0.00032005457 -0.0012469584 -4.9238232e-07)
(0.00035494855 -0.0015527525 -5.0012594e-07)
(0.00039131498 -0.0018516589 -4.947225e-07)
(0.00042283801 -0.0021750348 -4.8149239e-07)
(0.000442038 -0.0025187885 -4.6376324e-07)
(0.00044885526 -0.0028540927 -4.4370338e-07)
(0.00044416214 -0.0031757361 -4.2296496e-07)
(0.00043023726 -0.0034812133 -4.0242514e-07)
(0.00040945095 -0.0037664127 -3.8243743e-07)
(0.00038385774 -0.0040294129 -3.6292041e-07)
(0.0003546526 -0.0042690924 -3.4363484e-07)
(0.00032278709 -0.0044871073 -3.2427395e-07)
(0.00028914403 -0.004694461 -3.0449988e-07)
(0.00025437949 -0.0048836677 -2.8363595e-07)
(0.00021871252 -0.0050312411 -2.6112923e-07)
(0.00018248671 -0.0051300726 -2.3622033e-07)
(0.00014630846 -0.0051778613 -2.0843917e-07)
(0.00011070911 -0.0051773025 -1.7601386e-07)
(7.6047118e-05 -0.005131958 -1.3766515e-07)
(4.2714993e-05 -0.0050272546 -9.1763972e-08)
(1.1757056e-05 -0.0047993565 -3.9660812e-08)
(0.0010503169 -0.00027896362 -1.6188263e-07)
(0.0011038572 -0.001442397 -3.6448797e-07)
(0.001170255 -0.0019665654 -4.8498333e-07)
(0.0012491664 -0.0028749255 -5.3944007e-07)
(0.0013199017 -0.0036385492 -5.5520735e-07)
(0.0013667663 -0.0044422067 -5.5081139e-07)
(0.0013833321 -0.0052406351 -5.3559502e-07)
(0.0013694679 -0.0061899288 -5.1524405e-07)
(0.0013315289 -0.0072571982 -4.9229485e-07)
(0.0012745603 -0.0082395914 -4.6806339e-07)
(0.0012035012 -0.0090955874 -4.4444516e-07)
(0.0011238729 -0.0098208964 -4.2198135e-07)
(0.0010388859 -0.010414726 -4.0085827e-07)
(0.00094982845 -0.010886136 -3.8062178e-07)
(0.00085854514 -0.011241983 -3.6086906e-07)
(0.00076653888 -0.011483927 -3.4123649e-07)
(0.00067518355 -0.011604438 -3.2177086e-07)
(0.0005852429 -0.011622695 -3.0115464e-07)
(0.00049703903 -0.01156785 -2.7925096e-07)
(0.00041116743 -0.011455096 -2.5532287e-07)
(0.00032843045 -0.011294509 -2.2848453e-07)
(0.0002488362 -0.01109509 -1.9730025e-07)
(0.00017218419 -0.010863558 -1.5978832e-07)
(9.8819656e-05 -0.010570447 -1.1255362e-07)
(3.0387617e-05 -0.010167867 -5.5362687e-08)
(0.0035513014 -0.00099400787 -2.4443157e-07)
(0.0035854131 -0.0046043566 -5.0559407e-07)
(0.0036148783 -0.0059390554 -6.2524211e-07)
(0.0035071694 -0.0091981934 -6.5479273e-07)
(0.0033371617 -0.01212583 -6.4637206e-07)
(0.0031003454 -0.014725238 -6.229544e-07)
(0.0028379656 -0.016569698 -5.9320524e-07)
(0.0025632105 -0.017548643 -5.6398348e-07)
(0.0022951738 -0.017841667 -5.3512147e-07)
(0.0020387865 -0.017708278 -5.050328e-07)
(0.0017994354 -0.017257548 -4.7769496e-07)
(0.0015811643 -0.016611101 -4.52644e-07)
(0.0013809964 -0.01578862 -4.3030957e-07)
(0.0011861206 -0.0148434 -4.0928623e-07)
(0.0010108142 -0.013827572 -3.8901606e-07)
(0.00085537517 -0.012786777 -3.6923459e-07)
(0.00071830869 -0.011760181 -3.4961364e-07)
(0.00059769961 -0.010781639 -3.2968764e-07)
(0.00049175977 -0.009874543 -3.0896284e-07)
(0.00039814458 -0.0090591242 -2.8680099e-07)
(0.00031418264 -0.0083485228 -2.6237975e-07)
(0.00023781466 -0.0077475436 -2.3449834e-07)
(0.00016750872 -0.0072563047 -2.0134903e-07)
(0.00010140609 -0.0068327618 -1.5988981e-07)
(3.7405455e-05 -0.0065245483 -1.0058313e-07)
(0.011192486 -0.0086974482 -4.3179468e-07)
(0.0089877691 -0.02565502 -7.4386759e-07)
(0.0079819227 -0.028204315 -8.2699037e-07)
(0.006323629 -0.032563863 -8.1414791e-07)
(0.0049316512 -0.030071292 -7.7440589e-07)
(0.0037071501 -0.026307412 -7.2638768e-07)
(0.0026730069 -0.021599944 -6.7898655e-07)
(0.0018437435 -0.016633075 -6.3485966e-07)
(0.0011924104 -0.01166893 -5.9566265e-07)
(0.00068691291 -0.0070723314 -5.5968258e-07)
(0.00030178879 -0.0029109802 -5.2732976e-07)
(1.4506817e-05 0.00066007241 -4.9731705e-07)
(-0.00019212372 0.0039763305 -4.7334224e-07)
(-0.00032534161 0.0071406866 -4.506883e-07)
(-0.00041010542 0.01005318 -4.2887427e-07)
(-0.00045389406 0.012582105 -4.0807127e-07)
(-0.00046521337 0.014695017 -3.8796423e-07)
(-0.00045100226 0.016409387 -3.6815655e-07)
(-0.00041684983 0.017753801 -3.4820777e-07)
(-0.00036760479 0.018757664 -3.2761451e-07)
(-0.000307696 0.019446738 -3.0574513e-07)
(-0.00024053205 0.019847237 -2.8170678e-07)
(-0.00016847975 0.019957067 -2.5405591e-07)
(-9.4844768e-05 0.019833575 -2.2706582e-07)
(-2.1427771e-05 0.01913872 -2.0017691e-07)
(0.013672147 0.02328802 -7.9223194e-07)
(0.0034040107 -0.0017502885 -1.1195435e-06)
(0.00082445576 0.04797941 -1.1218064e-06)
(-0.00099343424 0.050648836 -1.0487898e-06)
(-0.0025928311 0.06493383 -9.7182412e-07)
(-0.0037826986 0.07526421 -8.8592301e-07)
(-0.0044512107 0.08246908 -8.0922275e-07)
(-0.0046626168 0.088498623 -7.4284605e-07)
(-0.0045908317 0.092947749 -6.8507542e-07)
(-0.0043794552 0.095720034 -6.3540185e-07)
(-0.0040960809 0.097305411 -5.9334435e-07)
(-0.0037555655 0.097809279 -5.496272e-07)
(-0.0034095315 0.097564766 -5.2471155e-07)
(-0.0030702898 0.096284327 -4.9785381e-07)
(-0.0027278562 0.094141271 -4.712608e-07)
(-0.0023929445 0.091727556 -4.4744623e-07)
(-0.0020760972 0.089108364 -4.2534392e-07)
(-0.0017784823 0.086368648 -4.0434207e-07)
(-0.0014994159 0.083585898 -3.8395966e-07)
(-0.0012370178 0.080818516 -3.637448e-07)
(-0.00098870666 0.078103797 -3.4320594e-07)
(-0.00075238814 0.075484336 -3.2173222e-07)
(-0.00052593441 0.072932231 -2.9868655e-07)
(-0.00030759713 0.070635294 -2.7491098e-07)
(-9.2069985e-05 0.0671577 -2.5163379e-07)
(-0.0024211467 1.1707453 -2.5137832e-06)
(-0.0010428788 0.9593987 -1.9983693e-06)
(-0.0011996197 0.86426851 -1.6208849e-06)
(-0.00083301806 0.772391 -1.3314354e-06)
(-0.00068133172 0.67675416 -1.1144286e-06)
(-0.00056438099 0.58563828 -9.5418666e-07)
(-0.00046257076 0.50742334 -8.3579886e-07)
(-0.00037937914 0.44384876 -7.5015643e-07)
(-0.00030883052 0.39139036 -6.8278593e-07)
(-0.00025452506 0.34660125 -6.3114302e-07)
(-0.00020582145 0.30794316 -5.903957e-07)
(-0.0001633859 0.27467136 -5.5437958e-07)
(-0.00012788604 0.24621605 -5.2445894e-07)
(-0.00010780394 0.22185307 -4.9828466e-07)
(-8.9352627e-05 0.20092613 -4.7445898e-07)
(-7.4010998e-05 0.18295589 -4.5240673e-07)
(-6.0838238e-05 0.16751356 -4.3161784e-07)
(-5.0143096e-05 0.15423725 -4.1168686e-07)
(-4.1198592e-05 0.14282548 -3.9228645e-07)
(-3.3445908e-05 0.13302961 -3.7311283e-07)
(-2.6448853e-05 0.12463399 -3.5382318e-07)
(-1.9856698e-05 0.11749711 -3.3392853e-07)
(-1.3613387e-05 0.11137736 -3.1313124e-07)
(-7.7295668e-06 0.10655822 -2.9119804e-07)
(-2.089744e-06 0.10054844 -2.6752376e-07)
(-0.013592565 0.090002971 -1.2228994e-06)
(-0.0030566199 0.097915342 -1.2643841e-06)
(-0.00044099172 0.10372063 -1.2196921e-06)
(0.0013894725 0.10551962 -1.129252e-06)
(0.0029565608 0.10765743 -1.0265912e-06)
(0.004100172 0.10937312 -9.268773e-07)
(0.0047244357 0.1110381 -8.3807772e-07)
(0.0048938374 0.11257667 -7.6198898e-07)
(0.0047821809 0.11338247 -6.8149542e-07)
(0.004520188 0.11345224 -6.3723325e-07)
(0.0042121198 0.11276005 -5.9667607e-07)
(0.0038816754 0.11110274 -5.5378291e-07)
(0.0035135935 0.10859434 -5.1785268e-07)
(0.0031433569 0.10558418 -4.8701675e-07)
(0.0027838504 0.10231856 -4.5989555e-07)
(0.0024409997 0.098922895 -4.3555529e-07)
(0.0021179829 0.095480472 -4.1328082e-07)
(0.0018124836 0.092059975 -3.9248215e-07)
(0.0015257369 0.088713948 -3.7265086e-07)
(0.0012565951 0.085480396 -3.5330243e-07)
(0.0010030758 0.082381061 -3.3388982e-07)
(0.00076290201 0.079445685 -3.136877e-07)
(0.0005334447 0.07663687 -2.9301816e-07)
(0.00031248616 0.074146806 -2.7069568e-07)
(9.4187548e-05 0.070454742 -2.4829222e-07)
(-0.0095885208 -0.040811834 -8.4979191e-07)
(-0.0081639798 -0.038979984 -9.1523535e-07)
(-0.0066716106 -0.037377082 -9.0239518e-07)
(-0.0051982933 -0.033919604 -8.5635185e-07)
(-0.0038613151 -0.028957022 -7.9817028e-07)
(-0.0027222804 -0.023320619 -7.370393e-07)
(-0.0017885953 -0.017513906 -6.8027597e-07)
(-0.0010574453 -0.011873448 -6.2844821e-07)
(-0.00050282725 -0.006824332 -5.8024339e-07)
(-8.1936693e-05 -0.002350723 -5.4413727e-07)
(0.00022325376 0.0014842905 -5.1101991e-07)
(0.00043678761 0.0052225358 -4.8015896e-07)
(0.00057638815 0.0087929437 -4.5241371e-07)
(0.00065912891 0.011987531 -4.274679e-07)
(0.00069665864 0.014737612 -4.0476081e-07)
(0.00069785228 0.017043303 -3.8378592e-07)
(0.00066992173 0.018936299 -3.6413403e-07)
(0.00062342249 0.020457719 -3.4534014e-07)
(0.00056113117 0.021632618 -3.2693011e-07)
(0.00048640209 0.022481213 -3.0836049e-07)
(0.00040237184 0.023024636 -2.8886977e-07)
(0.00031199613 0.023283886 -2.671289e-07)
(0.00021786199 0.023269018 -2.4586631e-07)
(0.00012328375 0.023024081 -2.2025229e-07)
(3.0096437e-05 0.022177342 -1.9515499e-07)
(-0.0046020282 -0.01570021 -5.7769258e-07)
(-0.0045402439 -0.018402532 -6.5298247e-07)
(-0.0043027328 -0.021263995 -6.6754897e-07)
(-0.003980573 -0.023298232 -6.5061394e-07)
(-0.0036070771 -0.024551435 -6.2099023e-07)
(-0.0032139431 -0.024947935 -5.8869901e-07)
(-0.0028438452 -0.024668313 -5.4937244e-07)
(-0.0024968155 -0.023950305 -5.1266687e-07)
(-0.0021767508 -0.022962541 -4.7936116e-07)
(-0.0018956624 -0.021775719 -4.5096265e-07)
(-0.0016422024 -0.020476263 -4.2519067e-07)
(-0.0014087899 -0.019046029 -4.0146405e-07)
(-0.0011983881 -0.017553511 -3.7974114e-07)
(-0.0010134799 -0.016051112 -3.5983798e-07)
(-0.00085243176 -0.014575367 -3.4123367e-07)
(-0.00071350294 -0.013160135 -3.2352139e-07)
(-0.0005949769 -0.011838716 -3.0660452e-07)
(-0.00049018202 -0.010642023 -2.8992388e-07)
(-0.00039898202 -0.0095794461 -2.7296984e-07)
(-0.00031983038 -0.0086511249 -2.5513249e-07)
(-0.00025081226 -0.0078571679 -2.3557248e-07)
(-0.00018982496 -0.0071969717 -2.1313979e-07)
(-0.00013480119 -0.0066669964 -1.8664934e-07)
(-8.3361159e-05 -0.0062266536 -1.5082711e-07)
(-3.2596802e-05 -0.0059264438 -9.6895128e-08)
(-0.0010801541 -0.0035009191 -4.1639491e-07)
(-0.0013923563 -0.0046157385 -4.8514466e-07)
(-0.001592444 -0.0057225281 -5.1177846e-07)
(-0.0016984241 -0.0067343127 -5.1217035e-07)
(-0.0017448396 -0.0077082859 -4.9804845e-07)
(-0.0017387672 -0.0088102239 -4.7653547e-07)
(-0.0016906222 -0.0099814001 -4.5026962e-07)
(-0.0016086806 -0.010992195 -4.2377713e-07)
(-0.0015113453 -0.011839801 -3.9887396e-07)
(-0.0014081858 -0.012524236 -3.7625559e-07)
(-0.0013008616 -0.013064986 -3.5546865e-07)
(-0.0011932865 -0.013464264 -3.3621087e-07)
(-0.0010861631 -0.013729353 -3.1832098e-07)
(-0.00098066421 -0.013843774 -3.0195493e-07)
(-0.00087776158 -0.013835572 -2.8622501e-07)
(-0.00077744671 -0.01374533 -2.7122654e-07)
(-0.00067968758 -0.01359586 -2.5628544e-07)
(-0.00058746284 -0.013401467 -2.411216e-07)
(-0.0004988243 -0.013172351 -2.2525962e-07)
(-0.00041324152 -0.012915525 -2.0809286e-07)
(-0.00033049361 -0.012636516 -1.887037e-07)
(-0.00025049831 -0.012340677 -1.6574575e-07)
(-0.00017335929 -0.012031307 -1.3723252e-07)
(-9.9503841e-05 -0.011670493 -9.9010958e-08)
(-3.0804593e-05 -0.011215954 -5.0269133e-08)
(0.00033824065 -0.00035117726 -3.137775e-07)
(9.4271117e-05 -0.00082301774 -3.6803449e-07)
(-0.00010096092 -0.0013153645 -3.9574329e-07)
(-0.00024804436 -0.0018041096 -4.0403377e-07)
(-0.00037165164 -0.0022904598 -3.995941e-07)
(-0.00046967949 -0.0027919903 -3.8738136e-07)
(-0.00053735707 -0.003293019 -3.7061325e-07)
(-0.00058197323 -0.0037581907 -3.5212952e-07)
(-0.00059960044 -0.0041858593 -3.3362545e-07)
(-0.00059644216 -0.0045670409 -3.1592596e-07)
(-0.00058055268 -0.0049067974 -2.9920499e-07)
(-0.00055592248 -0.0052111009 -2.8345073e-07)
(-0.00052457855 -0.005494814 -2.6860558e-07)
(-0.00048864862 -0.0057844042 -2.5461165e-07)
(-0.00044942524 -0.0060698004 -2.4114137e-07)
(-0.00040739685 -0.006314105 -2.2798948e-07)
(-0.00036316054 -0.0065093423 -2.1477589e-07)
(-0.00031825478 -0.0066536112 -2.0114117e-07)
(-0.00027294018 -0.006746983 -1.8662761e-07)
(-0.00022748026 -0.0067892649 -1.7080888e-07)
(-0.00018222439 -0.0067817028 -1.5287909e-07)
(-0.00013761575 -0.006727356 -1.3153701e-07)
(-9.4163781e-05 -0.0066309665 -1.0551962e-07)
(-5.2569409e-05 -0.0064745836 -7.2626095e-08)
(-1.4483454e-05 -0.0061834695 -3.3358689e-08)
(0.00064257866 0.00047949149 -2.4305084e-07)
(0.00048371492 0.00038305642 -2.834263e-07)
(0.00036868194 0.00026292311 -3.0763355e-07)
(0.00027129923 0.00011275986 -3.1837383e-07)
(0.00019336049 -5.6352703e-05 -3.1915318e-07)
(0.00012328257 -0.00023413236 -3.1313038e-07)
(5.674143e-05 -0.0004216063 -3.0280937e-07)
(-6.2597825e-06 -0.00060560637 -2.9021992e-07)
(-5.1587441e-05 -0.00078032404 -2.7675795e-07)
(-8.2115785e-05 -0.00094638267 -2.6324599e-07)
(-0.00010201025 -0.001099109 -2.5007088e-07)
(-0.00011423979 -0.0012358691 -2.3738649e-07)
(-0.00011990299 -0.0013575089 -2.252246e-07)
(-0.0001199326 -0.001467008 -2.1353348e-07)
(-0.00011561179 -0.0015632306 -2.0214647e-07)
(-0.0001084756 -0.0016433342 -1.9086279e-07)
(-9.9128965e-05 -0.0017081709 -1.7941149e-07)
(-8.8522838e-05 -0.0017580891 -1.6748579e-07)
(-7.7063232e-05 -0.0017931889 -1.5472372e-07)
(-6.5056832e-05 -0.001813428 -1.4072533e-07)
(-5.2774064e-05 -0.0018189249 -1.2499843e-07)
(-4.0468096e-05 -0.0018102684 -1.0684825e-07)
(-2.8380555e-05 -0.0017901713 -8.553352e-08)
(-1.6402028e-05 -0.0017577694 -6.0282911e-08)
(-4.4975262e-06 -0.0016700473 -2.9867906e-08)
(0.000569384 0.00062543968 -1.8995785e-07)
(0.00045894595 0.0006352652 -2.1928466e-07)
(0.00038061359 0.00062574149 -2.3881892e-07)
(0.0003173452 0.00061084084 -2.4931516e-07)
(0.00026282868 0.00058930193 -2.5246163e-07)
(0.00021546828 0.00055370287 -2.5014693e-07)