/*--------------------------------*- C++ -*----------------------------------*\
| =========                 |                                                 |
| \\      /  F ield         | OpenFOAM: The Open Source CFD Toolbox           |
|  \\    /   O peration     | Version:  4.0                                   |
|   \\  /    A nd           | Web:      www.OpenFOAM.org                      |
|    \\/     M anipulation  |                                                 |
\*---------------------------------------------------------------------------*/
FoamFile
{
    version     2.0;
    format      ascii;
    class       volScalarField;
    location    "0.4";
    object      k;
}
// * * * * * * * * * * * * * * * * * * * * * * * * * * * * * * * * * * * * * //

dimensions      [0 2 -2 0 0 0 0];

internalField   nonuniform List<scalar> 
1740
(
0.0088876314
0.0087904405
0.018243624
0.0091831455
0.0097747674
0.027099507
0.0095193327
0.010381455
0.034809812
0.0097125113
0.010760483
0.041659396
0.0099032587
0.011230185
0.047355835
0.010031928
0.011639213
0.052279603
0.01007043
0.011990567
0.055905029
0.010072144
0.012221592
0.058877686
0.010101107
0.012413278
0.061456178
0.010103441
0.01283607
0.063763773
0.010082461
0.013299547
0.065902636
0.0099711678
0.013501801
0.066719244
0.0098706448
0.013400344
0.06802904
0.0097754765
0.013455997
0.069415842
0.0096459892
0.013540081
0.06958512
0.0094979943
0.013603954
0.070703039
0.0093820915
0.013895649
0.071734022
0.0093198219
0.013972193
0.07160091
0.0091599705
0.013981734
0.072210232
0.0090508607
0.014338113
0.072692804
0.0090401602
0.01449273
0.072668999
0.008969617
0.014481817
0.072972767
0.0088186881
0.014732143
0.073101661
0.0087489402
0.015121914
0.072677122
0.0086177577
0.015101465
0.072444787
0.0084873416
0.014906053
0.072549607
0.008407873
0.014790495
0.071849585
0.0083981649
0.014761824
0.071413898
0.0083983619
0.014825383
0.070801091
0.0090037479
0.01594148
0.065914139
0.012812104
0.017977111
0.046785587
0.024017719
0.031198671
0.039742838
0.01028661
0.012525507
0.013688535
0.0042756183
0.0046072297
0.0046682801
0.0020805671
0.0021230669
0.0020967148
0.0011420886
0.0011428959
0.0011244931
0.00068764032
0.00068503774
0.00067681467
0.00044345132
0.00044205555
0.00043919178
0.00030005507
0.00029963513
0.00029908983
0.00020921141
0.00020924291
0.00020954737
0.00014796475
0.00014814369
0.00014865833
0.00010473216
0.00010492254
0.00010539996
7.3379217e-05
7.3532449e-05
7.3897279e-05
5.0468821e-05
5.0575751e-05
5.0823852e-05
3.3897382e-05
3.3964516e-05
3.4118119e-05
2.2200399e-05
2.2238745e-05
2.2325808e-05
1.4220605e-05
1.4240528e-05
1.4285616e-05
8.9849239e-06
8.9942291e-06
9.015364e-06
5.6881529e-06
5.6920519e-06
5.7009946e-06
3.6993202e-06
3.7008386e-06
3.7043536e-06
2.5511174e-06
2.5517506e-06
2.5532243e-06
1.9198263e-06
1.9202346e-06
1.9211715e-06
1.5947769e-06
1.5952036e-06
1.5961607e-06
1.4450651e-06
1.4455652e-06
1.4466739e-06
1.3925521e-06
1.3931112e-06
1.3943446e-06
1.3922563e-06
1.3928439e-06
1.3941371e-06
1.4191336e-06
1.419723e-06
1.421018e-06
1.4596639e-06
1.4602366e-06
1.461494e-06
1.5067459e-06
1.5072914e-06
1.508488e-06
1.556725e-06
1.557238e-06
1.5583627e-06
1.607725e-06
1.6082036e-06
1.6092525e-06
1.6587423e-06
1.6591866e-06
1.6601599e-06
1.7091641e-06
1.709575e-06
1.7104749e-06
1.7585105e-06
1.7588895e-06
1.7597193e-06
1.8062855e-06
1.8066342e-06
1.8073975e-06
1.8518691e-06
1.8521893e-06
1.85289e-06
1.8944139e-06
1.8947074e-06
1.8953495e-06
1.9327208e-06
1.9329893e-06
1.9335767e-06
1.9650801e-06
1.9653254e-06
1.9658619e-06
1.9890706e-06
1.9892945e-06
1.9897842e-06
2.0013194e-06
2.0015237e-06
2.0019704e-06
1.9972389e-06
1.9974252e-06
1.9978327e-06
1.9707815e-06
1.9709515e-06
1.9713233e-06
1.9142887e-06
1.914444e-06
1.9147833e-06
1.8185606e-06
1.8187025e-06
1.8190123e-06
1.6733495e-06
1.6734789e-06
1.673761e-06
1.4686226e-06
1.4687393e-06
1.4689932e-06
1.1969778e-06
1.197079e-06
1.1972985e-06
8.5657743e-07
8.5665561e-07
8.5680654e-07
4.5018137e-07
4.5019974e-07
4.4848667e-07
0.055887536
0.060661126
0.046119328
0.046586362
0.012461231
0.011338861
0.0043531859
0.004118814
0.0020023357
0.0019404433
0.0010939779
0.0010778534
0.00066741491
0.0006650055
0.00043712675
0.00043875964
0.00029949589
0.00030199077
0.00021061802
0.00021292919
0.00014973105
0.00015156655
0.00010626236
0.00010760036
7.4515457e-05
7.5427673e-05
5.1230482e-05
5.1813896e-05
3.4365281e-05
3.4714071e-05
2.2464501e-05
2.2658378e-05
1.435717e-05
1.4456775e-05
9.049017e-06
9.0959356e-06
5.7153807e-06
5.7355899e-06
3.7100917e-06
3.7182549e-06
2.5556602e-06
2.5591658e-06
1.9226925e-06
1.9248511e-06
1.5976614e-06
1.5997272e-06
1.4483783e-06
1.4506801e-06
1.3962239e-06
1.3987392e-06
1.3960991e-06
1.398713e-06
1.4229782e-06
1.4255827e-06
1.4633941e-06
1.4659144e-06
1.5102943e-06
1.5126871e-06
1.560059e-06
1.5623038e-06
1.6108334e-06
1.6129238e-06
1.6616259e-06
1.6635632e-06
1.7118298e-06
1.7136192e-06
1.7609681e-06
1.7626167e-06
1.8085459e-06
1.8100614e-06
1.853944e-06
1.8553343e-06
1.8963149e-06
1.8975881e-06
1.9344597e-06
1.9356236e-06
1.9666684e-06
1.9677311e-06
1.9905201e-06
1.9914895e-06
2.0026416e-06
2.0035253e-06
1.9984447e-06
1.9992502e-06
1.9718814e-06
1.9726155e-06
1.9152924e-06
1.9159613e-06
1.8194764e-06
1.8200852e-06
1.6741827e-06
1.6747347e-06
1.4693717e-06
1.4698661e-06
1.1976251e-06
1.1980487e-06
8.5705689e-07
8.5736909e-07
4.4860615e-07
4.4875216e-07
5.9563547e-06
2.7105044e-05
0.00013453713
0.00030523336
0.0004625983
0.00057361468
0.00064390493
0.0006874793
0.00071613308
0.00073700688
0.00075414583
0.00077057649
0.00078594357
0.00080000819
0.00081245945
0.00082274945
0.00082989884
0.00083225047
0.00082710059
0.00081018792
0.00077498617
0.0007118363
0.00060724111
0.00044402033
0.00020115969
2.6079042e-06
5.4767207e-05
0.00025111939
0.00051614867
0.00072821494
0.00085977109
0.00093568072
0.00098011967
0.0010085441
0.0010289959
0.0010457269
0.0010612751
0.001075498
0.00108813
0.0010987745
0.0011068088
0.0011111055
0.0011097589
0.001099585
0.0010754817
0.0010294795
0.00094935435
0.00081687258
0.0006065079
0.0002869956
7.9839075e-06
0.00015991094
0.00061582333
0.0010795239
0.0013624922
0.0015052077
0.0015726399
0.0016041736
0.0016197949
0.001627969
0.0016330776
0.0016360362
0.0016380567
0.0016384843
0.0016368243
0.0016326029
0.0016247643
0.0016115204
0.0015894697
0.0015530362
0.0014932281
0.0013953754
0.0012348337
0.00096874269
0.00052158819
3.7659248e-05
0.00057902995
0.0016847062
0.0024353352
0.0027719279
0.0028857492
0.0028951331
0.0028649736
0.0028249893
0.002780153
0.0027355312
0.0026930092
0.0026530802
0.0026125657
0.0025709291
0.0025285749
0.0024850045
0.0024387995
0.0023872204
0.0023255101
0.0022457872
0.0021348094
0.0019683065
0.001693407
0.0011533022
0.00028120131
0.0024445094
0.0049099745
0.0060301897
0.006376365
0.0063150745
0.0060863482
0.0058240848
0.0055746342
0.0053243164
0.0050844187
0.0048604851
0.0046572473
0.0044601391
0.0042687526
0.0040877181
0.0039179458
0.0037588787
0.0036087039
0.0034639397
0.0033189434
0.0031654961
0.0029926176
0.0027919876
0.002581966
0.0023566132
0.010501755
0.016547577
0.018500381
0.018045573
0.016493188
0.01468138
0.012996009
0.011516779
0.010241838
0.009151299
0.0082227728
0.0074308732
0.006751802
0.0061679151
0.0056658678
0.0052342773
0.0048628375
0.0045421702
0.0042634674
0.0040179021
0.0037965243
0.0035907631
0.0033999489
0.0032395467
0.044857992
0.034061746
0.026579763
0.021405847
0.017735523
0.015024686
0.012939635
0.011291997
0.0099691402
0.0088928506
0.0080052176
0.0072632224
0.0066345913
0.0060952158
0.0056272454
0.0052181263
0.0048591529
0.0045438024
0.0042666025
0.0040223556
0.0038055151
0.0036101409
0.0034305368
0.0032680767
0.0031379467
0.037219008
0.030941933
0.027738476
0.025112355
0.022245428
0.019274568
0.016559556
0.014264053
0.012385203
0.010845782
0.0095763388
0.0085203397
0.0076344924
0.0068889753
0.0062599849
0.0057280357
0.0052768142
0.0048926271
0.0045637613
0.0042797247
0.0040304829
0.0038062768
0.0035979671
0.0034047099
0.0032423105
0.010204898
0.0095327446
0.0091936239
0.0088746329
0.0084136772
0.0078501687
0.0072945387
0.0067986441
0.0063484915
0.0059508925
0.0056029903
0.0052987221
0.0050129679
0.0047487885
0.0045076698
0.0042888675
0.0040902784
0.0039090102
0.0037412236
0.0035819091
0.0034243694
0.0032596818
0.0030763918
0.0028659258
0.0026467173
0.0039618107
0.0038891948
0.0038669566
0.003826316
0.0037320866
0.0035973513
0.0034579839
0.0033287197
0.0032121886
0.0031104894
0.0030226605
0.0029455879
0.0028737052
0.0028064514
0.0027436689
0.0026845412
0.0026274123
0.0025697088
0.0025076846
0.0024358746
0.0023460032
0.0022246986
0.0020476603
0.0017612671
0.0012034384
0.0019219015
0.001935252
0.0019603691
0.00197514
0.0019686428
0.0019443527
0.0019132604
0.001882361
0.0018547167
0.0018316282
0.0018129025
0.001797303
0.0017831794
0.0017698714
0.0017570498
0.001743523
0.001727439
0.0017060354
0.0016752827
0.0016292482
0.0015589226
0.00144998
0.0012783112
0.0010011759
0.00054163233
0.0010815825
0.0010996644
0.0011230363
0.0011428703
0.0011545755
0.001158939
0.0011595134
0.0011592823
0.0011599815
0.0011623675
0.0011664137
0.0011715679
0.0011770651
0.001182247
0.0011863857
0.0011883035
0.0011862139
0.0011775247
0.0011585488
0.0011240384
0.0010664382
0.00097471218
0.00083264617
0.00061706562
0.00029782987
0.00067192347
0.00068590372
0.00070287638
0.00071897557
0.00073206641
0.00074210127
0.00075028702
0.00075792333
0.00076591281
0.00077468883
0.00078427063
0.00079437698
0.00080455045
0.00081422817
0.0008226552
0.00082872425
0.00083085697
0.00082685939
0.00081374132
0.00078748529
0.00074276528
0.00067266647
0.00056854069
0.00041990745
0.00021018226
0.00044505823
0.00045506399
0.00046693218
0.00047887319
0.00048979356
0.0004994929
0.00050837009
0.00051697823
0.00052576093
0.00053495023
0.00054455965
0.00055441167
0.00056418253
0.00057340657
0.00058142772
0.00058731765
0.00058979575
0.00058714772
0.00057715006
0.00055702554
0.00052350434
0.00047319389
0.00040382233
0.00031793038
0.00022735219
0.00030697535
0.00031402839
0.00032228791
0.00033088045
0.00033922554
0.00034713721
0.00035472428
0.00036221227
0.00036980855
0.00037762473
0.00038565137
0.00039375866
0.00040170006
0.00040910189
0.00041543135
0.00041995059
0.00042167167
0.0004193218
0.00041133622
0.00039591564
0.00037123111
0.00033596259
0.00029059138
0.00024031368
0.00020038233
0.00021664759
0.00022157758
0.00022730201
0.00023337739
0.00023948221
0.00024547571
0.000251367
0.00025723949
0.00026318057
0.00026923419
0.00027537566
0.00028150151
0.00028742125
0.00029284379
0.00029735592
0.00030039608
0.00030123219
0.00029895366
0.00029249363
0.00028070948
0.00026257177
0.00023754971
0.0002063517
0.00017223075
0.00013910376
0.00015423236
0.00015763139
0.00016155275
0.00016576301
0.00017007928
0.00017440231
0.00017870935
0.00018302248
0.00018737156
0.00019176553
0.00019617369
0.0002005135
0.00020464021
0.0002083355
0.00021129268
0.00021310187
0.00021324016
0.0002110742
0.00020588457
0.00019692421
0.00018351919
0.0001651953
0.00014171012
0.00011251976
7.3046863e-05
0.00010943953
0.00011172861
0.00011435616
0.00011719488
0.00012013807
0.0001231179
0.00012610604
0.00012909916
0.00013210109
0.00013510529
0.00013808174
0.00014096705
0.00014365576
0.00014599139
0.0001477567
0.00014866545
0.00014835787
0.0001464047
0.00014232284
0.00013560392
0.00012574551
0.00011224232
9.4413308e-05
7.0788238e-05
3.7756347e-05
7.6642609e-05
7.8131383e-05
7.9833409e-05
8.1677108e-05
8.3598682e-05
8.5552664e-05
8.7513726e-05
8.9470623e-05
9.1416744e-05
9.3340404e-05
9.5216304e-05
9.6998505e-05
9.8614006e-05
9.9956478e-05
0.00010088009
0.00010119453
0.00010066266
9.9002372e-05
9.5893528e-05
9.0986893e-05
8.3905281e-05
7.4212006e-05
6.1302226e-05
4.4191394e-05
2.1500872e-05
5.2576383e-05
5.3500902e-05
5.4553885e-05
5.5694489e-05
5.688404e-05
5.809255e-05
5.9300091e-05
6.0494632e-05
6.1667075e-05
6.28059e-05
6.3892028e-05
6.4894246e-05
6.5764909e-05
6.6435964e-05
6.681511e-05
6.6782663e-05
6.6189788e-05
6.4858412e-05
6.2582547e-05
5.9128734e-05
5.4231156e-05
4.7576283e-05
3.8781972e-05
2.7440589e-05
1.3525257e-05
3.5164765e-05
3.5707188e-05
3.6322352e-05
3.6986992e-05
3.7677807e-05
3.8375358e-05
3.9065252e-05
3.9737411e-05
4.0383664e-05
4.0994806e-05
4.1557749e-05
4.2052657e-05
4.2450404e-05
4.271016e-05
4.2777019e-05
4.2580004e-05
4.2030517e-05
4.1021207e-05
3.9424925e-05
3.7092932e-05
3.3852098e-05
2.950482e-05
2.3848237e-05
1.6765261e-05
8.4474673e-06
2.2907202e-05
2.320501e-05
2.3541143e-05
2.3902195e-05
2.4274578e-05
2.4646023e-05
2.5006837e-05
2.5349615e-05
2.5668214e-05
2.595621e-05
2.6205287e-05
2.6403674e-05
2.6534714e-05
2.6575386e-05
2.6494951e-05
2.6253584e-05
2.5801097e-05
2.5075554e-05
2.4001734e-05
2.2489556e-05
2.0433761e-05
1.771988e-05
1.424909e-05
1.0008148e-05
5.1865677e-06
1.4584112e-05
1.473589e-05
1.4906186e-05
1.5087458e-05
1.5271796e-05
1.5451935e-05
1.5621669e-05
1.5776081e-05
1.5911029e-05
1.6022422e-05
1.6105361e-05
1.615329e-05
1.6157193e-05
1.6104768e-05
1.597964e-05
1.5760387e-05
1.5419546e-05
1.4922475e-05
1.4226047e-05
1.3277735e-05
1.2016474e-05
1.0378823e-05
8.3170605e-06
5.8388372e-06
3.0694346e-06
9.1558788e-06
9.2271426e-06
9.3065253e-06
9.3899071e-06
9.4728251e-06
9.5510691e-06
9.620963e-06
9.6794482e-06
9.7239479e-06
9.7520217e-06
9.760918e-06
9.747142e-06
9.7059879e-06
9.6310703e-06
9.5137967e-06
9.3428398e-06
9.1032988e-06
8.7758862e-06
8.3360551e-06
7.7535326e-06
6.9934533e-06
6.0208817e-06
4.8116227e-06
3.3719806e-06
1.7662079e-06
5.7614872e-06
5.7922009e-06
5.8260841e-06
5.8609368e-06
5.8943399e-06
5.9239417e-06
5.9476513e-06
5.963693e-06
5.9705675e-06
5.9668758e-06
5.9511157e-06
5.9214446e-06
5.8754133e-06
5.8096755e-06
5.7196266e-06
5.5989865e-06
5.4392315e-06
5.2290468e-06
4.9540867e-06
4.5964901e-06
4.1358815e-06
3.552394e-06
2.8328416e-06
1.9808875e-06
1.035648e-06
3.7287804e-06
3.7412273e-06
3.7547657e-06
3.7682538e-06
3.7804163e-06
3.7899819e-06
3.7957958e-06
3.7968623e-06
3.7923236e-06
3.781387e-06
3.7632036e-06
3.7367376e-06
3.7006046e-06
3.6528731e-06
3.5908204e-06
3.5105785e-06
3.4068484e-06
3.2724543e-06
3.0979538e-06
2.8720224e-06
2.581901e-06
2.2154172e-06
1.7647176e-06
1.232162e-06
6.4190773e-07
2.5637155e-06
2.5690911e-06
2.5748746e-06
2.5804858e-06
2.585254e-06
2.5884989e-06
2.5895848e-06
2.5879446e-06
2.5830713e-06
2.5744741e-06
2.561611e-06
2.543798e-06
2.5200915e-06
2.4891471e-06
2.4490315e-06
2.3969842e-06
2.3291925e-06
2.2404963e-06
2.1240298e-06
1.9715574e-06
1.7741026e-06
1.5232817e-06
1.2138186e-06
8.4737427e-07
4.4198453e-07
1.9276349e-06
1.9309329e-06
1.9345302e-06
1.9381235e-06
1.9413573e-06
1.943855e-06
1.9452521e-06
1.9452049e-06
1.9433817e-06
1.9394333e-06
1.9329445e-06
1.9233637e-06
1.9099101e-06
1.8914541e-06
1.8663621e-06
1.8323105e-06
1.7860782e-06
1.7233612e-06
1.638613e-06
1.5250661e-06
1.3755026e-06
1.1833114e-06
9.444362e-07
6.6036336e-07
3.4546056e-07
1.6023461e-06
1.6054545e-06
1.6089325e-06
1.6126104e-06
1.6162836e-06
1.6197294e-06
1.6227167e-06
1.625011e-06
1.6263625e-06
1.6264815e-06
1.6249973e-06
1.6213979e-06
1.6149465e-06
1.6045721e-06
1.5887301e-06
1.5652365e-06
1.5310847e-06
1.4822936e-06
1.4138215e-06
1.3196057e-06
1.1931858e-06
1.0287329e-06
8.2276633e-07
5.7683936e-07
3.0479131e-07
1.4535631e-06
1.4569825e-06
1.4608604e-06
1.4650884e-06
1.4695332e-06
1.4740439e-06
1.4784546e-06
1.4825811e-06
1.4862102e-06
1.4890746e-06
1.4908152e-06
1.4909235e-06
1.4886624e-06
1.4829597e-06
1.472274e-06
1.454437e-06
1.4264853e-06
1.3845179e-06
1.3236379e-06
1.2380428e-06
1.1215509e-06
9.6863844e-07
7.7608632e-07
5.454314e-07
2.8859784e-07
1.4018694e-06
1.4055757e-06
1.409798e-06
1.414455e-06
1.4194466e-06
1.4246552e-06
1.4299452e-06
1.4351565e-06
1.4400916e-06
1.4444911e-06
1.447996e-06
1.4500904e-06
1.4500228e-06
1.4466991e-06
1.43855e-06
1.4233743e-06
1.398176e-06
1.3590261e-06
1.3010152e-06
1.2183721e-06
1.1049585e-06
9.5531271e-07
7.6628765e-07
5.3936132e-07
2.8570634e-07
1.4019542e-06
1.4057852e-06
1.4101533e-06
1.4149895e-06
1.4202091e-06
1.425711e-06
1.4313743e-06
1.437051e-06
1.4425514e-06
1.4476188e-06
1.4518912e-06
1.4548433e-06
1.4557059e-06
1.4533582e-06
1.4461923e-06
1.4319561e-06
1.4075898e-06
1.3690896e-06
1.3114622e-06
1.2288605e-06
1.1150729e-06
9.6456935e-07
7.7414592e-07
5.4520177e-07
2.8889845e-07
1.4288047e-06
1.4326071e-06
1.4369403e-06
1.4417418e-06
1.4469351e-06
1.4524279e-06
1.458108e-06
1.4638345e-06
1.4694222e-06
1.4746158e-06
1.4790501e-06
1.4821905e-06
1.4832506e-06
1.4810819e-06
1.4740357e-06
1.4598025e-06
1.4352461e-06
1.3962674e-06
1.3377587e-06
1.2537494e-06
1.1378977e-06
9.845381e-07
7.9033376e-07
5.5658462e-07
2.9342307e-07
1.4690269e-06
1.4726949e-06
1.4768713e-06
1.4814974e-06
1.486502e-06
1.4917989e-06
1.4972819e-06
1.5028151e-06
1.5082168e-06
1.5132328e-06
1.5174945e-06
1.520459e-06
1.5213232e-06
1.5189115e-06
1.5115335e-06
1.4968205e-06
1.4715554e-06
1.4315348e-06
1.3715244e-06
1.2854103e-06
1.1666993e-06
1.0095684e-06
8.1052564e-07
5.7073817e-07
3.0053108e-07
1.5156384e-06
1.5191122e-06
1.5230636e-06
1.5274371e-06
1.5321658e-06
1.5371682e-06
1.5423429e-06
1.5475583e-06
1.5526357e-06
1.5573213e-06
1.5612438e-06
1.5638517e-06
1.5643261e-06
1.5614643e-06
1.5535346e-06
1.538108e-06
1.5118851e-06
1.4705547e-06
1.4087509e-06
1.3202092e-06
1.1982768e-06
1.0369673e-06
8.3263058e-07
5.8630697e-07
3.0898042e-07
1.5650697e-06
1.5683221e-06
1.572018e-06
1.5761051e-06
1.5805202e-06
1.5851861e-06
1.5900053e-06
1.5948502e-06
1.5995443e-06
1.6038344e-06
1.6073459e-06
1.6095191e-06
1.6095191e-06
1.6061165e-06
1.5975381e-06
1.5812948e-06
1.5540041e-06
1.5112458e-06
1.4475201e-06
1.3564081e-06
1.2310909e-06
1.0654042e-06
8.5550158e-07
6.022349e-07
3.1686201e-07
1.6154972e-06
1.6185207e-06
1.6219534e-06
1.625746e-06
1.6298388e-06
1.6341582e-06
1.6386107e-06
1.6430717e-06
1.6473668e-06
1.6512428e-06
1.6543218e-06
1.6560356e-06
1.6555331e-06
1.6515582e-06
1.6422966e-06
1.625199e-06
1.5967998e-06
1.5525697e-06
1.4868735e-06
1.3931358e-06
1.264368e-06
1.094228e-06
8.7870855e-07
6.1866419e-07
3.2695302e-07
1.6659465e-06
1.6687444e-06
1.6719185e-06
1.6754221e-06
1.6791989e-06
1.6831786e-06
1.687271e-06
1.6913544e-06
1.6952562e-06
1.6987225e-06
1.7013719e-06
1.7026274e-06
1.7016218e-06
1.6970722e-06
1.6871231e-06
1.6691655e-06
1.6396511e-06
1.5939419e-06
1.5262669e-06
1.4298926e-06
1.2976581e-06
1.1230428e-06
9.0186845e-07
6.3482246e-07
3.3339266e-07
1.7158193e-06
1.7184003e-06
1.7213261e-06
1.7245528e-06
1.7280268e-06
1.7316811e-06
1.7354285e-06
1.7391496e-06
1.7426731e-06
1.7457445e-06
1.7479783e-06
1.7487886e-06
1.7472917e-06
1.742178e-06
1.7315512e-06
1.7127432e-06
1.6821236e-06
1.6349467e-06
1.5653067e-06
1.4663119e-06
1.3306296e-06
1.1515675e-06
9.2479544e-07
6.5084599e-07
3.4120368e-07
1.7646425e-06
1.7670176e-06
1.7697079e-06
1.7726722e-06
1.7758595e-06
1.7792057e-06
1.7826262e-06
1.7860038e-06
1.789168e-06
1.7918633e-06
1.7937e-06
1.7940827e-06
1.7921116e-06
1.7864504e-06
1.7751623e-06
1.7555207e-06
1.7238147e-06
1.6751924e-06
1.6036157e-06
1.502037e-06
1.3629528e-06
1.1795014e-06
9.4721644e-07
6.6656879e-07
3.4923438e-07
1.8119227e-06
1.8141036e-06
1.8165721e-06
1.8192893e-06
1.8222067e-06
1.825263e-06
1.8283758e-06
1.8314295e-06
1.8342545e-06
1.8365937e-06
1.838053e-06
1.8380277e-06
1.8356015e-06
1.8294118e-06
1.8174818e-06
1.7970277e-06
1.7642598e-06
1.7142232e-06
1.640751e-06
1.5366449e-06
1.3942363e-06
1.2064974e-06
9.6882694e-07
6.816513e-07
3.5693496e-07
1.857041e-06
1.8590397e-06
1.8613001e-06
1.8637856e-06
1.8664501e-06
1.8692344e-06
1.8720585e-06
1.8748081e-06
1.877314e-06
1.8793174e-06
1.8804194e-06
1.880006e-06
1.8771446e-06
1.8704465e-06
1.8578962e-06
1.8366541e-06
1.8028547e-06
1.751444e-06
1.6761329e-06
1.5695808e-06
1.423964e-06
1.2321049e-06
9.8931014e-07
6.9609381e-07
3.6479663e-07
1.8991502e-06
1.9009784e-06
1.9030445e-06
1.9053135e-06
1.9077417e-06
1.9102721e-06
1.9128261e-06
1.9152911e-06
1.9174976e-06
1.9191852e-06
1.9199501e-06
1.9191686e-06
1.9158923e-06
1.9087072e-06
1.8955604e-06
1.8735591e-06
1.8387662e-06
1.786035e-06
1.7089637e-06
1.600082e-06
1.4514282e-06
1.2556951e-06
1.0081086e-06
7.0919296e-07
3.7145193e-07
1.9370511e-06
1.9387207e-06
1.9406058e-06
1.9426735e-06
1.9448819e-06
1.9471757e-06
1.9494784e-06
1.9516778e-06
1.9536046e-06
1.9549962e-06
1.9554438e-06
1.9543145e-06
1.9506443e-06
1.9429953e-06
1.9292792e-06
1.9065542e-06
1.8708174e-06
1.8168397e-06
1.7381201e-06
1.6270787e-06
1.4756421e-06
1.2764048e-06
1.0245427e-06
7.2061022e-07
3.7726236e-07
1.9690339e-06
1.9705565e-06
1.972274e-06
1.9741552e-06
1.9761599e-06
1.9782347e-06
1.9803041e-06
1.982257e-06
1.9839234e-06
1.9850387e-06
1.9851891e-06
1.9837329e-06
1.9796913e-06
1.9716044e-06
1.9573522e-06
1.9339495e-06
1.8973373e-06
1.8422177e-06
1.7620121e-06
1.6490599e-06
1.4952155e-06
1.2930249e-06
1.0376656e-06
7.2976321e-07
3.8207979e-07
1.9926772e-06
1.9940644e-06
1.9956274e-06
1.9973367e-06
1.9991537e-06
2.0010262e-06
2.0028802e-06
2.0046051e-06
2.0060303e-06
2.006889e-06
2.0067629e-06
2.005002e-06
2.0006146e-06
1.9921216e-06
1.9773766e-06
1.9533598e-06
1.9159699e-06
1.8598613e-06
1.7784071e-06
1.6639071e-06
1.5081983e-06
1.3038452e-06
1.0460972e-06
7.3568331e-07
3.8534461e-07
2.0046075e-06
2.0058704e-06
2.0072917e-06
2.0088431e-06
2.0104875e-06
2.0121742e-06
2.0138301e-06
2.0153449e-06
2.0165478e-06
2.01717e-06
2.0167892e-06
2.0147487e-06
2.0100464e-06
2.001189e-06
1.9860117e-06
1.9614733e-06
1.9234503e-06
1.8665789e-06
1.7842257e-06
1.6687069e-06
1.5119116e-06
1.3065018e-06
1.0478658e-06
7.3685674e-07
3.8610004e-07
2.0002359e-06
2.0013851e-06
2.0026766e-06
2.0040833e-06
2.0055694e-06
2.0070854e-06
2.0085592e-06
2.0098811e-06
2.0108803e-06
2.0112866e-06
2.0106752e-06
2.0083851e-06
2.0034086e-06
1.9942456e-06
1.9787252e-06
1.9538039e-06
1.915365e-06
1.8580682e-06
1.7753313e-06
1.6595616e-06
1.50279e-06
1.2978679e-06
1.0403881e-06
7.313252e-07
3.8161158e-07
1.9735131e-06
1.9745583e-06
1.9757307e-06
1.9770044e-06
1.9783449e-06
1.9797037e-06
1.9810099e-06
1.9821549e-06
1.9829683e-06
1.9831806e-06
1.9823666e-06
1.9798658e-06
1.9746718e-06
1.9652897e-06
1.9495609e-06
1.9244674e-06
1.88594e-06
1.8287197e-06
1.7463535e-06
1.6314389e-06
1.4762628e-06
1.2739754e-06
1.020425e-06
7.1664968e-07
3.7342458e-07
1.9167782e-06
1.9177275e-06
1.91879e-06
1.9199406e-06
1.9211459e-06
1.9223588e-06
1.9235099e-06
1.9244924e-06
1.9251381e-06
1.9251802e-06
1.9241983e-06
1.9215393e-06
1.9162101e-06
1.9067384e-06
1.8910051e-06
1.8660574e-06
1.82793e-06
1.7715233e-06
1.690616e-06
1.5781234e-06
1.4267342e-06
1.2300441e-06
9.8428039e-07
6.9059982e-07
3.5945565e-07
1.8208273e-06
1.8216876e-06
1.8226473e-06
1.8236826e-06
1.8247611e-06
1.8258373e-06
1.8268439e-06
1.8276772e-06
1.8281736e-06
1.8280736e-06
1.8269684e-06
1.8242245e-06
1.8188793e-06
1.8095099e-06
1.7940757e-06
1.7697437e-06
1.7327284e-06
1.6781916e-06
1.600275e-06
1.4923696e-06
1.3477379e-06
1.1605875e-06
9.276539e-07
6.5024562e-07
3.382153e-07
1.675406e-06
1.6761815e-06
1.6770438e-06
1.6779698e-06
1.6789282e-06
1.6798747e-06
1.6807459e-06
1.6814432e-06
1.681811e-06
1.6816031e-06
1.6804341e-06
1.6777068e-06
1.6725148e-06
1.6635226e-06
1.6488235e-06
1.6257782e-06
1.5908778e-06
1.5396738e-06
1.4668318e-06
1.3664029e-06
1.2324148e-06
1.0598594e-06
8.4609319e-07
5.9255731e-07
3.0813534e-07
1.4704645e-06
1.4711514e-06
1.4719164e-06
1.4727346e-06
1.4735706e-06
1.4743858e-06
1.4751264e-06
1.4757004e-06
1.4759634e-06
1.4756912e-06
1.4745362e-06
1.4719611e-06
1.4671494e-06
1.4589055e-06
1.4455348e-06
1.4246854e-06
1.3932428e-06
1.3473013e-06
1.2822361e-06
1.1929605e-06
1.0744618e-06
9.2267201e-07
7.3565223e-07
5.1492984e-07
2.6799035e-07
1.1985499e-06
1.1991113e-06
1.1997552e-06
1.2004397e-06
1.201104e-06
1.2017429e-06
1.2023359e-06
1.2027913e-06
1.2029741e-06
1.2026898e-06
1.2016468e-06
1.199394e-06
1.1952449e-06
1.1882113e-06
1.1769149e-06
1.1594047e-06
1.1330945e-06
1.0947936e-06
1.0407863e-06
9.6704873e-07
8.6969765e-07
7.4571131e-07
5.9388108e-07
4.1577717e-07
2.1717594e-07
8.5769879e-07
8.5802397e-07
8.5846008e-07
8.5890514e-07
8.5922391e-07
8.5953863e-07
8.5991279e-07
8.6022997e-07
8.6034851e-07
8.6010945e-07
8.59294e-07
8.5756494e-07
8.5440896e-07
8.4912015e-07
8.4075168e-07
8.2788098e-07
8.0859632e-07
7.8061276e-07
7.4131825e-07
6.879213e-07
6.1778723e-07
5.289735e-07
4.209462e-07
2.9531683e-07
1.5633399e-07
4.4884034e-07
4.4884715e-07
4.4897776e-07
4.490639e-07
4.4890105e-07
4.4879391e-07
4.4888438e-07
4.490277e-07
4.490838e-07
4.4894514e-07
4.4848776e-07
4.4752331e-07
4.4576727e-07
4.4285845e-07
4.3834779e-07
4.3147413e-07
4.2116107e-07
4.0627615e-07
3.8548578e-07
3.5734941e-07
3.2054875e-07
2.7417436e-07
2.1815709e-07
1.538659e-07
8.4694083e-08
)
;

boundaryField
{
    Walls
    {
        type            kqRWallFunction;
        value           nonuniform List<scalar> 
38
(
5.9563547e-06
2.6079042e-06
7.9839075e-06
3.7659248e-05
0.00028120131
0.0023566132
0.055887536
0.060661126
0.018243624
0.027099507
0.034809812
0.041659396
0.047355835
0.052279603
0.055905029
0.058877686
0.061456178
0.063763773
0.065902636
0.066719244
0.06802904
0.069415842
0.06958512
0.070703039
0.071734022
0.07160091
0.072210232
0.072692804
0.072668999
0.072972767
0.073101661
0.072677122
0.072444787
0.072549607
0.071849585
0.071413898
0.070801091
0.065914139
)
;
    }
    Inlet
    {
        type            turbulentIntensityKineticEnergyInlet;
        intensity       0.05;
        value           nonuniform List<scalar> 3(0.0079258363 0.0080488408 0.0095333194);
    }
    Outlet
    {
        type            inletOutlet;
        inletValue      uniform 0;
        value           nonuniform List<scalar> 
86
(
0
0
0
0
0
0
0
0
0
0
0
0
0
0
0
0
0
0
0
0
0
0
0
0
0
0
0
0
0
0
0.0031379467
0.0032423105
0.0026467173
0
0
0
0
0
0.00020038233
0.00013910376
0
0
0
0
0
5.1865677e-06
3.0694346e-06
1.7662079e-06
1.035648e-06
6.4190773e-07
4.4198453e-07
3.4546056e-07
3.0479131e-07
2.8859784e-07
2.8570634e-07
2.8889845e-07
0
0
0
0
0
0
0
0
0
0
0
0
0
0
0
0
0
0
0
0
0
0
0
0
0
0
0
0
0.002581966
0.0032395467
)
;
    }
    Front
    {
        type            wedge;
    }
    Back
    {
        type            wedge;
    }
    defaultFaces
    {
        type            empty;
    }
}


// ************************************************************************* //
