/*--------------------------------*- C++ -*----------------------------------*\
| =========                 |                                                 |
| \\      /  F ield         | OpenFOAM: The Open Source CFD Toolbox           |
|  \\    /   O peration     | Version:  4.0                                   |
|   \\  /    A nd           | Web:      www.OpenFOAM.org                      |
|    \\/     M anipulation  |                                                 |
\*---------------------------------------------------------------------------*/
FoamFile
{
    version     2.0;
    format      ascii;
    class       volScalarField;
    location    "0.4";
    object      nut;
}
// * * * * * * * * * * * * * * * * * * * * * * * * * * * * * * * * * * * * * //

dimensions      [0 2 -1 0 0 0 0];

internalField   nonuniform List<scalar> 
1740
(
3.4641582e-05
1.3535335e-05
1.2228716e-06
1.3514315e-05
7.0909323e-06
1.8034278e-06
1.33084e-05
5.5465573e-06
2.3021245e-06
2.5042359e-05
4.8226151e-06
2.740199e-06
1.9252799e-05
4.3346261e-06
3.1009618e-06
1.5177606e-05
4.0354914e-06
3.4101658e-06
1.2925915e-05
3.8350435e-06
3.6364791e-06
1.1328592e-05
3.7030222e-06
3.8211935e-06
1.014437e-05
3.6131384e-06
3.980555e-06
9.2126247e-06
3.5699371e-06
4.1226739e-06
8.4117725e-06
3.5532182e-06
4.2547814e-06
7.8880845e-06
3.5269103e-06
4.3047704e-06
7.4259293e-06
3.4943799e-06
4.3842842e-06
6.9276749e-06
3.4803852e-06
4.4688637e-06
6.4852816e-06
3.470547e-06
4.4793981e-06
6.1643203e-06
3.4679718e-06
4.5478646e-06
5.8415865e-06
3.4850791e-06
4.6104325e-06
5.5411781e-06
3.4849529e-06
4.6015378e-06
5.3339615e-06
3.4815256e-06
4.6393178e-06
5.1328578e-06
3.5071133e-06
4.6688728e-06
4.9324384e-06
3.5221402e-06
4.6664059e-06
4.785036e-06
3.5237127e-06
4.6855463e-06
4.6773561e-06
3.5458651e-06
4.6937216e-06
4.5696809e-06
3.580625e-06
4.6673632e-06
4.4818326e-06
3.5782787e-06
4.6534243e-06
4.3811912e-06
3.5591174e-06
4.6593643e-06
4.2828882e-06
3.5444592e-06
4.6167552e-06
4.1928177e-06
3.5429973e-06
4.5898568e-06
4.1475022e-06
3.5542525e-06
4.5522018e-06
2.6622082e-06
3.5537765e-06
4.2542692e-06
1.8980188e-06
2.1673537e-06
4.3797457e-06
7.1984411e-06
7.3847546e-06
6.7321264e-06
6.5365978e-06
6.7376568e-06
6.3664625e-06
5.183059e-06
5.1208572e-06
4.8743109e-06
4.3414295e-06
4.2690392e-06
4.1329801e-06
3.7912115e-06
3.7481447e-06
3.6873539e-06
3.4088213e-06
3.3911348e-06
3.3752702e-06
3.114876e-06
3.112524e-06
3.1203173e-06
2.8539572e-06
2.8591501e-06
2.8773038e-06
2.5877498e-06
2.595684e-06
2.616498e-06
2.2935918e-06
2.3016384e-06
2.3209942e-06
1.9647696e-06
1.9716644e-06
1.987657e-06
1.6105656e-06
1.615853e-06
1.6279095e-06
1.2537303e-06
1.2574174e-06
1.2657538e-06
9.2339859e-07
9.25739e-07
9.3101102e-07
6.4465143e-07
6.4599854e-07
6.4903232e-07
4.3006621e-07
4.3076405e-07
4.3234362e-07
2.7818532e-07
2.7850588e-07
2.7924482e-07
1.7841316e-07
1.7855126e-07
1.7887306e-07
1.1709688e-07
1.1715494e-07
1.1728979e-07
8.1343286e-08
8.1369357e-08
8.1430145e-08
6.1605433e-08
6.1622019e-08
6.1660621e-08
5.148115e-08
5.1496888e-08
5.153329e-08
4.6920126e-08
4.6937218e-08
4.6976753e-08
4.5472087e-08
4.5490388e-08
4.5532833e-08
4.5707255e-08
4.5726098e-08
4.5769824e-08
4.6817015e-08
4.6835808e-08
4.6879286e-08
4.8357966e-08
4.8376293e-08
4.8418444e-08
5.0094967e-08
5.0112555e-08
5.0152728e-08
5.1907637e-08
5.1924325e-08
5.1962179e-08
5.3736221e-08
5.3751925e-08
5.3787326e-08
5.5551339e-08
5.5566026e-08
5.5598963e-08
5.7337775e-08
5.7351448e-08
5.7381978e-08
5.9086225e-08
5.9098906e-08
5.9127124e-08
6.078933e-08
6.0801056e-08
6.0827074e-08
6.2439938e-08
6.2450753e-08
6.2474695e-08
6.4030479e-08
6.4040434e-08
6.4062431e-08
6.5552893e-08
6.5562043e-08
6.558223e-08
6.6998817e-08
6.7007222e-08
6.7025743e-08
6.835991e-08
6.8367634e-08
6.8384638e-08
6.9628183e-08
6.9635293e-08
6.9650933e-08
7.0796252e-08
7.0802819e-08
7.0817253e-08
7.1857388e-08
7.1863483e-08
7.1876873e-08
7.280526e-08
7.2810958e-08
7.2823466e-08
7.3633206e-08
7.3638593e-08
7.3650386e-08
7.4323415e-08
7.432854e-08
7.433975e-08
7.4858646e-08
7.4863564e-08
7.4874315e-08
7.5208791e-08
7.521355e-08
7.5223952e-08
7.5313055e-08
7.531769e-08
7.5327805e-08
7.4990441e-08
7.4994915e-08
7.5001836e-08
4.1470022e-06
4.4825975e-06
6.7714551e-06
8.4771037e-06
5.9874482e-06
6.0321716e-06
4.7248506e-06
4.8283429e-06
4.0830596e-06
4.1895722e-06
3.6882447e-06
3.7879193e-06
3.4026319e-06
3.4935425e-06
3.1592672e-06
3.240402e-06
2.9187081e-06
2.9891732e-06
2.6550286e-06
2.714232e-06
2.3538481e-06
2.4016622e-06
2.0137027e-06
2.0505257e-06
1.6471404e-06
1.6739208e-06
1.2789151e-06
1.2971086e-06
9.3929842e-07
9.5072128e-07
6.5380091e-07
6.6037603e-07
4.3483918e-07
4.3829386e-07
2.804286e-07
2.8208261e-07
1.7939432e-07
1.8012942e-07
1.1751014e-07
1.1782441e-07
8.1530628e-08
8.1675747e-08
6.1724075e-08
6.181535e-08
5.1591966e-08
5.1674733e-08
4.7039685e-08
4.7127125e-08
4.5600037e-08
4.5692648e-08
4.5838814e-08
4.5933396e-08
4.6947598e-08
4.7040834e-08
4.8484335e-08
4.8573868e-08
5.0215182e-08
5.0299673e-08
5.2020717e-08
5.209959e-08
5.3841812e-08
5.3914959e-08
5.5649451e-08
5.5717021e-08
5.7428619e-08
5.7490882e-08
5.9170114e-08
5.922738e-08
6.0866624e-08
6.0919217e-08
6.2511023e-08
6.2559261e-08
6.4095756e-08
6.4139956e-08
6.5612778e-08
6.5653251e-08
6.705374e-08
6.7090803e-08
6.8410318e-08
6.844429e-08
6.9674537e-08
6.9705742e-08
7.0839024e-08
7.0867788e-08
7.1897056e-08
7.1923706e-08
7.2842304e-08
7.2867161e-08
7.3668119e-08
7.3691492e-08
7.435659e-08
7.437877e-08
7.4890459e-08
7.491171e-08
7.5239567e-08
7.5260114e-08
7.5343012e-08
7.5363005e-08
7.5016623e-08
7.503604e-08
4.9396728e-10
1.3262527e-08
1.9310165e-07
8.2674384e-07
1.6441774e-06
2.23097e-06
2.5759597e-06
2.7842293e-06
2.9281516e-06
3.0433557e-06
3.1469786e-06
3.2529475e-06
3.3581311e-06
3.4614262e-06
3.5620385e-06
3.6586193e-06
3.7487195e-06
3.8282167e-06
3.8904389e-06
3.9248403e-06
3.9148566e-06
3.8343035e-06
3.6407014e-06
3.2570313e-06
2.4429403e-06
2.1627761e-10
2.6879207e-08
3.5987079e-07
1.377361e-06
2.5707352e-06
3.379353e-06
3.8525448e-06
4.1590898e-06
4.3935495e-06
4.5987019e-06
4.7951243e-06
4.9952881e-06
5.1969433e-06
5.3990664e-06
5.5999825e-06
5.7969452e-06
5.9852112e-06
6.1570204e-06
6.2996998e-06
6.3930156e-06
6.4047255e-06
6.2826146e-06
5.9391193e-06
5.213648e-06
3.6777496e-06
6.6211551e-10
7.8754486e-08
8.5697341e-07
2.5065477e-06
3.7921064e-06
4.5287347e-06
4.9924093e-06
5.3380375e-06
5.638199e-06
5.9252842e-06
6.2145994e-06
6.5128724e-06
6.8186404e-06
7.1307301e-06
7.4476939e-06
7.7664472e-06
8.080757e-06
8.3806621e-06
8.6485267e-06
8.8556984e-06
8.9556561e-06
8.8709934e-06
8.4666066e-06
7.4845676e-06
5.2826245e-06
3.1230389e-09
2.8499161e-07
2.0608022e-06
4.0008267e-06
5.0413731e-06
5.6291479e-06
6.0360141e-06
6.378646e-06
6.7071988e-06
7.0402644e-06
7.3886446e-06
7.7553839e-06
8.1369854e-06
8.5321354e-06
8.9406714e-06
9.3612071e-06
9.788754e-06
1.0213775e-05
1.0619615e-05
1.0978408e-05
1.1244024e-05
1.1338207e-05
1.1117611e-05
1.0273852e-05
7.8795671e-06
2.3313906e-08
1.1365035e-06
3.9847072e-06
5.5927874e-06
6.444302e-06
6.9653356e-06
7.3490336e-06
7.6955461e-06
8.0451397e-06
8.4000188e-06
8.7734364e-06
9.1720339e-06
9.5857851e-06
1.0009771e-05
1.0446823e-05
1.0901529e-05
1.1373187e-05
1.1857198e-05
1.2343636e-05
1.2814285e-05
1.3238072e-05
1.3564929e-05
1.3718431e-05
1.360315e-05
1.3191063e-05
1.9496735e-07
2.7504972e-06
5.8955747e-06
7.6988279e-06
8.6138149e-06
9.0315262e-06
9.2284744e-06
9.3659824e-06
9.505165e-06
9.6641133e-06
9.8510594e-06
1.007239e-05
1.0328581e-05
1.0619694e-05
1.0946809e-05
1.1310855e-05
1.1711935e-05
1.2148086e-05
1.2614314e-05
1.3100834e-05
1.3590019e-05
1.4053109e-05
1.4447124e-05
1.472368e-05
1.4825729e-05
4.3314622e-06
4.3132921e-06
4.3618777e-06
4.4725338e-06
4.6456749e-06
4.8734151e-06
5.1472029e-06
5.4639115e-06
5.8238663e-06
6.227179e-06
6.6728343e-06
7.1582969e-06
7.6784985e-06
8.2264972e-06
8.7952503e-06
9.3795517e-06
9.9765924e-06
1.0584839e-05
1.1202363e-05
1.1824669e-05
1.2441654e-05
1.3034456e-05
1.3572665e-05
1.4019827e-05
1.4308701e-05
9.1116376e-06
9.3672857e-06
9.7631791e-06
1.0181202e-05
1.0357991e-05
1.0322294e-05
1.0205808e-05
1.010943e-05
1.0072871e-05
1.0097959e-05
1.0180562e-05
1.0316094e-05
1.0502592e-05
1.0739627e-05
1.1026904e-05
1.1363758e-05
1.174824e-05
1.2176473e-05
1.2641533e-05
1.3131383e-05
1.3625736e-05
1.409289e-05
1.4486904e-05
1.4758031e-05
1.485234e-05
6.4046567e-06
6.8137254e-06
7.2445634e-06
7.6446884e-06
7.946949e-06
8.1644393e-06
8.3569859e-06
8.5642966e-06
8.7948758e-06
9.0630106e-06
9.3655165e-06
9.6932281e-06
1.0041151e-05
1.0415542e-05
1.082026e-05
1.1255918e-05
1.1719646e-05
1.2204357e-05
1.2696807e-05
1.3174576e-05
1.3601533e-05
1.3921947e-05
1.4053962e-05
1.3899221e-05
1.3435959e-05
5.1408773e-06
5.4972096e-06
5.8475059e-06
6.1641181e-06
6.4301668e-06
6.6581956e-06
6.87835e-06
7.1109582e-06
7.3670937e-06
7.6532834e-06
7.967474e-06
8.306932e-06
8.6714806e-06
9.0622519e-06
9.478869e-06
9.9177912e-06
1.0371094e-05
1.0824799e-05
1.1256265e-05
1.163005e-05
1.189098e-05
1.1950966e-05
1.1657257e-05
1.0691695e-05
8.1024179e-06
4.4313226e-06
4.7206286e-06
5.01079e-06
5.2812343e-06
5.5260789e-06
5.7533125e-06
5.9773373e-06
6.2108917e-06
6.462467e-06
6.7361691e-06
7.0316929e-06
7.3478485e-06
7.6843403e-06
8.0402428e-06
8.4129139e-06
8.7956906e-06
9.1768515e-06
9.5377182e-06
9.8499197e-06
1.007128e-05
1.0139267e-05
9.9595028e-06
9.3824114e-06
8.1439023e-06
5.61086e-06
3.9747562e-06
4.2030951e-06
4.439994e-06
4.6695605e-06
4.8878111e-06
5.0994427e-06
5.3124526e-06
5.5345132e-06
5.7712732e-06
6.0255758e-06
6.2976872e-06
6.5868171e-06
6.8918602e-06
7.2103775e-06
7.5374216e-06
7.864419e-06
8.1777772e-06
8.4572345e-06
8.6737254e-06
8.7864924e-06
8.7389956e-06
8.4524575e-06
7.8131874e-06
6.6357443e-06
4.4432709e-06
3.6418784e-06
3.8234938e-06
4.0172062e-06
4.2112474e-06
4.4020916e-06
4.591778e-06
4.7847803e-06
4.9858344e-06
5.1986563e-06
5.4252501e-06
5.6659598e-06
5.9200246e-06
6.1858161e-06
6.4601212e-06
6.7372237e-06
7.0079826e-06
7.258835e-06
7.4706097e-06
7.6172087e-06
7.6641725e-06
7.5670997e-06
7.2695204e-06
6.6976644e-06
5.7356262e-06
4.0235717e-06
3.3605384e-06
3.5066118e-06
3.665491e-06
3.8287933e-06
3.9932514e-06
4.1593517e-06
4.3294753e-06
4.506449e-06
4.692608e-06
4.8892544e-06
5.0965453e-06
5.3135966e-06
5.5384449e-06
5.7675538e-06
5.9951571e-06
6.2125636e-06
6.407452e-06
6.5631809e-06
6.6582351e-06
6.6660135e-06
6.5553528e-06
6.2926814e-06
5.8485986e-06
5.2204835e-06
4.4800266e-06
3.0869967e-06
3.2049242e-06
3.3348547e-06
3.4709053e-06
3.6102247e-06
3.7524564e-06
3.8986892e-06
4.050503e-06
4.2092868e-06
4.3757816e-06
4.5498908e-06
4.7306136e-06
4.9158822e-06
5.1022108e-06
5.284236e-06
5.454238e-06
5.6017094e-06
5.7130575e-06
5.771589e-06
5.7580495e-06
5.6522539e-06
5.4370694e-06
5.1083401e-06
4.7015141e-06
4.3552682e-06
2.7931338e-06
2.8875855e-06
2.9925299e-06
3.1038561e-06
3.2191711e-06
3.3377069e-06
3.4597776e-06
3.5861629e-06
3.7175991e-06
3.854422e-06
3.9963474e-06
4.1423391e-06
4.2904313e-06
4.4374722e-06
4.5788193e-06
4.7080404e-06
4.8166963e-06
4.8942902e-06
4.9285225e-06
4.9060617e-06
4.8142055e-06
4.6441838e-06
4.3979503e-06
4.1026698e-06
3.797866e-06
2.4638303e-06
2.5379098e-06
2.6206862e-06
2.7092795e-06
2.8017502e-06
2.8971852e-06
2.9954499e-06
3.0968167e-06
3.2015961e-06
3.3098546e-06
3.421218e-06
3.5347224e-06
3.648663e-06
3.7604213e-06
3.866274e-06
3.9612316e-06
4.0389602e-06
4.0918544e-06
4.111341e-06
4.0885008e-06
4.0150471e-06
3.8844308e-06
3.6916533e-06
3.4251998e-06
3.0015977e-06
2.0977332e-06
2.153858e-06
2.2168273e-06
2.284626e-06
2.3557289e-06
2.4292363e-06
2.5047923e-06
2.5823609e-06
2.6619895e-06
2.743592e-06
2.8267843e-06
2.9107591e-06
2.9941744e-06
3.0750433e-06
3.1506306e-06
3.2173885e-06
3.2709569e-06
3.3062712e-06
3.3177949e-06
3.2998447e-06
3.2468143e-06
3.1525657e-06
3.0065153e-06
2.7774746e-06
2.3347374e-06
1.7080032e-06
1.7484978e-06
1.7940724e-06
1.8433325e-06
1.8951176e-06
1.9486346e-06
2.0034503e-06
2.0593744e-06
2.1163066e-06
2.1740884e-06
2.2323819e-06
2.2905777e-06
2.3477207e-06
2.4024522e-06
2.4529685e-06
2.4970139e-06
2.5319205e-06
2.5546994e-06
2.5621669e-06
2.5510046e-06
2.5174946e-06
2.4562348e-06
2.3559511e-06
2.1863054e-06
1.8385406e-06
1.3201901e-06
1.3476209e-06
1.3785621e-06
1.4120766e-06
1.4473172e-06
1.4836432e-06
1.5206362e-06
1.5580529e-06
1.5957311e-06
1.633498e-06
1.6710892e-06
1.7080893e-06
1.7438901e-06
1.7776696e-06
1.8083887e-06
1.8348124e-06
1.8555574e-06
1.8691509e-06
1.8740658e-06
1.8686242e-06
1.8505526e-06
1.8157329e-06
1.7551618e-06
1.6474035e-06
1.4319876e-06
9.6520667e-07
9.824351e-07
1.0018899e-06
1.0229698e-06
1.04509e-06
1.0677706e-06
1.0906624e-06
1.1135326e-06
1.1362155e-06
1.1585585e-06
1.180376e-06
1.2014138e-06
1.2213316e-06
1.2397021e-06
1.2560234e-06
1.2697485e-06
1.2803214e-06
1.2872041e-06
1.2898602e-06
1.2876152e-06
1.2792503e-06
1.2620994e-06
1.2302548e-06
1.1709547e-06
1.0532848e-06
6.687266e-07
6.7867043e-07
6.8990251e-07
7.020488e-07
7.1473488e-07
7.2762651e-07
7.4046421e-07
7.5305967e-07
7.6527593e-07
7.7699828e-07
7.8810901e-07
7.9847066e-07
8.0792186e-07
8.1628135e-07
8.2336482e-07
8.2900736e-07
8.3308313e-07
8.3550814e-07
8.3620861e-07
8.3501052e-07
8.3137041e-07
8.2385576e-07
8.0927773e-07
7.8127722e-07
7.2618567e-07
4.4269613e-07
4.4795003e-07
4.538824e-07
4.6027283e-07
4.6689052e-07
4.7352458e-07
4.7999806e-07
4.8617791e-07
4.9196579e-07
4.9728578e-07
5.0207187e-07
5.0626088e-07
5.0979267e-07
5.126161e-07
5.1470051e-07
5.1604833e-07
5.1669928e-07
5.167217e-07
5.1618406e-07
5.150954e-07
5.1326933e-07
5.1008056e-07
5.0412638e-07
4.9279267e-07
4.7101509e-07
2.8420354e-07
2.8674541e-07
2.8961431e-07
2.9268702e-07
2.9582922e-07
2.9891446e-07
3.0183424e-07
3.0450303e-07
3.0685788e-07
3.0885363e-07
3.1045739e-07
3.1164668e-07
3.1241058e-07
3.1275486e-07
3.1270408e-07
3.1231008e-07
3.1164722e-07
3.1079821e-07
3.0983111e-07
3.0878602e-07
3.0762545e-07
3.0613059e-07
3.0378818e-07
2.9968359e-07
2.9203803e-07
1.8107737e-07
1.822147e-07
1.8349293e-07
1.8484586e-07
1.8620024e-07
1.8748524e-07
1.8863937e-07
1.896137e-07
1.9037309e-07
1.9089419e-07
1.9116426e-07
1.9118096e-07
1.9095378e-07
1.9050741e-07
1.8988308e-07
1.8912257e-07
1.8828681e-07
1.874317e-07
1.8658007e-07
1.8575349e-07
1.849632e-07
1.8415133e-07
1.8314904e-07
1.8164309e-07
1.7896934e-07
1.1823279e-07
1.1872359e-07
1.1927254e-07
1.1984534e-07
1.2040336e-07
1.2090835e-07
1.2132654e-07
1.2163098e-07
1.2180235e-07
1.2182885e-07
1.2170552e-07
1.2143441e-07
1.2102539e-07
1.2049771e-07
1.1988211e-07
1.1921493e-07
1.1856627e-07
1.1801071e-07
1.1748774e-07
1.1697381e-07
1.1649302e-07
1.1603875e-07
1.1555193e-07
1.1490496e-07
1.1379738e-07
8.1866283e-08
8.2096845e-08
8.2355544e-08
8.2625172e-08
8.2885619e-08
8.3116656e-08
8.3300092e-08
8.342116e-08
8.3469234e-08
8.3437866e-08
8.3324669e-08
8.3131317e-08
8.2863813e-08
8.2533517e-08
8.2158321e-08
8.1763511e-08
8.1382639e-08
8.1072858e-08
8.0859692e-08
8.0635619e-08
8.0415254e-08
8.0202246e-08
7.9969385e-08
7.9648162e-08
7.9069007e-08
6.193535e-08
6.2081784e-08
6.2248897e-08
6.2427986e-08
6.2608648e-08
6.2779982e-08
6.2931923e-08
6.3056001e-08
6.3145745e-08
6.3196805e-08
6.320695e-08
6.3176131e-08
6.3106799e-08
6.300458e-08
6.2879163e-08
6.2745476e-08
6.2620025e-08
6.2535304e-08
6.2533768e-08
6.2524863e-08
6.2498839e-08
6.2456406e-08
6.2379705e-08
6.2222037e-08
6.1857518e-08
5.1782369e-08
5.1913986e-08
5.2066706e-08
5.2235912e-08
5.2415827e-08
5.2600214e-08
5.2782904e-08
5.2958347e-08
5.3121808e-08
5.3269507e-08
5.3398719e-08
5.3507952e-08
5.3597269e-08
5.3668793e-08
5.3727331e-08
5.378122e-08
5.3838763e-08
5.3919351e-08
5.4053918e-08
5.4186348e-08
5.4288625e-08
5.4358053e-08
5.4379799e-08
5.431721e-08
5.4076698e-08
4.723964e-08
4.7376914e-08
4.7537303e-08
4.7717998e-08
4.7915312e-08
4.8125049e-08
4.8342813e-08
4.8564256e-08
4.87853e-08
4.9002265e-08
4.9212059e-08
4.9412386e-08
4.9602061e-08
4.9781334e-08
4.9952243e-08
5.0118925e-08
5.0287866e-08
5.0468451e-08
5.0682843e-08
5.0896976e-08
5.1073939e-08
5.1208871e-08
5.1287882e-08
5.1278951e-08
5.1101846e-08
4.5811014e-08
4.5954982e-08
4.612336e-08
4.6314039e-08
4.6524184e-08
4.675044e-08
4.6989131e-08
4.7236445e-08
4.7488606e-08
4.7742055e-08
4.7993642e-08
4.8240855e-08
4.8482052e-08
4.8716691e-08
4.8945522e-08
4.9170806e-08
4.9396892e-08
4.9629129e-08
4.9883349e-08
5.0137388e-08
5.0351782e-08
5.0520034e-08
5.0627894e-08
5.0644314e-08
5.0490895e-08
4.6053703e-08
4.6199555e-08
4.6369859e-08
4.6562742e-08
4.6775698e-08
4.7005735e-08
4.7249533e-08
4.7503607e-08
4.7764467e-08
4.8028807e-08
4.829369e-08
4.8556749e-08
4.8816361e-08
4.907179e-08
4.9323283e-08
4.957216e-08
4.9821098e-08
5.0075137e-08
5.0344253e-08
5.0612474e-08
5.0841519e-08
5.1023372e-08
5.1142503e-08
5.116658e-08
5.1014532e-08
4.7158928e-08
4.7301587e-08
4.74677e-08
4.7655477e-08
4.786258e-08
4.8086247e-08
4.8323437e-08
4.8570977e-08
4.882572e-08
4.9084717e-08
4.9345393e-08
4.9605708e-08
4.9864288e-08
5.0120504e-08
5.0374512e-08
5.0627261e-08
5.0880706e-08
5.1138841e-08
5.1408739e-08
5.1677096e-08
5.1908373e-08
5.2093088e-08
5.2214077e-08
5.2236909e-08
5.2075826e-08
4.8686806e-08
4.882272e-08
4.8980469e-08
4.9158326e-08
4.9354099e-08
4.956525e-08
4.978902e-08
5.0022571e-08
5.0263135e-08
5.0508166e-08
5.0755499e-08
5.1003484e-08
5.1251083e-08
5.1497907e-08
5.1744205e-08
5.1990815e-08
5.2239288e-08
5.2492718e-08
5.2756465e-08
5.3018297e-08
5.3245791e-08
5.3428113e-08
5.3546447e-08
5.3564129e-08
5.3390501e-08
5.0405831e-08
5.0533107e-08
5.0680347e-08
5.0845906e-08
5.1027755e-08
5.1223587e-08
5.1430935e-08
5.1647301e-08
5.1870292e-08
5.2097763e-08
5.2327953e-08
5.2559605e-08
5.279203e-08
5.3025122e-08
5.3259296e-08
5.349539e-08
5.3734658e-08
5.3979292e-08
5.4234325e-08
5.4487104e-08
5.4708304e-08
5.4885846e-08
5.499923e-08
5.5009325e-08
5.4820882e-08
5.2198325e-08
5.2316289e-08
5.2452341e-08
5.2604933e-08
5.2772209e-08
5.2952092e-08
5.3142397e-08
5.3340947e-08
5.3545701e-08
5.3754882e-08
5.3967106e-08
5.4181477e-08
5.4397646e-08
5.4615789e-08
5.4836522e-08
5.506074e-08
5.5289537e-08
5.5524567e-08
5.5769751e-08
5.6012848e-08
5.6226958e-08
5.6398755e-08
5.6506041e-08
5.6507226e-08
5.6302086e-08
5.4006231e-08
5.411494e-08
5.4239979e-08
5.4379909e-08
5.4533037e-08
5.4697506e-08
5.487139e-08
5.5052803e-08
5.5240017e-08
5.5431587e-08
5.5626463e-08
5.5824081e-08
5.6024403e-08
5.6227878e-08
5.6435325e-08
5.6647729e-08
5.6866084e-08
5.7091605e-08
5.7327088e-08
5.7560851e-08
5.7767897e-08
5.7933712e-08
5.8034531e-08
5.8026628e-08
5.780714e-08
5.5801103e-08
5.590098e-08
5.6015593e-08
5.614361e-08
5.6283495e-08
5.6433587e-08
5.6592192e-08
5.675768e-08
5.6928601e-08
5.7103799e-08
5.7282522e-08
5.7464504e-08
5.7649991e-08
5.7839689e-08
5.8034614e-08
5.8235849e-08
5.8444317e-08
5.8660838e-08
5.8887136e-08
5.911236e-08
5.9312705e-08
5.9472605e-08
5.9566803e-08
5.9549193e-08
5.9307421e-08
5.7568178e-08
5.7659789e-08
5.776471e-08
5.788171e-08
5.8009397e-08
5.8146285e-08
5.8290883e-08
5.8441786e-08
5.8597785e-08
5.8757981e-08
5.8921885e-08
5.9089499e-08
5.9261328e-08
5.9438313e-08
5.9621659e-08
5.9812552e-08
6.0011866e-08
6.0220096e-08
6.0438091e-08
6.0655373e-08
6.0849388e-08
6.1003523e-08
6.1091072e-08
6.106366e-08
6.0803151e-08
5.9298338e-08
5.9382278e-08
5.9478253e-08
5.9585131e-08
5.9701645e-08
5.9826468e-08
5.9958285e-08
6.0095888e-08
6.0238281e-08
6.0384789e-08
6.053516e-08
6.0689634e-08
6.0848952e-08
6.1014273e-08
6.1186977e-08
6.1368353e-08
6.155924e-08
6.1759854e-08
6.1970279e-08
6.2180254e-08
6.236829e-08
6.2516787e-08
6.2597616e-08
6.2560136e-08
6.2280943e-08
6.0984279e-08
6.1061124e-08
6.1148864e-08
6.1246455e-08
6.1352747e-08
6.1466552e-08
6.158671e-08
6.1712186e-08
6.1842171e-08
6.1976191e-08
6.2114203e-08
6.2256663e-08
6.2404526e-08
6.2559148e-08
6.2722074e-08
6.2894687e-08
6.3077799e-08
6.3271383e-08
6.3474845e-08
6.3678064e-08
6.3860402e-08
6.4003348e-08
6.4077429e-08
6.4029851e-08
6.3732163e-08
6.2618857e-08
6.2689153e-08
6.2769318e-08
6.2858392e-08
6.2955332e-08
6.3059068e-08
6.3168581e-08
6.328299e-08
6.3401651e-08
6.3524266e-08
6.3650982e-08
6.3782447e-08
6.3919808e-08
6.4064604e-08
6.4218524e-08
6.4383039e-08
6.455894e-08
6.4745982e-08
6.4942973e-08
6.5139872e-08
6.5316711e-08
6.545414e-08
6.5521456e-08
6.5463936e-08
6.5148496e-08
6.41945e-08
6.4258764e-08
6.4331975e-08
6.4413248e-08
6.4501633e-08
6.4596173e-08
6.4695971e-08
6.480028e-08
6.4908605e-08
6.5020805e-08
6.5137193e-08
6.5258591e-08
6.5386319e-08
6.5522074e-08
6.566768e-08
6.582468e-08
6.5993847e-08
6.617474e-08
6.6365644e-08
6.6556539e-08
6.6727998e-08
6.6859894e-08
6.6920361e-08
6.6852605e-08
6.6517788e-08
6.570315e-08
6.5761882e-08
6.5828729e-08
6.5902877e-08
6.5983461e-08
6.6069622e-08
6.6160571e-08
6.6255682e-08
6.635459e-08
6.6457295e-08
6.6564257e-08
6.667645e-08
6.6795344e-08
6.6922779e-08
6.7060689e-08
6.7210683e-08
6.737351e-08
6.7548561e-08
6.7733667e-08
6.7918748e-08
6.8084843e-08
6.8211144e-08
6.8264735e-08
6.8186932e-08
6.7833734e-08
6.7136459e-08
6.719015e-08
6.7251208e-08
6.7318884e-08
6.739239e-08
6.7470953e-08
6.7553881e-08
6.7640654e-08
6.7731022e-08
6.7825106e-08
6.7923496e-08
6.8027297e-08
6.813811e-08
6.8257891e-08
6.8388667e-08
6.8532097e-08
6.8688907e-08
6.885834e-08
6.9037842e-08
6.9217143e-08
6.9377766e-08
6.9498313e-08
6.9544976e-08
6.9457438e-08
6.9087082e-08
6.8486107e-08
6.8535244e-08
6.8591081e-08
6.8652926e-08
6.872006e-08
6.8791785e-08
6.8867496e-08
6.8946765e-08
6.9029441e-08
6.9115751e-08
6.9206393e-08
6.9302584e-08
6.940603e-08
6.9518782e-08
6.9642939e-08
6.978019e-08
6.9931237e-08
7.00952e-08
7.0269206e-08
7.0442579e-08
7.0597449e-08
7.0711929e-08
7.0751442e-08
7.0654244e-08
7.0267471e-08
6.9744126e-08
6.9789198e-08
6.9840378e-08
6.9897026e-08
6.9958482e-08
7.0024117e-08
7.0093399e-08
7.0165981e-08
7.0241794e-08
7.0321155e-08
7.0404851e-08
7.0494189e-08
7.0590955e-08
7.0697271e-08
7.0815279e-08
7.0946685e-08
7.1092162e-08
7.1250724e-08
7.1419236e-08
7.1586332e-08
7.1734985e-08
7.1842911e-08
7.18749e-08
7.1767991e-08
7.1365533e-08
7.0903149e-08
7.0944641e-08
7.0991723e-08
7.10438e-08
7.1100263e-08
7.1160542e-08
7.1224167e-08
7.1290857e-08
7.1360616e-08
7.1433832e-08
7.1511362e-08
7.1594578e-08
7.1685325e-08
7.1785762e-08
7.1898055e-08
7.2023903e-08
7.2163944e-08
7.231707e-08
7.2479893e-08
7.2640184e-08
7.2781983e-08
7.2882735e-08
7.2906829e-08
7.2790609e-08
7.2372e-08
7.1956447e-08
7.1994839e-08
7.203837e-08
7.2086486e-08
7.2138621e-08
7.2194253e-08
7.2252966e-08
7.2314535e-08
7.2379018e-08
7.244686e-08
7.2518969e-08
7.2596762e-08
7.2682113e-08
7.2777194e-08
7.2884163e-08
7.30047e-08
7.3139429e-08
7.3286968e-08
7.3443437e-08
7.3596251e-08
7.3730416e-08
7.3823258e-08
7.3839134e-08
7.3715138e-08
7.3298499e-08
7.2897676e-08
7.2933429e-08
7.2973935e-08
7.301867e-08
7.3067106e-08
7.3118761e-08
7.3173261e-08
7.3230426e-08
7.3290359e-08
7.3353544e-08
7.3420924e-08
7.3493937e-08
7.3574464e-08
7.3664661e-08
7.3766646e-08
7.3882085e-08
7.4011903e-08
7.4153749e-08
7.4301998e-08
7.4446489e-08
7.4572123e-08
7.4656117e-08
7.4662978e-08
7.4530384e-08
7.4108089e-08
7.3720156e-08
7.3753703e-08
7.3791668e-08
7.3833552e-08
7.3878859e-08
7.3927136e-08
7.3978048e-08
7.4031446e-08
7.4087467e-08
7.4146621e-08
7.4209872e-08
7.4278663e-08
7.4354858e-08
7.4440569e-08
7.4537821e-08
7.4648065e-08
7.4771516e-08
7.4906008e-08
7.5045978e-08
7.518163e-08
7.5297852e-08
7.537192e-08
7.5368584e-08
7.5225834e-08
7.4792723e-08
7.440595e-08
7.4437732e-08
7.4473668e-08
7.4513281e-08
7.4556092e-08
7.4601676e-08
7.4649718e-08
7.4700094e-08
7.4752958e-08
7.4808832e-08
7.4868679e-08
7.4933924e-08
7.500639e-08
7.5088111e-08
7.5180993e-08
7.5286287e-08
7.5403881e-08
7.5531395e-08
7.5663223e-08
7.578966e-08
7.589569e-08
7.5958807e-08
7.594418e-08
7.579029e-08
7.5345667e-08
7.4937738e-08
7.496815e-08
7.500252e-08
7.5040379e-08
7.5081258e-08
7.512475e-08
7.5170562e-08
7.5218579e-08
7.5268957e-08
7.5322215e-08
7.5379303e-08
7.5441613e-08
7.5510903e-08
7.5589124e-08
7.5678078e-08
7.5778851e-08
7.5891078e-08
7.6012042e-08
7.6135894e-08
7.6252899e-08
7.6348183e-08
7.6399602e-08
7.6372993e-08
7.6207881e-08
7.5753641e-08
7.5285259e-08
7.5314616e-08
7.53478e-08
7.538433e-08
7.5423712e-08
7.5465589e-08
7.5509704e-08
7.5555925e-08
7.5604392e-08
7.5655604e-08
7.5710487e-08
7.5770384e-08
7.583698e-08
7.5912165e-08
7.5997714e-08
7.609467e-08
7.6202534e-08
7.6317921e-08
7.6434388e-08
7.6542157e-08
7.662662e-08
7.6666161e-08
7.6627624e-08
7.6452494e-08
7.599396e-08
7.5387418e-08
7.5415868e-08
7.5448096e-08
7.5483529e-08
7.5521568e-08
7.5562057e-08
7.5604832e-08
7.5649687e-08
7.5696694e-08
7.5746315e-08
7.5799435e-08
7.5857333e-08
7.5921619e-08
7.5994178e-08
7.6076979e-08
7.6171505e-08
7.6278003e-08
7.6390614e-08
7.6501305e-08
7.6600793e-08
7.6675167e-08
7.6703649e-08
7.6654592e-08
7.6473273e-08
7.6025147e-08
7.5059597e-08
7.5086908e-08
7.5118046e-08
7.5152138e-08
7.5188285e-08
7.5227016e-08
7.5268413e-08
7.5312038e-08
7.5357778e-08
7.5406014e-08
7.5457568e-08
7.5513631e-08
7.5575713e-08
7.5645787e-08
7.5726472e-08
7.5821601e-08
7.5941594e-08
7.6062031e-08
7.6170472e-08
7.6263465e-08
7.632946e-08
7.6349098e-08
7.6293003e-08
7.6113738e-08
7.5712288e-08
)
;

boundaryField
{
    Walls
    {
        type            nutUWallFunction;
        Cmu             0.09;
        kappa           0.41;
        E               9.8;
        value           uniform 0;
    }
    Inlet
    {
        type            calculated;
        value           nonuniform List<scalar> 3(3.1707164e-05 2.2346531e-05 7.8690112e-07);
    }
    Outlet
    {
        type            calculated;
        value           nonuniform List<scalar> 
86
(
0
0
0
0
0
0
0
0
0
0
0
0
0
0
0
0
0
0
0
0
0
0
0
0
0
0
0
0
0
0
1.4308701e-05
1.485234e-05
1.3435959e-05
0
0
0
0
0
4.3552682e-06
3.797866e-06
0
0
0
0
0
7.2618567e-07
4.7101509e-07
2.9203803e-07
1.7896934e-07
1.1379738e-07
7.9069007e-08
6.1857518e-08
5.4076698e-08
5.1101846e-08
5.0490895e-08
5.1014532e-08
0
0
0
0
0
0
0
0
0
0
0
0
0
0
0
0
0
0
0
0
0
0
0
0
0
0
0
0
1.3191063e-05
1.4825729e-05
)
;
    }
    Front
    {
        type            wedge;
    }
    Back
    {
        type            wedge;
    }
    defaultFaces
    {
        type            empty;
    }
}


// ************************************************************************* //
