/*--------------------------------*- C++ -*----------------------------------*\
| =========                 |                                                 |
| \\      /  F ield         | OpenFOAM: The Open Source CFD Toolbox           |
|  \\    /   O peration     | Version:  4.0                                   |
|   \\  /    A nd           | Web:      www.OpenFOAM.org                      |
|    \\/     M anipulation  |                                                 |
\*---------------------------------------------------------------------------*/
FoamFile
{
    version     2.0;
    format      ascii;
    class       volScalarField;
    location    "0.4";
    object      omega;
}
// * * * * * * * * * * * * * * * * * * * * * * * * * * * * * * * * * * * * * //

dimensions      [0 0 -1 0 0 0 0];

internalField   nonuniform List<scalar> 
1740
(
57.466084
649.44388
14918.675
162.2775
1378.4883
15026.666
275.081
1871.6934
15120.734
387.84331
2231.2548
15203.055
514.3802
2590.8082
15271.338
654.93987
2884.2122
15330.516
779.08835
3126.5791
15373.395
889.09055
3300.4371
15408.193
995.73525
3435.5943
15439.098
1096.6952
3595.6012
15466.606
1198.6131
3742.9581
15489.077
1264.0797
3828.2236
15498.909
1329.2134
3834.8275
15516.567
1411.0761
3866.2379
15533.22
1487.3663
3901.4255
15534.48
1540.8015
3922.7406
15546.426
1606.0862
3987.1832
15559.066
1681.9207
4009.2918
15560.213
1717.2922
4015.979
15564.838
1763.318
4088.2947
15569.669
1832.7974
4114.7512
15572.798
1874.514
4109.8176
15574.015
1885.4002
4154.7386
15574.349
1914.5626
4223.2611
15571.345
1922.8201
4220.3153
15568.06
1937.2223
4188.132
15570.709
1963.1316
4172.8494
15562.789
2002.9883
4166.479
15559.069
2024.9204
4171.1676
15553.153
2144.4582
4254.9574
15493.646
3214.2115
4542.0757
10682.261
3336.5167
4224.7404
5903.4599
1573.6948
1859.0301
2150.1006
824.92179
899.69893
957.7313
479.2355
497.31727
507.31308
301.24634
304.92311
304.95938
201.72378
202.00841
200.52162
142.36564
142.02478
140.75228
105.1365
104.79867
103.94795
80.846845
80.611857
80.086961
64.512243
64.364452
64.04942
53.305057
53.21521
53.027241
45.561148
45.506892
45.393972
40.254927
40.221929
40.153031
36.709372
36.689084
36.646311
34.437834
34.42538
34.398607
33.066084
33.058767
33.042273
32.298339
32.294575
32.284803
31.881913
31.879092
31.871733
31.591961
31.589266
31.582917
31.36236
31.360093
31.354781
31.163263
31.161501
31.157187
30.97788
30.976698
30.973389
30.798407
30.797846
30.795529
30.624328
30.624298
30.622839
30.460292
30.46059
30.459744
30.312348
30.312767
30.31228
30.18456
30.184963
30.184654
30.07779
30.078119
30.077886
29.990288
29.990529
29.990326
29.918832
29.918996
29.918805
29.859628
29.859732
29.859548
29.808692
29.808751
29.808573
29.761768
29.761795
29.761624
29.713857
29.713862
29.713701
29.658407
29.658398
29.658248
29.586128
29.586111
29.585975
29.48338
29.48336
29.48324
29.330071
29.330053
29.329954
29.097033
29.097021
29.096948
28.742951
28.742949
28.742909
28.211082
28.211097
28.211101
27.426288
27.426329
27.426392
26.293275
26.293349
26.293494
24.697562
24.697682
24.697933
22.514432
22.514621
22.515021
19.61861
19.61888
19.619454
15.915398
15.915736
15.916453
11.373558
11.373897
11.374373
6.0031834
6.0030703
5.9796759
13476.611
13532.584
5979.0894
5322.898
2081.2257
1879.7312
921.3383
853.04919
490.4008
463.16025
296.61208
284.55027
196.14667
190.35277
138.36333
135.40284
102.61249
101.02819
79.327969
78.449149
63.611176
63.109022
52.769638
52.474525
45.239286
45.060479
40.057767
39.945687
36.586116
36.513405
34.35985
34.311328
33.017195
32.984207
32.268524
32.245645
31.859318
31.841494
31.572523
31.557594
31.346014
31.33324
31.149798
31.138723
30.967252
30.957628
30.790561
30.782273
30.618921
30.611908
30.456702
30.450894
30.309925
30.305218
30.182822
30.179074
30.076449
30.073498
29.989186
29.986874
29.91789
29.916072
29.858802
29.857361
29.807956
29.8068
29.761106
29.760166
29.713261
29.712487
29.657873
29.657228
29.585655
29.585117
29.482972
29.482525
29.329735
29.329372
29.096782
29.096503
28.742804
28.742615
28.21107
28.210986
27.426455
27.4265
26.293682
26.293893
24.698288
24.698716
22.515592
22.5163
19.620279
19.621313
15.917491
15.918773
11.3754
11.376525
5.9800899
5.9804883
12058.197
2043.7315
696.71662
369.19943
281.35548
257.11447
249.967
246.91906
244.56831
242.16915
239.64123
236.88562
234.04196
231.12097
228.08834
224.87976
221.38195
217.399
212.59827
206.4257
197.96029
185.64944
166.79234
136.3267
82.34327
12058.133
2037.5306
697.80433
374.73739
283.27108
254.41885
242.87342
235.65725
229.5511
223.75791
218.08129
212.45523
206.94819
201.5404
196.21034
190.92967
185.64181
180.24285
174.54561
168.22761
160.73749
151.10816
137.54103
116.33081
78.035656
12058.179
2030.4994
718.60261
430.68157
359.29693
332.36827
315.0062
300.51749
287.28941
274.74953
262.78082
251.20042
240.23215
229.77792
219.77599
210.21233
201.06586
192.29035
183.78502
175.3714
166.73575
157.29641
145.84753
129.43202
98.736564
12058.527
2031.7438
817.50023
608.708
549.8359
512.64406
479.64319
449.15075
421.18765
394.89327
370.23451
347.24383
326.05198
306.20303
287.55437
270.11206
253.8632
238.77551
224.79351
211.82581
199.73163
188.28457
177.04402
164.82689
146.36618
12061.527
2150.9036
1232.2046
1078.2083
989.45782
906.64326
828.18348
756.81241
692.9195
633.84578
579.52419
529.92446
485.84933
445.57855
408.61731
374.96742
344.4897
317.01239
292.35339
270.31861
250.71199
233.35885
218.14576
205.24567
195.73601
12087.22
3818.1298
2806.7794
2403.0127
2094.9571
1826.1795
1590.8783
1387.5756
1211.6337
1059.7804
928.96597
816.36763
719.44764
635.78121
563.44411
500.92306
446.91823
400.29661
360.08065
325.43482
295.65095
270.15548
248.54518
230.91706
218.50842
10356.316
7896.9256
6093.6517
4786.067
3817.6419
3082.9891
2513.9158
2066.6508
1711.7735
1428.0705
1199.6728
1014.6579
864.048
740.9248
639.80503
556.33003
487.05537
429.27458
380.86631
340.16643
305.8689
276.96905
252.75337
233.10393
219.3034
4084.777
3303.1909
2841.1315
2466.5412
2147.6586
1867.2756
1622.562
1410.9651
1229.5604
1074.0568
940.64933
825.92688
726.91504
641.45385
567.70106
504.06175
449.15786
401.80989
361.01329
325.91575
295.79927
270.08491
248.35998
230.70218
218.30301
1593.356
1399.0503
1269.0377
1160.8888
1058.7305
961.50739
872.86718
793.83567
721.83981
656.61321
598.25748
546.64164
499.24239
455.93294
416.59533
381.03223
349.01039
320.29629
294.65863
271.8804
251.76348
234.13979
218.89854
206.19327
196.98761
770.64876
707.48527
661.30016
620.74021
580.40276
540.28922
502.73451
468.11127
436.01842
406.42548
379.37501
354.59396
331.3973
309.68588
289.45109
270.67935
253.33994
237.39091
222.78123
209.44661
197.29267
186.1522
175.65541
164.73227
148.5283
433.70832
409.95642
391.22955
373.99212
356.24586
337.95361
320.08574
303.0742
286.99825
271.90948
257.81879
244.60262
232.05368
220.12662
208.85151
198.22468
188.23874
178.87249
170.08085
161.77171
153.75102
145.58759
136.24548
122.93565
96.532854
272.11293
261.63206
252.93644
244.74902
236.21524
227.26778
218.2633
209.46418
200.9923
192.90563
185.21302
177.86556
170.79062
163.96465
157.39941
151.0987
145.05334
139.23283
133.56992
127.928
122.03213
115.31702
106.56933
92.991169
67.029418
184.49915
179.39187
174.96647
170.72746
166.29968
161.61523
156.807
152.01534
147.32899
142.7932
138.41797
134.18474
130.06375
126.03915
122.10597
118.25432
114.46148
110.68165
106.82933
102.7489
98.157196
92.53244
84.886411
73.210393
52.237732
132.43658
129.77313
127.38599
125.07157
122.65533
120.08912
117.42072
114.71964
112.04024
109.41346
106.84878
104.33831
101.8666
99.419372
96.9829
94.537085
92.048407
89.460847
86.682139
83.562019
79.859063
75.197497
69.045999
60.900563
50.747955
99.441425
97.983096
96.642262
95.329725
93.962446
92.509324
90.985525
89.424022
87.855393
86.298806
84.760576
83.236277
81.714745
80.181299
78.617106
76.995281
75.275535
73.397091
71.269147
68.758638
65.678421
61.791116
56.885677
51.114104
46.009183
77.564344
76.734551
75.956471
75.189501
74.392508
73.546215
72.654093
71.731123
70.793155
69.850731
68.906837
67.957139
66.991226
65.993381
64.941615
63.804907
62.53917
61.082129
59.347122
57.216867
54.541039
51.149936
46.91997
41.980164
36.62682
62.598611
62.110712
61.64521
61.18343
60.704655
60.197158
59.66027
59.100199
58.524422
57.937749
57.340306
56.726803
56.086357
55.402171
54.650208
53.796871
52.795807
51.583994
50.077231
48.165383
45.707855
42.527543
38.386629
32.850569
24.335994
52.170376
51.873712
51.585504
51.297183
50.998258
50.681733
50.345906
49.992689
49.624948
49.243945
48.847641
48.429651
47.978421
47.476206
46.897501
46.206867
45.356108
44.280911
42.896817
41.094031
38.728888
35.603483
31.402903
25.486547
16.171561
44.872636
44.684861
44.498432
44.309481
44.112662
43.903902
43.681507
43.445534
43.196361
42.933122
42.652336
42.346742
42.004147
41.606022
41.12572
40.52622
39.757433
38.753041
37.426729
35.667083
33.328882
30.213727
26.02016
20.212818
11.694532
39.824859
39.70026
39.573034
39.441548
39.303092
39.155338
38.996895
38.827073
38.645028
38.448715
38.233764
37.992303
37.711612
37.372503
36.947317
36.397543
35.671108
34.699398
33.393997
31.642924
29.305385
26.202247
22.095952
16.656872
9.4450939
36.432368
36.345595
36.253836
36.156484
36.052212
35.939704
35.817914
35.685899
35.542256
35.384322
35.207213
35.002642
34.757475
34.451953
34.057501
33.534202
32.828099
31.868455
30.565269
28.807467
26.46245
23.377571
19.384795
14.3176
8.0201173
34.254958
34.191869
34.122419
34.046344
33.963052
33.871805
33.771838
33.66216
33.541122
33.405749
33.25084
33.067807
32.843169
32.55665
32.178872
31.668698
30.970615
30.01234
28.703046
26.933261
24.578407
21.508474
17.60717
12.809983
7.142206
32.943844
32.896281
32.841515
32.77938
32.709588
32.631748
32.545274
32.449193
32.341738
32.219747
32.0778
31.907047
31.693654
31.416821
31.046482
30.540525
29.842398
28.879134
27.560028
25.777234
23.411634
20.347418
16.497967
11.848466
6.5166375
32.215921
32.178868
32.134204
32.081734
32.021263
31.952517
31.874988
31.787691
31.688767
31.574897
31.440443
31.276258
31.068051
30.794311
30.424281
29.915268
29.210268
28.236605
26.905159
25.109727
22.733663
19.66769
15.838742
11.251803
6.0478697
31.817821
31.787782
31.751001
31.707157
31.655919
31.596843
31.529216
31.451804
31.362455
31.257503
31.1309
30.972983
30.768773
30.495798
30.121833
29.605068
28.888012
27.898412
26.552068
24.745107
22.360564
19.290624
15.467412
10.905383
5.7867339
31.537615
31.512082
31.480555
31.44264
31.39793
31.345908
31.285784
31.216244
31.135062
31.038519
30.920567
30.771654
30.577093
30.314875
29.952931
29.447474
28.733707
27.730147
26.368315
24.552695
22.163569
19.092047
15.272074
10.723315
5.6407954
31.31589
31.29342
31.265347
31.231231
31.190622
31.142962
31.087418
31.022639
30.946388
30.854985
30.742528
30.599756
30.41245
30.159228
29.808685
29.316062
28.620262
27.635591
26.268092
24.450205
22.061766
18.993006
15.178541
10.638968
5.5898581
31.123339
31.103051
31.077341
31.045748
31.007813
30.962974
30.910418
30.848846
30.77613
30.688788
30.581202
30.444467
30.264728
30.020898
29.681726
29.202273
28.522477
27.558213
26.203651
24.391355
22.00845
18.946197
15.14012
10.613014
5.5847789
30.943855
30.92528
30.90137
30.871681
30.835792
30.79321
30.743226
30.684701
30.615721
30.533068
30.431391
30.301999
30.131134
29.897674
29.570241
29.103775
28.438334
27.490939
26.155763
24.353103
21.97856
18.925123
15.13
10.619827
5.6362782
30.769987
30.753006
30.730822
30.703056
30.669385
30.629452
30.582717
30.528237
30.464304
30.387872
30.293696
30.173072
30.012108
29.789472
29.473631
29.019717
28.366391
27.433334
26.116095
24.324486
21.959358
18.915442
15.131963
10.636555
5.6475033
30.601143
30.585926
30.565812
30.540523
30.509865
30.473622
30.431403
30.382399
30.324991
30.256157
30.170579
30.059385
29.908445
29.696169
29.390839
28.947548
28.304938
27.383638
26.081152
24.300669
21.944774
18.909582
15.135681
10.649988
5.6585714
30.441726
30.428545
30.41099
30.388878
30.362115
30.330576
30.293935
30.251409
30.201349
30.140636
30.063786
29.961711
29.820042
29.616979
29.320682
28.886297
28.252886
27.340705
26.049888
24.279796
21.932328
18.904461
15.137036
10.655427
5.6630618
30.297651
30.28666
30.27196
30.253434
30.231031
30.204643
30.17393
30.138049
30.095249
30.04226
29.973418
29.879434
29.745749
29.55042
29.261539
28.834316
28.208062
27.303461
26.02201
24.261219
21.921275
18.899592
15.136412
10.655007
5.6345352
30.172997
30.16413
30.152248
30.137262
30.119119
30.097678
30.072531
30.042739
30.006422
29.960162
29.898131
29.810884
29.683728
29.494625
29.211649
28.790094
28.169515
27.271112
25.997276
24.244654
21.911578
18.895827
15.136871
10.655231
5.628924
30.068712
30.061722
30.052351
30.040513
30.026126
30.008992
29.988623
29.963973
29.933043
29.892288
29.835751
29.75387
29.63186
29.447632
29.169266
28.75216
28.136127
27.242941
25.975264
24.229756
21.903015
18.893164
15.13895
10.65832
5.6361811
29.98314
29.977701
29.970406
29.961165
29.949859
29.936231
29.919714
29.899172
29.872507
29.836069
29.783808
29.706077
29.588029
29.407548
29.132739
28.719099
28.106657
27.217606
25.955291
24.216017
21.89503
18.890562
15.140002
10.657662
5.6278912
29.913164
29.908943
29.903282
29.896079
29.887183
29.876285
29.862752
29.845377
29.821982
29.788842
29.739834
29.665254
29.550214
29.372586
29.100507
28.68957
28.080002
27.194361
25.936666
24.202836
21.887035
18.887586
15.141133
10.661729
5.655928
29.855082
29.851791
29.847376
29.841725
29.834659
29.82583
29.814555
29.799569
29.778637
29.747977
29.701414
29.629202
29.516428
29.340963
29.070979
28.662164
28.054928
27.172164
25.918511
24.189401
21.878248
18.883364
15.140454
10.660471
5.6214324
29.804995
29.802403
29.798922
29.794434
29.788739
29.781457
29.771868
29.758666
29.739573
29.710764
29.666029
29.59559
29.484518
29.31069
29.042319
28.63518
28.029851
27.14952
25.89934
24.174478
21.867592
18.877065
15.13798
10.658483
5.6116118
29.758717
29.756648
29.753865
29.750244
29.74557
29.73944
29.731108
29.719235
29.701512
29.674085
29.630713
29.5616
29.451807
29.279221
29.012093
28.606286
28.002533
27.124294
25.877174
24.156173
21.853298
18.866955
15.131829
10.654849
5.6074036
29.711308
29.709633
29.707374
29.704402
29.700491
29.695223
29.68783
29.676951
29.660254
29.63386
29.591509
29.52339
29.414558
29.242913
28.976749
28.572011
27.969584
27.093183
25.848837
24.131464
21.832564
18.850535
15.119629
10.645836
5.6005467
29.656259
29.654886
29.653025
29.650545
29.647213
29.642596
29.635911
29.625783
29.609859
29.584244
29.542661
29.475289
29.367182
29.196255
28.930846
28.526987
27.925717
27.051007
25.809304
24.095546
21.800913
18.823942
15.099025
10.633241
5.5994636
29.584314
29.583178
29.581627
29.579529
29.576642
29.572527
29.566387
29.556834
29.541501
29.516479
29.47548
29.408674
29.301119
29.130751
28.865956
28.462867
27.862691
26.98968
25.750729
24.040944
21.751413
18.780991
15.064303
10.608307
5.5842497
29.481861
29.480919
29.479618
29.477825
29.475293
29.471574
29.465864
29.456762
29.441891
29.41733
29.376783
29.310417
29.203298
29.033392
28.769152
28.366832
27.767848
26.896793
25.661095
23.956253
21.673577
18.712555
15.008374
10.568157
5.5615745
29.328831
29.328056
29.326968
29.32543
29.323191
29.319798
29.314439
29.305704
29.291207
29.267019
29.226839
29.160836
29.054098
28.884638
28.621003
28.219616
27.622179
26.753734
25.52241
23.824443
21.551796
18.605126
14.920784
10.506624
5.5304085
29.096079
29.095459
29.094562
29.093249
29.091268
29.088157
29.0831
29.074679
29.060503
29.036638
28.996785
28.93113
28.824795
28.655876
28.393066
27.993042
27.397912
26.533362
25.308484
23.620758
21.363354
18.43883
14.785525
10.412443
5.4839687
28.742313
28.741846
28.741135
28.740037
28.738296
28.735446
28.730666
28.722535
28.70866
28.68511
28.6456
28.580351
28.47456
28.306453
28.044961
27.647145
27.05573
26.197332
24.982424
23.310412
21.076349
18.185536
14.579023
10.267206
5.4101752
28.210819
28.210518
28.210001
28.209123
28.207623
28.205033
28.200529
28.192691
28.179132
28.155939
28.116863
28.052196
27.947263
27.780517
27.521262
27.12716
26.541856
25.693355
24.494121
22.84633
20.64783
17.807618
14.270105
10.046972
5.2729174
27.426495
27.426386
27.426088
27.425451
27.424212
27.421901
27.417696
27.410186
27.397005
27.374279
27.335835
27.272095
27.168608
27.004197
26.748759
26.360871
25.785545
24.952863
23.778211
22.167418
20.02244
17.257101
13.819569
9.7218794
5.0945734
26.294091
26.294219
26.294183
26.293831
26.292897
26.290911
26.28706
26.279957
26.267276
26.245224
26.207764
26.145549
26.044499
25.884032
25.634962
25.257238
24.697784
23.889869
22.753305
21.19809
19.132273
16.476133
13.182978
9.2660172
4.850424
24.699178
24.699608
24.699907
24.699916
24.699368
24.697796
24.694405
24.68785
24.675883
24.654846
24.61894
24.5592
24.462145
24.308115
24.069334
23.707831
23.173643
22.403965
21.323927
19.850189
17.898756
15.398142
12.30823
8.6439137
4.5220349
22.517097
22.517901
22.518613
22.51907
22.518994
22.517922
22.5151
22.509251
22.498253
22.478671
22.445089
22.38915
22.298297
22.154274
21.931387
21.594612
21.098089
20.384553
19.386325
18.028882
16.23827
13.953082
11.140988
7.8183802
4.0896226
19.622484
19.623685
19.624892
19.625896
19.626345
19.625833
19.623725
19.618828
19.609192
19.591712
19.561552
19.511262
19.429636
19.300468
19.101103
18.800567
18.358453
17.72484
16.841414
15.644788
14.07318
12.076922
9.6323608
6.7569106
3.5376563
15.920114
15.921363
15.922897
15.92426
15.924754
15.924383
15.922933
15.919219
15.911431
15.896903
15.871603
15.829325
15.760713
15.652449
15.486188
15.236346
14.869512
14.345171
13.616728
12.634198
11.349811
9.7267334
7.7502217
5.4383728
2.8578052
11.377214
11.377234
11.378154
11.378709
11.377199
11.375268
11.373781
11.37123
11.365734
11.355133
11.336417
11.304971
11.25383
11.17349
11.051328
10.868644
10.600649
10.2187
9.6902693
8.9806028
8.0572009
6.8963276
5.4914675
3.8616999
2.0563458
5.9797861
5.9777019
5.9769628
5.9753975
5.970359
5.9658608
5.9637816
5.9622301
5.9593556
5.9537047
5.9435756
5.9263911
5.8982872
5.8543703
5.7885674
5.6906492
5.545855
5.3413792
5.0608296
4.6857222
4.1995417
3.5910622
2.8594639
2.0215261
1.1186306
)
;

boundaryField
{
    Walls
    {
        Cmu             0.09;
        kappa           0.41;
        E               9.8;
        beta1           0.075;
        type            omegaWallFunction;
        value           nonuniform List<scalar> 
38
(
12058.197
12058.133
12058.179
12058.527
12061.527
12087.22
13476.611
13532.584
14918.675
15026.666
15120.734
15203.055
15271.338
15330.516
15373.395
15408.193
15439.098
15466.606
15489.077
15498.909
15516.567
15533.22
15534.48
15546.426
15559.066
15560.213
15564.838
15569.669
15572.798
15574.015
15574.349
15571.345
15568.06
15570.709
15562.789
15559.069
15553.153
15493.646
)
;
    }
    Inlet
    {
        type            turbulentMixingLengthDissipationRateInlet;
        mixingLength    0.03;
        phi             phi;
        k               k;
        value           nonuniform List<scalar> 3(0.0064817829 0.0037532506 0.0052854751);
    }
    Outlet
    {
        type            inletOutlet;
        inletValue      uniform 1e-05;
        value           nonuniform List<scalar> 
86
(
1e-05
1e-05
1e-05
1e-05
1e-05
1e-05
1e-05
1e-05
1e-05
1e-05
1e-05
1e-05
1e-05
1e-05
1e-05
1e-05
1e-05
1e-05
1e-05
1e-05
1e-05
1e-05
1e-05
1e-05
1e-05
1e-05
1e-05
1e-05
1e-05
1e-05
219.3034
218.30301
196.98761
1e-05
1e-05
1e-05
1e-05
1e-05
46.009183
36.62682
1e-05
1e-05
1e-05
1e-05
1e-05
7.142206
6.5166375
6.0478697
5.7867339
5.6407954
5.5898581
5.5847789
5.6362782
5.6475033
5.6585714
5.6630618
1e-05
1e-05
1e-05
1e-05
1e-05
1e-05
1e-05
1e-05
1e-05
1e-05
1e-05
1e-05
1e-05
1e-05
1e-05
1e-05
1e-05
1e-05
1e-05
1e-05
1e-05
1e-05
1e-05
1e-05
1e-05
1e-05
1e-05
1e-05
195.73601
218.50842
)
;
    }
    Front
    {
        type            wedge;
    }
    Back
    {
        type            wedge;
    }
    defaultFaces
    {
        type            empty;
    }
}


// ************************************************************************* //
