/*--------------------------------*- C++ -*----------------------------------*\
| =========                 |                                                 |
| \\      /  F ield         | OpenFOAM: The Open Source CFD Toolbox           |
|  \\    /   O peration     | Version:  4.0                                   |
|   \\  /    A nd           | Web:      www.OpenFOAM.org                      |
|    \\/     M anipulation  |                                                 |
\*---------------------------------------------------------------------------*/
FoamFile
{
    version     2.0;
    format      ascii;
    class       volScalarField;
    location    "0.4";
    object      p;
}
// * * * * * * * * * * * * * * * * * * * * * * * * * * * * * * * * * * * * * //

dimensions      [0 2 -2 0 0 0 0];

internalField   nonuniform List<scalar> 
1740
(
491.67854
491.80467
491.73327
474.78515
475.19701
475.39883
457.73484
458.1848
458.60334
441.06936
441.26672
441.4755
424.37323
424.35524
424.56586
407.76721
407.58664
407.76275
391.09079
391.11846
391.02375
374.22524
374.39398
374.31866
357.57269
357.59925
357.5053
341.48922
341.41131
340.97628
325.8729
325.74479
325.40747
309.84072
309.84286
309.93967
293.11211
293.15886
293.3056
276.36514
276.22091
276.15254
259.43288
259.38695
259.30765
242.64803
242.64879
242.79488
226.56736
226.29931
226.42422
210.35899
210.19195
210.01965
193.70786
193.71663
193.62591
177.17012
177.25551
177.38042
160.81064
161.04752
160.90634
144.60962
144.59345
144.44757
128.09087
128.12911
128.29324
111.19588
111.58719
111.80264
94.582299
94.769672
95.146456
78.189587
78.11394
78.570506
62.113395
62.096609
62.341009
46.6487
46.617704
46.498997
31.326517
31.046299
30.608494
16.352778
15.884127
15.171802
3.9222651
3.2291797
1.2535319
-0.84432139
-0.81106914
-0.643962
-0.36542315
-0.35586113
-0.31907176
-0.23976433
-0.22964023
-0.2054023
-0.18924759
-0.1802785
-0.16179869
-0.15995921
-0.15233203
-0.13709048
-0.13797584
-0.13215482
-0.12054698
-0.12039854
-0.11606555
-0.10736722
-0.10584085
-0.1026087
-0.096055687
-0.093553297
-0.091116768
-0.086127517
-0.08317276
-0.081311991
-0.077465289
-0.074447576
-0.073006444
-0.070001789
-0.067120189
-0.06598801
-0.063610266
-0.060932795
-0.060030921
-0.058125214
-0.05565199
-0.054924082
-0.053378084
-0.051084323
-0.050489594
-0.049220862
-0.047082961
-0.046591396
-0.04553891
-0.04354065
-0.043129993
-0.042248074
-0.040377434
-0.040030979
-0.039285044
-0.037530314
-0.03723535
-0.036598895
-0.034947692
-0.034694468
-0.034147044
-0.032587213
-0.032368171
-0.031893867
-0.030414466
-0.030223689
-0.029809994
-0.028401729
-0.028234537
-0.027871522
-0.02652675
-0.026379413
-0.026059139
-0.024771677
-0.024641193
-0.024357266
-0.023122174
-0.023006111
-0.022753343
-0.021566678
-0.021463058
-0.021237216
-0.020095779
-0.020002984
-0.019800592
-0.018701715
-0.018618403
-0.018436587
-0.017377976
-0.017303031
-0.017139394
-0.016119036
-0.016051526
-0.015904059
-0.014920142
-0.014859281
-0.014726288
-0.013777081
-0.013722205
-0.013602247
-0.012685973
-0.012636515
-0.012528368
-0.011643179
-0.011598657
-0.011501275
-0.010645309
-0.010605308
-0.010517792
-0.009689179
-0.0096533376
-0.0095749084
-0.0087716935
-0.0087397002
-0.008669679
-0.0078897792
-0.0078613626
-0.0077991595
-0.00704037
-0.0070152948
-0.0069603988
-0.0062204071
-0.0061984705
-0.0061504398
-0.0054268339
-0.0054078611
-0.0053663154
-0.0046565896
-0.0046404311
-0.0046050454
-0.0039066008
-0.0038931311
-0.0038636314
-0.0031737608
-0.0031628761
-0.003139036
-0.0024548815
-0.0024464967
-0.0024281305
-0.0017466692
-0.0017407145
-0.0017276716
-0.0010459579
-0.0010423842
-0.0010345598
-0.00034866073
-0.00034745593
-0.00034482447
-1.524923
-1.0579198
-0.49359493
-0.37193118
-0.26523702
-0.21909996
-0.17167546
-0.13749184
-0.13757168
-0.1115015
-0.11787213
-0.097920085
-0.10575564
-0.090192992
-0.096110839
-0.083956675
-0.087423445
-0.077869494
-0.079435933
-0.071852738
-0.072220631
-0.066150056
-0.065845806
-0.060945647
-0.06028065
-0.056291689
-0.055428625
-0.052153679
-0.05117087
-0.048458664
-0.04739566
-0.04513006
-0.044014939
-0.042106831
-0.040964104
-0.039344542
-0.038194011
-0.03680905
-0.035664304
-0.03447146
-0.033340448
-0.032306119
-0.031192944
-0.030290425
-0.02919706
-0.028404985
-0.027332447
-0.026633607
-0.025582566
-0.024963027
-0.023934026
-0.023382462
-0.022375971
-0.021883121
-0.020899589
-0.020457813
-0.01949766
-0.019100618
-0.018164161
-0.01780657
-0.016893976
-0.016571413
-0.01568271
-0.015391446
-0.014526521
-0.01426339
-0.013421945
-0.013184242
-0.012365726
-0.012151136
-0.01135475
-0.011161292
-0.010386055
-0.010212016
-0.0094568038
-0.0093006902
-0.0085641991
-0.0084247062
-0.0077054284
-0.0075814211
-0.0068776569
-0.0067681487
-0.0060780294
-0.0059821648
-0.0053036695
-0.0052207095
-0.004551679
-0.0044809912
-0.0038191356
-0.0037601857
-0.0031030715
-0.0030554157
-0.0024004195
-0.0023636953
-0.0017079961
-0.0016819244
-0.0010227751
-0.0010071729
-0.00034088206
-0.00033567493
-0.054267746
-0.051870733
-0.047887519
-0.043188498
-0.03839471
-0.033892802
-0.02985172
-0.026309641
-0.023228654
-0.020571907
-0.018275308
-0.016270467
-0.014492929
-0.012892295
-0.011429461
-0.010074141
-0.008803794
-0.0076028834
-0.0064601
-0.0053667667
-0.0043162593
-0.003304803
-0.0023294028
-0.0013855742
-0.00046141747
-0.055774257
-0.053033488
-0.048696255
-0.043783847
-0.038887159
-0.034414359
-0.030493272
-0.027109267
-0.024193268
-0.021656867
-0.019423007
-0.017433043
-0.015640202
-0.01400136
-0.012483107
-0.011059504
-0.0097074912
-0.0084113967
-0.0071652482
-0.0059622648
-0.0047975124
-0.00367197
-0.0025850427
-0.0015309168
-0.00049910734
-0.061942673
-0.058571767
-0.053506651
-0.048352522
-0.043931645
-0.04019777
-0.037004541
-0.0341991
-0.031592283
-0.029133997
-0.02679009
-0.024547146
-0.022390203
-0.02031066
-0.018292496
-0.016325022
-0.014405359
-0.012531767
-0.010697874
-0.008901746
-0.0071452389
-0.0054410476
-0.0037956677
-0.0022102357
-0.00068865488
-0.079378909
-0.074964734
-0.070435374
-0.066603331
-0.063246269
-0.060013856
-0.056655783
-0.053136158
-0.049574605
-0.046012624
-0.042470791
-0.039000335
-0.035603726
-0.032268987
-0.029003546
-0.025813997
-0.022704734
-0.01967789
-0.016735191
-0.013879174
-0.011108084
-0.0084433599
-0.0058851881
-0.0034288768
-0.0010817472
-0.13276462
-0.12876986
-0.12292041
-0.11532509
-0.10758138
-0.099476705
-0.091300509
-0.08325119
-0.075474474
-0.068058105
-0.061125344
-0.054734527
-0.048767373
-0.042956477
-0.037577524
-0.032627452
-0.028077106
-0.023891716
-0.020031603
-0.016454338
-0.013122728
-0.0099787438
-0.0069906755
-0.0041342447
-0.0013960643
-0.30763896
-0.25806842
-0.22856391
-0.19035808
-0.15912365
-0.13167173
-0.1081444
-0.088573963
-0.072428655
-0.059149851
-0.048196414
-0.039147701
-0.03173318
-0.02581833
-0.020912369
-0.016875107
-0.013547402
-0.010800488
-0.0085293833
-0.0066462962
-0.0050759227
-0.0037424948
-0.0025880724
-0.0015607687
-0.00065612522
-0.43137205
-0.20949871
-0.14777541
-0.10131436
-0.060427038
-0.027842187
-0.0059283664
0.0066327846
0.013270858
0.016641965
0.018101851
0.018339499
0.017756896
0.016660779
0.01527706
0.01375418
0.012181296
0.010607077
0.0090599648
0.0075513922
0.0060814328
0.0046473918
0.0032354404
0.0018434649
0.00039199025
-0.2954626
-0.249804
-0.21250307
-0.17886388
-0.14816998
-0.12150409
-0.099050446
-0.08057917
-0.065450236
-0.053194274
-0.043220274
-0.035093006
-0.028489234
-0.023072197
-0.018620237
-0.014952926
-0.011934736
-0.0094617243
-0.007429817
-0.0057552285
-0.0043684938
-0.0032077242
-0.0022197102
-0.0013509878
-0.00059638243
-0.18236209
-0.1588515
-0.14241987
-0.12919151
-0.11727113
-0.10622045
-0.096055334
-0.086678188
-0.078042967
-0.070017109
-0.062623377
-0.05568822
-0.049231196
-0.043303114
-0.037865128
-0.032838417
-0.028206695
-0.023969742
-0.020063851
-0.016447839
-0.013083713
-0.009933843
-0.0069631151
-0.0041326069
-0.0014081887
-0.11150352
-0.095461874
-0.085334612
-0.078226172
-0.072647015
-0.067804474
-0.063305149
-0.058951417
-0.054699293
-0.050509613
-0.046427779
-0.042470096
-0.038619312
-0.034871453
-0.031238218
-0.027758497
-0.024406055
-0.021139709
-0.017979174
-0.01492187
-0.011963947
-0.0091035346
-0.0063418671
-0.003684594
-0.0011572307
-0.088862942
-0.07132409
-0.059442532
-0.051663685
-0.046567259
-0.042956044
-0.039934343
-0.037193729
-0.034612562
-0.032118243
-0.029689767
-0.027322422
-0.02501167
-0.02274531
-0.020524244
-0.018351042
-0.016216119
-0.014109079
-0.012040142
-0.010015554
-0.0080400167
-0.0061189302
-0.0042590114
-0.0024673399
-0.00076046831
-0.080107829
-0.065532687
-0.054031845
-0.045366535
-0.038664585
-0.033498451
-0.029711648
-0.026756337
-0.024316055
-0.022185749
-0.020250372
-0.018463508
-0.016813964
-0.015237318
-0.013709067
-0.012226424
-0.010784114
-0.0093741788
-0.0079989072
-0.0066607231
-0.0053611661
-0.0041013214
-0.0028814327
-0.0016984452
-0.00054522969
-0.075638871
-0.063046164
-0.052643157
-0.044357468
-0.037837479
-0.032699868
-0.028523907
-0.025167349
-0.022387163
-0.020017843
-0.017941557
-0.016104539
-0.014424134
-0.012882052
-0.011454105
-0.010119188
-0.0088597641
-0.0076610997
-0.0065143943
-0.0054141078
-0.0043562185
-0.0033369925
-0.0023528284
-0.0013989453
-0.00046387672
-0.072185362
-0.061556806
-0.052371453
-0.044673302
-0.038307945
-0.033069132
-0.028753838
-0.025201589
-0.022256566
-0.019777666
-0.017654975
-0.015767689
-0.014052969
-0.012493037
-0.011064249
-0.0097423636
-0.0085073136
-0.0073425568
-0.0062353904
-0.0051763468
-0.0041599391
-0.003181704
-0.0022381207
-0.0013268151
-0.00044061977
-0.068321846
-0.05938559
-0.051385007
-0.044431502
-0.03848501
-0.033440817
-0.029163982
-0.02554315
-0.022471973
-0.019849049
-0.017584463
-0.015593383
-0.013817767
-0.012221146
-0.010773018
-0.0094475647
-0.0082223178
-0.0070789682
-0.0060011955
-0.0049740432
-0.0039927929
-0.0030515779
-0.0021451063
-0.0012685929
-0.00042021259
-0.064067243
-0.0565635
-0.049643216
-0.043452724
-0.03801535
-0.03328471
-0.029179188
-0.025626108
-0.022553053
-0.01988398
-0.017552953
-0.015498781
-0.013672339
-0.012035651
-0.010557435
-0.0092106689
-0.0079731672
-0.0068259776
-0.0057557903
-0.0047541899
-0.003807202
-0.0029045613
-0.002039155
-0.0012060084
-0.00040060307
-0.059765875
-0.053461202
-0.047500662
-0.042033951
-0.037115544
-0.032741239
-0.028874915
-0.025470479
-0.022474902
-0.01983541
-0.017501738
-0.015428682
-0.013578041
-0.011917108
-0.010417537
-0.009054711
-0.0078075179
-0.0066580129
-0.0055920912
-0.0045982234
-0.0036652804
-0.0027851181
-0.0019501608
-0.0011515829
-0.0003809063
-0.05568319
-0.050372439
-0.045240422
-0.040430021
-0.03601279
-0.032009028
-0.028409163
-0.025188415
-0.022312629
-0.019745312
-0.017450149
-0.015393622
-0.013545818
-0.011879914
-0.010371933
-0.0090005836
-0.0077467502
-0.0065939394
-0.0055282354
-0.0045374863
-0.0036114007
-0.0027406608
-0.001917043
-0.0011320479
-0.00037489741
-0.051929814
-0.047442169
-0.043019426
-0.038792766
-0.034840071
-0.031196643
-0.027869443
-0.024848342
-0.022114188
-0.019643941
-0.017412729
-0.015395782
-0.013569779
-0.011912803
-0.01040539
-0.0090296544
-0.007769176
-0.0066094495
-0.0055376813
-0.0045413343
-0.0036119395
-0.0027390928
-0.0019146915
-0.0011299744
-0.00037341377
-0.048515371
-0.044708037
-0.040890105
-0.037177791
-0.033647504
-0.030342766
-0.027281858
-0.024465846
-0.021885923
-0.019528964
-0.017379362
-0.015418766
-0.013628513
-0.011991227
-0.010491638
-0.0091155238
-0.0078494107
-0.0066809948
-0.0055989645
-0.0045925643
-0.0036522946
-0.0027689281
-0.0019342462
-0.0011395488
-0.00037588597
-0.045403807
-0.04215874
-0.038853941
-0.035590931
-0.032440889
-0.029449892
-0.026643254
-0.024030471
-0.021610361
-0.019375918
-0.017317977
-0.015423736
-0.013679001
-0.01207126
-0.010588414
-0.0092191236
-0.007952668
-0.0067787216
-0.005687426
-0.0046692683
-0.0037154335
-0.0028175433
-0.001967747
-0.0011582289
-0.00038166799
-0.042547844
-0.039768654
-0.036898929
-0.034026033
-0.031215451
-0.028512327
-0.025944935
-0.023528065
-0.021266399
-0.019157564
-0.017195922
-0.015374121
-0.013683161
-0.012113985
-0.010657117
-0.0093032902
-0.0080439335
-0.0068703797
-0.0057741043
-0.0047470063
-0.0037813416
-0.0028696127
-0.0020045934
-0.0011794214
-0.00038775051
-0.039909584
-0.037517574
-0.03501736
-0.032482954
-0.029973356
-0.027531506
-0.025186082
-0.022954709
-0.020846038
-0.018862027
-0.016999648
-0.015255931
-0.013625991
-0.012102937
-0.010679636
-0.009348973
-0.008103708
-0.0069367728
-0.0058411218
-0.004809974
-0.003836622
-0.0029145004
-0.0020372082
-0.0011984806
-0.00039284124
-0.037462798
-0.035393702
-0.033207739
-0.030967179
-0.028723622
-0.02651685
-0.024375175
-0.022317504
-0.020354993
-0.018492796
-0.016731344
-0.015069403
-0.013505038
-0.012033716
-0.010650108
-0.0093487478
-0.008123842
-0.0069696519
-0.0058804842
-0.0048506528
-0.0038745387
-0.0029466233
-0.0020614977
-0.0012131697
-0.00039695046
-0.035187393
-0.033388584
-0.031470115
-0.029484179
-0.027475332
-0.02547942
-0.023523825
-0.02162771
-0.019803782
-0.018059392
-0.016397987
-0.014819145
-0.013322416
-0.011906171
-0.010566624
-0.0092994558
-0.0081002383
-0.0069643703
-0.0058872823
-0.004864267
-0.0038907359
-0.0029621553
-0.0020740935
-0.0012212398
-0.00039948613
-0.033065372
-0.031493646
-0.029803234
-0.028037762
-0.026235558
-0.024428596
-0.02264243
-0.020895956
-0.019202521
-0.017570972
-0.016006434
-0.014510521
-0.013082962
-0.011723527
-0.010430713
-0.0092015109
-0.0080323627
-0.006919656
-0.0058597502
-0.0048488834
-0.0038833095
-0.0029593234
-0.0020732781
-0.0012213949
-0.00040023155
-0.03107976
-0.029699651
-0.028204232
-0.026629973
-0.025009741
-0.023371827
-0.021739441
-0.020130912
-0.018559683
-0.017035269
-0.015563867
-0.014149052
-0.012791432
-0.011490637
-0.010246541
-0.0090578108
-0.0079220562
-0.0068366105
-0.0057984757
-0.0048046829
-0.0038522332
-0.0029381598
-0.0020595669
-0.0012137823
-0.00039793166
-0.029214872
-0.027997269
-0.026669201
-0.025261204
-0.023801414
-0.022314629
-0.020821744
-0.019339988
-0.017882684
-0.01645959
-0.015077566
-0.013741073
-0.012452277
-0.011211552
-0.010018516
-0.0088727033
-0.0077731971
-0.0067182699
-0.0057057204
-0.0047333346
-0.0037987698
-0.0028996551
-0.0020337573
-0.0011989923
-0.00039314009
-0.027456801
-0.026377758
-0.025193922
-0.023930906
-0.02261278
-0.021261247
-0.019895044
-0.018529841
-0.017178496
-0.015850864
-0.014554188
-0.013293376
-0.012071582
-0.010890345
-0.0097498136
-0.0086497322
-0.007589581
-0.0065683645
-0.0055849481
-0.0046378282
-0.0037252766
-0.0028454969
-0.0019967837
-0.001177402
-0.00038561866
-0.025793717
-0.024833484
-0.023774526
-0.022638394
-0.021445686
-0.020215345
-0.01896413
-0.017706253
-0.016453619
-0.0152159
-0.014000496
-0.012812771
-0.011656399
-0.010533584
-0.0094454771
-0.0083923622
-0.0073739507
-0.0063897427
-0.0054390347
-0.0045208216
-0.0036339852
-0.0027773716
-0.0019497996
-0.0011499701
-0.00037666138
-0.024215846
-0.023358108
-0.022407827
-0.021383203
-0.020301879
-0.01918033
-0.018033479
-0.016874324
-0.015713781
-0.014560948
-0.013423093
-0.012305907
-0.011213414
-0.010148356
-0.0091124642
-0.0081066162
-0.0071311154
-0.0061858725
-0.0052704419
-0.0043842294
-0.0035265631
-0.0026967296
-0.0018939507
-0.001117253
-0.00036578176
-0.022715208
-0.021946445
-0.021091267
-0.020165084
-0.019183023
-0.018159433
-0.017107525
-0.016039094
-0.014964269
-0.013891518
-0.012827827
-0.011778786
-0.010748695
-0.0097407011
-0.0087569702
-0.007798836
-0.0068670606
-0.0059619735
-0.0050835612
-0.0042316098
-0.0034057632
-0.0026055768
-0.0018305516
-0.0010799749
-0.00035336437
-0.021285271
-0.020594238
-0.019822753
-0.018983897
-0.01809067
-0.017155585
-0.016190312
-0.015205442
-0.014210316
-0.013212895
-0.01221986
-0.011236596
-0.010267464
-0.0093158021
-0.0083840541
-0.0074739626
-0.0065866749
-0.0057228856
-0.0048829273
-0.0040669006
-0.0032747369
-0.00250625
-0.0017611906
-0.0010391275
-0.00033984057
-0.019920636
-0.019297954
-0.018600533
-0.017839533
-0.017026156
-0.016171314
-0.015285313
-0.014377638
-0.0134568
-0.012530241
-0.011604304
-0.010684257
-0.0097743847
-0.0088780868
-0.0079979935
-0.0071361063
-0.0062938472
-0.0054721776
-0.0046717406
-0.0038929205
-0.0031359004
-0.0024007245
-0.001687356
-0.00099563756
-0.00032548894
-0.018616814
-0.018054603
-0.017423097
-0.016731855
-0.015990563
-0.01520874
-0.014395488
-0.01355929
-0.012707871
-0.011848106
-0.010985963
-0.010126526
-0.0092739998
-0.0084318172
-0.0076027267
-0.0067888548
-0.0059918121
-0.005212782
-0.0044526362
-0.0037119803
-0.0029912092
-0.0022905713
-0.0016101985
-0.00095017269
-0.00031049133
-0.017370026
-0.016861615
-0.016289087
-0.015660662
-0.014984724
-0.01426959
-0.013523298
-0.012753429
-0.011966976
-0.01117025
-0.010368826
-0.0095675299
-0.0087704536
-0.0079810134
-0.0072019987
-0.0064356295
-0.0056836584
-0.0049474464
-0.0042280176
-0.0035261335
-0.0028423498
-0.0021770766
-0.0015306631
-0.00090327278
-0.00029504101
-0.016176983
-0.015716717
-0.015197249
-0.014625659
-0.014009221
-0.01335521
-0.012670729
-0.011962546
-0.011236975
-0.010499788
-0.0097561585
-0.0090106322
-0.0082671401
-0.0075290178
-0.0067990453
-0.0060795034
-0.005372238
-0.0046787229
-0.0040001045
-0.0033372704
-0.0026909041
-0.0020615458
-0.001449753
-0.00085548689
-0.00027915444
-0.015034769
-0.014617837
-0.014146354
-0.013626422
-0.013064371
-0.012466577
-0.011839315
-0.011188623
-0.010520192
-0.0098392811
-0.0091506643
-0.008458597
-0.0077668127
-0.0070785302
-0.0063964828
-0.00572296
-0.0050598522
-0.0044086998
-0.0037707437
-0.0031469769
-0.0025381939
-0.0019450419
-0.0013680839
-0.00080716961
-0.00026279712
-0.01394075
-0.01356303
-0.013135144
-0.012662372
-0.012150231
-0.011604315
-0.011030169
-0.010433174
-0.0098184479
-0.0091907707
-0.0085545271
-0.0079136741
-0.0072717276
-0.0066317622
-0.0059964298
-0.0053679873
-0.0047483305
-0.0041390344
-0.0035413968
-0.0029564806
-0.0023851522
-0.0018281142
-0.001285885
-0.00075869739
-0.00024716392
-0.012892452
-0.012550389
-0.012162299
-0.011732766
-0.0112666
-0.010768713
-0.010244005
-0.009697267
-0.0091330947
-0.0085558172
-0.0079694458
-0.0073776383
-0.0067836811
-0.0061904842
-0.0056005898
-0.0050161915
-0.0044391591
-0.0038710706
-0.0033132471
-0.0027667866
-0.0022325942
-0.0017114084
-0.0012038249
-0.00071036648
-0.00023161926
-0.011887459
-0.011577987
-0.011226396
-0.010836673
-0.010413014
-0.0099597341
-0.0094811633
-0.0089815631
-0.0084650507
-0.0079355365
-0.0073966743
-0.0068518272
-0.0063040465
-0.005756063
-0.0052102893
-0.0046688314
-0.0041335074
-0.0036058714
-0.0030872416
-0.0025787286
-0.0020812631
-0.0015956294
-0.0011225185
-0.0006624683
-0.00021604844
-0.010923372
-0.010643837
-0.010325876
-0.0099729547
-0.0095887423
-0.009177026
-0.0087416296
-0.0082863382
-0.0078148328
-0.0073306342
-0.0068370571
-0.0063371774
-0.0058338102
-0.0053294985
-0.0048265108
-0.0043268476
-0.0038322543
-0.0033442395
-0.0028640977
-0.002392934
-0.0019316916
-0.0014811857
-0.001042151
-0.00061510157
-0.00020060617
-0.0099978108
-0.0097459027
-0.0094590583
-0.0091402952
-0.0087928186
-0.008419952
-0.0080250674
-0.0076115201
-0.007182592
-0.0067414423
-0.0062910654
-0.0058342601
-0.0053736076
-0.004911458
-0.0044499261
-0.0039908934
-0.0035360162
-0.003086741
-0.002644321
-0.0022098394
-0.0017842337
-0.0013683277
-0.0009628683
-0.00056835599
-0.00018535623
-0.009108414
-0.0088821077
-0.0086241707
-0.008337229
-0.0080240807
-0.007687638
-0.0073308681
-0.0069567373
-0.0065681627
-0.0061679674
-0.0057588443
-0.005343326
-0.0049237636
-0.0045023135
-0.00408093
-0.0036613659
-0.0032451775
-0.0028337344
-0.0024282351
-0.0020297248
-0.0016391171
-0.0012572223
-0.00088478174
-0.00052230039
-0.00017032597
-0.0082527969
-0.0080503155
-0.007819341
-0.0075621548
-0.0072811946
-0.0069790057
-0.0066581912
-0.0063213662
-0.0059711129
-0.0056099427
-0.0052402639
-0.0048643541
-0.0044843404
-0.0041021859
-0.0037196818
-0.0033384456
-0.0029599244
-0.0025854017
-0.0022160091
-0.0018527408
-0.0014964707
-0.0011479763
-0.00080797309
-0.00047697845
-0.00015551628
-0.0074285152
-0.0072483028
-0.007042581
-0.006813326
-0.0065626545
-0.0062927831
-0.0060059868
-0.0057045612
-0.0053907806
-0.0050668668
-0.0047349597
-0.0043970938
-0.0040551789
-0.0037109873
-0.003366146
-0.0030221336
-0.0026802814
-0.0023417789
-0.0020076816
-0.0016789228
-0.0013563261
-0.0010406222
-0.00073248197
-0.00043240116
-0.00014090516
-0.0066330587
-0.0064737554
-0.0062917861
-0.006088855
-0.005866792
-0.0056275181
-0.0053730114
-0.0051052733
-0.0048262949
-0.0045380278
-0.0042423597
-0.0039410931
-0.003635928
-0.0033284501
-0.0030201223
-0.0027122814
-0.0024061383
-0.0021027814
-0.0018031832
-0.0015082078
-0.0012186206
-0.00093510043
-0.00065826815
-0.0003885614
-0.00012652457
-0.005863858
-0.0057242786
-0.0055647503
-0.0053867339
-0.005191801
-0.004981605
-0.0047578529
-0.0045222752
-0.0042766004
-0.0040225286
-0.0037617092
-0.0034957231
-0.0032260686
-0.0029541488
-0.0026812641
-0.0024086081
-0.0021372674
-0.0018682243
-0.0016023607
-0.0013404648
-0.0010832388
-0.00083130893
-0.00058524915
-0.00034546653
-0.00011246923
-0.0051182928
-0.0049974102
-0.0048591842
-0.0047048554
-0.0045357608
-0.0043533098
-0.0041589597
-0.0039541913
-0.0037404887
-0.0035193158
-0.0032920971
-0.0030602023
-0.0028249341
-0.002587518
-0.0023490941
-0.0021107134
-0.0018733365
-0.0016378347
-0.0014049942
-0.0011755218
-0.00095005072
-0.00072915084
-0.00051335529
-0.00030307158
-9.8717909e-05
-0.0043936991
-0.0042906317
-0.0041727287
-0.0040410292
-0.0038966549
-0.0037407905
-0.0035746628
-0.003399521
-0.0032166193
-0.0030271995
-0.0028324739
-0.0026336114
-0.0024317263
-0.00222787
-0.002023025
-0.0018181005
-0.0016139297
-0.0014112713
-0.0012108123
-0.0010131736
-0.00081891574
-0.0006285482
-0.00044255114
-0.00026131271
-8.5170591e-05
-0.0036873708
-0.0036013712
-0.0035029585
-0.0033929859
-0.0032723751
-0.0031421016
-0.0030031782
-0.002856639
-0.0027035237
-0.0025448635
-0.0023816693
-0.0022149184
-0.0020455438
-0.0018744268
-0.0017023935
-0.0015302099
-0.0013585814
-0.0011881525
-0.0010195097
-0.00085318442
-0.00068965973
-0.00052937876
-0.00037275922
-0.00022012474
-7.1771357e-05
-0.0029965384
-0.0029269814
-0.0028473596
-0.0027583539
-0.0026607005
-0.0025551795
-0.0024426042
-0.002323808
-0.0021996297
-0.0020709007
-0.0019384369
-0.0018030286
-0.0016654318
-0.0015263623
-0.0013864904
-0.0012464397
-0.0011067867
-0.00096806051
-0.00083074465
-0.00069527916
-0.00056206541
-0.00043147246
-0.00030384606
-0.00017943983
-5.8510087e-05
-0.0023183156
-0.0022646921
-0.0022032935
-0.0021346404
-0.0020592972
-0.0019778625
-0.0018909605
-0.0017992309
-0.0017033182
-0.0016038621
-0.0015014882
-0.0013968027
-0.0012903879
-0.0011827963
-0.0010745468
-0.00096612308
-0.00085797325
-0.00075050997
-0.00064411147
-0.00053912378
-0.00043586297
-0.00033461824
-0.00023565745
-0.00013917319
-4.5375689e-05
-0.001649709
-0.0016116399
-0.0015680487
-0.0015193028
-0.0014658016
-0.0014079695
-0.0013462465
-0.001281082
-0.0012129295
-0.0011422405
-0.0010694574
-0.00099500911
-0.00091930789
-0.00084274619
-0.0007656945
-0.00068849888
-0.00061148003
-0.00053493352
-0.00045913095
-0.00038432147
-0.00031073254
-0.00023857062
-0.00016802444
-9.9227752e-05
-3.2339484e-05
-0.00098790576
-0.00096515
-0.00093909893
-0.00090996937
-0.00087799707
-0.00084343104
-0.00080653139
-0.0007675647
-0.00072679982
-0.00068450463
-0.00064094398
-0.00059637564
-0.00055104662
-0.00050519192
-0.00045903415
-0.00041278169
-0.00036662771
-0.00032075034
-0.00027531344
-0.0002304673
-0.00018634874
-0.00014308082
-0.00010077429
-5.9508895e-05
-1.9385873e-05
-0.00032925551
-0.00032168831
-0.00031302825
-0.0003033455
-0.00029271617
-0.0002812179
-0.00026893613
-0.00025596084
-0.0002423823
-0.00022828925
-0.00021377062
-0.00019891356
-0.00018380103
-0.00016851161
-0.00015311958
-0.00013769467
-0.00012230156
-0.00010699995
-9.1844766e-05
-7.6886299e-05
-6.2170191e-05
-4.7737052e-05
-3.362349e-05
-1.9855159e-05
-6.4675136e-06
)
;

boundaryField
{
    Walls
    {
        type            zeroGradient;
    }
    Inlet
    {
        type            fixedValue;
        value           uniform 500;
    }
    Outlet
    {
        type            fixedValue;
        value           uniform 0;
    }
    Front
    {
        type            wedge;
    }
    Back
    {
        type            wedge;
    }
    defaultFaces
    {
        type            empty;
    }
}


// ************************************************************************* //
