/*--------------------------------*- C++ -*----------------------------------*\
| =========                 |                                                 |
| \\      /  F ield         | OpenFOAM: The Open Source CFD Toolbox           |
|  \\    /   O peration     | Version:  4.0                                   |
|   \\  /    A nd           | Web:      www.OpenFOAM.org                      |
|    \\/     M anipulation  |                                                 |
\*---------------------------------------------------------------------------*/
FoamFile
{
    version     2.0;
    format      ascii;
    class       volVectorField;
    location    "0.4";
    object      U;
}
// * * * * * * * * * * * * * * * * * * * * * * * * * * * * * * * * * * * * * //

dimensions      [0 1 -1 0 0 0 0];

internalField   nonuniform List<vector> 
1740
(
(1.4653845 0.002046739 4.3072026e-06)
(1.4759574 -0.01289295 7.3190805e-07)
(1.5841729 -0.01184523 7.0196977e-08)
(1.4929047 -0.010688308 8.4313869e-06)
(1.5056017 -0.038470857 1.6222636e-06)
(1.5943134 -0.025910495 2.9181323e-07)
(1.6018348 -0.01441184 1.1409347e-05)
(1.5380118 -0.029519367 2.6531935e-06)
(1.5251235 -0.0194859 4.2211785e-07)
(1.6215564 -0.0066026638 1.3826877e-05)
(1.5335295 -0.0066811907 3.626495e-06)
(1.5298728 -0.0080037916 6.2071219e-07)
(1.62725 0.01207029 1.5079175e-05)
(1.5223428 0.0026181243 4.2939436e-06)
(1.5162825 -0.0058496762 7.6750269e-07)
(1.5909636 0.020414778 1.6221501e-05)
(1.6098212 0.017337506 5.0650481e-06)
(1.5125788 -0.005498315 9.6476028e-07)
(1.5087917 0.007463946 1.7089601e-05)
(1.6119389 0.011639683 5.8620648e-06)
(1.5084602 0.0055603611 1.148844e-06)
(1.5105685 -0.0063827822 1.7733723e-05)
(1.525497 0.0094089427 6.5630954e-06)
(1.5283941 0.0087352934 1.316539e-06)
(1.526722 -0.0079416764 1.8616996e-05)
(1.4924943 0.0021800384 7.1975191e-06)
(1.5158197 0.0054136433 1.5365119e-06)
(1.5815002 -0.006425846 1.9234426e-05)
(1.5330303 0.0050481487 7.7279144e-06)
(1.5372148 0.0084322588 1.7199356e-06)
(1.6291974 -0.0076522129 1.9422369e-05)
(1.5124099 0.0007591673 8.4017522e-06)
(1.6170575 -0.0016505357 1.922931e-06)
(1.5651636 -0.0037481301 1.9680221e-05)
(1.4494506 -0.017883792 9.0038197e-06)
(1.5404364 -0.011345653 2.1392912e-06)
(1.6046154 0.0022338494 1.9871842e-05)
(1.507438 -0.0099366722 9.4413879e-06)
(1.5210924 -0.0077676393 2.279938e-06)
(1.6202736 0.0087719728 2.0439806e-05)
(1.5163497 0.014355559 9.9929117e-06)
(1.5465668 0.0021803182 2.5469393e-06)
(1.5157488 0.00099427872 2.0749684e-05)
(1.5037818 0.010725117 1.0450485e-05)
(1.5104887 0.0064535695 2.7210532e-06)
(1.577932 0.0043501495 2.0740225e-05)
(1.4779437 0.00079286299 1.087119e-05)
(1.5836127 0.0018036538 2.8483285e-06)
(1.5474337 0.01304141 2.1058253e-05)
(1.5602231 0.00083873118 1.1214177e-05)
(1.5781375 -0.010474963 3.1112458e-06)
(1.4696278 -0.0036869452 2.1630739e-05)
(1.5712282 0.0096560028 1.1766446e-05)
(1.4672134 0.0049576355 3.2529338e-06)
(1.487718 0.0021252907 2.1745218e-05)
(1.4760927 0.0064823692 1.2081077e-05)
(1.5734089 0.0050093804 3.4149431e-06)
(1.4715625 -0.0032800514 2.1843323e-05)
(1.5716342 -0.016814119 1.2472295e-05)
(1.5788851 -0.011778599 3.5975532e-06)
(1.533993 -0.023251754 2.198426e-05)
(1.5660239 -0.015650925 1.2738515e-05)
(1.4750549 0.00051658972 3.756259e-06)
(1.6640914 -0.021632798 2.2403405e-05)
(1.4740945 0.0062723629 1.3237402e-05)
(1.567931 0.009638993 3.9002468e-06)
(1.6041579 -0.00088231548 2.2344144e-05)
(1.4879537 -0.0085320259 1.3526821e-05)
(1.5697699 -0.0049028808 4.0813401e-06)
(1.6057307 -0.0042880018 2.1761516e-05)
(1.4990651 -0.023192661 1.3764964e-05)
(1.4884706 -0.014247358 4.2066386e-06)
(1.7105994 0.012823676 2.1539299e-05)
(1.5067665 -0.013832352 1.4045892e-05)
(1.5087189 -0.016080699 4.3559193e-06)
(1.6190951 0.016652843 2.1981591e-05)
(1.5789301 -0.010876183 1.4270691e-05)
(1.4906259 -0.018079757 4.5163195e-06)
(1.5718467 -0.0012984562 2.2386298e-05)
(1.643983 -0.014293712 1.4570664e-05)
(1.4381355 -0.0083400147 4.6838081e-06)
(1.5949835 -0.010808314 2.2984757e-05)
(1.6153923 0.0004937724 1.485007e-05)
(1.4195362 0.0064446049 4.811288e-06)
(1.4934684 0.0042118284 2.2556222e-05)
(1.5020789 0.024754387 1.5051833e-05)
(1.4165884 0.016577875 4.8641422e-06)
(1.2959522 0.04862812 2.36308e-05)
(1.2963695 0.11674983 1.5604617e-05)
(1.3321422 0.063084739 5.4983708e-06)
(0.83044839 0.37222891 1.1692546e-05)
(0.80618346 0.93864825 9.8504304e-06)
(0.72501138 1.2515161 5.3494553e-06)
(0.21800889 0.11048168 1.4507922e-06)
(0.18160319 0.36241171 3.0036658e-06)
(0.077948724 0.49199693 6.6657037e-07)
(-0.031370178 -0.013799573 1.2308893e-06)
(-0.030395663 -0.028775636 1.6759071e-06)
(-0.022969622 -0.034806839 5.8017659e-07)
(-0.0092629709 -0.0029886474 4.558074e-07)
(-0.0092734006 -0.007969091 7.3636346e-07)
(-0.0082976326 -0.011264975 3.379393e-07)
(-0.0042641767 -0.00025957231 1.2033412e-07)
(-0.0041419381 -0.00093545777 2.4508171e-07)
(-0.0036475982 -0.0017078488 1.1143921e-07)
(-0.0027507848 -0.00014840198 2.4874025e-08)
(-0.0025911162 -0.00036310246 5.6185972e-08)
(-0.0022181964 -0.00059691808 -3.3414535e-09)
(-0.002120813 -0.00013692495 -3.4481802e-09)
(-0.0019528761 -0.00028948376 -1.038418e-08)
(-0.0016021916 -0.00040057076 -4.8111877e-08)
(-0.0017204979 -0.00010201823 -1.2226675e-08)
(-0.0015891741 -0.00020428619 -3.0979314e-08)
(-0.0013187541 -0.0002759164 -5.9303866e-08)
(-0.0014350437 -8.4865414e-05 -1.2700739e-08)
(-0.001339717 -0.00017233996 -3.2414149e-08)
(-0.001141668 -0.0002372417 -5.4656408e-08)
(-0.0012101568 -7.4611835e-05 -1.0053026e-08)
(-0.0011419765 -0.00016076624 -2.6655282e-08)
(-0.00099769174 -0.00023534328 -4.3967023e-08)
(-0.0010191519 -6.6325871e-05 -6.9822329e-09)
(-0.00097021895 -0.00014645821 -1.9616086e-08)
(-0.00086454179 -0.00021841304 -3.2712691e-08)
(-0.00085596412 -5.568827e-05 -4.7259184e-09)
(-0.00082053466 -0.00012406816 -1.3770801e-08)
(-0.00074239242 -0.00018716806 -2.3269095e-08)
(-0.00072054256 -4.2481214e-05 -3.296838e-09)
(-0.00069459466 -9.5962461e-05 -9.5388886e-09)
(-0.0006361814 -0.00014698587 -1.6133333e-08)
(-0.00061138708 -3.2540197e-05 -2.3254916e-09)
(-0.00059214193 -7.1651901e-05 -6.5667449e-09)
(-0.00054795987 -0.00011011564 -1.097239e-08)
(-0.00052498171 -2.4616524e-05 -1.6397522e-09)
(-0.0005105312 -5.5475965e-05 -4.4560942e-09)
(-0.00047671487 -8.5538118e-05 -7.299766e-09)
(-0.0004567045 -2.0106283e-05 -1.1147023e-09)
(-0.0004457359 -4.5387736e-05 -2.9386391e-09)
(-0.00041955003 -6.9482302e-05 -4.7147163e-09)
(-0.00040197829 -1.6778315e-05 -7.2087789e-10)
(-0.00039357146 -3.7313294e-05 -1.8610962e-09)
(-0.00037305764 -5.7340239e-05 -2.9338823e-09)
(-0.00035724774 -1.3835322e-05 -4.4301549e-10)
(-0.00035074276 -3.0820718e-05 -1.1270742e-09)
(-0.00033449393 -4.7995063e-05 -1.7518009e-09)
(-0.00032015141 -1.1467978e-05 -2.6119915e-10)
(-0.00031507553 -2.5768726e-05 -6.5641224e-10)
(-0.00030207148 -4.0463079e-05 -1.0059094e-09)
(-0.00028916914 -9.5786592e-06 -1.5227216e-10)
(-0.00028517889 -2.1616772e-05 -3.7562446e-10)
(-0.00027466818 -3.4087618e-05 -5.6074273e-10)
(-0.00026319422 -8.0613389e-06 -9.1644941e-11)
(-0.00026003578 -1.8167389e-05 -2.1840595e-10)
(-0.00025145573 -2.8672696e-05 -3.0871589e-10)
(-0.00024130836 -6.7947929e-06 -6.0235847e-11)
(-0.00023879338 -1.5315959e-05 -1.3424257e-10)
(-0.00023172249 -2.4263007e-05 -1.7209061e-10)
(-0.00022273199 -5.7691746e-06 -4.4928162e-11)
(-0.00022071949 -1.2997312e-05 -9.0368563e-11)
(-0.00021484012 -2.0654633e-05 -1.0029095e-10)
(-0.00020681863 -4.9771962e-06 -3.4074132e-11)
(-0.00020520162 -1.1160425e-05 -6.6439476e-11)
(-0.00020027104 -1.7760058e-05 -6.3157059e-11)
(-0.00019304384 -4.3287922e-06 -2.8038737e-11)
(-0.00019174043 -9.7210696e-06 -5.2952097e-11)
(-0.00018757086 -1.5447454e-05 -4.4036462e-11)
(-0.00018098723 -3.8149567e-06 -2.389151e-11)
(-0.00017993409 -8.5850318e-06 -4.4866456e-11)
(-0.00017637951 -1.3679445e-05 -3.3867031e-11)
(-0.00017031481 -3.3948931e-06 -2.1778847e-11)
(-0.000169462 -7.6566871e-06 -4.0092783e-11)
(-0.0001664077 -1.2250154e-05 -2.8681221e-11)
(-0.00016076494 -3.051994e-06 -2.0622505e-11)
(-0.00016007285 -6.9012186e-06 -3.6845607e-11)
(-0.00015742776 -1.1067227e-05 -2.5952978e-11)
(-0.00015213551 -2.7726969e-06 -2.0203891e-11)
(-0.00015157317 -6.2695586e-06 -3.4741903e-11)
(-0.00014926512 -1.0073281e-05 -2.4487055e-11)
(-0.00014427201 -2.5354852e-06 -2.0406526e-11)
(-0.00014381509 -5.7329886e-06 -3.3514966e-11)
(-0.00014178673 -9.2304201e-06 -2.3814614e-11)
(-0.00013705521 -2.3390112e-06 -2.0358248e-11)
(-0.00013668396 -5.2908763e-06 -3.228754e-11)
(-0.00013488924 -8.5257614e-06 -2.334538e-11)
(-0.00013039137 -2.1692455e-06 -2.0459633e-11)
(-0.00013008984 -4.9088807e-06 -3.1272093e-11)
(-0.00012849148 -7.9172268e-06 -2.3003698e-11)
(-0.00012421014 -2.020566e-06 -2.0821627e-11)
(-0.00012396556 -4.5731844e-06 -3.0668267e-11)
(-0.00012253319 -7.3743626e-06 -2.2944002e-11)
(-0.00011846443 -1.8873305e-06 -2.1133866e-11)
(-0.00011826647 -4.2767133e-06 -3.0052656e-11)
(-0.00011697499 -6.889798e-06 -2.2870646e-11)
(-0.000113123 -1.7429583e-06 -2.1455714e-11)
(-0.00011296322 -3.9577996e-06 -2.9339268e-11)
(-0.00011179168 -6.4244548e-06 -2.2657162e-11)
(-0.00010815911 -1.6260125e-06 -2.166563e-11)
(-0.00010803067 -3.6978865e-06 -2.8618521e-11)
(-0.00010696176 -5.9969055e-06 -2.2386721e-11)
(-0.00010354826 -1.5120914e-06 -2.1870502e-11)
(-0.00010344565 -3.4413311e-06 -2.7979436e-11)
(-0.00010246525 -5.5758195e-06 -2.2136156e-11)
(-9.9274226e-05 -1.3981251e-06 -2.2057042e-11)
(-9.9193005e-05 -3.1846886e-06 -2.7398878e-11)
(-9.8289359e-05 -5.1606183e-06 -2.1907033e-11)
(-9.5330413e-05 -1.2862161e-06 -2.223053e-11)
(-9.5266937e-05 -2.9307017e-06 -2.6898441e-11)
(-9.4429945e-05 -4.7508161e-06 -2.1718082e-11)
(-9.1714769e-05 -1.1751549e-06 -2.2387559e-11)
(-9.1665973e-05 -2.6790374e-06 -2.6465904e-11)
(-9.0886757e-05 -4.3445362e-06 -2.1567193e-11)
(-8.8425974e-05 -1.0644288e-06 -2.2530193e-11)
(-8.838928e-05 -2.4281309e-06 -2.610039e-11)
(-8.7659997e-05 -3.938803e-06 -2.1462216e-11)
(-8.5463083e-05 -9.538148e-07 -2.2668405e-11)
(-8.543635e-05 -2.177172e-06 -2.5823269e-11)
(-8.4750087e-05 -3.5320465e-06 -2.1426684e-11)
(-8.2825817e-05 -8.4311858e-07 -2.2810044e-11)
(-8.280727e-05 -1.925872e-06 -2.564187e-11)
(-8.2157875e-05 -3.1248192e-06 -2.1463083e-11)
(-8.0514695e-05 -7.3008553e-07 -2.3039895e-11)
(-8.0502817e-05 -1.6674905e-06 -2.56086e-11)
(-7.9884691e-05 -2.7065181e-06 -2.1595534e-11)
(-7.853183e-05 -6.1694242e-07 -2.328325e-11)
(-7.8525313e-05 -1.4090823e-06 -2.5675193e-11)
(-7.7933282e-05 -2.2869926e-06 -2.1778516e-11)
(-7.6882994e-05 -5.0291132e-07 -2.3551211e-11)
(-7.6880815e-05 -1.147991e-06 -2.5809733e-11)
(-7.6310264e-05 -1.862616e-06 -2.1930717e-11)
(-7.5577707e-05 -3.8691873e-07 -2.3796872e-11)
(-7.5579242e-05 -8.8282676e-07 -2.5831547e-11)
(-7.5026217e-05 -1.432803e-06 -2.1799789e-11)
(-7.4614555e-05 -2.6840663e-07 -2.3874614e-11)
(-7.4619078e-05 -6.1452284e-07 -2.5307438e-11)
(-7.4079357e-05 -1.002761e-06 -2.0878195e-11)
(-7.4035515e-05 -1.5232144e-07 -2.33126e-11)
(-7.4041303e-05 -3.5144118e-07 -2.3193213e-11)
(-7.3508384e-05 -5.8473652e-07 -1.8196103e-11)
(-7.3754889e-05 -5.3960024e-08 -2.0015793e-11)
(-7.3758108e-05 -1.1236278e-07 -1.6875527e-11)
(-7.3223433e-05 -1.7390196e-07 -1.1951571e-11)
(-0.048089328 1.940239 -3.8740522e-07)
(-0.033261151 1.6880352 -3.4640368e-06)
(-0.064367949 0.33441729 -2.6785663e-07)
(-0.043520835 0.14751251 -1.0158546e-06)
(-0.016804444 -0.042931577 -1.9944206e-07)
(-0.012223678 -0.04503202 -6.234454e-07)
(-0.0067194998 -0.014321948 -9.9955607e-08)
(-0.0056468716 -0.015893116 -3.9474889e-07)
(-0.0028639092 -0.0028291708 -1.0026809e-07)
(-0.0020980619 -0.0038275519 -2.8002397e-07)
(-0.0017091353 -0.000869333 -1.1052188e-07)
(-0.0011451206 -0.001091189 -2.1659724e-07)
(-0.0011751931 -0.00044337026 -1.0899782e-07)
(-0.00075738787 -0.00041648611 -1.7340649e-07)
(-0.00098930997 -0.00026809681 -9.766784e-08)
(-0.00066805159 -0.00019904882 -1.3865565e-07)
(-0.00089775786 -0.0002518667 -8.0810478e-08)
(-0.00065347181 -0.00022051121 -1.0810332e-07)
(-0.00081686846 -0.00026773957 -6.2648771e-08)
(-0.00063083424 -0.00026556449 -8.1511793e-08)
(-0.00072931539 -0.00026499384 -4.6212256e-08)
(-0.00058613416 -0.00028512104 -5.948784e-08)
(-0.00064034135 -0.00023171138 -3.2872831e-08)
(-0.00052933203 -0.00025572739 -4.2167102e-08)
(-0.00055846251 -0.00018440231 -2.2756768e-08)
(-0.00047184659 -0.00020617193 -2.9118215e-08)
(-0.00048821996 -0.00014083199 -1.5375425e-08)
(-0.00042021078 -0.00015944313 -1.9591653e-08)
(-0.00043035626 -0.00010932622 -1.0119582e-08)
(-0.00037661359 -0.0001244356 -1.2815187e-08)
(-0.00038321438 -8.7544793e-05 -6.4594438e-09)
(-0.00034041504 -0.00010024691 -8.1226893e-09)
(-0.00034428362 -7.2431597e-05 -3.9799679e-09)
(-0.00030990727 -8.3713845e-05 -4.9721321e-09)
(-0.00031148337 -6.1331298e-05 -2.359131e-09)
(-0.00028365235 -7.1387558e-05 -2.9333886e-09)
(-0.000283506 -5.2216391e-05 -1.3460476e-09)
(-0.00026080863 -6.1257018e-05 -1.6676984e-09)
(-0.00025955652 -4.4312516e-05 -7.4249256e-10)
(-0.00024090844 -5.2422807e-05 -9.1523219e-10)
(-0.00023904366 -3.7522152e-05 -3.9904064e-10)
(-0.00022360442 -4.4738232e-05 -4.8638196e-10)
(-0.00022143746 -3.1940699e-05 -2.1155156e-10)
(-0.00020855564 -3.8100594e-05 -2.5151613e-10)
(-0.00020624646 -2.7362276e-05 -1.1274513e-10)
(-0.00019541672 -3.2650985e-05 -1.2753251e-10)
(-0.00019303224 -2.3670709e-05 -6.2164324e-11)
(-0.00018385914 -2.8366854e-05 -6.4147606e-11)
(-0.00018142325 -2.0652168e-05 -3.687461e-11)
(-0.00017359382 -2.5014365e-05 -3.2677777e-11)
(-0.00017111614 -1.8261767e-05 -2.4432582e-11)
(-0.00016438191 -2.2278211e-05 -1.7668304e-11)
(-0.00016186664 -1.6444832e-05 -1.8438653e-11)
(-0.00015603152 -2.0118267e-05 -1.077691e-11)
(-0.00015348064 -1.4906123e-05 -1.5899084e-11)
(-0.00014838925 -1.8312417e-05 -8.0937456e-12)
(-0.00014580914 -1.3606938e-05 -1.5011435e-11)
(-0.00014133608 -1.6781635e-05 -7.4820709e-12)
(-0.00013873938 -1.251287e-05 -1.486967e-11)
(-0.00013478262 -1.5493679e-05 -7.7478755e-12)
(-0.00013218398 -1.157949e-05 -1.4994321e-11)
(-0.00012866095 -1.4384973e-05 -8.293326e-12)
(-0.00012607459 -1.077802e-05 -1.5153392e-11)
(-0.00012291843 -1.3426573e-05 -8.8333446e-12)
(-0.00012036093 -1.0051071e-05 -1.5497743e-11)
(-0.00011751713 -1.2556948e-05 -9.4601933e-12)
(-0.00011501109 -9.3886918e-06 -1.5841419e-11)
(-0.00011243428 -1.1757956e-05 -1.0083311e-11)
(-0.00011000559 -8.8226091e-06 -1.6062218e-11)
(-0.00010765732 -1.1066372e-05 -1.0603713e-11)
(-0.00010532816 -8.2296684e-06 -1.6208282e-11)
(-0.00010317643 -1.0339564e-05 -1.1046643e-11)
(-0.00010096358 -7.6500427e-06 -1.6326429e-11)
(-9.8982358e-05 -9.6253377e-06 -1.1439475e-11)
(-9.6902495e-05 -7.0850857e-06 -1.6429787e-11)
(-9.5070042e-05 -8.9257362e-06 -1.1791163e-11)
(-9.3142983e-05 -6.5285731e-06 -1.6530017e-11)
(-9.1440207e-05 -8.2337296e-06 -1.2107993e-11)
(-8.9686515e-05 -5.9750918e-06 -1.6638683e-11)
(-8.8096488e-05 -7.5428461e-06 -1.2410353e-11)
(-8.6534878e-05 -5.4205597e-06 -1.6773453e-11)
(-8.504272e-05 -6.8486003e-06 -1.2721275e-11)
(-8.3689854e-05 -4.8627868e-06 -1.6951649e-11)
(-8.2282395e-05 -6.1494507e-06 -1.3048874e-11)
(-8.1153359e-05 -4.3009606e-06 -1.7171329e-11)
(-7.9818731e-05 -5.4355957e-06 -1.3392912e-11)
(-7.8927509e-05 -3.7283242e-06 -1.742895e-11)
(-7.7654825e-05 -4.716692e-06 -1.3735796e-11)
(-7.7015703e-05 -3.1517254e-06 -1.7683792e-11)
(-7.5794936e-05 -3.9897487e-06 -1.4042304e-11)
(-7.5425331e-05 -2.5672043e-06 -1.7832848e-11)
(-7.424736e-05 -3.2511845e-06 -1.4203759e-11)
(-7.4167504e-05 -1.9754788e-06 -1.76163e-11)
(-7.3023576e-05 -2.5027008e-06 -1.3986403e-11)
(-7.3239833e-05 -1.3857132e-06 -1.6578409e-11)
(-7.2120421e-05 -1.7568253e-06 -1.3017829e-11)
(-7.267911e-05 -8.1600204e-07 -1.3987177e-11)
(-7.1573387e-05 -1.0397828e-06 -1.0769686e-11)
(-7.2395483e-05 -2.344506e-07 -8.7404556e-12)
(-7.1294041e-05 -2.9357026e-07 -6.5486157e-12)
(0.0058387749 -6.0088e-05 -1.0103984e-07)
(0.0056061457 -0.00020773395 -2.3911649e-07)
(0.005164873 -0.00025663228 -3.3734014e-07)
(0.0046566032 -0.00030775322 -3.9842277e-07)
(0.0041440725 -0.00032454169 -4.3033184e-07)
(0.003667785 -0.00034735517 -4.4208086e-07)
(0.0032436285 -0.00037348129 -4.4055993e-07)
(0.0028735627 -0.00041590631 -4.3065738e-07)
(0.0025524103 -0.00047553265 -4.1577362e-07)
(0.0022737891 -0.00054608891 -3.9824379e-07)
(0.0020303521 -0.00062336293 -3.7967556e-07)
(0.0018154406 -0.00070276855 -3.6101611e-07)
(0.0016231819 -0.00077998597 -3.4269747e-07)
(0.0014486274 -0.00085276391 -3.2476867e-07)
(0.0012879339 -0.00091930357 -3.07072e-07)
(0.0011381163 -0.00097813028 -2.8933295e-07)
(0.00099674941 -0.0010297163 -2.711809e-07)
(0.00086216619 -0.0010729363 -2.5209639e-07)
(0.00073343213 -0.0011050768 -2.3150004e-07)
(0.00060971477 -0.001126741 -2.0872754e-07)
(0.00049038741 -0.0011387123 -1.8304667e-07)
(0.00037529143 -0.0011403304 -1.5338976e-07)
(0.00026423669 -0.0011314641 -1.1881646e-07)
(0.00015669526 -0.0011179643 -7.8738398e-08)
(5.1146833e-05 -0.0010629479 -3.2583747e-08)
(0.00040400078 -0.00018060227 -1.172622e-07)
(0.00035349093 -0.00065997547 -2.7363198e-07)
(0.00029559332 -0.00092228193 -3.7871772e-07)
(0.00027068196 -0.0012498552 -4.3809054e-07)
(0.00028948969 -0.0015007065 -4.6457083e-07)
(0.00032926537 -0.0017711653 -4.7064745e-07)
(0.00037339086 -0.0020457597 -4.6431678e-07)
(0.00041179215 -0.0023500171 -4.5071196e-07)
(0.00043652936 -0.0026762622 -4.3301694e-07)
(0.00044688592 -0.0029965131 -4.1330771e-07)
(0.0004444101 -0.0033073133 -3.931582e-07)
(0.0004319695 -0.0036059302 -3.7338996e-07)
(0.0004121436 -0.0038865668 -3.5432121e-07)
(0.000387118 -0.0041457383 -3.358522e-07)
(0.00035810271 -0.0043818922 -3.177399e-07)
(0.00032612481 -0.0045966111 -2.9968497e-07)
(0.00029221464 -0.0048004614 -2.8136231e-07)
(0.00025709518 -0.0049858366 -2.6212918e-07)
(0.00022102656 -0.0051296291 -2.4145151e-07)
(0.00018434662 -0.0052247932 -2.1860507e-07)
(0.00014752645 -0.005269134 -1.9310956e-07)
(0.00011141906 -0.0052650737 -1.6331695e-07)
(7.6497245e-05 -0.0052163565 -1.2793995e-07)
(4.3041012e-05 -0.0051086839 -8.5440122e-08)
(1.1871919e-05 -0.0048781705 -3.7009195e-08)
(0.001238542 -0.00040008317 -1.5604343e-07)
(0.0011520753 -0.0017101103 -3.5075755e-07)
(0.0011397252 -0.0022714568 -4.6576629e-07)
(0.0011938711 -0.0031501136 -5.1675307e-07)
(0.0012726256 -0.0038668743 -5.3032015e-07)
(0.0013364465 -0.0046425518 -5.2459899e-07)
(0.0013653076 -0.0054245877 -5.0870338e-07)
(0.0013578914 -0.0063635099 -4.8813785e-07)
(0.0013239782 -0.0074224542 -4.6527987e-07)
(0.001270265 -0.0083960663 -4.4139897e-07)
(0.001201818 -0.009242735 -4.1831356e-07)
(0.001124398 -0.0099586757 -3.9651835e-07)
(0.001040571 -0.010543746 -3.7617459e-07)
(0.00095196743 -0.011007282 -3.5681248e-07)
(0.00086072021 -0.011355909 -3.3802787e-07)
(0.00076849297 -0.011590964 -3.1947054e-07)
(0.00067680622 -0.011705424 -3.0117878e-07)
(0.00058654473 -0.011718305 -2.8189982e-07)
(0.00049812367 -0.011658548 -2.6149205e-07)
(0.00041202187 -0.011541373 -2.3925563e-07)
(0.00032838609 -0.011376579 -2.1433614e-07)
(0.00024830192 -0.011172973 -1.8535778e-07)
(0.00017179801 -0.010937651 -1.5040173e-07)
(9.8838139e-05 -0.010641539 -1.061959e-07)
(3.0392335e-05 -0.010236467 -5.2367105e-08)
(0.0037100649 -0.0011462529 -2.3906074e-07)
(0.0036818152 -0.0048702964 -4.934879e-07)
(0.0036340794 -0.0061659554 -6.0891965e-07)
(0.0035000772 -0.0093971475 -6.3594711e-07)
(0.0033230492 -0.012314104 -6.2590396e-07)
(0.0030929787 -0.014915579 -6.0160636e-07)
(0.0028309672 -0.016762614 -5.7150206e-07)
(0.0025545919 -0.017736806 -5.4232775e-07)
(0.0022855308 -0.018021304 -5.1357432e-07)
(0.0020279858 -0.01787773 -4.8379131e-07)
(0.0017883827 -0.017414839 -4.5682724e-07)
(0.001571899 -0.016756165 -4.3221491e-07)
(0.0013730969 -0.01592267 -4.1038597e-07)
(0.0011784947 -0.014967267 -3.8991568e-07)
(0.0010032729 -0.013941635 -3.7024836e-07)
(0.00084781771 -0.012891745 -3.5113153e-07)
(0.00071075322 -0.011857302 -3.3224762e-07)
(0.00059032518 -0.010872252 -3.1317796e-07)
(0.00048486339 -0.0099600405 -2.9344173e-07)
(0.00039221644 -0.0091405129 -2.7242835e-07)
(0.00031037495 -0.0084259311 -2.4935024e-07)
(0.00023561664 -0.0078204411 -2.2305312e-07)
(0.000165934 -0.0073251007 -1.9178752e-07)
(9.9957372e-05 -0.0068989798 -1.5259759e-07)
(3.6836838e-05 -0.00658865 -9.6217958e-08)
(0.01193335 -0.0087291483 -4.2717082e-07)
(0.0095848327 -0.025753252 -7.3482883e-07)
(0.0082496532 -0.028374948 -8.1540133e-07)
(0.006447789 -0.032756415 -8.014563e-07)
(0.0049995596 -0.03028086 -7.6094131e-07)
(0.0037349232 -0.02653826 -7.1248967e-07)
(0.0026826281 -0.021841328 -6.6484068e-07)
(0.0018453064 -0.016867243 -6.2054934e-07)
(0.0011895834 -0.011895049 -5.8135581e-07)
(0.00068341869 -0.0072810721 -5.4543259e-07)
(0.00029757749 -0.0030988136 -5.1313464e-07)
(7.2793703e-06 0.00049069159 -4.8316019e-07)
(-0.0002016833 0.0038252057 -4.5928183e-07)
(-0.00033574915 0.0070021509 -4.3672086e-07)
(-0.00042088186 0.0099261915 -4.1500719e-07)
(-0.00046475698 0.0124656 -3.9433632e-07)
(-0.00047591009 0.014587991 -3.744137e-07)
(-0.00046117371 0.016311307 -3.5487053e-07)
(-0.00042611766 0.01766384 -3.3528569e-07)
(-0.00037545546 0.018674854 -3.1518132e-07)
(-0.00031299636 0.019369454 -2.9395887e-07)
(-0.00024383897 0.019773514 -2.7076797e-07)
(-0.00017083194 0.019886047 -2.4421993e-07)
(-9.6762484e-05 0.019765856 -2.1838021e-07)
(-2.2166385e-05 0.019073265 -1.9264082e-07)
(0.015610058 0.023106004 -7.9185233e-07)
(0.0042272663 -0.0021049738 -1.1176683e-06)
(0.0013046116 0.047457465 -1.1187858e-06)
(-0.00072157974 0.050137036 -1.044923e-06)
(-0.0024460086 0.064473194 -9.6761656e-07)
(-0.0037248426 0.074830295 -8.8153129e-07)
(-0.0044400818 0.08207938 -8.0445648e-07)
(-0.0046751066 0.088150637 -7.3746023e-07)
(-0.0046158978 0.092649951 -6.7907523e-07)
(-0.0044051787 0.095463475 -6.2897239e-07)
(-0.004119993 0.09707865 -5.8658754e-07)
(-0.0037799379 0.097609798 -5.4238613e-07)
(-0.0034330623 0.097392201 -5.1709003e-07)
(-0.0030912575 0.096130968 -4.897712e-07)
(-0.0027463056 0.094005009 -4.6268645e-07)
(-0.0024092859 0.091604936 -4.3841404e-07)
(-0.0020905561 0.08899667 -4.159037e-07)
(-0.0017908477 0.086266063 -3.9456903e-07)
(-0.0015095929 0.083490889 -3.7394555e-07)
(-0.0012451987 0.080729934 -3.5359632e-07)
(-0.00099577239 0.078020419 -3.3305379e-07)
(-0.000758136 0.075404945 -3.1174353e-07)
(-0.00052991217 0.072856157 -2.8906523e-07)
(-0.00030970218 0.070562471 -2.6581703e-07)
(-9.2794095e-05 0.0670869 -2.4312728e-07)
(-0.00058460693 1.1695017 -2.5341218e-06)
(-0.00041504313 0.95899958 -2.0116807e-06)
(-0.00082798742 0.86389 -1.6275526e-06)
(-0.00059376278 0.77198838 -1.3339906e-06)
(-0.00056813386 0.67649113 -1.1145534e-06)
(-0.00052875329 0.58548659 -9.5445254e-07)
(-0.00047374108 0.50731113 -8.375554e-07)
(-0.00041705551 0.44373868 -7.5203116e-07)
(-0.0003644694 0.39128436 -6.8297295e-07)
(-0.00031124924 0.34649777 -6.2959137e-07)
(-0.00026024182 0.30783731 -5.8806512e-07)
(-0.0002121695 0.2745634 -5.5161108e-07)
(-0.0001698379 0.24610798 -5.2108717e-07)
(-0.00014379162 0.22174621 -4.9412392e-07)
(-0.00012003738 0.20082137 -4.6946293e-07)
(-0.00010067529 0.18285359 -4.465926e-07)
(-8.4475369e-05 0.16741456 -4.2502907e-07)
(-7.0124501e-05 0.15414211 -4.0439943e-07)
(-5.7583951e-05 0.14273428 -3.8440019e-07)
(-4.6650967e-05 0.13294233 -3.6473732e-07)
(-3.7028425e-05 0.12455044 -3.4508166e-07)
(-2.7987178e-05 0.11741699 -3.2497524e-07)
(-1.9276191e-05 0.11130045 -3.0415343e-07)
(-1.0977439e-05 0.10648448 -2.8239842e-07)
(-3.1298659e-06 0.10047653 -2.5905909e-07)
(-0.012854838 0.087701231 -1.2269573e-06)
(-0.0026087927 0.096271126 -1.2657559e-06)
(-0.00027413393 0.10255845 -1.2189178e-06)
(0.0014501302 0.10452553 -1.1276807e-06)
(0.00295379 0.10682863 -1.0247624e-06)
(0.0040724139 0.10869834 -9.2494194e-07)
(0.0046831578 0.11047615 -8.3580754e-07)
(0.0048488581 0.11210171 -7.592085e-07)
(0.0047452896 0.11298994 -6.7817806e-07)
(0.0044788599 0.11312254 -6.3296914e-07)
(0.0041703646 0.11247988 -5.92574e-07)
(0.0038436046 0.11086357 -5.4922987e-07)
(0.0034798875 0.10838571 -5.1273086e-07)
(0.0031144127 0.10540083 -4.8133361e-07)
(0.0027594778 0.10215509 -4.5365101e-07)
(0.0024187025 0.098775596 -4.2875724e-07)
(0.0020959125 0.095347807 -4.0595806e-07)
(0.0017937243 0.091940112 -3.8468782e-07)
(0.0015102814 0.088604432 -3.644543e-07)
(0.0012440514 0.085379349 -3.4478743e-07)
(0.00099307971 0.082286955 -3.2516567e-07)
(0.00075528338 0.079357205 -3.0490472e-07)
(0.00052811502 0.076552918 -2.8434085e-07)
(0.000309408 0.074066746 -2.6232734e-07)
(9.3347339e-05 0.070376991 -2.403419e-07)
(-0.0095912557 -0.042535018 -8.4402054e-07)
(-0.0080394065 -0.040079453 -9.0796472e-07)
(-0.0066224774 -0.038151575 -8.94539e-07)
(-0.0052412367 -0.034574784 -8.4831604e-07)
(-0.0039338705 -0.029534913 -7.9003898e-07)
(-0.002796958 -0.023831348 -7.2877271e-07)
(-0.001862475 -0.0179624 -6.7200015e-07)
(-0.0011275531 -0.012267944 -6.201598e-07)
(-0.00056125611 -0.0071747923 -5.7182945e-07)
(-0.00014145586 -0.0026721628 -5.3565748e-07)
(0.00016511065 0.0011984805 -5.0248044e-07)
(0.00038200225 0.0049704639 -4.7149463e-07)
(0.00052514558 0.0085664292 -4.4359612e-07)
(0.00061188129 0.011784385 -4.1848149e-07)
(0.00065437471 0.014553583 -3.9560392e-07)
(0.00066409145 0.016875821 -3.7446893e-07)
(0.00064671782 0.01878614 -3.5468578e-07)
(0.0006054344 0.020322745 -3.3580672e-07)
(0.00054675556 0.021508939 -3.1737702e-07)
(0.00047493888 0.022366793 -2.988794e-07)
(0.00039341558 0.022917863 -2.795914e-07)
(0.00030527868 0.023183447 -2.5825483e-07)
(0.00021326274 0.023173757 -2.3749284e-07)
(0.00012070896 0.022933227 -2.1267841e-07)
(2.915248e-05 0.022089338 -1.8842643e-07)
(-0.0048914308 -0.017115692 -5.6607287e-07)
(-0.004571332 -0.019287958 -6.404514e-07)
(-0.0043305106 -0.021885644 -6.5451951e-07)
(-0.0040433301 -0.023801468 -6.3740466e-07)
(-0.0036827931 -0.024984337 -6.0778952e-07)
(-0.0032956868 -0.025324408 -5.7550391e-07)
(-0.0029264557 -0.025007182 -5.3638327e-07)
(-0.002580285 -0.024257433 -4.99811e-07)
(-0.0022645084 -0.023243116 -4.666131e-07)
(-0.0019758535 -0.022032966 -4.3834976e-07)
(-0.0017167454 -0.020709481 -4.1272587e-07)
(-0.0014784171 -0.019256993 -3.8914625e-07)
(-0.0012620942 -0.017745568 -3.6756691e-07)
(-0.0010710634 -0.01622708 -3.478041e-07)
(-0.00090324791 -0.014735672 -3.2935735e-07)
(-0.00075433093 -0.013306879 -3.1182269e-07)
(-0.00062407564 -0.011976859 -2.9512936e-07)
(-0.00051304972 -0.010773074 -2.787329e-07)
(-0.00041735024 -0.009702633 -2.6214752e-07)
(-0.00033448944 -0.0087671615 -2.4479472e-07)
(-0.0002622354 -0.0079668728 -2.2587821e-07)
(-0.00019834079 -0.0073011084 -2.0430382e-07)
(-0.00014061797 -0.00676625 -1.789444e-07)
(-8.6631419e-05 -0.0063216535 -1.4470167e-07)
(-3.3758441e-05 -0.0060169916 -9.306817e-08)
(-0.0016547309 -0.0046478145 -4.0256594e-07)
(-0.0015696621 -0.0054288291 -4.7014195e-07)
(-0.0016374734 -0.0062570847 -4.9603659e-07)
(-0.0017167383 -0.0071009871 -4.9601039e-07)
(-0.0017744978 -0.0079915858 -4.8169151e-07)
(-0.0017911649 -0.0090641515 -4.6012828e-07)
(-0.0017537496 -0.010224929 -4.339563e-07)
(-0.0016805699 -0.01122395 -4.0761017e-07)
(-0.0015857914 -0.012058735 -3.8290932e-07)
(-0.0014780512 -0.012730603 -3.605449e-07)
(-0.0013657667 -0.013257887 -3.400516e-07)
(-0.0012522201 -0.013643653 -3.2111564e-07)
(-0.0011369205 -0.013897111 -3.0356845e-07)
(-0.0010234195 -0.014001819 -2.8755062e-07)
(-0.00091354539 -0.013983771 -2.722324e-07)
(-0.00080918785 -0.013884048 -2.5767697e-07)
(-0.00070950203 -0.013726851 -2.4322991e-07)
(-0.00061263823 -0.013525764 -2.2863655e-07)
(-0.00051954851 -0.013290093 -2.1344794e-07)
(-0.00042997905 -0.013027109 -1.9708637e-07)
(-0.00034364528 -0.012742445 -1.7868323e-07)
(-0.00026038029 -0.012441491 -1.5695504e-07)
(-0.00018020906 -0.012127514 -1.3000757e-07)
(-0.00010347859 -0.011762493 -9.3865469e-08)
(-3.1935639e-05 -0.011303828 -4.770111e-08)
(-0.00071091659 -0.0012907835 -2.9890847e-07)
(-0.00044423001 -0.0015339392 -3.5181974e-07)
(-0.00036216221 -0.0018391443 -3.785587e-07)
(-0.00038573127 -0.0021917002 -3.8620079e-07)
(-0.00045843809 -0.0025926983 -3.8137684e-07)
(-0.00053716385 -0.0030339887 -3.6899202e-07)
(-0.00059691477 -0.0034974871 -3.522178e-07)
(-0.00062867319 -0.0039475711 -3.3384803e-07)
(-0.00063878764 -0.004366914 -3.1555927e-07)
(-0.00063203346 -0.0047431354 -2.9815654e-07)
(-0.00061346563 -0.005076204 -2.8179666e-07)
(-0.00058561832 -0.0053705979 -2.6645449e-07)
(-0.00055258743 -0.0056437476 -2.5206444e-07)
(-0.00051466811 -0.0059243532 -2.3856359e-07)
(-0.00047317202 -0.0062016074 -2.2564126e-07)
(-0.00042934628 -0.0064384874 -2.1309454e-07)
(-0.00038360819 -0.0066272131 -2.0055344e-07)
(-0.00033617197 -0.006765592 -1.8767905e-07)
(-0.00028802847 -0.0068533289 -1.7403729e-07)
(-0.00023982867 -0.0068903813 -1.5921124e-07)
(-0.00019201716 -0.0068779904 -1.4246666e-07)
(-0.00014504199 -0.0068193568 -1.2252727e-07)
(-9.9434881e-05 -0.0067191127 -9.8224687e-08)
(-5.5770916e-05 -0.0065593001 -6.7497706e-08)
(-1.5501576e-05 -0.0062649949 -3.0903495e-08)
(-0.00043362696 -0.00034505074 -2.2782337e-07)
(-0.00022150812 -0.00028421749 -2.6673216e-07)
(-9.636899e-05 -0.00026188962 -2.8983325e-07)
(-4.3094174e-05 -0.00028700655 -2.9976327e-07)
(-2.3489965e-05 -0.00035972943 -3.0000814e-07)
(-2.5731281e-05 -0.00047417064 -2.9368973e-07)
(-5.2440761e-05 -0.00061247221 -2.8327078e-07)
(-8.2974928e-05 -0.00076182789 -2.7074159e-07)
(-0.00010885427 -0.00091873505 -2.5746997e-07)
(-0.00012671595 -0.0010752544 -2.4425411e-07)
(-0.00013621799 -0.0012206265 -2.3146044e-07)
(-0.00014127068 -0.0013526093 -2.1922775e-07)
(-0.00014456784 -0.0014712416 -2.0757845e-07)
(-0.00014362175 -0.0015758345 -1.9645713e-07)
(-0.00013836784 -0.0016670136 -1.8570209e-07)
(-0.00012992525 -0.0017424494 -1.7511813e-07)
(-0.00011906379 -0.0018029871 -1.6444336e-07)
(-0.00010622549 -0.0018488867 -1.5338573e-07)
(-9.2194994e-05 -0.0018801441 -1.4160082e-07)
(-7.7597153e-05 -0.001896697 -1.2870635e-07)
(-6.2799342e-05 -0.0018987055 -1.1422164e-07)
(-4.8087712e-05 -0.0018868468 -9.7490099e-08)