/*--------------------------------*- C++ -*----------------------------------*\
| =========                 |                                                 |
| \\      /  F ield         | OpenFOAM: The Open Source CFD Toolbox           |
|  \\    /   O peration     | Version:  4.0                                   |
|   \\  /    A nd           | Web:      www.OpenFOAM.org                      |
|    \\/     M anipulation  |                                                 |
\*---------------------------------------------------------------------------*/
FoamFile
{
    version     2.0;
    format      ascii;
    class       volScalarField;
    location    "0.69";
    object      k;
}
// * * * * * * * * * * * * * * * * * * * * * * * * * * * * * * * * * * * * * //

dimensions      [0 2 -2 0 0 0 0];

internalField   nonuniform List<scalar> 
1740
(
0.0085464038
0.0091337576
0.018419612
0.0090006042
0.010039897
0.027429664
0.0094767133
0.010553531
0.034464945
0.0097720115
0.010786685
0.041492738
0.0099698396
0.011035249
0.047525204
0.010072482
0.011173375
0.051526425
0.010057656
0.01138985
0.05597081
0.010072784
0.012058822
0.059961358
0.010069099
0.012603412
0.062135271
0.010100404
0.012641517
0.064251974
0.010061415
0.012850592
0.066409067
0.01004847
0.013342289
0.067967218
0.0099606533
0.013547273
0.068699786
0.0098405977
0.013683171
0.069908971
0.0097543954
0.014211327
0.071082061
0.009632197
0.014196533
0.07095803
0.0095102943
0.013920016
0.071557399
0.0094350133
0.014176894
0.072234989
0.009303734
0.014340436
0.072017076
0.0091767826
0.014357316
0.072444524
0.0090590023
0.014371613
0.073497251
0.0089528103
0.01480254
0.073751331
0.0088373488
0.015197061
0.073873601
0.0087478739
0.015410914
0.073267462
0.008624002
0.015257269
0.072972932
0.0085491872
0.01499712
0.072930006
0.0084605573
0.01501177
0.07251861
0.00846213
0.015135244
0.072217248
0.0084660489
0.015158761
0.071630448
0.0090696013
0.016244782
0.06681058
0.012922144
0.018230582
0.047513413
0.02411786
0.031282848
0.039904847
0.010303744
0.012552392
0.013744621
0.004278136
0.0046114889
0.0046728085
0.0020764966
0.0021189556
0.0020931087
0.0011421968
0.0011431922
0.0011251951
0.00069158455
0.00068918201
0.00068137823
0.00045144313
0.0004502073
0.00044769543
0.00031230645
0.00031203815
0.0003118227
0.00022567018
0.00022586005
0.00022650944
0.0001682429
0.00016858882
0.00016946775
0.00012805609
0.00012841755
0.00012926814
9.8630133e-05
9.8951774e-05
9.9683968e-05
7.6307403e-05
7.6573018e-05
7.716768e-05
5.8945562e-05
5.9155513e-05
5.9621356e-05
4.5242491e-05
4.5403283e-05
4.5758305e-05
3.4371681e-05
3.4491515e-05
3.4755394e-05
2.5777094e-05
2.5864102e-05
2.6055375e-05
1.9054212e-05
1.9115724e-05
1.9250795e-05
1.3881169e-05
1.3923484e-05
1.4016315e-05
9.9818298e-06
1.0010147e-05
1.0072222e-05
7.1098503e-06
7.1282887e-06
7.1686874e-06
5.0454894e-06
5.0571746e-06
5.0827844e-06
3.5993698e-06
3.6066125e-06
3.6224843e-06
2.6133253e-06
2.6177458e-06
2.6274213e-06
1.9590018e-06
1.9616745e-06
1.9675176e-06
1.5371397e-06
1.5387589e-06
1.5422955e-06
1.2742702e-06
1.2752702e-06
1.2774529e-06
1.1176599e-06
1.1183036e-06
1.119708e-06
1.0304551e-06
1.0308967e-06
1.0318599e-06
9.8749705e-07
9.8782407e-07
9.8853742e-07
9.7194962e-07
9.7221028e-07
9.7277895e-07
9.7271528e-07
9.7293536e-07
9.7341556e-07
9.8253225e-07
9.8272523e-07
9.8314626e-07
9.9661607e-07
9.9678892e-07
9.9716587e-07
1.0117131e-06
1.0118695e-06
1.0122103e-06
1.0254525e-06
1.0255945e-06
1.0259037e-06
1.0359081e-06
1.0360371e-06
1.0363176e-06
1.0413042e-06
1.0414212e-06
1.0416754e-06
1.0398225e-06
1.0399284e-06
1.040158e-06
1.0294814e-06
1.029577e-06
1.0297839e-06
1.0080785e-06
1.0081644e-06
1.0083501e-06
9.7319867e-07
9.7327547e-07
9.7344131e-07
9.2228977e-07
9.2235781e-07
9.2250443e-07
8.5284462e-07
8.5290379e-07
8.5303102e-07
7.6268441e-07
7.6273392e-07
7.6284012e-07
6.503382e-07
6.5037646e-07
6.5045823e-07
5.1555877e-07
5.1558405e-07
5.1563803e-07
3.6000019e-07
3.6001296e-07
3.6004446e-07
1.8818915e-07
1.8819593e-07
1.8826244e-07
0.056444797
0.061064848
0.046241729
0.046682183
0.012488185
0.011349997
0.0043586832
0.0041208256
0.0020012162
0.0019413833
0.0010956942
0.0010804967
0.00067258542
0.00067083644
0.00044614399
0.00044839285
0.00031272551
0.00031584657
0.00022809589
0.00023107596
0.00017108334
0.00017362896
0.00013068784
0.00013275764
0.00010085266
0.00010249014
7.8095041e-05
7.9366317e-05
6.0338532e-05
6.1309392e-05
4.6300798e-05
4.7029671e-05
3.5156827e-05
3.5693672e-05
2.6345544e-05
2.6732449e-05
1.9455328e-05
1.9727486e-05
1.4156711e-05
1.4343223e-05
1.0166001e-05
1.0290428e-05
7.2296639e-06
7.3104831e-06
5.1214203e-06
5.1725782e-06
3.6464113e-06
3.6780534e-06
2.6419865e-06
2.6612156e-06
1.9763012e-06
1.9878761e-06
1.5476045e-06
1.5545871e-06
1.2807252e-06
1.2850206e-06
1.1218112e-06
1.1245672e-06
1.0333013e-06
1.0351876e-06
9.8960448e-07
9.9099951e-07
9.7362942e-07
9.7474049e-07
9.741335e-07
9.7507066e-07
9.8377534e-07
9.8459553e-07
9.9772855e-07
9.9846091e-07
1.0127184e-06
1.0133781e-06
1.0263639e-06
1.0269598e-06
1.0367342e-06
1.037272e-06
1.0420519e-06
1.0425361e-06
1.0404975e-06
1.0409321e-06
1.0300889e-06
1.0304775e-06
1.008623e-06
1.0089689e-06
9.73684e-07
9.7398991e-07
9.2271822e-07
9.2298613e-07
8.5321589e-07
8.534464e-07
7.6299399e-07
7.631856e-07
6.5057683e-07
6.5072641e-07
5.1571962e-07
5.158286e-07
3.6013814e-07
3.602281e-07
1.8894617e-07
1.8906952e-07
5.1901512e-06
2.7030315e-05
0.00013447858
0.0003051143
0.00046242536
0.0005734133
0.0006437069
0.00068730968
0.0007160108
0.00073694828
0.00075416764
0.00077071003
0.00078620683
0.00080042648
0.00081306024
0.00082355854
0.00083093753
0.00083353009
0.00082861566
0.00081190989
0.0007768572
0.00071377041
0.00060917321
0.00044607425
0.00020335739
2.5725268e-06
5.4742514e-05
0.00025100357
0.00051589649
0.00072788241
0.00085941939
0.00093535035
0.00097983827
0.0010083356
0.0010288741
0.0010457084
0.0010613854
0.0010757583
0.001088567
0.0010994178
0.0011076886
0.0011122486
0.0011111829
0.0011012883
0.0010774364
0.0010316219
0.00095157666
0.00081902778
0.00060843495
0.00028835898
7.978513e-06
0.00015980793
0.00061548626
0.0010790504
0.0013619558
0.0015046634
0.0015721224
0.0016037189
0.0016194286
0.0016277175
0.0016329628
0.0016360683
0.0016382627
0.0016388906
0.00163746
0.001633499
0.0016259521
0.0016130262
0.0015913013
0.0015551762
0.001495621
0.0013979145
0.0012373448
0.00097095688
0.00052300728
3.7633441e-05
0.00057883845
0.0016842246
0.0024345767
0.0027710143
0.0028847544
0.0028941247
0.0028640204
0.0028241226
0.0027794174
0.0027349741
0.0026926635
0.0026529777
0.0026127268
0.002571381
0.0025293433
0.0024861155
0.002440277
0.0023890813
0.002327752
0.0022483763
0.0021376661
0.0019712895
0.0016962894
0.0011556193
0.00028166505
0.0024457611
0.0049117196
0.0060315067
0.006377088
0.0063152444
0.0060861225
0.0058236646
0.0055743634
0.0053237086
0.0050838245
0.0048599866
0.004657007
0.0044601459
0.0042690865
0.0040884315
0.0039190653
0.0037604147
0.0036106666
0.0034663298
0.0033217453
0.0031686628
0.002996058
0.0027955608
0.0025855037
0.0023623272
0.010531807
0.016581062
0.018529873
0.018066599
0.016506801
0.014690422
0.0130015
0.011519545
0.010243436
0.0091523244
0.0082233825
0.0074311713
0.0067519731
0.0061681848
0.005666423
0.0052352355
0.0048642507
0.0045440489
0.0042658031
0.0040206777
0.0037997097
0.0035943047
0.0034037593
0.0032434945
0.045092485
0.034184764
0.026645397
0.021451235
0.017774955
0.015058728
0.012964552
0.011306062
0.0099744859
0.0088936103
0.0080047011
0.0072628003
0.0066343514
0.0060949778
0.0056270498
0.0052182035
0.0048597398
0.0045450384
0.0042685223
0.0040249245
0.0038086633
0.0036137803
0.0034345656
0.0032723838
0.0031424036
0.037321615
0.031010863
0.027796159
0.025156437
0.022273648
0.019291133
0.016569096
0.014269333
0.012388285
0.010847842
0.0095780216
0.0085218688
0.0076360127
0.0068907092
0.0062621632
0.0057308263
0.0052802903
0.0048967898
0.0045685567
0.004285056
0.0040362233
0.0038122765
0.003604061
0.0034107432
0.0032481958
0.01021443
0.0095405767
0.0092001386
0.0088794083
0.0084166429
0.0078520321
0.0072964262
0.006800289
0.0063497387
0.0059521547
0.0056046836
0.0053009755
0.0050158439
0.0047524448
0.0045121501
0.004294174
0.0040963888
0.0039158479
0.0037486455
0.0035897321
0.0034323736
0.0032676134
0.0030839766
0.002872912
0.0026530251
0.0039629809
0.0038898752
0.0038674563
0.0038268761
0.0037328667
0.0035984943
0.0034595819
0.0033308527
0.0032149261
0.0031139235
0.0030268817
0.0029506505
0.002879649
0.0028132949
0.0027513845
0.0026930687
0.0026366501
0.0025795052
0.0025178373
0.0024461344
0.0023560761
0.0022342469
0.0020563038
0.0017685673
0.0012086458
0.001923485
0.0019368706
0.0019622507
0.0019774477
0.0019714668
0.0019478197
0.0019174544
0.0018873634
0.0018605993
0.0018384652
0.0018207411
0.0018061662
0.0017930632
0.0017807569
0.0017688532
0.001756116
0.0017406421
0.0017196167
0.0016889611
0.0016426976
0.0015717745
0.0014618185
0.0012886414
0.0010093178
0.00054635546
0.0010849931
0.001103719
0.0011276708
0.001148104
0.0011605061
0.001165649
0.0011671167
0.0011678838
0.0011696772
0.0011732368
0.0011785083
0.0011849057
0.0011916232
0.0011979577
0.001203119
0.0012058647
0.0012043447
0.0011959086
0.00117682
0.0011417927
0.001083243
0.00099010129
0.00084606753
0.00062768645
0.00030393926
0.00067842521
0.00069307292
0.00071074167
0.00072761183
0.00074158338
0.00075261691
0.00076192453
0.00077079829
0.00078012574
0.00079032046
0.00080137211
0.00081295549
0.00082455977
0.00083555913
0.00084512376
0.00085207002
0.00085474681
0.00085089621
0.00083748073
0.00081045651
0.00076449573
0.00069270061
0.00058641089
0.00043489694
0.00022024037
0.00045536887
0.00046612021
0.00047881686
0.00049168426
0.00050365806
0.00051455087
0.00052476074
0.00053483288
0.00054519014
0.00055603909
0.00056735131
0.00057889748
0.0005902867
0.00060097679
0.00061022656
0.00061702088
0.00061999791
0.0006173754
0.00060688348
0.00058572958
0.00055067246
0.00049841038
0.00042684033
0.00033875478
0.00024866369
0.00032156617
0.00032945929
0.00033867761
0.0003483589
0.00035793696
0.00036723192
0.00037635037
0.00038550833
0.0003948892
0.00040457023
0.00041449467
0.000424471
0.00043417679
0.00044315052
0.00045076397
0.00045618251
0.00045832759
0.00045585081
0.00044713576
0.0004303664
0.00040374854
0.00036607711
0.00031806878
0.00026530841
0.00022364754
0.00023560251
0.00024147308
0.00024827661
0.00025557867
0.00026306708
0.00027060429
0.00027819339
0.00028590305
0.00029379435
0.0003018711
0.0003100561
0.00031817713
0.00032595998
0.00033301727
0.00033883095
0.00034273239
0.00034388764
0.00034129764
0.00033382873
0.00032030199
0.00029969453
0.00027154678
0.00023673584
0.00019881532
0.00016224572
0.00017716259
0.00018158022
0.00018667364
0.00019221361
0.00019802198
0.0002039992
0.00021011501
0.00021637357
0.00022277565
0.00022928791
0.00023582225
0.00024222307
0.00024825702
0.00025360297
0.00025784143
0.00026044518
0.00026077634
0.00025809604
0.00025159532
0.00024045847
0.00022396765
0.00020163225
0.0001732036
0.00013788647
8.8688292e-05
0.00013549591
0.00013884463
0.00014269247
0.00014691338
0.00015140044
0.00015608292
0.0001609224
0.0001658967
0.00017097941
0.00017612036
0.00018123115
0.00018617373
0.00019075143
0.00019470131
0.0001976879
0.00019929926
0.00019904846
0.00019638354
0.00019070848
0.00018141451
0.00016790941
0.0001495978
0.00012567006
9.429934e-05
5.0407872e-05
0.00010459879
0.00010714344
0.00011006128
0.00011327924
0.00011673066
0.00012036441
0.00012414347
0.00012803697
0.00013200847
0.00013600364
0.00013993994
0.00014369809
0.00014711506
0.00014997833
0.00015202215
0.00015292629
0.00015231852
0.0001497819
0.00014486683
0.00013710349
0.0001260024
0.00011101324
9.1384562e-05
6.5838663e-05
3.2149707e-05
8.0977896e-05
8.2907181e-05
8.5116535e-05
8.7561559e-05
9.0198852e-05
9.2991081e-05
9.5905847e-05
9.8911688e-05
0.00010197097
0.00010503205
0.00010802206
0.00011084074
0.00011335519
0.0001153959
0.00011675441
0.0001171831
0.00011639745
0.00011408115
0.00010989319
0.00010347422
9.4446597e-05
8.2399833e-05
6.685639e-05
4.7243711e-05
2.2954349e-05
6.2528707e-05
6.3981349e-05
6.5643516e-05
6.7487001e-05
6.9482691e-05
7.1602758e-05
7.3820516e-05
7.6107511e-05
7.8429228e-05
8.0740175e-05
8.297878e-05
8.5062991e-05
8.6886584e-05
8.8316324e-05
8.919051e-05
8.9319134e-05
8.8485757e-05
8.6451358e-05
8.2959665e-05
7.7743407e-05
7.05314e-05
6.1059719e-05
4.909948e-05
3.4544349e-05
1.7554835e-05
4.7939974e-05
4.9021178e-05
5.0257728e-05
5.1630947e-05
5.3120847e-05
5.4706727e-05
5.6367156e-05
5.8078186e-05
5.9810471e-05
6.1525933e-05
6.3174489e-05
6.4690816e-05
6.5991749e-05
6.6974354e-05
6.7514979e-05
6.7469492e-05
6.6674875e-05
6.4952442e-05
6.2112712e-05
5.79626e-05
5.2317079e-05
4.502113e-05
3.5994732e-05
2.5330249e-05
1.3432706e-05
3.6361826e-05
3.7153789e-05
3.8059268e-05
3.9065483e-05
4.0158473e-05
4.1323022e-05
4.2542408e-05
4.3797364e-05
4.5064158e-05
4.6312451e-05
4.7502813e-05
4.8584692e-05
4.9494513e-05
5.0154322e-05
5.0471193e-05
5.0337473e-05
4.9632157e-05
4.8223661e-05
4.5974379e-05
4.274801e-05
3.8421809e-05
3.2908099e-05
2.6192499e-05
1.8403939e-05
9.86521e-06
2.7212859e-05
2.7781503e-05
2.8431345e-05
2.9153636e-05
2.9938522e-05
3.0774944e-05
3.1650245e-05
3.2549521e-05
3.3454396e-05
3.4341534e-05
3.5181022e-05
3.5934849e-05
3.6555644e-05
3.6985728e-05
3.7156693e-05
3.6989656e-05
3.6396396e-05
3.5281696e-05
3.3547353e-05
3.1098713e-05
2.7855235e-05
2.3767437e-05
1.8843713e-05
1.319668e-05
7.0980746e-06
2.0064831e-05
2.0463687e-05
2.0919175e-05
2.1425358e-05
2.1975247e-05
2.2560911e-05
2.3173057e-05
2.3800576e-05
2.4429745e-05
2.5043239e-05
2.5619082e-05
2.6129544e-05
2.6540305e-05
2.6809745e-05
2.6888671e-05
2.6720519e-05
2.6242269e-05
2.5386309e-05
2.408371e-05
2.2269507e-05
1.9890907e-05
1.6919551e-05
1.336934e-05
9.3270511e-06
5.0097602e-06
1.4574064e-05
1.48467e-05
1.5157767e-05
1.5503186e-05
1.5878122e-05
1.6276933e-05
1.6692988e-05
1.7118264e-05
1.754286e-05
1.7954336e-05
1.8337019e-05
1.8671281e-05
1.8932919e-05
1.909268e-05
1.9116051e-05
1.8963396e-05
1.859065e-05
1.7950724e-05
1.6996007e-05
1.5682345e-05
1.397504e-05
1.1857471e-05
9.3429067e-06
6.4938487e-06
3.4628896e-06
1.0444207e-05
1.0625605e-05
1.0832325e-05
1.1061577e-05
1.1310053e-05
1.1573832e-05
1.1848267e-05
1.2127735e-05
1.2405301e-05
1.2672297e-05
1.2917862e-05
1.3128459e-05
1.3287456e-05
1.3374801e-05
1.3366835e-05
1.3236402e-05
1.2953326e-05
1.2485415e-05
1.180028e-05
1.0868185e-05
9.6662864e-06
8.1846081e-06
6.4340424e-06
4.4590659e-06
2.3751943e-06
7.4102326e-06
7.5277297e-06
7.6614259e-06
7.8094363e-06
7.9695152e-06
8.1389926e-06
8.3146764e-06
8.4927117e-06
8.6683642e-06
8.8357392e-06
8.9874851e-06
9.1144757e-06
9.2055213e-06
9.2471474e-06
9.2234708e-06
9.1162502e-06
8.9051811e-06
8.5685942e-06
8.0847342e-06
7.4337485e-06
6.600604e-06
5.5791957e-06
4.377768e-06
3.0267449e-06
1.6024423e-06
5.2356421e-06
5.3098127e-06
5.3940618e-06
5.4871323e-06
5.5875208e-06
5.6934365e-06
5.8027341e-06
5.9128196e-06
6.0205165e-06
6.1218916e-06
6.2120501e-06
6.2849236e-06
6.3330733e-06
6.3475435e-06
6.3178078e-06
6.2317907e-06
6.0760123e-06
5.8360301e-06
5.4973393e-06
5.0467535e-06
4.4743823e-06
3.7764186e-06
2.9588099e-06
2.0423551e-06
1.0823023e-06
3.7169984e-06
3.7627137e-06
3.8145218e-06
3.8715914e-06
3.932929e-06
3.9973506e-06
4.063434e-06
4.1294636e-06
4.1933411e-06
4.2524786e-06
4.3036714e-06
4.3429478e-06
4.3654262e-06
4.3651596e-06
4.3350424e-06
4.2669847e-06
4.152134e-06
3.9809076e-06
3.7436331e-06
3.4315415e-06
3.0380989e-06
2.5608749e-06
2.0039731e-06
1.3812919e-06
7.2984895e-07
2.6848325e-06
2.7124839e-06
2.743722e-06
2.7779991e-06
2.8146589e-06
2.8529187e-06
2.8918396e-06
2.9302853e-06
2.9668693e-06
2.9998864e-06
3.0272271e-06
3.0462868e-06
3.0538613e-06
3.0460289e-06
3.0180488e-06
2.9643389e-06
2.878797e-06
2.7550234e-06
2.58651e-06
2.3673583e-06
2.0931927e-06
1.7624283e-06
1.3778798e-06
9.4875371e-07
4.9947497e-07
2.002058e-06
2.0186118e-06
2.0372417e-06
2.0575848e-06
2.0792041e-06
2.1015759e-06
2.1240705e-06
2.1459231e-06
2.1661965e-06
2.1837347e-06
2.1971071e-06
2.2045423e-06
2.2038621e-06
2.1924157e-06
2.1670225e-06
2.123863e-06
2.0585214e-06
1.9664875e-06
1.8432426e-06
1.6846984e-06
1.4878311e-06
1.2515676e-06
9.7788366e-07
6.731003e-07
3.5402992e-07
1.5631202e-06
1.5730461e-06
1.5841665e-06
1.5962375e-06
1.6089621e-06
1.6219811e-06
1.634859e-06
1.6470623e-06
1.6579324e-06
1.6666517e-06
1.6722013e-06
1.6733157e-06
1.6684319e-06
1.6556402e-06
1.6326467e-06
1.5967481e-06
1.5447484e-06
1.4732423e-06
1.3789014e-06
1.2587334e-06
1.1105297e-06
9.3350925e-07
7.2909834e-07
5.0184189e-07
2.6399472e-07
1.2902557e-06
1.2963227e-06
1.3030847e-06
1.3103721e-06
1.3179756e-06
1.3256381e-06
1.3330426e-06
1.339796e-06
1.3454072e-06
1.3492597e-06
1.3505794e-06
1.3483977e-06
1.3415125e-06
1.3284499e-06
1.3074331e-06
1.2763689e-06
1.23283e-06
1.1741248e-06
1.0976247e-06
1.000977e-06
8.8244543e-07
7.414001e-07
5.789024e-07
3.984397e-07
2.1045836e-07
1.1279174e-06
1.1317851e-06
1.1360721e-06
1.1406538e-06
1.1453744e-06
1.1500382e-06
1.1543992e-06
1.1581469e-06
1.1608872e-06
1.1621197e-06
1.16121e-06
1.1573584e-06
1.1495674e-06
1.1366095e-06
1.1170017e-06
1.088993e-06
1.0505795e-06
9.9951375e-07
9.3357593e-07
8.5077702e-07
7.4964467e-07
6.2962087e-07
4.9152022e-07
3.3812789e-07
1.7822965e-07
1.0374754e-06
1.0401072e-06
1.0430079e-06
1.0460804e-06
1.0492003e-06
1.0522079e-06
1.0548983e-06
1.0570079e-06
1.0581971e-06
1.0580295e-06
1.0559466e-06
1.0512406e-06
1.0430241e-06
1.0302028e-06
1.0114525e-06
9.8520862e-07
9.4968805e-07
9.0289911e-07
8.4285186e-07
7.6775652e-07
6.7628284e-07
5.6790455e-07
4.4328215e-07
3.0479474e-07
1.6038356e-07
9.926885e-07
9.9462541e-07
9.9674882e-07
9.9897769e-07
1.0012057e-06
1.0032937e-06
1.0050597e-06
1.0062655e-06
1.0066005e-06
1.0056614e-06
1.0029288e-06
9.9774053e-07
9.8926464e-07
9.7647286e-07
9.5812025e-07
9.3273623e-07
8.9864626e-07
8.5399388e-07
7.9690955e-07
7.2570594e-07
6.3912481e-07
5.366539e-07
4.1887128e-07
2.8797377e-07
1.5166722e-07
9.7608363e-07
9.7761953e-07
9.7929476e-07
9.8103739e-07
9.8275131e-07
9.8430855e-07
9.855391e-07
9.8621789e-07
9.8604845e-07
9.8464303e-07
9.8149955e-07
9.7597596e-07
9.6726357e-07
9.5436206e-07
9.3606003e-07
9.1092727e-07
8.7733613e-07
8.3349317e-07
7.775847e-07
7.079696e-07
6.2342079e-07
5.2342732e-07
4.0851977e-07
2.8079625e-07
1.4718699e-07
9.7620169e-07
9.7749115e-07
9.7889014e-07
9.803318e-07
9.8172556e-07
9.829492e-07
9.8383866e-07
9.8417478e-07
9.8366688e-07
9.8193284e-07
9.784761e-07
9.7266014e-07
9.6368215e-07
9.5054842e-07
9.320557e-07
9.0678431e-07
8.7311987e-07
8.2929143e-07
7.735049e-07
7.0413441e-07
6.1996193e-07
5.2047142e-07
4.0616326e-07
2.7907601e-07
1.4545403e-07
9.855833e-07
9.867054e-07
9.8791543e-07
9.8914931e-07
9.9031927e-07
9.913059e-07
9.919476e-07
9.9202722e-07
9.9125533e-07
9.8925012e-07
9.8551419e-07
9.7940891e-07
9.7012807e-07
9.5667349e-07
9.3783675e-07
9.1219316e-07
8.7812414e-07
8.3386019e-07
7.7760812e-07
7.077422e-07
6.2304457e-07
5.2299759e-07
4.0809593e-07
2.8036995e-07
1.4605282e-07
9.9934046e-07
1.0003352e-06
1.0014e-06
1.0024724e-06
1.0034658e-06
1.0042621e-06
1.0047002e-06
1.0045629e-06
1.0035597e-06
1.0013064e-06
9.9730158e-07
9.9090092e-07
9.8129039e-07
9.6746216e-07
9.4819658e-07
9.2205703e-07
8.8741304e-07
8.4248718e-07
7.854794e-07
7.1475862e-07
6.2910574e-07
5.2800856e-07
4.1197639e-07
2.8304115e-07
1.473006e-07
1.0141678e-06
1.0150559e-06
1.0159982e-06
1.0169328e-06
1.0177739e-06
1.0184033e-06
1.0186599e-06
1.0183254e-06
1.017107e-06
1.014617e-06
1.0103489e-06
1.003651e-06
9.9370028e-07
9.7947765e-07
9.5975068e-07
9.3306915e-07
8.9778927e-07
8.5212358e-07
7.9426435e-07
7.2257566e-07
6.3583924e-07
5.3355445e-07
4.1626915e-07
2.8612161e-07
1.4927779e-07
1.0276699e-06
1.0284633e-06
1.0292961e-06
1.0301068e-06
1.0308096e-06
1.0312863e-06
1.0313751e-06
1.030856e-06
1.029434e-06
1.0267176e-06
1.0221948e-06
1.0152072e-06
1.0049229e-06
9.9031262e-07
9.7013247e-07
9.4292063e-07
9.0702268e-07
8.6064417e-07
8.0197374e-07
7.2937545e-07
6.4163622e-07
5.3826891e-07
4.1985256e-07
2.8862129e-07
1.5093917e-07
1.0379097e-06
1.0386165e-06
1.0393489e-06
1.0400453e-06
1.0406203e-06
1.0409552e-06
1.0408874e-06
1.0401955e-06
1.0385822e-06
1.0356527e-06
1.0308906e-06
1.0236316e-06
1.0130373e-06
9.9807058e-07
9.7747986e-07
9.4979645e-07
9.1336136e-07
8.663801e-07
8.0704583e-07
7.3373142e-07
6.4523736e-07
5.4109735e-07
4.2192268e-07
2.8999433e-07
1.5172182e-07
1.0431069e-06
1.0437337e-06
1.0443731e-06
1.0449639e-06
1.0454204e-06
1.0456239e-06
1.045411e-06
1.0445595e-06
1.0427703e-06
1.0396463e-06
1.0346683e-06
1.0271685e-06
1.0163048e-06
1.0010369e-06
9.8011105e-07
9.5205891e-07
9.1522594e-07
8.6782817e-07
8.0807525e-07
7.3436184e-07
6.4551484e-07
5.411018e-07
4.2177814e-07
2.8985999e-07
1.5169847e-07
1.0414409e-06
1.0419937e-06
1.0425473e-06
1.0430405e-06
1.043388e-06
1.043471e-06
1.0431261e-06
1.0421308e-06
1.0401854e-06
1.0368921e-06
1.0317313e-06
1.024035e-06
1.0129618e-06
9.9747416e-07
9.7632393e-07
9.4805304e-07
9.1102336e-07
8.6347492e-07
8.0365012e-07
7.2998171e-07
6.413385e-07
5.3733395e-07
4.1866926e-07
2.8766712e-07
1.5054457e-07
1.030929e-06
1.0314135e-06
1.031888e-06
1.032292e-06
1.0325404e-06
1.0325151e-06
1.0320534e-06
1.0309335e-06
1.0288569e-06
1.0254278e-06
1.020129e-06
1.0122969e-06
1.001097e-06
9.8550217e-07
9.6427988e-07
9.3599605e-07
8.9904219e-07
8.5169946e-07
7.9226369e-07
7.1922445e-07
6.3150921e-07
5.2878649e-07
4.1179441e-07
2.8281351e-07
1.4784514e-07
1.0093673e-06
1.0097888e-06
1.010191e-06
1.0105141e-06
1.010674e-06
1.010554e-06
1.0099932e-06
1.0087725e-06
1.0065968e-06
1.0030753e-06
9.9769802e-07
9.898117e-07
9.7859636e-07
9.6304586e-07
9.4195621e-07
9.1393062e-07
8.7740884e-07
8.307366e-07
7.7228345e-07
7.0061734e-07
6.1474204e-07
5.1438921e-07
4.003296e-07
2.7479978e-07
1.4356007e-07
9.7433908e-07
9.7470257e-07
9.7503897e-07
9.7528969e-07
9.7537252e-07
9.7517324e-07
9.7453449e-07
9.7324202e-07
9.7100778e-07
9.6745023e-07
9.6207244e-07
9.5423918e-07
9.4315514e-07
9.2784741e-07
9.0715527e-07
8.7973825e-07
8.4410829e-07
7.9869777e-07
7.4197366e-07
6.7260568e-07
5.896926e-07
4.930364e-07
3.8342605e-07
2.6301228e-07
1.3726206e-07
9.2328902e-07
9.2359896e-07
9.238759e-07
9.2406324e-07
9.2408162e-07
9.2382086e-07
9.2312945e-07
9.2180125e-07
9.1955949e-07
9.1603789e-07
9.1076011e-07
9.0311856e-07
8.9235481e-07
8.7754418e-07
8.5758886e-07
8.3122716e-07
7.9706686e-07
7.5365222e-07
6.9957348e-07
6.3362611e-07
5.5502207e-07
4.6364117e-07
3.6028338e-07
2.4699147e-07
1.2884864e-07
8.5370485e-07
8.5396486e-07
8.5418853e-07
8.5432229e-07
8.5429083e-07
8.5398984e-07
8.532763e-07
8.5195635e-07
8.4977021e-07
8.4637442e-07
8.4132266e-07
8.3404695e-07
8.2384081e-07
8.0984647e-07
7.9105068e-07
7.662949e-07
7.3430907e-07
6.9377658e-07
6.4343748e-07
5.8223541e-07
5.0950967e-07
4.2521858e-07
3.301531e-07
2.2620251e-07
1.1797186e-07
7.6339987e-07
7.6361253e-07
7.6378921e-07
7.6388127e-07
7.6381877e-07
7.635046e-07
7.628067e-07
7.6154836e-07
7.5949432e-07
7.5633378e-07
7.5166178e-07
7.4496377e-07
7.3560272e-07
7.228083e-07
7.0567699e-07
6.8318034e-07
6.5419816e-07
6.1758083e-07
5.7224393e-07
5.1729815e-07
4.5221821e-07
3.7703584e-07
2.9251176e-07
2.0033977e-07
1.0452658e-07
6.5089643e-07
6.5106335e-07
6.5119932e-07
6.5126558e-07
6.5119904e-07
6.5090932e-07
6.5027554e-07
6.4914363e-07
6.4731344e-07
6.4452021e-07
6.4041192e-07
6.345422e-07
6.2636267e-07
6.152094e-07
6.003179e-07
5.8081961e-07
5.5577198e-07
5.242199e-07
4.852781e-07
4.3823692e-07
3.8270472e-07
3.1877542e-07
2.4715841e-07
1.6932154e-07
8.8550964e-08
5.1596227e-07
5.1608618e-07
5.1618597e-07
5.1624515e-07
5.1621091e-07
5.1599646e-07
5.1548762e-07
5.1455971e-07
5.1306435e-07
5.1080258e-07
5.0747824e-07
5.0272752e-07
4.9611197e-07
4.870816e-07
4.7504592e-07
4.5933063e-07
4.3919552e-07
4.1391238e-07
3.828151e-07
3.4536905e-07
3.012995e-07
2.5074523e-07
1.9433496e-07
1.3324955e-07
6.9947076e-08
3.6035666e-07
3.6044827e-07
3.6051258e-07
3.6057486e-07
3.6060079e-07
3.605067e-07
3.6018127e-07
3.5953909e-07
3.5850798e-07
3.5698029e-07
3.5469e-07
3.5137338e-07
3.4673582e-07
3.4031727e-07
3.317419e-07
3.2056568e-07
3.0624152e-07
2.8838625e-07
2.665559e-07
2.4029452e-07
2.0943327e-07
1.7414225e-07
1.3495313e-07
9.2750387e-08
4.9298665e-08
1.8921177e-07
1.8928286e-07
1.8931385e-07
1.8936335e-07
1.8942199e-07
1.8942771e-07
1.8929412e-07
1.8898435e-07
1.8850635e-07
1.8784581e-07
1.8675204e-07
1.8509474e-07
1.8348228e-07
1.800743e-07
1.7544267e-07
1.693775e-07
1.6133367e-07
1.5183375e-07
1.4055124e-07
1.2670101e-07
1.1034057e-07
9.1659463e-08
7.1049159e-08
4.9077321e-08
2.6785548e-08
)
;

boundaryField
{
    Walls
    {
        type            kqRWallFunction;
        value           nonuniform List<scalar> 
38
(
5.1901512e-06
2.5725268e-06
7.978513e-06
3.7633441e-05
0.00028166505
0.0023623272
0.056444797
0.061064848
0.018419612
0.027429664
0.034464945
0.041492738
0.047525204
0.051526425
0.05597081
0.059961358
0.062135271
0.064251974
0.066409067
0.067967218
0.068699786
0.069908971
0.071082061
0.07095803
0.071557399
0.072234989
0.072017076
0.072444524
0.073497251
0.073751331
0.073873601
0.073267462
0.072972932
0.072930006
0.07251861
0.072217248
0.071630448
0.06681058
)
;
    }
    Inlet
    {
        type            turbulentIntensityKineticEnergyInlet;
        intensity       0.05;
        value           nonuniform List<scalar> 3(0.0085929362 0.0082813916 0.0095701237);
    }
    Outlet
    {
        type            inletOutlet;
        inletValue      uniform 0;
        value           nonuniform List<scalar> 
86
(
1.8818915e-07
1.8819593e-07
1.8826244e-07
1.8894617e-07
1.8906952e-07
1.8921177e-07
1.8928286e-07
1.8931385e-07
1.8936335e-07
1.8942199e-07
1.8942771e-07
1.8929412e-07
1.8898435e-07
1.8850635e-07
1.8784581e-07
1.8675204e-07
1.8509474e-07
1.8348228e-07
1.800743e-07
1.7544267e-07
1.693775e-07
1.6133367e-07
1.5183375e-07
1.4055124e-07
1.2670101e-07
1.1034057e-07
9.1659463e-08
7.1049159e-08
4.9077321e-08
2.6785548e-08
0.0031424036
0.0032481958
0.0026530251
0
0
0
0
0.00024866369
0.00022364754
0.00016224572
0
0
0
0
0
1.3432706e-05
9.86521e-06
7.0980746e-06
5.0097602e-06
3.4628896e-06
2.3751943e-06
1.6024423e-06
1.0823023e-06
7.2984895e-07
4.9947497e-07
3.5402992e-07
2.6399472e-07
2.1045836e-07
1.7822965e-07
1.6038356e-07
1.5166722e-07
1.4718699e-07
0
0
0
0
0
0
0
0
0
0
0
0
0
0
0
0
0
0
0
0
0
0
0.0025855037
0.0032434945
)
;
    }
    Front
    {
        type            wedge;
    }
    Back
    {
        type            wedge;
    }
    defaultFaces
    {
        type            empty;
    }
}


// ************************************************************************* //
