/*--------------------------------*- C++ -*----------------------------------*\
| =========                 |                                                 |
| \\      /  F ield         | OpenFOAM: The Open Source CFD Toolbox           |
|  \\    /   O peration     | Version:  4.0                                   |
|   \\  /    A nd           | Web:      www.OpenFOAM.org                      |
|    \\/     M anipulation  |                                                 |
\*---------------------------------------------------------------------------*/
FoamFile
{
    version     2.0;
    format      ascii;
    class       volScalarField;
    location    "0.69";
    object      nut;
}
// * * * * * * * * * * * * * * * * * * * * * * * * * * * * * * * * * * * * * //

dimensions      [0 2 -1 0 0 0 0];

internalField   nonuniform List<scalar> 
1740
(
3.5697065e-05
1.305783e-05
1.2344814e-06
3.0966681e-05
6.6688407e-06
1.8248824e-06
1.8857606e-05
5.283092e-06
2.2800024e-06
2.3404482e-05
4.6896024e-06
2.7297008e-06
1.3877264e-05
4.2817029e-06
3.1116061e-06
9.709585e-06
4.0060526e-06
3.3630461e-06
1.1911559e-05
3.812145e-06
3.6401666e-06
1.1648569e-05
3.6920963e-06
3.8878956e-06
1.0407479e-05
3.6234164e-06
4.0227341e-06
9.4134104e-06
3.5653849e-06
4.1528263e-06
8.6923814e-06
3.5325388e-06
4.28504e-06
7.9605194e-06
3.5368987e-06
4.3805325e-06
7.3817026e-06
3.5255074e-06
4.4253833e-06
6.9370658e-06
3.5138161e-06
4.4996689e-06
6.5577649e-06
3.53594e-06
4.5708753e-06
6.2365528e-06
3.5211296e-06
4.5629255e-06
5.9226767e-06
3.4934649e-06
4.5988253e-06
5.6192068e-06
3.5112499e-06
4.6400744e-06
5.4002544e-06
3.526371e-06
4.6272691e-06
5.2126643e-06
3.5323675e-06
4.65373e-06
5.0277611e-06
3.534783e-06
4.717214e-06
4.8556983e-06
3.5675321e-06
4.7326071e-06
4.7163011e-06
3.5955581e-06
4.7413765e-06
4.5882203e-06
3.6083654e-06
4.7039335e-06
4.4855965e-06
3.5951303e-06
4.6852761e-06
4.3909464e-06
3.5756701e-06
4.6824919e-06
4.3067224e-06
3.5743149e-06
4.6574207e-06
4.2172697e-06
3.5820378e-06
4.639e-06
4.1627859e-06
3.5867241e-06
4.603405e-06
3.0449242e-06
3.4344081e-06
4.3097324e-06
1.9506506e-06
2.2055941e-06
4.4252725e-06
7.219664e-06
7.3824684e-06
6.730144e-06
6.5448289e-06
6.7460354e-06
6.3762654e-06
5.1838974e-06
5.122556e-06
4.8745895e-06
4.3388399e-06
4.2669305e-06
4.1318199e-06
3.7988244e-06
3.7562449e-06
3.6967761e-06
3.4395609e-06
3.4225575e-06
3.4085699e-06
3.1891527e-06
3.1880124e-06
3.1987883e-06
3.0006867e-06
3.0079045e-06
3.0306861e-06
2.8418068e-06
2.8527131e-06
2.8801038e-06
2.6894028e-06
2.7013597e-06
2.7292573e-06
2.5271443e-06
2.5387617e-06
2.5650231e-06
2.344538e-06
2.3551377e-06
2.3787375e-06
2.1366044e-06
2.1458946e-06
2.1664219e-06
1.9038081e-06
1.9117013e-06
1.9290746e-06
1.6518825e-06
1.6583983e-06
1.6727132e-06
1.3910899e-06
1.3963089e-06
1.4077658e-06
1.1345599e-06
1.1386041e-06
1.1474792e-06
8.9574788e-07
8.9876987e-07
9.0540125e-07
6.8565013e-07
6.8782281e-07
6.9259077e-07
5.1077429e-07
5.1227634e-07
5.1557388e-07
3.7259688e-07
3.7359631e-07
3.7579313e-07
2.6848962e-07
2.691318e-07
2.7054672e-07
1.9349589e-07
1.9390048e-07
1.947901e-07
1.4158071e-07
1.4183128e-07
1.4238087e-07
1.0679936e-07
1.0695295e-07
1.0728943e-07
8.4252531e-08
8.4347055e-08
8.4554046e-08
7.0187025e-08
7.0246527e-08
7.0376872e-08
6.185073e-08
6.1889876e-08
6.1975771e-08
5.7293883e-08
5.7321305e-08
5.7381704e-08
5.5173495e-08
5.5194107e-08
5.523981e-08
5.4585496e-08
5.460203e-08
5.4639018e-08
5.4932336e-08
5.4946297e-08
5.4977815e-08
5.5824851e-08
5.5837075e-08
5.5864872e-08
5.7012919e-08
5.7023877e-08
5.7048905e-08
5.8337986e-08
5.8347952e-08
5.8370751e-08
5.9701137e-08
5.9710279e-08
5.9731178e-08
6.1041865e-08
6.1050294e-08
6.1069525e-08
6.2324189e-08
6.2331988e-08
6.2349739e-08
6.3527858e-08
6.35351e-08
6.3551541e-08
6.4643114e-08
6.4649873e-08
6.4665169e-08
6.5667982e-08
6.5674348e-08
6.568868e-08
6.6606783e-08
6.6612914e-08
6.6626515e-08
6.7416285e-08
6.7422139e-08
6.7435044e-08
6.8092886e-08
6.8098472e-08
6.8110753e-08
6.8633751e-08
6.8639099e-08
6.8650846e-08
6.9030048e-08
6.9035194e-08
6.904649e-08
6.9262349e-08
6.9267323e-08
6.9278241e-08
6.9287012e-08
6.9291838e-08
6.9302442e-08
6.8968082e-08
6.8972778e-08
6.8983327e-08
4.1864111e-06
4.5109489e-06
6.7408944e-06
8.4438546e-06
5.9920648e-06
6.0326964e-06
4.7257625e-06
4.828137e-06
4.0841335e-06
4.1927085e-06
3.7000771e-06
3.8025334e-06
3.4391604e-06
3.5342529e-06
3.2425857e-06
3.3300967e-06
3.0792602e-06
3.1590747e-06
2.9285444e-06
3.0005894e-06
2.7748263e-06
2.8390841e-06
2.60631e-06
2.6628758e-06
2.4151279e-06
2.4642207e-06
2.1977612e-06
2.2396985e-06
1.9554643e-06
1.9906352e-06
1.6944026e-06
1.7232543e-06
1.4251049e-06
1.4481521e-06
1.1609048e-06
1.178747e-06
9.1543149e-07
9.2876209e-07
6.9980364e-07
7.0939053e-07
5.2056368e-07
5.2719716e-07
3.7911938e-07
3.8354263e-07
2.7269091e-07
2.7554238e-07
1.9613623e-07
1.9792416e-07
1.4321095e-07
1.4431182e-07
1.0779709e-07
1.0846961e-07
8.4866191e-08
8.527949e-08
7.0573513e-08
7.0833978e-08
6.2105581e-08
6.2277837e-08
5.7473321e-08
5.7595331e-08
5.5309537e-08
5.540287e-08
5.4695847e-08
5.4772352e-08
5.5026572e-08
5.5092548e-08
5.5908099e-08
5.5966811e-08
5.7087945e-08
5.7141079e-08
5.8406346e-08
5.845482e-08
5.9763789e-08
5.9808179e-08
6.109949e-08
6.114023e-08
6.2377343e-08
6.2414819e-08
6.3577051e-08
6.3611624e-08
6.4688841e-08
6.4720858e-08
6.571077e-08
6.5740562e-08
6.6647293e-08
6.6675175e-08
6.7454664e-08
6.74809e-08
6.8129378e-08
6.8154234e-08
6.8668637e-08
6.8692353e-08
6.9063591e-08
6.9086377e-08
6.9294774e-08
6.9316817e-08
6.9318618e-08
6.9340122e-08
6.9001792e-08
6.9023169e-08
4.3042544e-10
1.322848e-08
1.9305198e-07
8.2656093e-07
1.6439166e-06
2.2306691e-06
2.5756539e-06
2.7839651e-06
2.9279717e-06
3.0432936e-06
3.1470657e-06
3.2532962e-06
3.3587624e-06
3.4623962e-06
3.563413e-06
3.6604597e-06
3.7510816e-06
3.8311387e-06
3.893925e-06
3.9288471e-06
3.9192804e-06
3.8389862e-06
3.6455549e-06
3.2626404e-06
2.4524421e-06
2.1334372e-10
2.6868341e-08
3.5970083e-07
1.376775e-06
2.5700493e-06
3.3787259e-06
3.851977e-06
4.158627e-06
4.3932686e-06
4.5986373e-06
4.7953342e-06
4.9958744e-06
5.1979755e-06
5.4006463e-06
5.6022234e-06
5.7999693e-06
5.9891409e-06
6.1619586e-06
6.305693e-06
6.4000227e-06
6.4125744e-06
6.2909478e-06
5.9473461e-06
5.2209459e-06
3.683361e-06
6.6166814e-10
7.8699917e-08
8.5644911e-07
2.5055292e-06
3.7910591e-06
4.5277582e-06
4.9915286e-06
5.3373103e-06
5.6376982e-06
5.9250883e-06
6.2147942e-06
6.513562e-06
6.8199323e-06
7.132758e-06
7.450615e-06
7.7704383e-06
8.0860073e-06
8.3873583e-06
8.6567928e-06
8.8655565e-06
8.966947e-06
8.8832717e-06
8.4789943e-06
7.4955284e-06
5.2893205e-06
3.1208988e-09
2.8488396e-07
2.0600977e-06
3.9994723e-06
5.0397272e-06
5.6273479e-06
6.0341603e-06
6.376854e-06
6.7055774e-06
7.0389455e-06
7.3877704e-06
7.7550841e-06
8.1374174e-06
8.5334784e-06
8.9431221e-06
9.3649778e-06
9.7940703e-06
1.0220868e-05
1.0628687e-05
1.0989585e-05
1.1257268e-05
1.1353189e-05
1.1133517e-05
1.0289001e-05
7.889764e-06
2.3352344e-08
1.137012e-06
3.9848665e-06
5.5921259e-06
6.4431077e-06
6.9637362e-06
7.3470926e-06
7.6933767e-06
8.0429487e-06
8.3977208e-06
8.7713454e-06
9.1703954e-06
9.5846842e-06
1.0009557e-05
1.0447824e-05
1.0904061e-05
1.1377541e-05
1.1863639e-05
1.2352405e-05
1.2825576e-05
1.3251982e-05
1.358135e-05
1.3736917e-05
1.3622781e-05
1.321054e-05
1.9543896e-07
2.7535255e-06
5.8986434e-06
7.7018564e-06
8.6160823e-06
9.0327025e-06
9.2287044e-06
9.3651525e-06
9.503423e-06
9.6619358e-06
9.848717e-06
1.0069986e-05
1.0326244e-05
1.0617733e-05
1.0945694e-05
1.1311133e-05
1.1714141e-05
1.215267e-05
1.2621626e-05
1.3111129e-05
1.3603458e-05
1.4069711e-05
1.4466682e-05
1.4745643e-05
1.4849105e-05
4.3494368e-06
4.3227402e-06
4.366446e-06
4.4766078e-06
4.6518541e-06
4.8814383e-06
5.1546329e-06
5.468194e-06
5.8242293e-06
6.2247999e-06
6.6694772e-06
7.1550352e-06
7.6755452e-06
8.2238026e-06
8.7930503e-06
9.3784957e-06
9.9775552e-06
1.0588669e-05
1.1209711e-05
1.1835935e-05
1.2456982e-05
1.3053737e-05
1.3595505e-05
1.404551e-05
1.4336123e-05
9.1148973e-06
9.369108e-06
9.7687354e-06
1.0187472e-05
1.0362752e-05
1.0325151e-05
1.0207132e-05
1.0109534e-05
1.0072265e-05
1.0097131e-05
1.017993e-05
1.0315972e-05
1.0503296e-05
1.0741667e-05
1.1030979e-05
1.1370642e-05
1.1758649e-05
1.2190983e-05
1.2660506e-05
1.3154905e-05
1.3653562e-05
1.4124385e-05
1.4520998e-05
1.4793303e-05
1.4887489e-05
6.4046281e-06
6.8142528e-06
7.2456621e-06
7.6454509e-06
7.9471307e-06
8.1643271e-06
8.3571051e-06
8.5647018e-06
8.7957671e-06
9.0650498e-06
9.3689611e-06
9.6986109e-06
1.0049153e-05
1.0426857e-05
1.0835566e-05
1.1275829e-05
1.1744635e-05
1.2234654e-05
1.2732311e-05
1.3214768e-05
1.3645364e-05
1.396773e-05
1.4099329e-05
1.3941355e-05
1.3472908e-05
5.1406103e-06
5.4973487e-06
5.848086e-06
6.1652263e-06
6.4320858e-06
6.6612761e-06
6.8829415e-06
7.1174638e-06
7.3759868e-06
7.6651292e-06
7.9828309e-06
8.3264264e-06
8.6957626e-06
9.091944e-06
9.5144962e-06
9.9597029e-06
1.0419361e-05
1.0879102e-05
1.1315785e-05
1.1693347e-05
1.1955865e-05
1.201436e-05
1.1715025e-05
1.0738288e-05
8.1283111e-06
4.4358241e-06
4.7264151e-06
5.0180348e-06
5.2902723e-06
5.5373831e-06
5.7674874e-06
5.9950233e-06
6.2327816e-06
6.4893054e-06
6.7687468e-06
7.0707952e-06
7.394221e-06
7.7386697e-06
8.1030865e-06
8.4845268e-06
8.8759569e-06
9.2651666e-06
9.632879e-06
9.9500268e-06
1.0173646e-05
1.024032e-05
1.0054643e-05
9.465746e-06
8.2076724e-06
5.6435728e-06
3.9923484e-06
4.2237021e-06
4.4638157e-06
4.6970499e-06
4.9198006e-06
5.1368512e-06
5.3563329e-06
5.5859688e-06
5.8314487e-06
6.0956073e-06
6.3786433e-06
6.6796309e-06
6.9972563e-06
7.3287287e-06
7.6685866e-06
8.0076117e-06
8.3314579e-06
8.6190355e-06
8.8404177e-06
8.9539954e-06
8.9024021e-06
8.6059743e-06
7.9496997e-06
6.7451438e-06
4.5064897e-06
3.6874027e-06
3.874273e-06
4.0738096e-06
4.2745421e-06
4.4732818e-06
4.672283e-06
4.8761597e-06
5.0896888e-06
5.3165642e-06
5.5586988e-06
5.8162597e-06
6.0882134e-06
6.3725017e-06
6.6653152e-06
6.960147e-06
7.246921e-06
7.5110509e-06
7.7323238e-06
7.8836797e-06
7.9298817e-06
7.8260431e-06
7.5155243e-06
6.9242909e-06
5.9337561e-06
4.1672213e-06
3.4577538e-06
3.6122998e-06
3.7806927e-06
3.9548555e-06
4.1319018e-06
4.3125929e-06
4.499428e-06
4.6952438e-06
4.902265e-06
5.1215848e-06
5.3530132e-06
5.5951783e-06
5.8454328e-06
6.0993521e-06
6.3500755e-06
6.5876677e-06
6.7985021e-06
6.9646835e-06
7.0636429e-06
7.0681155e-06
6.9469306e-06
6.6675608e-06
6.203292e-06
5.5567322e-06
4.8189755e-06
3.2680184e-06
3.3986027e-06
3.5428047e-06
3.6950497e-06
3.8528704e-06
4.016183e-06
4.1861777e-06
4.3643863e-06
4.5519819e-06
4.7493355e-06
4.9558081e-06
5.1696598e-06
5.3878548e-06
5.6056939e-06
5.8163805e-06
6.0106087e-06
6.17624e-06
6.2981438e-06
6.3583567e-06
6.3368497e-06
6.2134863e-06
5.9725245e-06
5.6133529e-06
5.1780348e-06
4.814183e-06
3.0948215e-06
3.2068207e-06
3.3315702e-06
3.4652341e-06
3.6057691e-06
3.7526569e-06
3.906276e-06
4.0672741e-06
4.2360576e-06
4.4124246e-06
4.5953413e-06
4.7827718e-06
4.971483e-06
5.1567768e-06
5.3322169e-06
5.4894003e-06
5.6178477e-06
5.7050899e-06
5.7370773e-06
5.699129e-06
5.5778003e-06
5.3644564e-06
5.0624584e-06
4.7024672e-06
4.3321942e-06
2.9209692e-06
3.0177316e-06
3.1261406e-06
3.2435101e-06
3.3681708e-06
3.4993974e-06
3.6370667e-06
3.7812383e-06
3.9317832e-06
4.0880863e-06
4.2488293e-06
4.4118149e-06
4.5737951e-06
4.7302865e-06
4.875407e-06
5.0017746e-06
5.1005195e-06
5.1614625e-06
5.1735221e-06
5.1254072e-06
5.0065892e-06
4.8082339e-06
4.5223565e-06
4.1299108e-06
3.5009524e-06
2.7338768e-06
2.8175066e-06
2.9116038e-06
3.0142431e-06
3.1240521e-06
3.240232e-06
3.3623627e-06
3.4901328e-06
3.623065e-06
3.7602801e-06
3.9003089e-06
4.0409331e-06
4.1790445e-06
4.3105237e-06
4.4301513e-06
4.5315795e-06
4.6073937e-06
4.6492851e-06
4.6483344e-06
4.5953347e-06
4.4808824e-06
4.2943506e-06
4.018767e-06
3.6096783e-06
2.8841212e-06
2.525334e-06
2.5972225e-06
2.6783879e-06
2.767411e-06
2.8631629e-06
2.9648465e-06
3.0718884e-06
3.1837645e-06
3.2998025e-06
3.4189936e-06
3.5398381e-06
3.660217e-06
3.7772815e-06
3.8873725e-06
3.9859776e-06
4.0677379e-06
4.1265165e-06
4.1555259e-06
4.1474771e-06
4.0946273e-06
3.9884015e-06
3.8177211e-06
3.5635474e-06
3.1803181e-06
2.5013704e-06
2.2916882e-06
2.3528427e-06
2.422091e-06
2.4983686e-06
2.5807489e-06
2.6684871e-06
2.7609565e-06
2.8575393e-06
2.9574839e-06
3.0597623e-06
3.1629474e-06
3.2651106e-06
3.3637414e-06
3.4556934e-06
3.5371654e-06
3.6037201e-06
3.6503399e-06
3.6715049e-06
3.6612446e-06
3.6130487e-06
3.5193774e-06
3.3701658e-06
3.148699e-06
2.819e-06
2.2609093e-06
2.0341591e-06
2.0853944e-06
2.1435608e-06
2.2078542e-06
2.2775254e-06
2.3519091e-06
2.4303984e-06
2.5123671e-06
2.5970709e-06
2.6835455e-06
2.7705101e-06
2.8562896e-06
2.9387582e-06
3.0153004e-06
3.0828042e-06
3.1376799e-06
3.1758971e-06
3.1930238e-06
3.1842223e-06
3.144118e-06
3.0663759e-06
2.9426377e-06
2.7599235e-06
2.4934571e-06
2.0717338e-06
1.7589433e-06
1.8010033e-06
1.8488656e-06
1.901924e-06
1.9595859e-06
2.0212861e-06
2.0864789e-06
2.1545892e-06
2.224943e-06
2.2966929e-06
2.3687519e-06
2.4397329e-06
2.5079083e-06
2.5711851e-06
2.6271008e-06
2.6728359e-06
2.7052343e-06
2.7208163e-06
2.7157486e-06
2.685716e-06
2.6256032e-06
2.5288036e-06
2.3856811e-06
2.1795937e-06
1.8670833e-06
1.4766687e-06
1.5103169e-06
1.5486901e-06
1.5913346e-06
1.6377944e-06
1.6876137e-06
1.740332e-06
1.795458e-06
1.8524225e-06
1.9105298e-06
1.9689044e-06
2.0264539e-06
2.0818388e-06
2.1334544e-06
2.1794287e-06
2.2176278e-06
2.2456646e-06
2.2608961e-06
2.2603846e-06
2.2407894e-06
2.1981353e-06
2.1273482e-06
2.0212484e-06
1.8678873e-06
1.635636e-06
1.2008347e-06
1.2269289e-06
1.2567409e-06
1.2899415e-06
1.326189e-06
1.3651324e-06
1.4064058e-06
1.4496151e-06
1.4943102e-06
1.5399509e-06
1.5858738e-06
1.6312631e-06
1.6751319e-06
1.7163091e-06
1.7534361e-06
1.7849685e-06
1.8091773e-06
1.8241404e-06
1.827706e-06
1.8174069e-06
1.7902909e-06
1.742583e-06
1.66893e-06
1.5603463e-06
1.3939521e-06
9.4527292e-07
9.647994e-07
9.8713858e-07
1.0120605e-06
1.0393147e-06
1.0686421e-06
1.0997674e-06
1.132393e-06
1.1661825e-06
1.2007403e-06
1.2355918e-06
1.2701619e-06
1.303764e-06
1.3355879e-06
1.3646968e-06
1.3900266e-06
1.4103853e-06
1.4244446e-06
1.4307128e-06
1.4274713e-06
1.4126494e-06
1.3835693e-06
1.3363514e-06
1.2643062e-06
1.1510995e-06
7.2126885e-07
7.3532789e-07
7.5142819e-07
7.6941045e-07
7.890996e-07
8.1030908e-07
8.3284179e-07
8.56484e-07
8.8099784e-07
9.0610968e-07
9.3149824e-07
9.5678243e-07
9.8151148e-07
1.0051561e-06
1.0271035e-06
1.0466548e-06
1.0630264e-06
1.0753473e-06
1.0826428e-06
1.0837915e-06
1.0774361e-06
1.061795e-06
1.0342143e-06
9.8995769e-07
9.1733285e-07
5.3541755e-07
5.4515175e-07
5.5630578e-07
5.6877125e-07
5.8242863e-07
5.9714859e-07
6.1279422e-07
6.2921886e-07
6.4626233e-07
6.6374515e-07
6.8146239e-07
6.9917614e-07
7.1660872e-07
7.3343412e-07
7.4926975e-07
7.636738e-07
7.7614898e-07
7.861472e-07
7.9306501e-07
7.9621687e-07
7.94774e-07
7.8763441e-07
7.7311568e-07
7.481393e-07
7.0538524e-07
3.8902452e-07
3.9551716e-07
4.029584e-07
4.1127594e-07
4.2038951e-07
4.3021223e-07
4.4065173e-07
4.5161074e-07
4.6298593e-07
4.7466521e-07
4.8652531e-07
4.9842781e-07
5.1021341e-07
5.2169315e-07
5.3263779e-07
5.4277273e-07
5.5178332e-07
5.5932995e-07
5.6505303e-07
5.6855668e-07
5.6936752e-07
5.6685107e-07
5.6002218e-07
5.4704494e-07
5.2347437e-07
2.7907594e-07
2.8326037e-07
2.8805544e-07
2.9341395e-07
2.9928339e-07
3.0560705e-07
3.1232497e-07
3.1937481e-07
3.266923e-07
3.3421097e-07
3.4186155e-07
3.4957026e-07
3.572542e-07
3.6481148e-07
3.7210858e-07
3.789717e-07
3.851926e-07
3.9055569e-07
3.9485036e-07
3.9785852e-07
3.9932497e-07
3.9890631e-07
3.9606646e-07
3.8980618e-07
3.7774944e-07
2.0013706e-07
2.0275393e-07
2.0574859e-07
2.0909047e-07
2.127459e-07
2.1667893e-07
2.2085196e-07
2.2522699e-07
2.2976625e-07
2.3443346e-07
2.3919505e-07
2.4402051e-07
2.4887927e-07
2.5372676e-07
2.5848286e-07
2.6302265e-07
2.6719154e-07
2.7084288e-07
2.7385541e-07
2.761153e-07
2.7749197e-07
2.7780676e-07
2.7677879e-07
2.7389363e-07
2.6794795e-07
1.4567223e-07
1.4727823e-07
1.4911273e-07
1.5115598e-07
1.5338631e-07
1.5578083e-07
1.5831594e-07
1.6096807e-07
1.6371454e-07
1.6653454e-07
1.6941017e-07
1.7232804e-07
1.7528056e-07
1.782668e-07
1.812846e-07
1.8426002e-07
1.8702428e-07
1.894548e-07
1.9148482e-07
1.9306056e-07
1.9411891e-07
1.9456828e-07
1.9426023e-07
1.9292412e-07
1.8993847e-07
1.0929964e-07
1.102781e-07
1.1139401e-07
1.1263479e-07
1.1398665e-07
1.1543511e-07
1.1696546e-07
1.1856326e-07
1.2021491e-07
1.2190837e-07
1.2363409e-07
1.2538595e-07
1.2716273e-07
1.2896997e-07
1.3082203e-07
1.3272573e-07
1.3456097e-07
1.3617476e-07
1.3752458e-07
1.3858852e-07
1.39338e-07
1.3972607e-07
1.3967289e-07
1.3903159e-07
1.3745662e-07
8.578926e-08
8.63897e-08
8.7073875e-08
8.7833867e-08
8.8660987e-08
8.9546156e-08
9.0480254e-08
9.1454488e-08
9.246077e-08
9.3492272e-08
9.4543946e-08
9.5613422e-08
9.6701995e-08
9.7815987e-08
9.8968783e-08
1.0018181e-07
1.0141469e-07
1.0250524e-07
1.0341616e-07
1.0413919e-07
1.0466184e-07
1.049595e-07
1.0498807e-07
1.0466467e-07
1.0378138e-07
7.1155362e-08
7.1534063e-08
7.1965727e-08
7.2445398e-08
7.2967637e-08
7.3526755e-08
7.4117079e-08
7.4733209e-08
7.5370301e-08
7.6024438e-08
7.6693029e-08
7.7375436e-08
7.807378e-08
7.8794087e-08
7.9547908e-08
8.0354399e-08
8.1214512e-08
8.1983464e-08
8.2625925e-08
8.3138492e-08
8.3515428e-08
8.3742709e-08
8.3793682e-08
8.3616462e-08
8.3073748e-08
6.2490797e-08
6.2742264e-08
6.302955e-08
6.334953e-08
6.3698778e-08
6.4073683e-08
6.4470642e-08
6.4886243e-08
6.5317468e-08
6.5761952e-08
6.6218305e-08
6.668659e-08
6.7168998e-08
6.7670886e-08
6.8202128e-08
6.8778785e-08
6.9418428e-08
6.9996383e-08
7.0480598e-08
7.0869223e-08
7.1159032e-08
7.1340474e-08
7.1394274e-08
7.1281309e-08
7.0894367e-08
5.774674e-08
5.7926256e-08
5.8132215e-08
5.8362632e-08
5.8615281e-08
5.888779e-08
5.9177757e-08
5.9482891e-08
5.9801155e-08
6.013096e-08
6.0471427e-08
6.082279e-08
6.1187013e-08
6.1568748e-08
6.1976687e-08
6.2425282e-08
6.293493e-08
6.3400542e-08
6.3792398e-08
6.4109075e-08
6.4347995e-08
6.4501196e-08
6.455202e-08
6.4465334e-08
6.4145032e-08
5.5519291e-08
5.565808e-08
5.5818205e-08
5.5998356e-08
5.6197008e-08
5.6412499e-08
5.6643103e-08
5.6887133e-08
5.7143058e-08
5.740965e-08
5.7686212e-08
5.7972931e-08
5.8271452e-08
5.8585779e-08
5.8923627e-08
5.9298257e-08
5.9729497e-08
6.0127147e-08
6.0463508e-08
6.0737146e-08
6.0945352e-08
6.1080471e-08
6.1126522e-08
6.1049456e-08
6.0759022e-08
5.4868308e-08
5.4983355e-08
5.5116834e-08
5.5267825e-08
5.5435205e-08
5.5617702e-08
5.5813963e-08
5.602263e-08
5.6242434e-08
5.6472321e-08
5.6711653e-08
5.6960522e-08
5.7220272e-08
5.7494348e-08
5.7789593e-08
5.8118112e-08
5.8498615e-08
5.8851866e-08
5.9152177e-08
5.9397842e-08
5.9585649e-08
5.970764e-08
5.9747718e-08
5.9671884e-08
5.9389179e-08
5.5175691e-08
5.5275856e-08
5.5392598e-08
5.5525219e-08
5.567282e-08
5.5834356e-08
5.6008689e-08
5.6194659e-08
5.6391158e-08
5.6597251e-08
5.6812339e-08
5.7036446e-08
5.7270682e-08
5.7518016e-08
5.7784505e-08
5.8081095e-08
5.8425124e-08
5.8746045e-08
5.9020179e-08
5.9245371e-08
5.941771e-08
5.9528618e-08
5.956141e-08
5.9481395e-08
5.9196678e-08
5.6041044e-08
5.6130773e-08
5.623567e-08
5.6355167e-08
5.6488503e-08
5.6634778e-08
5.6793009e-08
5.6962182e-08
5.7141332e-08
5.7329637e-08
5.7526567e-08
5.7732122e-08
5.7947246e-08
5.8174513e-08
5.8419256e-08
5.8691264e-08
5.9006311e-08
5.930117e-08
5.955416e-08
5.9762585e-08
5.992176e-08
6.002234e-08
6.0046862e-08
5.9959647e-08
5.9666635e-08
5.720838e-08
5.7289876e-08
5.7385305e-08
5.7494181e-08
5.7615846e-08
5.7749518e-08
5.7894344e-08
5.8049458e-08
5.8214037e-08
5.8387393e-08
5.8569091e-08
5.8759154e-08
5.8958412e-08
5.9169111e-08
5.9395923e-08
5.9647504e-08
5.993796e-08
6.0210319e-08
6.0444926e-08
6.0638532e-08
6.0785666e-08
6.0876172e-08
6.0891722e-08
6.0795541e-08
6.0490805e-08
5.8516251e-08
5.859068e-08
5.8677885e-08
5.8777445e-08
5.8888788e-08
5.9011243e-08
5.9144092e-08
5.9286613e-08
5.943814e-08
5.9598132e-08
5.976627e-08
5.9942628e-08
6.0127966e-08
6.0324258e-08
6.0535581e-08
6.0769516e-08
6.1038494e-08
6.1290702e-08
6.1508661e-08
6.1688614e-08
6.182434e-08
6.1904861e-08
6.191093e-08
6.1804673e-08
6.1487798e-08
5.9864411e-08
5.9932521e-08
6.0012316e-08
6.010343e-08
6.0205375e-08
6.0317592e-08
6.0439492e-08
6.0570504e-08
6.0710121e-08
6.0857952e-08
6.1013806e-08
6.1177822e-08
6.1350724e-08
6.1534263e-08
6.1731993e-08
6.1950503e-08
6.2200625e-08
6.2434427e-08
6.2636968e-08
6.2804071e-08
6.2928822e-08
6.2999453e-08
6.2995763e-08
6.2878527e-08
6.2547218e-08
6.119179e-08
6.1254193e-08
6.1327267e-08
6.1410701e-08
6.1504086e-08
6.1606972e-08
6.1718897e-08
6.1839436e-08
6.1968234e-08
6.2105048e-08
6.2249811e-08
6.2402742e-08
6.2564552e-08
6.2736822e-08
6.2922644e-08
6.3127685e-08
6.3361253e-08
6.3577964e-08
6.3765986e-08
6.3920822e-08
6.4034941e-08
6.4095857e-08
6.4082524e-08
6.3954416e-08
6.3607674e-08
6.2462187e-08
6.2519459e-08
6.2586482e-08
6.2662993e-08
6.2748664e-08
6.2843141e-08
6.2946086e-08
6.3057207e-08
6.3176292e-08
6.3303235e-08
6.3438089e-08
6.358116e-08
6.3733185e-08
6.3895637e-08
6.4071188e-08
6.4264576e-08
6.4483202e-08
6.4683633e-08
6.485772e-08
6.5000692e-08
6.5104443e-08
6.5155857e-08
6.513317e-08
6.499473e-08
6.4633521e-08
6.3655261e-08
6.370796e-08
6.3769588e-08
6.3839927e-08
6.3918717e-08
6.40057e-08
6.4100647e-08
6.4203389e-08
6.431384e-08
6.443202e-08
6.4558098e-08
6.4692484e-08
6.4836019e-08
6.4990225e-08
6.5157373e-08
6.534164e-08
6.5544465e-08
6.5728603e-08
6.5888978e-08
6.6020319e-08
6.6113891e-08
6.6155994e-08
6.6124255e-08
6.5976033e-08
6.5601422e-08
6.4761201e-08
6.4809855e-08
6.4866701e-08
6.4931562e-08
6.5004245e-08
6.5084573e-08
6.5172417e-08
6.526772e-08
6.537051e-08
6.548092e-08
6.5599226e-08
6.5725982e-08
6.5862326e-08
6.6010349e-08
6.6171451e-08
6.6350699e-08
6.6531447e-08
6.6698219e-08
6.6844846e-08
6.6964703e-08
6.7048239e-08
6.7081207e-08
6.7040808e-08
6.6884041e-08
6.6501664e-08
6.5778012e-08
6.5823087e-08
6.587568e-08
6.593565e-08
6.6002862e-08
6.6077217e-08
6.6158679e-08
6.6247293e-08
6.6343191e-08
6.6446606e-08
6.6557908e-08
6.6677793e-08
6.6808127e-08
6.6953489e-08
6.7108917e-08
6.7270617e-08
6.7430978e-08
6.7581361e-08
6.7714767e-08
6.7823442e-08
6.7897115e-08
6.7921106e-08
6.7872468e-08
6.7708928e-08
6.7328725e-08
6.6710094e-08
6.6751974e-08
6.6800713e-08
6.6856206e-08
6.6918375e-08
6.6987196e-08
6.7062723e-08
6.71451e-08
6.7234565e-08
6.733144e-08
6.7436127e-08
6.7549157e-08
6.7671315e-08
6.7803514e-08
6.7943981e-08
6.8089036e-08
6.8233069e-08
6.8369298e-08
6.8490582e-08
6.8588607e-08
6.8652646e-08
6.8667731e-08
6.8610778e-08
6.8439523e-08
6.8052451e-08
6.7513665e-08
6.7552863e-08
6.7598395e-08
6.7650179e-08
6.7708173e-08
6.7772401e-08
6.7842973e-08
6.7920089e-08
6.8004033e-08
6.8095145e-08
6.8193789e-08
6.8300297e-08
6.8414901e-08
6.8537457e-08
6.8666539e-08
6.8799085e-08
6.8930502e-08
6.9054914e-08
6.9165373e-08
6.9253412e-08
6.9308107e-08
6.9314354e-08
6.9248987e-08
6.906956e-08
6.8673513e-08
6.8185218e-08
6.8222226e-08
6.8265164e-08
6.8313962e-08
6.8368603e-08
6.842914e-08
6.8495714e-08
6.8568554e-08
6.8647965e-08
6.8734284e-08
6.882782e-08
6.8928767e-08
6.9037067e-08
6.9152166e-08
6.9272583e-08
6.9395556e-08
6.9516988e-08
6.9631485e-08
6.9732316e-08
6.9811053e-08
6.9856748e-08
6.9854294e-08
6.9780537e-08
6.9592875e-08
6.9187738e-08
6.8721886e-08
6.8757129e-08
6.8797991e-08
6.8844413e-08
6.8896388e-08
6.8953981e-08
6.9017347e-08
6.9086726e-08
6.916243e-08
6.9244784e-08
6.9334049e-08
6.9430325e-08
6.9533402e-08
6.9642533e-08
6.9756149e-08
6.987156e-08
6.9984869e-08
7.0090918e-08
7.0183157e-08
7.0253263e-08
7.0290378e-08
7.027952e-08
7.0197718e-08
7.0002543e-08
6.9590202e-08
6.9114746e-08
6.9148581e-08
6.9187801e-08
6.9232361e-08
6.9282256e-08
6.9337542e-08
6.9398362e-08
6.9464961e-08
6.9537652e-08
6.9616757e-08
6.9702498e-08
6.9794917e-08
6.9893734e-08
6.9998113e-08
7.0106413e-08
7.0215846e-08
7.0322495e-08
7.0421312e-08
7.05059e-08
7.0568086e-08
7.0597168e-08
7.0578418e-08
7.0489274e-08
7.0287993e-08
6.9871898e-08
6.934428e-08
6.9377006e-08
6.9414938e-08
6.9458075e-08
6.9506404e-08
6.9559944e-08
6.9618787e-08
6.9683177e-08
6.9753456e-08
6.9829967e-08
6.9912885e-08
7.0002233e-08
7.0097756e-08
7.0198632e-08
7.030326e-08
7.0408374e-08
7.0509777e-08
7.0602529e-08
7.0680458e-08
7.0735571e-08
7.0757362e-08
7.0731494e-08
7.0636063e-08
7.0430426e-08
7.0013991e-08
6.9366971e-08
6.9398839e-08
6.9435742e-08
6.9477802e-08
6.952501e-08
6.9577296e-08
6.9634641e-08
6.9697298e-08
6.9765714e-08
6.984032e-08
6.9921135e-08
7.0008239e-08
7.0101614e-08
7.0200743e-08
7.0304879e-08
7.0408408e-08
7.0506221e-08
7.0594234e-08
7.0666843e-08
7.0716041e-08
7.0731568e-08
7.0699676e-08
7.0599576e-08
7.0392844e-08
6.9987543e-08
6.9049811e-08
6.9081013e-08
6.9116968e-08
6.9158091e-08
6.9204418e-08
6.9255742e-08
6.9311849e-08
6.9373045e-08
6.9440065e-08
6.9513551e-08
6.9592974e-08
6.9678633e-08
6.9775105e-08
6.9875795e-08
6.999311e-08
7.010336e-08
7.0198877e-08
7.0283766e-08
7.0354082e-08
7.0399207e-08
7.0409903e-08
7.0373499e-08
7.027124e-08
7.0069383e-08
6.9694844e-08
)
;

boundaryField
{
    Walls
    {
        type            nutUWallFunction;
        Cmu             0.09;
        kappa           0.41;
        E               9.8;
        value           uniform 0;
    }
    Inlet
    {
        type            calculated;
        value           nonuniform List<scalar> 3(3.3292424e-05 2.2531773e-05 7.9131084e-07);
    }
    Outlet
    {
        type            calculated;
        value           nonuniform List<scalar> 
86
(
6.8968082e-08
6.8972778e-08
6.8983327e-08
6.9001792e-08
6.9023169e-08
6.9049811e-08
6.9081013e-08
6.9116968e-08
6.9158091e-08
6.9204418e-08
6.9255742e-08
6.9311849e-08
6.9373045e-08
6.9440065e-08
6.9513551e-08
6.9592974e-08
6.9678633e-08
6.9775105e-08
6.9875795e-08
6.999311e-08
7.010336e-08
7.0198877e-08
7.0283766e-08
7.0354082e-08
7.0399207e-08
7.0409903e-08
7.0373499e-08
7.027124e-08
7.0069383e-08
6.9694844e-08
1.4336123e-05
1.4887489e-05
1.3472908e-05
0
0
0
0
4.8189755e-06
4.814183e-06
4.3321942e-06
0
0
0
0
0
1.8670833e-06
1.635636e-06
1.3939521e-06
1.1510995e-06
9.1733285e-07
7.0538524e-07
5.2347437e-07
3.7774944e-07
2.6794795e-07
1.8993847e-07
1.3745662e-07
1.0378138e-07
8.3073748e-08
7.0894367e-08
6.4145032e-08
6.0759022e-08
5.9389179e-08
0
0
0
0
0
0
0
0
0
0
0
0
0
0
0
0
0
0
0
0
0
0
1.321054e-05
1.4849105e-05
)
;
    }
    Front
    {
        type            wedge;
    }
    Back
    {
        type            wedge;
    }
    defaultFaces
    {
        type            empty;
    }
}


// ************************************************************************* //
