/*--------------------------------*- C++ -*----------------------------------*\
| =========                 |                                                 |
| \\      /  F ield         | OpenFOAM: The Open Source CFD Toolbox           |
|  \\    /   O peration     | Version:  4.0                                   |
|   \\  /    A nd           | Web:      www.OpenFOAM.org                      |
|    \\/     M anipulation  |                                                 |
\*---------------------------------------------------------------------------*/
FoamFile
{
    version     2.0;
    format      ascii;
    class       volScalarField;
    location    "0.69";
    object      omega;
}
// * * * * * * * * * * * * * * * * * * * * * * * * * * * * * * * * * * * * * //

dimensions      [0 0 -1 0 0 0 0];

internalField   nonuniform List<scalar> 
1740
(
68.411256
699.48513
14920.931
179.41066
1505.4936
15030.922
305.55037
1997.6049
15116.188
417.52735
2300.1279
15200.471
538.43662
2577.3038
15273.528
644.16348
2789.1233
15321.356
749.35134
2987.78
15375.892
864.72288
3266.118
15422.574
967.48681
3478.3227
15446.03
1072.9803
3545.6247
15471.867
1157.4982
3637.778
15497.887
1262.2882
3772.313
15515.743
1349.3707
3842.645
15524.031
1418.5533
3894.1056
15536.47
1487.4573
4019.1086
15551.083
1544.4746
4031.8122
15550.995
1605.7426
3984.5875
15559.93
1679.065
4037.5633
15567.636
1722.8325
4066.6271
15563.624
1760.4783
4064.5023
15566.981
1801.7965
4065.7695
15580.648
1843.774
4149.2381
15583.658
1873.7881
4226.621
15580.623
1906.5941
4270.8852
15575.786
1922.5987
4243.871
15574.948
1947.0033
4194.2125
15575.041
1964.5002
4199.9015
15570.552
2006.5423
4225.3168
15567.417
2033.7459
4226.3528
15560.318
2152.077
4299.18
15502.257
3210.8139
4568.5687
10736.833
3340.5793
4237.451
5929.2709
1574.3336
1860.7064
2155.5912
825.27405
900.232
958.60554
478.58337
496.59952
506.58276
300.67112
304.34442
304.37198
201.06769
201.36463
199.9015
141.55582
141.2188
139.95782
104.07833
103.73938
102.88849
79.410811
79.173772
78.646277
62.55772
62.408876
62.09299
50.672252
50.582752
50.396482
42.068046
42.015282
41.906251
35.714334
35.683495
35.619876
30.961924
30.94391
30.906714
27.388444
27.377791
27.355738
24.708453
24.701922
24.688335
22.719906
22.715624
22.70662
21.271847
21.268764
21.26217
20.245266
20.242836
20.237513
19.542546
19.540521
19.535943
19.081884
19.080191
19.076153
18.792121
18.790699
18.787086
18.601789
18.600328
18.59686
18.458201
18.456759
18.453471
18.342824
18.341471
18.33841
18.244434
18.243184
18.240351
18.155353
18.15421
18.151601
18.070278
18.06925
18.066868
17.985429
17.984529
17.982385
17.898033
17.897274
17.89538
17.806005
17.805387
17.803742
17.707517
17.707023
17.705607
17.600266
17.59987
17.598649
17.480531
17.480203
17.479141
17.34227
17.341988
17.341054
17.176432
17.176181
17.175347
16.970453
16.970222
16.969472
16.707867
16.707653
16.706972
16.367977
16.367777
16.367157
15.925616
15.925429
15.924863
15.351141
15.350961
15.35044
14.611105
14.610913
14.610419
13.680519
13.68034
13.679897
12.524724
12.524566
12.524175
11.112381
11.112237
11.111882
9.4210887
9.4209407
9.4205836
7.4435646
7.443395
7.4430011
5.1957817
5.1956042
5.1952637
2.7286412
2.7285538
2.7291006
13482.86
13537.03
5998.643
5336.4517
2084.1205
1881.4137
922.3238
853.50221
489.99774
463.038
296.12741
284.15179
195.56675
189.80997
137.58896
134.6486
101.55865
99.980723
77.887119
77.010188
61.655515
61.15668
50.142863
49.854986
41.758724
41.5913
35.533907
35.436161
30.856372
30.798909
27.325735
27.291196
24.669642
24.647738
22.693975
22.678698
21.252632
21.240624
20.229548
20.219079
19.528833
19.519127
19.069624
19.060419
18.781045
18.772351
18.591217
18.583145
18.448216
18.440732
18.333531
18.326571
18.235819
18.229319
18.147392
18.141303
18.06297
18.057262
17.9788
17.973464
17.892113
17.887151
17.800793
17.796214
17.702965
17.698776
17.596294
17.59249
17.477045
17.47361
17.339184
17.336092
17.173675
17.170892
16.967969
16.965459
16.705615
16.703343
16.365928
16.363866
15.923749
15.921876
15.349432
15.347737
14.609506
14.607984
13.679087
13.677739
12.523465
12.52228
11.111244
11.110197
9.4199682
9.4190263
7.4424028
7.4416083
5.1954029
5.1950889
2.7382792
2.7392181
12058.189
2043.3425
696.59261
369.1371
281.29489
257.05888
249.9198
246.88157
244.54157
242.15484
239.64153
236.90128
234.07635
231.17703
228.16896
224.98773
221.51945
217.56719
212.79702
206.65347
198.21424
185.92679
167.10027
136.72185
82.920362
12058.133
2037.4356
697.81204
374.71373
283.2173
254.36197
242.82345
235.61581
229.51832
223.73456
218.06788
212.45237
206.95716
201.56235
196.24669
190.9818
185.71087
180.3295
174.64985
168.34884
160.87484
151.26125
137.71315
116.5373
78.286918
12058.179
2030.5984
718.64895
430.66766
359.2547
332.31973
314.95811
300.47323
287.24997
274.71616
262.75412
251.17874
240.21686
229.76955
219.77514
210.21968
201.0822
192.31636
183.82112
175.41778
166.79267
157.36483
145.9306
129.53815
98.879862
12058.526
2031.8393
817.54602
608.72447
549.83417
512.63125
479.62343
449.12748
421.16024
394.86275
370.20291
347.21268
326.02208
306.17372
287.52609
270.08534
253.83884
238.75438
224.77672
211.81437
199.72663
188.28772
177.05902
164.86435
146.47071
12061.532
2151.0425
1232.5933
1078.5713
989.75344
906.87588
828.37155
756.97121
693.07459
633.94685
579.59461
529.96479
485.88007
445.58875
408.61012
374.94576
344.45627
316.96976
292.30474
270.26698
250.66026
233.30985
218.10265
205.2122
195.71522
12087.289
3824.8447
2810.9959
2405.897
2096.8462
1827.4488
1591.8185
1388.2849
1212.147
1060.1847
929.29103
816.62302
719.63935
635.91474
563.52617
500.95981
446.91589
400.26189
360.02087
325.35741
295.56293
270.0631
248.45398
230.83153
218.4303
10367.431
7908.1235
6102.3077
4791.8505
3821.0474
3084.8957
2515.1261
2067.6044
1712.5847
1428.7383
1200.1992
1015.0614
864.34921
741.13863
639.94287
556.40091
487.06719
429.23605
380.78789
340.05969
305.74527
276.83875
252.62508
232.98433
219.1948
4094.5733
3309.9056
2845.4204
2469.3502
2149.3951
1868.3633
1623.2862
1411.4729
1229.9404
1074.3489
940.87299
826.08494
727.01111
641.49348
567.68881
504.00201
449.05586
401.67307
360.85103
325.73827
295.61687
269.90743
248.19651
230.55995
218.18292
1594.8514
1400.0914
1269.7444
1161.3976
1059.0795
961.74883
873.08058
793.99017
721.90847
656.60475
598.21825
546.57059
499.131
455.78883
416.42035
380.83001
348.78809
320.06199
294.41988
271.64549
251.54138
233.94018
218.73215
206.07121
196.91554
770.91644
707.59113
661.32002
620.71949
580.35089
540.21095
502.63131
467.98309
435.86386
406.2454
379.17398
354.37177
331.15543
309.42721
289.17816
270.39649
253.05296
237.10644
222.50663
209.19027
197.06445
185.96471
175.52705
164.69732
148.69581
433.62517
409.79696
391.03967
373.78941
356.02861
337.72413
319.84103
302.81238
286.71779
271.61086
257.5016
244.26728
231.70174
219.76278
208.47989
197.85089
187.86949
178.51534
169.74437
161.46596
153.48881
145.38741
136.13733
122.97248
96.810208
271.76814
261.31553
252.62486
244.43087
235.88478
226.91897
217.89473
209.07453
200.5809
192.4725
184.75846
177.39089
170.29864
163.4605
156.88928
150.58981
144.55389
138.75202
133.11814
127.51768
121.67985
115.04813
106.42761
93.057535
67.444793
183.98457
178.89109
174.4661
170.21983
165.78061
161.08119
156.25504
151.44311
146.73494
142.17724
137.78135
133.5294
129.39342
125.35928
121.42326
117.57683
113.79856
110.04405
106.22967
102.20285
97.686114
92.1693
84.688945
73.292014
52.850653
131.695
129.03697
126.64792
124.32421
121.89497
119.31357
116.62832
113.9095
111.21189
108.56778
105.98728
103.46363
100.98255
98.53125
96.097528
93.663023
91.196251
88.643712
85.916501
82.869272
79.268456
74.751532
68.80868
60.962949
51.600944
98.397906
96.939629
95.595902
94.277191
92.901374
91.438045
89.903104
88.330478
86.751047
85.184595
83.63816
82.108113
80.584352
79.053641
77.499051
75.896225
74.20819
72.378597
70.322536
67.914881
64.979388
61.29353
56.662886
51.237279
46.455969
76.127979
75.299837
74.522402
73.755094
72.957273
72.110052
71.217034
70.29353
69.355609
68.413884
67.471832
66.525677
65.565946
64.578571
63.544105
62.435308
61.213414
59.823359
58.187943
56.201919
53.729878
50.619627
46.76302
42.278939
37.451164
60.651989
60.171096
59.713769
59.260987
58.792142
58.295522
57.77046
57.222938
56.660207
56.086856
55.502878
54.90327
54.278124
53.612604
52.886134
52.070554
51.127408
50.004439
48.631341
46.914998
44.734578
41.934784
38.299413
33.387275
25.332619
49.56182
49.279256
49.008202
48.739725
48.462841
48.170293
47.859915
47.533064
47.191923
46.837032
46.465845
46.071966
45.644747
45.168831
44.623285
43.980087
43.201966
42.239514
41.027272
39.477976
37.472397
34.835954
31.2708
26.124029
17.477723
41.419782
41.253086
41.092359
40.933293
40.769828
40.59718
40.412753
40.215592
40.004961
39.778852
39.532866
39.259446
38.947339
38.5809
38.139238
37.594923
36.912132
36.044031
34.928904
33.483754
31.592205
29.078405
25.644267
20.701911
12.852838
35.335477
35.237027
35.141758
35.047494
34.950651
34.847866
34.736457
34.614288
34.478962
34.326864
34.152341
33.94701
33.699141
33.392979
33.007902
32.517258
31.886742
31.072041
30.015256
28.639033
26.836166
24.449786
21.23302
16.759032
10.152707
30.739339
30.680695
30.623585
30.566783
30.507976
30.444527
30.373833
30.293149
30.19911
30.087127
29.950723
29.78094
29.565747
29.289394
28.931617
28.466618
27.861657
27.075074
26.053352
24.726619
23.00155
20.749995
17.79016
13.853998
8.4734993
27.254985
27.218817
27.183007
27.146693
27.1082
27.065306
27.015445
26.955573
26.8818
26.788925
26.669948
26.515532
26.313461
26.048048
25.699424
25.242662
24.646618
23.87241
22.871304
21.581806
19.925737
17.803332
15.087822
11.621546
7.1944868
24.624227
24.599995
24.575134
24.54888
24.519849
24.486067
24.444996
24.393422
24.327149
24.240632
24.126521
23.975226
23.774421
23.508505
23.157993
22.698793
22.101322
21.329446
20.339184
19.07721
17.479274
15.46907
12.958575
9.8528099
6.0314213
22.66162
22.643124
22.623076
22.600743
22.574854
22.543559
22.504348
22.453906
22.387853
22.300408
22.183998
22.028849
21.822547
21.549573
21.190788
20.722862
20.11765
19.341546
18.354896
17.111586
15.559055
13.639199
11.290895
8.4575324
5.0920504
21.226495
21.210302
21.191731
21.170037
21.143978
21.111755
21.070871
21.017947
20.948476
20.856499
20.73426
20.571821
20.356679
20.073367
19.703036
19.223027
18.606454
17.821899
16.833364
15.60067
14.080569
12.228915
10.00436
7.3772089
4.352152
20.206147
20.190584
20.171944
20.149435
20.121822
20.087315
20.043408
19.986672
19.912489
19.814749
19.685511
19.514657
19.289555
18.994741
18.611611
18.1181
17.488417
16.692954
15.698628
14.46989
12.970643
11.167382
9.0338207
6.5597235
3.7749543
19.506659
19.491095
19.471889
19.4482
19.41878
19.38183
19.334822
19.274271
19.195457
19.092112
18.95609
18.77704
18.542136
18.235859
17.839817
17.332533
16.689226
15.881778
14.879335
13.64978
12.162308
10.39138
8.3222247
5.9602081
3.36723
19.048241
19.032625
19.012945
18.988313
18.957455
18.918552
18.869043
18.80538
18.722738
18.614676
18.472801
18.286451
18.042492
17.725262
17.316591
16.795704
16.13891
15.319391
14.307921
13.074771
11.592871
9.8424366
7.8171334
5.5328999
3.0611666
18.760636
18.745342
18.725776
18.700993
18.669666
18.629925
18.579155
18.513732
18.428707
18.317447
18.171245
17.979
17.727079
17.399517
16.978399
16.443947
15.773959
14.942889
13.922589
12.684794
11.204865
9.4669311
7.4704884
5.2394118
2.8651329
18.572264
18.558031
18.539723
18.516345
18.486509
18.448266
18.398904
18.334675
18.250465
18.139384
17.99231
17.79747
17.540337
17.204175
16.771102
16.22288
15.539915
14.698218
13.670108
12.42793
10.948421
9.2181879
7.2403419
5.0431692
2.723846
18.430641
18.417412
18.400321
18.378361
18.350131
18.31367
18.266257
18.20414
18.12221
18.013598
17.869217
17.677256
17.422704
17.08691
16.648126
16.087803
15.392638
14.541851
13.50765
12.262258
10.783044
9.0581481
7.0929587
4.9177557
2.6296672
18.31715
18.30474
18.288611
18.267756
18.240768
18.205691
18.15981
18.099394
18.019366
17.912918
17.771045
17.582053
17.331038
16.999427
16.564661
16.001894
15.298058
14.440911
13.403005
12.156117
10.677855
8.9572947
7.0012417
4.8413481
2.5755757
18.220465
18.208723
18.193362
18.173371
18.147351
18.113353
18.068682
18.009639
17.931198
17.826626
17.687027
17.500845
17.253335
16.92607
16.496582
15.938504
15.231998
14.37236
13.333519
12.087028
10.610646
8.8939945
6.9445825
4.7947594
2.5437581
18.132937
18.121754
18.107017
18.08772
18.062468
18.029329
17.985633
17.92772
17.850628
17.74771
17.610197
17.426689
17.182625
16.859766
16.435795
15.884244
15.179923
14.321483
13.284265
12.039874
10.566256
8.8533093
6.9086641
4.7650868
2.5333919
18.049336
18.03864
18.024436
18.005718
17.981105
17.948682
17.905812
17.848881
17.772998
17.671613
17.536087
17.35519
17.114553
16.796138
16.377813
15.83327
15.134014
14.279506
13.245857
12.004887
10.534779
8.8255774
6.8845889
4.7435701
2.5140171
17.965956
17.955713
17.941995
17.923804
17.899774
17.868014
17.825926
17.769948
17.695262
17.595419
17.46191
17.283662
17.046495
16.732561
16.319887
15.782205
15.089999
14.241189
13.212419
11.975785
10.509773
8.8045584
6.8670532
4.728041
2.5003271
17.880064
17.870279
17.857056
17.839411
17.815996
17.784955
17.743726
17.688807
17.615446
17.517288
17.385936
17.210455
16.976832
16.667404
16.260375
15.729572
15.045268
14.203133
13.180008
11.948305
10.486851
8.7860145
6.8525292
4.717057
2.4962091
17.789571
17.780282
17.767616
17.750606
17.727928
17.697757
17.657572
17.60392
17.532108
17.435852
17.306841
17.134252
16.904211
16.599233
16.197727
15.673724
14.997554
14.162561
13.145496
11.919113
10.4626
8.766505
6.8374121
4.705671
2.4783469
17.692605
17.683872
17.671858
17.655614
17.633839
17.604738
17.565822
17.513671
17.443637
17.349479
17.222951
17.053309
16.826797
16.526099
16.129855
15.612383
14.944254
14.116549
13.10577
11.885054
10.433959
8.7432136
6.8192351
4.6918202
2.4571316
17.586812
17.578689
17.567416
17.552061
17.531342
17.503483
17.466016
17.415541
17.347431
17.255475
17.131462
16.964713
16.741573
16.44489
16.053555
15.542231
14.881868
14.061446
13.057159
11.842563
10.397635
8.7133821
6.7962907
4.6759773
2.4478139
17.468428
17.460942
17.450461
17.436067
17.416491
17.389965
17.35403
17.305293
17.239135
17.149359
17.02778
16.863771
16.643772
16.350798
15.964001
15.458434
14.805526
13.992405
12.99496
11.787202
10.349574
8.6734849
6.7657208
4.6556235
2.4350907
17.331386
17.324528
17.31484
17.301412
17.282982
17.257784
17.223359
17.176313
17.112026
17.024309
16.905002
16.743527
16.526424
16.236878
15.854323
15.35423
14.708575
13.902983
12.913049
11.713274
10.28461
8.6189427
6.7236778
4.6294494
2.4277628
17.166625
17.160355
17.151415
17.138902
17.121554
17.097605
17.064589
17.019109
16.956547
16.870722
16.7535
16.594367
16.379968
16.093678
15.71523
15.220548
14.582212
13.784769
12.803521
11.613506
10.196222
8.5440252
6.6647747
4.5901408
2.4132036
16.961584
16.955844
16.947582
16.935898
16.919531
16.896711
16.86497
16.820909
16.759913
16.675821
16.560541
16.403633
16.191873
15.908848
15.534628
15.045641
14.415141
13.62705
12.656369
11.478754
10.076332
8.442002
6.5840521
4.5343911
2.3852755
16.699814
16.694542
16.686881
16.675934
16.660441
16.638632
16.608038
16.565267
16.505721
16.423273
16.30989
16.155234
15.946243
15.666749
15.29722
14.814677
14.193246
13.416503
12.459199
11.297754
9.9150658
8.3047299
6.4756273
4.4597461
2.3470556
16.360642
16.355785
16.348659
16.338373
16.323669
16.302783
16.273254
16.23171
16.173585
16.092808
15.981439
15.829273
15.623442
15.348065
14.98409
14.509171
13.899318
13.136974
12.197034
11.056925
9.7005106
8.1222261
6.3315535
4.3601761
2.2948369
15.91893
15.914455
15.907823
15.898154
15.884199
15.864206
15.835739
15.795457
15.738854
15.659948
15.55093
15.401777
15.199843
14.92951
14.572446
14.1068
13.513041
12.769448
11.852278
10.740352
9.4187292
7.8827813
6.142444
4.2284154
2.2231795
15.345057
15.340952
15.33481
15.325762
15.312578
15.293531
15.266224
15.227376
15.172572
15.09596
14.989925
14.844698
14.647864
14.383804
14.03623
13.585881
13.011955
12.292392
11.404949
10.330017
9.054023
7.5733339
5.898262
4.0585457
2.1322261
14.605572
14.601854
14.596236
14.587871
14.575556
14.557606
14.531687
14.49461
14.442092
14.368477
14.266425
14.126589
13.937296
13.684356
13.351518
12.92041
12.370956
11.682112
10.833222
9.8063762
8.5895102
7.1800305
5.588423
3.8429881
2.017004
13.675587
13.67224
13.667128
13.659435
13.648007
13.631225
13.606854
13.57185
13.522132
13.452323
13.35547
13.222762
13.043281
12.803862
12.489181
12.081951
11.56334
10.91381
10.114505
9.1493848
8.0080396
6.6889633
5.2027242
3.5759815
1.8762494
12.52038
12.5174
12.512803
12.505823
12.495368
12.479915
12.457368
12.424884
12.378666
12.313716
12.223584
12.100129
11.933311
11.711079
11.41939
11.04242
10.563016
9.9635472
9.2272495
8.3401609
7.2936357
6.0872217
4.7313063
3.2503688
1.7050978
11.108541
11.10594
11.101912
11.095763
11.086485
11.072669
11.052391
11.023078
10.981313
10.92261
10.841164
10.72966
10.579127
10.378834
10.116341
9.7776597
9.3477086
8.8111392
8.1535792
7.3633328
6.433572
5.3648038
4.1669697
2.8618927
1.5020301
9.4176203
9.415426
9.4120541
9.4069532
9.3992182
9.3875453
9.3701856
9.3449075
9.3088193
9.2581188
9.18779
9.0915245
8.9616426
8.7889427
8.5629527
8.2719164
7.9031892
7.4440519
6.8828012
6.210129
5.4209642
4.5166133
3.5063265
2.4089683
1.267333
7.4405886
7.4388649
7.4362376
7.4324713
7.4268107
7.4180114
7.4044326
7.3842746
7.3553968
7.3149481
7.2587226
7.1815926
7.0774301
6.9386195
6.7570966
6.5238068
6.22886
5.8625716
5.4161377
4.8825372
4.2582071
3.5450294
2.7512145
1.8919316
0.99904426
5.1949314
5.193866
5.1920318
5.1897851
5.1866342
5.1813842
5.1724437
5.15858
5.1387416
5.1113783
5.0727151
5.019029
4.9461888
4.8477731
4.7186184
4.552946
4.343468
4.0851247
3.772008
3.3980199
2.960959
2.4631266
1.911529
1.317611
0.70439199
2.7402214
2.7400128
2.7390358
2.7381229
2.7371372
2.7351914
2.7310499
2.7241755
2.7146627
2.7022906
2.6834898
2.6564061
2.6296239
2.5770626
2.5065706
2.416111
2.2982371
2.1602962
1.9977694
1.7997505
1.5671172
1.3024713
1.0110702
0.70041035
0.38432611
)
;

boundaryField
{
    Walls
    {
        Cmu             0.09;
        kappa           0.41;
        E               9.8;
        beta1           0.075;
        type            omegaWallFunction;
        value           nonuniform List<scalar> 
38
(
12058.189
12058.133
12058.179
12058.526
12061.532
12087.289
13482.86
13537.03
14920.931
15030.922
15116.188
15200.471
15273.528
15321.356
15375.892
15422.574
15446.03
15471.867
15497.887
15515.743
15524.031
15536.47
15551.083
15550.995
15559.93
15567.636
15563.624
15566.981
15580.648
15583.658
15580.623
15575.786
15574.948
15575.041
15570.552
15567.417
15560.318
15502.257
)
;
    }
    Inlet
    {
        type            turbulentMixingLengthDissipationRateInlet;
        mixingLength    0.03;
        phi             phi;
        k               k;
        value           nonuniform List<scalar> 3(0.0040316843 0.0042718842 0.0051043003);
    }
    Outlet
    {
        type            inletOutlet;
        inletValue      uniform 1e-05;
        value           nonuniform List<scalar> 
86
(
2.7286412
2.7285538
2.7291006
2.7382792
2.7392181
2.7402214
2.7400128
2.7390358
2.7381229
2.7371372
2.7351914
2.7310499
2.7241755
2.7146627
2.7022906
2.6834898
2.6564061
2.6296239
2.5770626
2.5065706
2.416111
2.2982371
2.1602962
1.9977694
1.7997505
1.5671172
1.3024713
1.0110702
0.70041035
0.38432611
219.1948
218.18292
196.91554
1e-05
1e-05
1e-05
1e-05
51.600944
46.455969
37.451164
1e-05
1e-05
1e-05
1e-05
1e-05
7.1944868
6.0314213
5.0920504
4.352152
3.7749543
3.36723
3.0611666
2.8651329
2.723846
2.6296672
2.5755757
2.5437581
2.5333919
2.5140171
2.5003271
2.4962091
2.4783469
1e-05
1e-05
1e-05
1e-05
1e-05
1e-05
1e-05
1e-05
1e-05
1e-05
1e-05
1e-05
1e-05
1e-05
1e-05
1e-05
1e-05
1e-05
1e-05
1e-05
1e-05
1e-05
195.71522
218.4303
)
;
    }
    Front
    {
        type            wedge;
    }
    Back
    {
        type            wedge;
    }
    defaultFaces
    {
        type            empty;
    }
}


// ************************************************************************* //
