/*--------------------------------*- C++ -*----------------------------------*\
| =========                 |                                                 |
| \\      /  F ield         | OpenFOAM: The Open Source CFD Toolbox           |
|  \\    /   O peration     | Version:  4.0                                   |
|   \\  /    A nd           | Web:      www.OpenFOAM.org                      |
|    \\/     M anipulation  |                                                 |
\*---------------------------------------------------------------------------*/
FoamFile
{
    version     2.0;
    format      ascii;
    class       surfaceScalarField;
    location    "0.69";
    object      phi;
}
// * * * * * * * * * * * * * * * * * * * * * * * * * * * * * * * * * * * * * //

dimensions      [0 3 -1 0 0 0 0];

internalField   nonuniform List<scalar> 
3364
(
3.9866864e-11
1.6469963e-08
-8.5795001e-10
4.9521208e-08
8.6258695e-08
-5.0109568e-11
1.6520071e-08
-1.7858265e-09
5.1256955e-08
8.4472903e-08
-3.3719618e-10
1.6857248e-08
-9.5985869e-10
5.1879689e-08
8.351306e-08
6.9540171e-11
1.6787657e-08
-6.7042791e-10
5.2619648e-08
8.2842602e-08
5.4401068e-10
1.624361e-08
-9.225169e-10
5.4086093e-08
8.1920025e-08
1.3023887e-10
1.6113348e-08
1.0795472e-10
5.410831e-08
8.2027926e-08
-2.4846081e-10
1.6361778e-08
1.1942321e-09
5.2665559e-08
8.3222102e-08
-2.3003085e-10
1.6591803e-08
6.0452506e-10
5.1830957e-08
8.3826601e-08
-5.235925e-10
1.7115379e-08
-3.4605702e-10
5.1653425e-08
8.3480542e-08
-7.7912238e-10
1.7894448e-08
2.4526564e-10
5.062901e-08
8.3725796e-08
-4.5893124e-11
1.7940305e-08
6.7186955e-10
4.991118e-08
8.4397624e-08
6.6775351e-10
1.727253e-08
5.6485087e-10
5.001403e-08
8.4962435e-08
5.0375004e-10
1.676875e-08
5.1042156e-10
5.0007341e-08
8.5472833e-08
7.2106127e-11
1.6696601e-08
-1.8381821e-10
5.0263219e-08
8.5288967e-08
-2.5135409e-11
1.6721694e-08
-1.8927797e-09
5.2130799e-08
8.3396136e-08
3.981756e-11
1.6681833e-08
-1.2163212e-09
5.3386912e-08
8.2179787e-08
-8.9729754e-11
1.6771524e-08
1.0631386e-09
5.2233997e-08
8.3242893e-08
-3.5427304e-10
1.7125778e-08
1.0438257e-09
5.0835856e-08
8.4286678e-08
3.0225235e-11
1.7095542e-08
7.1363842e-10
5.0152428e-08
8.5000285e-08
4.429194e-10
1.6652585e-08
7.9891284e-10
4.9796384e-08
8.5799157e-08
-4.2045172e-11
1.6694587e-08
7.9449796e-10
4.8959755e-08
8.6593582e-08
-2.3410898e-10
1.6928663e-08
9.7352389e-10
4.7752049e-08
8.7567042e-08
2.1952524e-10
1.6709084e-08
-6.5283822e-10
4.8624392e-08
8.6914187e-08
1.1022726e-10
1.6598811e-08
-2.6691453e-09
5.1403775e-08
8.4245037e-08
-7.2669571e-11
1.6671431e-08
-2.4360779e-09
5.3767156e-08
8.1808924e-08
-4.0083392e-10
1.7072228e-08
-4.0959912e-10
5.3775867e-08
8.1399274e-08
1.2599455e-10
1.6946174e-08
5.5726989e-10
5.3344526e-08
8.1956499e-08
3.6327736e-10
1.6582874e-08
4.4822728e-10
5.3259526e-08
8.2404683e-08
-3.5187549e-11
1.6618114e-08
9.3710874e-10
5.2287321e-08
8.3341799e-08
1.2193571e-09
1.5398965e-08
5.3840036e-09
4.8122817e-08
8.8725799e-08
1.1200336e-08
4.197989e-09
4.8521732e-08
1.079956e-08
1.0429129e-08
1.2681584e-07
4.7352878e-09
-5.3777086e-10
1.691666e-08
-1.3832941e-09
-1.6322343e-09
2.8976151e-08
-4.2974739e-10
-1.0798883e-10
-1.522262e-09
-2.9070718e-10
-4.8982676e-10
-2.6645678e-09
-1.108259e-10
2.8517403e-12
-3.9865046e-10
-2.8472144e-12
-7.7951031e-11
-8.1048775e-10
-7.5191286e-12
1.0372187e-11
-3.3915569e-11
2.355311e-11
4.8498998e-12
-1.1671178e-10
1.5153848e-12
8.8568955e-12
3.7004217e-12
2.1368325e-11
2.0456376e-11
-1.1905233e-11
1.9122317e-12
6.9448004e-12
6.4893765e-12
1.6791501e-11
1.9441068e-11
7.5056526e-12
2.0275582e-12
4.9174791e-12
6.5377581e-12
1.2281737e-11
1.3348119e-11
1.2631191e-11
1.7112063e-12
3.2064301e-12
5.752123e-12
8.2410915e-12
9.3130523e-12
9.7875367e-12
9.3293575e-13
2.2736256e-12
3.2018112e-12
5.9724656e-12
6.9270117e-12
5.5882081e-12
3.3940086e-13
1.9343399e-12
1.1610854e-12
5.1510179e-12
6.4407214e-12
1.6477354e-12
1.5102038e-13
1.7834137e-12
4.4207444e-13
4.8601618e-12
6.489761e-12
3.9334328e-13
1.513691e-13
1.6321146e-12
4.4420495e-13
4.5674743e-12
6.4748716e-12
4.5932428e-13
1.7635256e-13
1.4558112e-12
5.928548e-13
4.1510753e-12
6.1064046e-12
9.6148127e-13
1.8462727e-13
1.2712182e-12
6.6793679e-13
3.6678365e-12
5.5134399e-12
1.2610108e-12
1.6640643e-13
1.1048368e-12
6.366224e-13
3.1976708e-12
4.8843943e-12
1.2657448e-12
1.4296288e-13
9.6189226e-13
5.4509949e-13
2.7955707e-12
4.320393e-12
1.109157e-12
1.1989709e-13
8.4200873e-13
4.6130502e-13
2.4541894e-12
3.8421318e-12
9.3960757e-13
1.0065555e-13
7.4136323e-13
3.8804824e-13
2.1668161e-12
3.4047393e-12
8.2546988e-13
8.7209592e-14
6.5416084e-13
3.3671146e-13
1.9173275e-12
3.0240875e-12
7.1738317e-13
7.7764906e-14
5.7640087e-13
3.0154848e-13
1.6935522e-12
2.6824407e-12
6.4320749e-13
7.0500218e-14
5.0590384e-13
2.7460673e-13
1.4894501e-12
2.3681101e-12
5.8894345e-13
6.38085e-14
4.4209725e-13
2.5008157e-13
1.3031785e-12
2.0785956e-12
5.3959759e-13
5.6886379e-14
3.8521188e-13
2.2509245e-13
1.1349721e-12
1.8168018e-12
4.8688464e-13
5.037932e-14
3.3483295e-13
1.9688662e-13
9.8846309e-13
1.5807949e-12
4.3288988e-13
4.4239093e-14
2.9059381e-13
1.7368321e-13
8.590165e-13
1.3745659e-12
3.7990734e-13
3.8756793e-14
2.518367e-13
1.5147268e-13
7.4629768e-13
1.1940586e-12
3.3197434e-13
3.3336436e-14
2.1849977e-13
1.3289437e-13
6.4673658e-13
1.0370031e-12
2.8994391e-13
2.8516774e-14
1.8998244e-13
1.1301758e-13
5.6223263e-13
9.0282814e-13
2.4718666e-13
2.3991354e-14
1.6599052e-13
9.4781997e-14
4.9143901e-13
7.8986081e-13
2.0774385e-13
1.9746686e-14
1.462433e-13
7.8017667e-14
4.3316533e-13
6.9673764e-13
1.7113591e-13
1.5920468e-14
1.3032237e-13
6.2887721e-14
3.8619569e-13
6.2199719e-13
1.3762385e-13
1.2514102e-14
1.1780787e-13
4.9390142e-14
3.493176e-13
5.6377316e-13
1.076105e-13
9.3414377e-15
1.0846613e-13
3.6838846e-14
3.2181851e-13
5.2003629e-13
8.0572705e-14
6.7298116e-15
1.0173609e-13
2.6458722e-14
3.0208826e-13
4.8894266e-13
5.7549983e-14
4.5547302e-15
9.7181222e-14
1.7801204e-14
2.8884079e-13
4.6858493e-13
3.8157255e-14
2.6743241e-15
9.4506841e-14
1.0359912e-14
2.8115453e-13
4.5722413e-13
2.1719675e-14
1.1397524e-15
9.3367115e-14
4.2705689e-15
2.7802339e-13
4.5315037e-13
8.3438864e-15
-4.9601768e-17
9.3416827e-14
-4.5751046e-16
2.7843131e-13
4.5477606e-13
-2.0830842e-15
-9.1331322e-16
9.4330329e-14
-3.9007131e-15
2.8141903e-13
4.606169e-13
-9.7409353e-15
-1.4834657e-15
9.5814064e-14
-6.1943517e-15
2.8613051e-13
4.6926842e-13
-1.4844774e-14
-1.836294e-15
9.7650702e-14
-7.5592337e-15
2.9185432e-13
4.7941705e-13
-1.7706334e-14
-2.1965069e-15
9.9847624e-14
-8.8758704e-15
2.9853479e-13
4.9084213e-13
-2.029902e-14
-2.2010296e-15
1.0204914e-13
-8.8825918e-15
3.0521769e-13
5.0217169e-13
-2.0209843e-14
-2.0428955e-15
1.0409259e-13
-8.253548e-15
3.1142989e-13
5.1273972e-13
-1.8818912e-14
-1.7660156e-15
1.0585923e-13
-7.1041204e-15
3.1676973e-13
5.2181753e-13
-1.6178966e-14
-1.3758033e-15
1.072357e-13
-5.471619e-15
3.2086743e-13
5.2874901e-13
-1.2399915e-14
-8.6481043e-16
1.081012e-13
-3.4715421e-15
3.234761e-13
5.3312438e-13
-7.8436348e-15
-2.3185407e-16
1.0833373e-13
-1.2725683e-15
3.2451871e-13
5.3484052e-13
-2.985492e-15
1.7317382e-16
8.6132622e-16
1.7302068e-15
1.3647799e-07
-9.6674424e-09
-8.7988083e-09
1.4527052e-07
2.091754e-08
-1.6100302e-09
-1.5181959e-09
1.3636394e-08
-3.6936046e-09
-5.8086352e-10
-6.8674177e-10
-4.5249132e-09
-1.241258e-09
-1.500396e-10
-2.1497295e-10
-1.7129633e-09
-2.4705492e-10
-1.9685438e-11
-4.3974314e-11
-4.1803809e-10
-4.5085052e-11
1.3497179e-11
3.6246144e-12
-9.2680545e-11
4.6471804e-12
1.6356437e-11
1.1123092e-11
-2.8508029e-12
1.7995692e-11
1.0992209e-11
5.8838542e-12
2.3234847e-11
1.469113e-11
6.0888935e-12
1.402569e-12
1.9172511e-11
6.7859001e-12
4.8915991e-12
1.00709e-12
7.1817545e-12
1.1776626e-12
5.3621225e-12
3.2564091e-12
-1.07115e-12
-7.3074729e-13
6.4866116e-12
5.4212446e-12
-2.8951161e-12
-1.6083129e-13
7.107067e-12
6.8030294e-12
-1.5422603e-12
9.8474425e-13
7.0840116e-12
7.2372594e-12
5.507607e-13
1.7285985e-12
6.6165656e-12
7.005305e-12
1.96072e-12
1.8907157e-12
5.991694e-12
6.5097923e-12
2.3863452e-12
1.7235699e-12
5.3773536e-12
5.9730881e-12
2.2603586e-12
1.480728e-12
4.8362867e-12
5.431928e-12
2.0219505e-12
1.2857778e-12
4.3760167e-12
4.9499106e-12
1.7678399e-12
1.1665355e-12
3.9268895e-12
4.5051869e-12
1.6112885e-12
1.0806406e-12
3.4894712e-12
4.0806294e-12
1.5052148e-12
9.8881984e-13
3.0896019e-12
3.6353962e-12
1.43406e-12
9.0751145e-13
2.7216892e-12
3.2060502e-12
1.3368573e-12
8.2203968e-13
2.3865311e-12
2.8203775e-12
1.2077074e-12
7.3756374e-13
2.0818513e-12
2.4662596e-12
1.0916732e-12
6.5080167e-13
1.8109495e-12
2.147085e-12
9.6996585e-13
5.6789044e-13
1.5750248e-12
1.8711834e-12
8.4378032e-13
4.9396392e-13
1.3709958e-12
1.6314532e-12
7.3368205e-13
4.2355665e-13
1.194617e-12
1.4228883e-12
6.3210976e-13
3.5612525e-13
1.0462275e-12
1.2481366e-12
5.3086605e-13
2.9324834e-13
9.2410782e-13
1.1043776e-12
4.3699764e-13
2.3516658e-13
8.2655877e-13
9.8980672e-13
3.4972907e-13
1.8303703e-13
7.5112691e-13
9.0183247e-13
2.7100425e-13
1.3714802e-13
6.9454725e-13
8.3741815e-13
2.0155674e-13
9.7101851e-14
6.5499212e-13
7.9369728e-13
1.4081859e-13
6.314308e-14
6.3000404e-13
7.6759797e-13
8.9239559e-14
3.4704445e-14
6.1701792e-13
7.5510703e-13
4.719372e-14
1.1742036e-14
6.1361925e-13
7.5442585e-13
1.2422625e-14
-6.2670777e-15
6.1780349e-13
7.629459e-13
-1.4786741e-14
-1.9595855e-14
6.2765937e-13
7.7822516e-13
-3.4873816e-14
-2.8670521e-14
6.4148673e-13
7.9818454e-13
-4.8627777e-14
-3.3906565e-14
6.5768918e-13
8.2093796e-13
-5.6657101e-14
-3.6073115e-14
6.7346604e-13
8.421323e-13
-5.7263879e-14
-3.6334882e-14
6.8959437e-13
8.639547e-13
-5.8153052e-14
-3.408497e-14
7.0486419e-13
8.8446769e-13
-5.459312e-14
-2.92717e-14
7.179611e-13
9.0190805e-13
-4.6706709e-14
-2.235619e-14
7.2792186e-13
9.151359e-13
-3.5578303e-14
-1.4092117e-14
7.3417494e-13
9.2350827e-13
-2.245861e-14
-5.4164113e-15
7.3661038e-13
9.2694025e-13
-8.8426226e-15
2.6154442e-15
3.625106e-15
-8.6072813e-12
8.605609e-12
-1.8656712e-11
1.0043128e-11
-2.9758078e-11
1.1098062e-11
-4.2008403e-11
1.2251523e-11
-5.6061796e-11
1.4056664e-11
-7.2852318e-11
1.679496e-11
-9.3327825e-11
2.0480645e-11
-1.1820748e-10
2.488519e-11
-1.4783341e-10
2.9631631e-11
-1.8244826e-10
3.4620521e-11
-2.2164659e-10
3.9203824e-11
-2.6363772e-10
4.1996306e-11
-3.0661061e-10
4.2977628e-11
-3.493664e-10
4.2760014e-11
-3.9151271e-10
4.2149958e-11
-4.3275472e-10
4.1245048e-11
-4.7254011e-10
3.9787802e-11
-5.099779e-10
3.7439606e-11
-5.4423746e-10
3.42608e-11
-5.7451845e-10
3.0281762e-11
-6.0010558e-10
2.5587504e-11
-6.2047665e-10
2.0371166e-11
-6.3521571e-10
1.4738978e-11
-6.4388543e-10
8.6695588e-12
2.310579e-12
-4.6906438e-11
5.5516979e-11
-1.0387699e-10
6.7021286e-11
-1.7171105e-10
7.8940926e-11
-2.5089906e-10
9.1448784e-11
-3.4231368e-10
1.0548061e-10
-4.4714029e-10
1.2163074e-10
-5.670529e-10
1.4040212e-10
-7.0334069e-10
1.611814e-10
-8.5452748e-10
1.8082626e-10
-1.0175729e-09
1.9767309e-10
-1.1892762e-09
2.1091358e-10
-1.3678291e-09
2.2055504e-10
-1.5513814e-09
2.2653498e-10
-1.7380647e-09
2.2944767e-10
-1.9255058e-09
2.295947e-10
-2.1124956e-09
2.2823788e-10
-2.3089407e-09
2.3623522e-10
-2.4963195e-09
2.2482011e-10
-2.6668783e-09
2.0482065e-10
-2.8157498e-09
1.7915377e-10
-2.9394818e-09
1.4931936e-10
-3.0353013e-09
1.1619016e-10
-3.1007993e-09
8.0236068e-11
-3.1321421e-09
4.00111e-11
1.0262969e-11
-1.2727232e-10
1.8279911e-10
-2.8001392e-10
2.1977813e-10
-4.5954118e-10
2.5848589e-10
-6.6927625e-10
3.012022e-10
-9.1227017e-10
3.4849257e-10
-1.1909818e-09
4.0035959e-10
-1.510336e-09
4.5977216e-10
-1.9333334e-09
5.8419319e-10
-2.3908022e-09
6.3830773e-10
-2.8567925e-09
6.6367434e-10
-3.3171552e-09
6.7128562e-10
-3.763433e-09
6.6684052e-10
-4.189847e-09
6.5295521e-10
-4.5908268e-09
6.3043243e-10
-4.9604901e-09
5.9926158e-10
-5.2931552e-09
5.6090544e-10
-5.5734179e-09
5.1649925e-10
-5.81529e-09
4.6669255e-10
-6.0229498e-09
4.1247997e-10
-6.1987036e-09
3.5490627e-10
-6.3449189e-09
2.9553253e-10
-6.4622274e-09
2.3349597e-10
-6.5506595e-09
1.6866491e-10
-6.6120684e-09
1.0141635e-10
3.3664024e-11
-3.8166133e-10
5.6447865e-10
-8.128738e-10
6.5101787e-10
-1.3081258e-09
7.537678e-10
-2.1028881e-09
1.0959919e-09
-2.9624959e-09
1.2081244e-09
-3.7808872e-09
1.218771e-09
-4.5074155e-09
1.1863169e-09
-5.048255e-09
1.1250462e-09
-5.4536335e-09
1.0436972e-09
-5.7392678e-09
9.4931746e-10
-5.9197552e-09
8.5177997e-10
-6.0070975e-09
7.5418818e-10
-6.0115435e-09
6.5740544e-10
-5.9355565e-09
5.5444843e-10
-5.7952448e-09
4.5895204e-10
-5.6078971e-09
3.7355906e-10
-5.3906483e-09
2.9925114e-10
-5.1603591e-09
2.3640345e-10
-4.9329181e-09
1.850387e-10
-4.7224664e-09
1.4445376e-10
-4.5425493e-09
1.1561429e-10
-4.3992448e-09
9.019006e-11
-4.2980015e-09
6.7419817e-11
-4.242179e-09
4.5591955e-11
2.4662528e-11
-2.2460468e-09
2.8105541e-09
-4.0064195e-09
2.4114226e-09
-5.5108552e-09
2.2582346e-09
-6.1914744e-09
1.7766337e-09
-6.2590974e-09
1.2757658e-09
-5.7867848e-09
7.464735e-10
-5.0198252e-09
4.1936969e-10
-4.0243842e-09
1.2961552e-10
-2.8655926e-09
-1.150857e-10
-1.6121495e-09
-3.0411861e-10
-3.6852677e-10
-3.9183847e-10
8.6994984e-10
-4.8428959e-10
2.178549e-09
-6.5119501e-10
3.5963511e-09
-8.6335381e-10
4.9820073e-09
-9.2670265e-10
6.2954388e-09
-9.3986903e-10
7.5141015e-09
-9.194063e-10
8.6233119e-09
-8.7280003e-10
9.6128778e-09
-8.045185e-10
1.0474624e-08
-7.1728175e-10
1.120263e-08
-6.123805e-10
1.178594e-08
-4.9310645e-10
1.2214703e-08
-3.6132795e-10
1.2479739e-08
-2.1942848e-10
-6.5754479e-11
9.6383925e-10
1.8468021e-09
4.1627983e-09
-7.8748398e-10
7.8890125e-09
-1.4679084e-09
1.1590446e-08
-1.9247705e-09
1.532563e-08
-2.459393e-09
1.8989659e-08
-2.9175283e-09
2.2592618e-08
-3.1835573e-09
2.597416e-08
-3.2518898e-09
2.904411e-08
-3.1849944e-09
3.1787512e-08
-3.0474754e-09
3.4264955e-08
-2.8692325e-09
3.6438627e-08
-2.6579096e-09
3.8227383e-08
-2.4398967e-09
3.9596956e-08
-2.2328728e-09
4.0687659e-08
-2.0173507e-09
4.1550121e-08
-1.8022764e-09
4.2224196e-08
-1.5934255e-09
4.274341e-08
-1.391959e-09
4.3136899e-08
-1.197953e-09
4.343016e-08
-1.010488e-09
4.3645417e-08
-8.2758312e-10
4.3799497e-08
-6.4713242e-10
4.3904523e-08
-4.6629957e-10
4.3967647e-08
-2.8249943e-10
-8.9767759e-11
1.4943563e-07
-2.3170912e-09
1.480724e-07
5.7666583e-10
1.4548433e-07
1.1209494e-09
1.4197313e-07
1.5871318e-09
1.3738354e-07
2.1308065e-09
1.3186887e-07
2.5976625e-09
1.2580113e-07
2.8846368e-09
1.1957326e-07
2.9763614e-09
1.1345419e-07
2.9344021e-09
1.0759507e-07
2.8119362e-09
1.0206403e-07
2.6620578e-09
9.6911268e-08
2.4950751e-09
9.2166814e-08
2.3047563e-09
8.783054e-08
2.1035792e-09
8.3913176e-08
1.9001738e-09
8.0411996e-08
1.6990494e-09
7.731588e-08
1.5028242e-09
7.4611326e-08
1.3127172e-09
7.2284321e-08
1.129166e-09
7.032227e-08
9.5166847e-10
6.8715797e-08
7.7898886e-10
6.7459604e-08
6.0915335e-10
6.6554161e-08
4.3923129e-10
6.6005233e-08
2.6651365e-10
8.5174955e-11
1.2998796e-08
-1.6793698e-09
1.5372654e-08
-1.7970783e-09
1.8038401e-08
-1.5446831e-09
2.0794999e-08
-1.1693551e-09
2.3626234e-08
-7.003212e-10
2.6560831e-08
-3.3683401e-10
2.949633e-08
-5.0768812e-11
3.227432e-08
1.9845962e-10
3.4859045e-08
3.4976568e-10
3.7214537e-08
4.5653172e-10
3.9296435e-08
5.8024585e-10
4.0917813e-08
8.7378229e-10
4.2206227e-08
1.0164259e-09
4.3229912e-08
1.079975e-09
4.4031191e-08
1.0989741e-09
4.4646136e-08
1.0841814e-09
4.5108272e-08
1.0407621e-09
4.5447509e-08
9.7355203e-10
4.5689982e-08
8.8676287e-10
4.5858566e-08
7.8315226e-10
4.5972805e-08
6.6481614e-10
4.6048684e-08
5.3333773e-10
4.6097583e-08
3.9039344e-10
4.6126658e-08
2.374981e-10
7.2094924e-11
-5.315093e-09
-8.8920027e-10
-5.9992631e-09
-1.1129172e-09
-6.3411529e-09
-1.2028029e-09
-6.2682772e-09
-1.2422401e-09
-5.7364573e-09
-1.2321486e-09
-4.8928264e-09
-1.1804703e-09
-3.8390343e-09
-1.1045636e-09
-2.6293142e-09
-1.0112604e-09
-1.3724978e-09
-9.0704812e-10
-1.14349e-10
-8.0161205e-10
1.163678e-09
-6.9777395e-10
2.6255942e-09
-5.8812435e-10
4.1242661e-09
-4.8223417e-10
5.589377e-09
-3.8512203e-10
6.9865522e-09
-2.9818543e-10
8.2932242e-09
-2.2247326e-10
9.5086842e-09
-1.7467934e-10
1.0618282e-08
-1.3602553e-10
1.1609213e-08
-1.0414791e-10
1.2471456e-08
-7.9069703e-11
1.3196494e-08
-6.0199816e-11
1.3776297e-08
-4.6444152e-11
1.4203069e-08
-3.6357453e-11
1.4468198e-08
-2.7609603e-11
-1.6932342e-11
-2.3306928e-09
-2.7147101e-10
-3.1196497e-09
-3.2396203e-10
-3.9410448e-09
-3.8141211e-10
-4.7394521e-09
-4.4383949e-10
-5.4546757e-09
-5.1693359e-10
-5.985016e-09
-6.501397e-10
-6.3876607e-09
-7.0192945e-10
-6.6707154e-09
-7.2821647e-10
-6.840373e-09
-7.3740122e-10
-6.9072037e-09
-7.3479183e-10
-6.8830022e-09
-7.2198556e-10
-6.7688717e-09
-7.0226437e-10
-6.5765257e-09
-6.7458901e-10
-6.3217446e-09
-6.3991111e-10
-6.0204831e-09
-5.9945426e-10
-5.688687e-09
-5.542758e-10
-5.3567484e-09
-5.066237e-10
-5.0360031e-09
-4.5677597e-10
-4.7359731e-09
-4.0418235e-10
-4.466197e-09
-3.4884982e-10
-4.2355679e-09
-2.9083244e-10
-4.0518703e-09
-2.3014496e-10
-3.9214131e-09
-1.6681758e-10
-3.8479714e-09
-1.0105419e-10
-3.4127244e-11
-6.2192498e-10
-6.7580775e-11
-8.6055774e-10
-8.5326202e-11
-1.1427086e-09
-9.9258896e-11
-1.463227e-09
-1.2331965e-10
-1.8268662e-09
-1.5329392e-10
-2.2904419e-09
-1.8656464e-10
-2.7740402e-09
-2.1833303e-10
-3.2584774e-09
-2.4378239e-10
-3.7340673e-09
-2.6181549e-10
-4.1934368e-09
-2.7542736e-10
-4.6306408e-09
-2.8478736e-10
-5.0405034e-09
-2.9240824e-10
-5.4135413e-09
-3.0155815e-10
-5.7276558e-09
-3.2580408e-10
-6.0040077e-09
-3.2311008e-10
-6.2469012e-09
-3.1139019e-10
-6.4603825e-09
-2.9315047e-10
-6.6472738e-09
-2.6989281e-10
-6.8093912e-09
-2.4207311e-10
-6.9481791e-09
-2.1007012e-10
-7.0647003e-09
-1.7431936e-10
-7.159473e-09
-1.3538034e-10
-7.2323018e-09
-9.399682e-11
-7.283156e-09
-5.020806e-11
-1.1667819e-11
-1.5904704e-10
-1.2124346e-12
-2.4338491e-10
-9.8644223e-13
-3.439645e-10
1.3224625e-12
-4.6530423e-10
-1.978403e-12
-6.1037119e-10
-8.2257578e-12
-7.7820871e-10
-1.8726328e-11
-9.6388839e-10
-3.2653019e-11
-1.1612719e-09
-4.6398998e-11
-1.3683987e-09
-5.4689332e-11
-1.5785899e-09
-6.5237146e-11
-1.7908095e-09
-7.2569285e-11
-2.0054471e-09
-7.7772464e-11
-2.2260578e-09
-8.0949761e-11
-2.4696632e-09
-8.2201354e-11
-2.7113196e-09
-8.1456729e-11
-2.9438835e-09
-7.882972e-11
-3.1624079e-09
-7.4629831e-11
-3.363232e-09
-6.9072705e-11
-3.5430123e-09
-6.2297006e-11
-3.6986616e-09
-5.4425203e-11
-3.827389e-09
-4.5596532e-11
-3.9267924e-09
-3.5981599e-11
-3.9950317e-09
-2.576213e-11
-4.0302049e-09
-1.5039441e-11
-4.1979758e-12
-1.1248897e-11
7.1861458e-12
-2.202425e-11
9.7892739e-12
-3.749954e-11
1.6797999e-11
-6.1172466e-11
2.1694664e-11
-9.2236299e-11
2.2838113e-11
-1.3286762e-10
2.1904929e-11
-1.8235147e-10
1.6830651e-11
-2.4106102e-10
1.2310258e-11
-3.0354423e-10
7.7934715e-12
-3.7088379e-10
2.1019015e-12
-4.4081593e-10
-2.6377667e-12
-5.1213951e-10
-6.4496063e-12
-5.8392574e-10
-9.1643451e-12
-6.5503451e-10
-1.1093496e-11
-7.2429507e-10
-1.2197191e-11
-7.9052161e-10
-1.2604285e-11
-8.5270312e-10
-1.2449518e-11
-9.0990498e-10
-1.1872113e-11
-9.6122616e-10
-1.0977149e-11
-1.0058047e-09
-9.8479907e-12
-1.0428584e-09
-8.544263e-12
-1.071737e-09
-7.1043871e-12
-1.0919648e-09
-5.5356835e-12
-1.1034955e-09
-3.5100232e-12
-1.0479211e-12
2.8711425e-11
1.7097952e-12
3.7025172e-11
1.4756498e-12
4.7876498e-11
5.9467236e-12
5.8883908e-11
1.0687261e-11
6.7269546e-11
1.4452458e-11
7.317638e-11
1.5998063e-11
7.5006588e-11
1.5000402e-11
7.3472858e-11
1.384394e-11
6.9235821e-11
1.2030454e-11
6.2860749e-11
8.4769122e-12
5.4947343e-11
5.2755728e-12
4.6970682e-11
1.5269866e-12
3.8800466e-11
-9.9419669e-13
3.1540796e-11
-3.83389e-12
2.5065752e-11
-5.7222051e-12
1.9851857e-11
-7.3904373e-12
1.5946822e-11
-8.5445189e-12
1.3067327e-11
-8.9926394e-12
1.091118e-11
-8.8210087e-12
9.2587733e-12
-8.195576e-12
7.938385e-12
-7.2238523e-12
6.7977085e-12
-5.9636721e-12
5.7100193e-12
-4.4479404e-12
5.0538422e-12
-2.8537763e-12
-1.2140101e-12
2.3744363e-11
-2.8617872e-12
2.9961648e-11
-4.7414266e-12
4.0007615e-11
-4.0990789e-12
5.2263777e-11
-1.568762e-12
6.5176616e-11
1.5397489e-12
7.8114681e-11
3.0601256e-12
8.8904262e-11
4.2109541e-12
9.823251e-11
4.5158323e-12
1.0594499e-10
4.3181234e-12
1.1179869e-10
2.6233704e-12
1.1701349e-10
6.0941979e-14
1.2082436e-10
-2.2837053e-12
1.2365446e-10
-3.8241123e-12
1.2563712e-10
-5.8163431e-12
1.2807233e-10
-8.1572091e-12
1.3033167e-10
-9.6495561e-12
1.3251e-10
-1.0722614e-11
1.3472438e-10
-1.1206771e-11
1.3699335e-10
-1.1089712e-11
1.3921529e-10
-1.0417249e-11
1.4124712e-10
-9.2554069e-12
1.4296164e-10
-7.6779053e-12
1.4426868e-10
-5.7547013e-12
1.450342e-10
-3.6190166e-12
-1.2822467e-12
6.9680304e-12
-2.6477774e-12
7.4718005e-12
-5.2449425e-12
9.4253442e-12
-6.0523956e-12
1.3513879e-11
-5.6570873e-12
1.9295645e-11
-4.2418169e-12
2.5135915e-11
-2.7799511e-12
3.0295603e-11
-9.4854228e-13
3.461492e-11
1.9670447e-13
3.8006205e-11
9.2702589e-13
4.0027639e-11
6.0212083e-13
4.0884059e-11
-7.9529716e-13
4.0611906e-11
-2.0113733e-12
3.9645754e-11
-2.857785e-12
3.7718747e-11
-3.8891648e-12
3.48677e-11
-5.3059944e-12
3.1547319e-11
-6.329011e-12
2.8340232e-11
-7.5153666e-12
2.5227462e-11
-8.0938432e-12
2.2343953e-11
-8.2060502e-12
1.9812172e-11
-7.8853197e-12
1.773079e-11
-7.17388e-12
1.6163963e-11
-6.1109379e-12
1.5126069e-11
-4.7166721e-12
1.4502597e-11
-2.995417e-12
-1.080821e-12
-4.1077126e-12
3.8903427e-13
-7.0970674e-12
-2.255357e-12
-1.0165963e-11
-2.9832855e-12
-1.2170065e-11
-3.6527841e-12
-1.3376708e-11
-3.0349834e-12
-1.4137343e-11
-2.0191346e-12
-1.4306109e-11
-7.7960466e-13
-1.4603457e-11
4.9421626e-13
-1.5404346e-11
1.7280679e-12
-1.7229852e-11
2.4277683e-12
-2.0551863e-11
2.5268423e-12
-2.4762768e-11
2.1996472e-12
-2.9108882e-11
1.4884306e-12
-3.3889648e-11
8.9168915e-13
-3.9307589e-11
1.12021e-13
-4.4961238e-11
-6.7530088e-13
-5.1280866e-11
-1.195689e-12
-5.7421897e-11
-1.9527753e-12
-6.3179446e-11
-2.4484747e-12
-6.8438551e-11
-2.6261986e-12
-7.3044696e-11
-2.5677257e-12
-7.6837749e-11
-2.3178837e-12
-7.9784015e-11
-1.7704126e-12
-8.1757345e-11
-1.0220965e-12
-2.2797954e-13
-6.1702884e-12
3.6643947e-12
-1.029924e-11
1.8737694e-12
-1.3796566e-11
5.1420465e-13
-1.8191865e-11
7.4266743e-13
-2.1492446e-11
2.6573823e-13
-2.4459564e-11
9.4811505e-13
-2.7101033e-11
1.861984e-12
-2.9440481e-11
2.8337745e-12
-3.1899102e-11
4.1867871e-12
-3.4607046e-11
5.1357998e-12
-3.7848961e-11
5.768831e-12
-4.1780955e-11
6.131703e-12
-4.6541403e-11
6.2489265e-12
-5.1628613e-11
5.978932e-12
-5.6826518e-11
5.3099464e-12
-6.22401e-11
4.7382891e-12
-6.7558271e-11
4.122477e-12
-7.2841616e-11
3.3305533e-12
-7.7939252e-11
2.649135e-12
-8.260209e-11
2.0366033e-12
-8.674855e-11
1.5786919e-12
-9.019544e-11
1.1289564e-12
-9.273149e-11
7.6558332e-13
-9.4217081e-11
4.6343692e-13
1.4746704e-13
-3.707628e-12
5.8299001e-12
-6.626473e-12
4.7927435e-12
-9.9060355e-12
3.7938869e-12
-1.2402785e-11
3.2395289e-12
-1.5405093e-11
3.2681492e-12
-1.8246076e-11
3.7891928e-12
-2.0547129e-11
4.1631234e-12
-2.257997e-11
4.8666931e-12
-2.4715137e-11
6.3220242e-12
-2.6851261e-11
7.2719835e-12
-2.9111466e-11
8.0290868e-12
-3.1563304e-11
8.5835822e-12
-3.4165745e-11
8.8513986e-12
-3.7080977e-11
8.8941844e-12
-4.0441507e-11
8.6704871e-12
-4.3945636e-11
8.2424179e-12
-4.737481e-11
7.5516421e-12
-5.0828933e-11
6.7846588e-12
-5.4216675e-11
6.0368508e-12
-5.7356336e-11
5.1762313e-12
-6.0052788e-11
4.2751052e-12
-6.2265189e-11
3.341313e-12
-6.3888467e-11
2.3888132e-12
-6.4824922e-11
1.3998427e-12
4.0934607e-13
-3.6645804e-13
6.7472212e-12
-1.7384433e-12
6.1648253e-12
-3.4308173e-12
5.486351e-12
-5.1563963e-12
4.965192e-12
-6.7883051e-12
4.9001365e-12
-8.165145e-12
5.166106e-12
-9.3099513e-12
5.3079976e-12
-1.0255593e-11
5.8123977e-12
-1.1118741e-11
7.185228e-12
-1.1949895e-11
8.1031881e-12
-1.2764602e-11
8.843838e-12
-1.3505276e-11
9.3242948e-12
-1.437724e-11
9.723393e-12
-1.5388125e-11
9.9050933e-12
-1.6629617e-11
9.9119967e-12
-1.8111153e-11
9.7239639e-12
-1.9760217e-11
9.2007099e-12
-2.1469215e-11
8.4936533e-12
-2.3100405e-11
7.6680323e-12
-2.4639066e-11
6.7148781e-12
-2.6018447e-11
5.6544678e-12
-2.7185502e-11
4.5083447e-12
-2.8116416e-11
3.3197007e-12
-2.872147e-11
2.0048695e-12
5.5695289e-13
1.8536348e-12
6.85438e-12
1.5208006e-12
6.4977298e-12
9.6547092e-13
6.0417474e-12
2.7687363e-13
5.6538523e-12
-2.9364337e-13
5.4707129e-12
-6.9096151e-13
5.5634802e-12
-1.1115568e-12
5.7286455e-12
-1.146106e-12
5.8469964e-12
-8.8783983e-13
6.9270079e-12
-6.0093921e-13
7.8163299e-12
-2.6945505e-13
8.5123925e-12
-1.0779562e-14
9.0656539e-12
2.2252478e-13
9.490119e-12
3.7079718e-13
9.7568469e-12
4.4083712e-13
9.8419782e-12
4.4499625e-13
9.7198217e-12
2.9204694e-13
9.3536716e-12
6.629108e-14
8.7194171e-12
-2.5905527e-13
7.9933824e-12
-6.36145e-13
7.0919677e-12
-1.0149379e-12
6.0332569e-12
-1.3433661e-12
4.8367654e-12
-1.5800525e-12
3.5563768e-12
-1.7520174e-12
2.1768237e-12
7.7324484e-13
2.6513367e-12
6.5894367e-12
2.8534048e-12
6.2957086e-12
2.8634141e-12
6.0317832e-12
2.8099325e-12
5.7073771e-12
2.7873387e-12
5.4933478e-12
2.9027976e-12
5.4480602e-12
3.0486967e-12
5.5827833e-12
3.1564069e-12
5.7393212e-12
4.0150859e-12
6.0683619e-12
4.7897607e-12
7.0416862e-12
5.6427622e-12
7.6594199e-12
6.5330374e-12
8.1754054e-12
7.4340946e-12
8.5890861e-12
8.3213364e-12
8.8696266e-12
9.1672694e-12
8.9960639e-12
9.9446833e-12
8.9424235e-12
1.0602443e-11
8.6959248e-12
1.1085737e-11
8.2361323e-12
1.1480457e-11
7.5986696e-12
1.1782169e-11
6.7902595e-12
1.1996653e-11
5.8187744e-12
1.2134072e-11
4.6993453e-12
1.2250437e-11
3.4400079e-12
1.2302124e-11
2.125132e-12
7.2574856e-13
2.7073199e-12
6.1425015e-12
2.9868938e-12
6.0161603e-12
3.2396839e-12
5.779018e-12
3.4382017e-12
5.5088832e-12
3.6580395e-12
5.2735326e-12
3.9276252e-12
5.1784962e-12
4.2995839e-12
5.2108451e-12
4.6863168e-12
5.3526076e-12
5.2061121e-12
5.548585e-12
6.2154871e-12
6.0323286e-12
7.2452558e-12
6.6296675e-12
8.3465159e-12
7.0741605e-12
9.5097696e-12
7.4258463e-12
1.0701234e-11
7.6781746e-12
1.1859734e-11
7.8375751e-12
1.2955534e-11
7.8466326e-12
1.3968748e-11
7.6827173e-12
1.4864901e-11
7.3399847e-12
1.5645298e-11
6.8182761e-12
1.630947e-11
6.1260896e-12
1.6850406e-11
5.2778385e-12
1.7263255e-11
4.2864937e-12
1.7513414e-11
3.1898451e-12
1.7694052e-11
1.9444904e-12
6.1545825e-13
2.4571641e-12
5.7072945e-12
2.7649209e-12
5.7084104e-12
3.0927039e-12
5.4512419e-12
3.3257411e-12
5.2758526e-12
3.5709218e-12
5.0283581e-12
3.8632141e-12
4.8862096e-12
4.2528958e-12
4.8211687e-12
4.7234793e-12
4.882029e-12
5.2207786e-12
5.0512901e-12
6.0286549e-12
5.2244564e-12
7.0480404e-12
5.6102857e-12
8.1376768e-12
5.9845275e-12
9.3488116e-12
6.2147145e-12
1.0594946e-11
6.4320427e-12
1.1792287e-11
6.6402359e-12
1.2973337e-11
6.6655831e-12
1.4108986e-11
6.547069e-12
1.5169134e-11
6.2798361e-12
1.6131158e-11
5.8562495e-12
1.6979158e-11
5.2780869e-12
1.7706718e-11
4.5502751e-12
1.8312438e-11
3.6807684e-12
1.8874607e-11
2.6276699e-12
1.9168781e-11
1.650311e-12
6.4423037e-13
2.2153084e-12
5.2598169e-12
2.5788074e-12
5.3449033e-12
2.8312408e-12
5.198801e-12
3.1002794e-12
5.0068067e-12
3.3549359e-12
4.7736944e-12
3.6595567e-12
4.5815817e-12
4.0146329e-12
4.4660855e-12
4.480925e-12
4.41573e-12
5.0609197e-12
4.4712886e-12
5.6849512e-12
4.6004182e-12
6.5544406e-12
4.7407899e-12
7.6087915e-12
4.9301704e-12
8.7407007e-12
5.0827992e-12
9.8376026e-12
5.3351349e-12
1.1020545e-11
5.4572878e-12
1.2211807e-11
5.4743152e-12
1.3371041e-11
5.3878289e-12
1.4468183e-11
5.1826882e-12
1.5474573e-11
4.8498536e-12
1.636378e-11
4.3888737e-12
1.711215e-11
3.8018982e-12
1.7693387e-11
3.099523e-12
1.8014588e-11
2.3064609e-12
1.8258814e-11
1.4060783e-12
4.8363949e-13
2.0520961e-12
4.8189884e-12
2.4445093e-12
4.9524705e-12
2.7489224e-12
4.8943693e-12
3.0359035e-12
4.7198078e-12
3.326467e-12
4.4831137e-12
3.6472782e-12
4.2607538e-12
4.0233485e-12
4.0899991e-12
4.458104e-12
3.9809591e-12
5.0014624e-12
3.9279154e-12
5.6579262e-12
3.9439403e-12
6.3881556e-12
4.010547e-12
7.2360308e-12
4.0822823e-12
8.274824e-12
4.0439938e-12
9.3284184e-12
4.281529e-12
1.0438506e-11
4.3471893e-12
1.1557033e-11
4.3557778e-12
1.2665208e-11
4.279644e-12
1.3727637e-11
4.1202499e-12
1.4719363e-11
3.8581191e-12
1.5605251e-11
3.5029762e-12
1.6356143e-11
3.0509981e-12
1.694555e-11
2.5101066e-12
1.7330504e-11
1.9214979e-12
1.7549275e-11
1.1873002e-12
2.9208597e-13
1.9197814e-12
4.4043927e-12
2.3470212e-12
4.5252032e-12
2.7282506e-12
4.5131138e-12
3.0809663e-12
4.3670672e-12
3.4132089e-12
4.1508471e-12
3.7575894e-12
3.9163505e-12
4.1450026e-12
3.7025639e-12
4.5951466e-12
3.5307942e-12
5.1114385e-12
3.4116036e-12
5.7273728e-12
3.3279872e-12
6.4420262e-12
3.2958757e-12
7.2270822e-12
3.2972095e-12
8.0067234e-12
3.2643369e-12
8.9981372e-12
3.2901005e-12
1.0085147e-11
3.2601659e-12
1.1106128e-11
3.334784e-12
1.2134319e-11
3.2514418e-12
1.3126987e-11
3.1275707e-12
1.4044381e-11
2.9407148e-12
1.4881395e-11
2.6659529e-12
1.5615678e-11
2.3167063e-12
1.6231968e-11
1.8938085e-12
1.6790452e-11
1.3630052e-12
1.7138976e-11
8.387697e-13
3.6819242e-13
1.8776189e-12
3.9608002e-12
2.2974783e-12
4.1053117e-12
2.7135396e-12
4.0970219e-12
3.0923515e-12
3.9882261e-12
3.4662272e-12
3.7769436e-12
3.8485922e-12
3.533959e-12
4.2563662e-12
3.2947647e-12
4.7101393e-12
3.0769972e-12
5.2245417e-12
2.8971786e-12
5.7899496e-12
2.7625581e-12
6.4374502e-12
2.6483551e-12
7.1555716e-12
2.5790695e-12
7.8890413e-12
2.5308499e-12
8.8049517e-12
2.3741742e-12
9.6529024e-12
2.4122005e-12
1.0561736e-11
2.4259368e-12
1.1518167e-11
2.2949984e-12
1.2448107e-11
2.1976203e-12
1.3283359e-11
2.1054531e-12
1.4042745e-11
1.9065579e-12
1.4703867e-11
1.6555755e-12
1.5234409e-11
1.3632597e-12
1.5537923e-11
1.0594837e-12
1.5723167e-11
6.5352096e-13
1.717918e-13
1.7585496e-12
3.5390725e-12
2.2021544e-12
3.661673e-12
2.6184145e-12
3.6807292e-12
3.0356329e-12
3.5709768e-12
3.4329001e-12
3.3796469e-12
3.8254387e-12
3.1413924e-12
4.2377334e-12
2.8824436e-12
4.6787519e-12
2.6359537e-12
5.1664312e-12
2.4094759e-12
5.7097178e-12
2.2192496e-12
6.2818527e-12
2.0761999e-12
6.9254193e-12
1.9354839e-12
7.6212122e-12
1.8350396e-12
8.2699349e-12
1.7254355e-12
9.1198807e-12
1.5622403e-12
9.9576245e-12
1.5881801e-12
1.0727526e-11