/*--------------------------------*- C++ -*----------------------------------*\
| =========                 |                                                 |
| \\      /  F ield         | OpenFOAM: The Open Source CFD Toolbox           |
|  \\    /   O peration     | Version:  4.0                                   |
|   \\  /    A nd           | Web:      www.OpenFOAM.org                      |
|    \\/     M anipulation  |                                                 |
\*---------------------------------------------------------------------------*/
FoamFile
{
    version     2.0;
    format      ascii;
    class       volScalarField;
    location    "0.47";
    object      k;
}
// * * * * * * * * * * * * * * * * * * * * * * * * * * * * * * * * * * * * * //

dimensions      [0 2 -2 0 0 0 0];

internalField   nonuniform List<scalar> 
1740
(
0.0088177965
0.009134528
0.018575377
0.0090790648
0.0099554223
0.027481531
0.009432775
0.010600317
0.034417571
0.0097456121
0.010745453
0.041322319
0.0099448214
0.010956273
0.047248032
0.010107749
0.011257207
0.051330921
0.010213403
0.011477593
0.055833254
0.010224219
0.011888689
0.059938913
0.010233569
0.012599292
0.061944918
0.010196151
0.012731022
0.064187623
0.010124097
0.012896551
0.066190575
0.010064929
0.013276367
0.067313408
0.0099771651
0.013247166
0.068295555
0.0099229786
0.013439402
0.069772533
0.0098283409
0.013862581
0.071055035
0.0097072824
0.014178934
0.071245506
0.0095780759
0.014204258
0.0716197
0.0093853686
0.01407006
0.071957583
0.0092662958
0.014208384
0.072471361
0.0091759399
0.014582034
0.072786756
0.009034061
0.014558663
0.072618603
0.0089052318
0.014523419
0.07298912
0.0088054723
0.01464026
0.073395373
0.0087137057
0.014817069
0.073177234
0.0086316413
0.014664608
0.073056602
0.0084790807
0.01469891
0.072883026
0.0084294566
0.014758556
0.072535518
0.0083933428
0.014983241
0.072526982
0.0084330453
0.015046431
0.072140495
0.0090587637
0.016186637
0.06688958
0.012867577
0.018217483
0.047415795
0.024010016
0.031234914
0.039820572
0.010278259
0.01253648
0.013722975
0.0042686643
0.0045955883
0.0046514214
0.0020796417
0.0021211846
0.0020935556
0.0011443411
0.001145007
0.0011262347
0.00069077984
0.00068814919
0.00067981153
0.00044766986
0.0004462669
0.00044338559
0.00030562533
0.00030522655
0.00030473389
0.00021620331
0.00021627885
0.00021668423
0.00015620246
0.00015643875
0.0001570814
0.00011382374
0.0001140765
0.0001146916
8.278491e-05
8.2999461e-05
8.349866e-05
5.959321e-05
5.9755757e-05
6.0125429e-05
4.2194274e-05
4.2308155e-05
4.2564023e-05
2.9271297e-05
2.9346076e-05
2.9512916e-05
1.9874456e-05
1.9920737e-05
2.0023476e-05
1.3236799e-05
1.3263837e-05
1.3323663e-05
8.701479e-06
8.7163942e-06
8.7493576e-06
5.7095038e-06
5.7173101e-06
5.7345735e-06
3.8073137e-06
3.8112725e-06
3.8200175e-06
2.6429715e-06
2.6449839e-06
2.6494154e-06
1.958179e-06
1.9592696e-06
1.9616667e-06
1.5745648e-06
1.5752567e-06
1.5767757e-06
1.3743397e-06
1.3748766e-06
1.3760551e-06
1.2825628e-06
1.2830455e-06
1.2841051e-06
1.2531187e-06
1.2535811e-06
1.2545962e-06
1.2584775e-06
1.2589259e-06
1.2599103e-06
1.2826526e-06
1.2830844e-06
1.2840318e-06
1.3165849e-06
1.3169956e-06
1.3178968e-06
1.3552338e-06
1.3556205e-06
1.3564685e-06
1.3958072e-06
1.3961683e-06
1.3969596e-06
1.4367108e-06
1.4370459e-06
1.43778e-06
1.4769359e-06
1.4772455e-06
1.4779236e-06
1.5156993e-06
1.5159846e-06
1.5166089e-06
1.5522196e-06
1.5524816e-06
1.5530552e-06
1.5855573e-06
1.5857977e-06
1.5863235e-06
1.6144799e-06
1.6147e-06
1.6151814e-06
1.6373253e-06
1.6375266e-06
1.6379668e-06
1.6518565e-06
1.6520405e-06
1.6524427e-06
1.6551089e-06
1.6552769e-06
1.6556442e-06
1.6432455e-06
1.6433988e-06
1.6437339e-06
1.6114525e-06
1.6115921e-06
1.6118972e-06
1.5539348e-06
1.5540612e-06
1.5543375e-06
1.4640994e-06
1.4642124e-06
1.4644593e-06
1.3350654e-06
1.3351636e-06
1.3353784e-06
1.160654e-06
1.1607349e-06
1.1609128e-06
9.3697561e-07
9.3703676e-07
9.3717258e-07
6.6470903e-07
6.647493e-07
6.6484071e-07
3.5147107e-07
3.5149118e-07
3.5153847e-07
0.05624615
0.060825324
0.046038048
0.046567306
0.012477836
0.01135263
0.0043548837
0.0041252824
0.0020018701
0.0019419294
0.0010957139
0.001079659
0.00067034184
0.00066793019
0.00044134781
0.00044307167
0.00030525011
0.00030791855
0.00021791967
0.00022046358
0.00015835056
0.0001604526
0.00011576229
0.00011737812
8.4319779e-05
8.5501172e-05
6.0715539e-05
6.1542157e-05
4.296542e-05
4.3518568e-05
2.977186e-05
3.0124948e-05
2.0181843e-05
2.0396267e-05
1.3415465e-05
1.3539119e-05
8.7998017e-06
8.8674999e-06
5.7609565e-06
5.7962728e-06
3.8333563e-06
3.8511629e-06
2.6561564e-06
2.6651268e-06
1.9653043e-06
1.9701325e-06
1.5790767e-06
1.582127e-06
1.3778385e-06
1.3802027e-06
1.2857078e-06
1.2878335e-06
1.256131e-06
1.2581669e-06
1.2613979e-06
1.2633706e-06
1.2854627e-06
1.2873591e-06
1.3192568e-06
1.321058e-06
1.3577474e-06
1.3594398e-06
1.3981524e-06
1.3997295e-06
1.4388859e-06
1.4403469e-06
1.4789445e-06
1.4802923e-06
1.5175485e-06
1.5187881e-06
1.5539178e-06
1.5550551e-06
1.587114e-06
1.5881557e-06
1.6159048e-06
1.6168574e-06
1.638628e-06
1.6394982e-06
1.6530465e-06
1.6538406e-06
1.6561953e-06
1.6569195e-06
1.6442364e-06
1.6448962e-06
1.6123545e-06
1.6129543e-06
1.5547514e-06
1.555294e-06
1.4648294e-06
1.4653147e-06
1.3357012e-06
1.3361258e-06
1.1611821e-06
1.1615406e-06
9.3738261e-07
9.3767193e-07
6.6498895e-07
6.6520972e-07
3.51621e-07
3.5175823e-07
3.7749432e-06
2.7046934e-05
0.00013444358
0.00030499188
0.00046221787
0.00057316754
0.00064343713
0.00068702537
0.00071571544
0.0007366427
0.00075384884
0.00077034534
0.0007858071
0.00079998893
0.00081257778
0.00082302318
0.00083034185
0.00083286921
0.00082788931
0.00081112208
0.00077601077
0.00071284419
0.00060806207
0.00044454443
0.00020161489
2.5203767e-06
5.4780132e-05
0.00025115383
0.00051607375
0.00072798739
0.00085945377
0.00093532349
0.00097976132
0.0010082083
0.0010287001
0.0010454852
0.0010610941
0.0010754079
0.0010881551
0.0010989399
0.0011071394
0.0011116227
0.0011104756
0.0011005007
0.0010765746
0.0010306955
0.00095059083
0.00081796845
0.00060729437
0.00028740921
7.9333464e-06
0.00016007327
0.00061642264
0.0010804137
0.0013634358
0.0015060893
0.0015734159
0.0016048388
0.0016203519
0.0016284324
0.0016334701
0.0016364019
0.0016384186
0.0016388767
0.0016372875
0.0016331782
0.0016254929
0.0016124343
0.0015905859
0.0015543509
0.0014947046
0.0013969323
0.001236335
0.00097000314
0.00052235229
3.7535443e-05
0.00057956751
0.0016865751
0.0024379769
0.0027747985
0.0028885729
0.0028977685
0.0028673479
0.0028270937
0.0027819807
0.0027371038
0.0026943632
0.0026542621
0.0026136147
0.0025719109
0.0025295562
0.0024860537
0.0024399781
0.0023885788
0.0023270773
0.0022475623
0.00213675
0.0019703189
0.0016953371
0.0011548479
0.00028030998
0.0024463335
0.004914357
0.0060358784
0.0063826518
0.006321398
0.0060924207
0.0058294404
0.0055800549
0.0053291301
0.0050886874
0.0048640243
0.004660251
0.0044627282
0.0042709479
0.0040896347
0.0039197094
0.003760596
0.0036104752
0.0034658459
0.0033210412
0.0031678028
0.0029951024
0.0027945724
0.002584545
0.002353741
0.010515902
0.016564223
0.018514717
0.018058688
0.016506034
0.014693623
0.013007548
0.011527014
0.010251364
0.0091599481
0.0082303486
0.007437322
0.0067571543
0.0061722441
0.0056693605
0.0052371529
0.0048653138
0.0045444418
0.0042656955
0.0040202109
0.0037989954
0.0035934305
0.0034027959
0.003242504
0.044916979
0.034014993
0.026520005
0.021376336
0.017734062
0.015035846
0.01295191
0.01130093
0.0099751064
0.0088979371
0.0080109181
0.0072697784
0.0066414648
0.0061017368
0.0056329899
0.0052229747
0.0048631951
0.004547231
0.0042696379
0.0040252008
0.0038083323
0.0036130407
0.0034335755
0.00327126
0.00314123
0.037269015
0.030977254
0.027762469
0.025127891
0.022257791
0.019285554
0.016571163
0.014275077
0.012395935
0.010856024
0.0095859321
0.0085291225
0.0076422771
0.0068957252
0.0062658295
0.0057331584
0.0052814015
0.0048968689
0.0045678293
0.0042837477
0.0040345399
0.003810396
0.00360213
0.0034088661
0.0032464128
0.010216476
0.0095439371
0.0092035982
0.0088832012
0.0084214748
0.007857486
0.0073007963
0.0068055463
0.0063551057
0.0059572097
0.0056088763
0.0053043409
0.0050183305
0.0047539322
0.0045126299
0.0042936972
0.0040950791
0.0039138815
0.0037462007
0.0035869879
0.0034295039
0.0032647819
0.0030813286
0.0028705554
0.0026509683
0.003967532
0.0038945988
0.0038720625
0.0038312519
0.0037369182
0.0036020728
0.0034625833
0.0033332399
0.0032166221
0.0031148786
0.0030270515
0.0029500396
0.0028782687
0.0028111862
0.0027486209
0.0026897341
0.0026328534
0.0025753777
0.0025135227
0.0024417851
0.0023518498
0.0022303021
0.0020527914
0.0017656217
0.0012064959
0.0019248497
0.0019383555
0.001963511
0.0019783151
0.0019718392
0.0019476581
0.0019167357
0.0018860228
0.0018586081
0.0018358072
0.0018174233
0.0018022095
0.0017884989
0.0017756337
0.0017632467
0.0017501203
0.0017343731
0.0017132093
0.0016825653
0.0016364757
0.0015658984
0.0014564689
0.0012840156
0.0010056722
0.00054420919
0.0010836788
0.0011020261
0.00112565
0.0011457589
0.0011577634
0.0011624289
0.0011633483
0.0011635255
0.0011647008
0.0011676209
0.0011722507
0.0011780225
0.0011841514
0.0011899535
0.0011946691
0.001197084
0.0011953741
0.0011869104
0.0011679731
0.0011332888
0.0010752833
0.00098289767
0.00083985495
0.00062279134
0.00030108301
0.00067494309
0.00068910887
0.00070634127
0.0007227746
0.00073626048
0.0007467409
0.00075543859
0.00076365833
0.00077229369
0.00078177383
0.00079210716
0.00080299317
0.00081394754
0.00082437646
0.00083348462
0.00084011975
0.00084265895
0.00083886826
0.00082572755
0.00079920372
0.00075397275
0.00068313129
0.00057799862
0.00042786018
0.00021545388
0.0004495318
0.00045977985
0.00047196963
0.0004843094
0.00049570868
0.00050596071
0.00051546405
0.00052477058
0.00053431959
0.00054433578
0.00055481608
0.00056556215
0.00057621845
0.00058628042
0.00059504534
0.0006015352
0.00060442084
0.00060194553
0.00059185637
0.00057136857
0.00053723609
0.00048612326
0.00041580596
0.00032887499
0.00024519288
0.00031314322
0.00032051042
0.00032915857
0.00033821759
0.00034711065
0.00035565137
0.00036394762
0.00037222214
0.00038067686
0.00038941171
0.00039839887
0.00040748244
0.000416381
0.00042467729
0.00043178788
0.00043692052
0.00043903379
0.00043680829
0.00042864718
0.00041274384
0.00038730107
0.0003510842
0.00030469934
0.00025342717
0.00021282042
0.00022448337
0.00022978491
0.00023595359
0.00024254907
0.00024925389
0.00025592926
0.00026258439
0.00026929991
0.00027615597
0.00028318335
0.00029033748
0.00029748633
0.0003044016
0.00031074571
0.00031605146
0.00031969874
0.00032089668
0.0003186815
0.00031194581
0.00029952837
0.00028041604
0.0002541437
0.00022153082
0.00018601487
0.00015599722
0.00016345484
0.00016725986
0.00017165861
0.00017642013
0.00018136463
0.00018639475
0.00019148841
0.00019666459
0.00020194549
0.00020732675
0.0002127572
0.00021812516
0.0002232475
0.00022785804
0.00023159403
0.00023398366
0.00023444002
0.00023226844
0.00022669663
0.00021693949
0.00020230703
0.00018233544
0.00015680216
0.00012503712
8.101404e-05
0.00011956444
0.00012226819
0.00012537927
0.00012877176
0.00013234042
0.0001360192
0.00013977935
0.00014361465
0.00014752171
0.00015148111
0.00015544321
0.00015931662
0.00016295854
0.00016616539
0.00016866403
0.00017010496
0.00017006086
0.0001680342
0.00016347737
0.00015582549
0.00014453107
0.00012905426
0.00010867542
8.1809266e-05
4.4033851e-05
8.7050672e-05
8.8937313e-05
9.1100665e-05
9.346945e-05
9.5980424e-05
9.8588817e-05
0.00010126831
0.00010400456
0.00010678439
0.00010958457
0.00011236207
0.00011504544
0.00011752729
0.00011965739
0.00012123681
0.00012201385
0.00012168375
0.0001198934
0.00011625158
0.00011034176
0.00010172638
8.9916431e-05
7.4257602e-05
5.3687985e-05
2.6388653e-05
6.2605943e-05
6.3887938e-05
6.5353805e-05
6.6962017e-05
6.8673694e-05
7.0458395e-05
7.2294941e-05
7.4168114e-05
7.6063049e-05
7.7958283e-05
7.9819475e-05
8.1593469e-05
8.3202925e-05
8.4541416e-05
8.5469374e-05
8.5811399e-05
8.5355759e-05
8.3856421e-05
8.1037243e-05
7.6596241e-05
7.0205472e-05
6.1501209e-05
5.0068304e-05
3.5465163e-05
1.7318005e-05
4.4221926e-05
4.506361e-05
4.6023265e-05
4.7076405e-05
4.8198744e-05
4.9369731e-05
5.0573388e-05
5.1796631e-05
5.3026256e-05
5.4244948e-05
5.5427266e-05
5.653567e-05
5.7516997e-05
5.8299116e-05
5.8788151e-05
5.8866452e-05
5.8391787e-05
5.7197679e-05
5.50948e-05
5.1872954e-05
4.7303933e-05
4.1149749e-05
3.3193263e-05
2.3335124e-05
1.1847404e-05
3.0570289e-05
3.1100397e-05
3.1702973e-05
3.2363313e-05
3.3066291e-05
3.3798213e-05
3.4547612e-05
3.5304404e-05
3.6058229e-05
3.6796279e-05
3.750085e-05
3.8146873e-05
3.8699567e-05
3.911227e-05
3.9324622e-05
3.9260977e-05
3.8829429e-05
3.7921412e-05
3.6412059e-05
3.4161883e-05
3.1021855e-05
2.6847814e-05
2.153803e-05
1.5119373e-05
7.9153299e-06
2.0665055e-05
2.0983561e-05
2.1344379e-05
2.1738598e-05
2.215684e-05
2.2590212e-05
2.3030815e-05
2.3471435e-05
2.3904639e-05
2.4321592e-05
2.4710649e-05
2.5055866e-05
2.5335596e-05
2.5521056e-05
2.5575105e-05
2.5451094e-05
2.509194e-05
2.4429522e-05
2.3384737e-05
2.1869081e-05
1.9789759e-05
1.7062514e-05
1.3639602e-05
9.5631408e-06
5.05892e-06
1.3693352e-05
1.3875349e-05
1.4080684e-05
1.4303996e-05
1.4539528e-05
1.4781674e-05
1.5025208e-05
1.526527e-05
1.5496859e-05
1.5714226e-05
1.5910094e-05
1.6074777e-05
1.6195348e-05
1.6254762e-05
1.6231025e-05
1.6096398e-05
1.58166e-05
1.535027e-05
1.4648971e-05
1.365849e-05
1.2322828e-05
1.0593079e-05
8.4443404e-06
5.9048811e-06
3.1067076e-06
8.9516114e-06
9.0504574e-06
9.1614509e-06
9.2814148e-06
9.4068997e-06
9.5344366e-06
9.6607229e-06
9.7826237e-06
9.8969406e-06
1.0000093e-05
1.0087695e-05
1.0154068e-05
1.0191727e-05
1.0190849e-05
1.0138716e-05
1.0019187e-05
9.8120952e-06
9.4928446e-06
9.0323604e-06
8.3980727e-06
7.5566763e-06
6.4796066e-06
5.1523828e-06
3.590318e-06
1.8837071e-06
5.8400014e-06
5.8911615e-06
5.948282e-06
6.0095225e-06
6.0728586e-06
6.1362244e-06
6.1976051e-06
6.2550656e-06
6.3066441e-06
6.3501813e-06
6.3830965e-06
6.4021181e-06
6.4029655e-06
6.3800069e-06
6.3258654e-06
6.2309798e-06
6.0834016e-06
5.8685339e-06
5.5689355e-06
5.1649827e-06
4.63676e-06
3.9673455e-06
3.148086e-06
2.1876613e-06
1.1362427e-06
3.8731252e-06
3.8986775e-06
3.9270003e-06
3.9570442e-06
3.9876467e-06
4.0176097e-06
4.045739e-06
4.0708716e-06
4.0918252e-06
4.1073102e-06
4.1158017e-06
4.1153819e-06
4.1035479e-06
4.07699e-06
4.0313311e-06
3.9608162e-06
3.8580103e-06
3.7136211e-06
3.5168671e-06
3.2555852e-06
2.9174908e-06
2.492229e-06
1.9745604e-06
1.3699362e-06
7.0989134e-07
2.6761469e-06
2.6888951e-06
2.7029139e-06
2.7176149e-06
2.7323365e-06
2.746384e-06
2.7590563e-06
2.7696503e-06
2.7774416e-06
2.7816311e-06
2.7812676e-06
2.7751466e-06
2.7616837e-06
2.7387647e-06
2.7035735e-06
2.6523927e-06
2.5803181e-06
2.4810748e-06
2.3472693e-06
2.1708234e-06
1.9436344e-06
1.6589487e-06
1.313488e-06
9.1118644e-07
4.7299406e-07
1.9760476e-06
1.9828685e-06
1.9903358e-06
1.9981199e-06
2.0058406e-06
2.0130895e-06
2.0194431e-06
2.0244636e-06
2.0276798e-06
2.0285552e-06
2.0264319e-06
2.0204589e-06
2.0094967e-06
1.9920049e-06
1.965908e-06
1.9284496e-06
1.8760365e-06
1.8041286e-06
1.707138e-06
1.5790652e-06
1.4139792e-06
1.2070173e-06
9.559797e-07
6.6414419e-07
3.4523161e-07
1.5858639e-06
1.590183e-06
1.5949323e-06
1.5999194e-06
1.604918e-06
1.6096765e-06
1.613923e-06
1.6173615e-06
1.619656e-06
1.6204016e-06
1.6190817e-06
1.6150083e-06
1.6072446e-06
1.59451e-06
1.5750705e-06
1.546619e-06
1.5061607e-06
1.4499539e-06
1.3734472e-06
1.2716555e-06
1.1397146e-06
9.7368338e-07
7.7182281e-07
5.3684334e-07
2.805707e-07
1.3831067e-06
1.3864844e-06
1.3902413e-06
1.3942558e-06
1.3983819e-06
1.402451e-06
1.406271e-06
1.409619e-06
1.412226e-06
1.41375e-06
1.4137368e-06
1.4115669e-06
1.4063856e-06
1.3970178e-06
1.3818691e-06
1.3588213e-06
1.3251375e-06
1.2774081e-06
1.2115762e-06
1.1231381e-06
1.0077207e-06
8.6180403e-07
6.8384436e-07
4.7621264e-07
2.4920983e-07
1.2904514e-06
1.2935145e-06
1.2969573e-06
1.300694e-06
1.3046196e-06
1.3086078e-06
1.312507e-06
1.3161311e-06
1.3192427e-06
1.3215273e-06
1.3225552e-06
1.3217307e-06
1.3182247e-06
1.3108935e-06
1.2981851e-06
1.2780408e-06
1.2478097e-06
1.2042016e-06
1.1433368e-06
1.0609144e-06
9.5275604e-07
8.1551052e-07
6.477074e-07
4.5150365e-07
2.3711434e-07
1.2606778e-06
1.263626e-06
1.2669597e-06
1.2706117e-06
1.2744972e-06
1.2785114e-06
1.2825228e-06
1.2863634e-06
1.2898104e-06
1.29256e-06
1.2941899e-06
1.2941075e-06
1.2914842e-06
1.2851741e-06
1.2736218e-06
1.2547666e-06
1.2259598e-06
1.1839231e-06
1.1248025e-06
1.0443464e-06
9.384203e-07
8.0372142e-07
6.3881793e-07
4.4579357e-07
2.344644e-07
1.2658044e-06
1.268666e-06
1.2719107e-06
1.2754801e-06
1.2793002e-06
1.2832772e-06
1.2872903e-06
1.2911801e-06
1.2947304e-06
1.297641e-06
1.299489e-06
1.2996768e-06
1.297365e-06
1.2913911e-06
1.2801756e-06
1.2616271e-06
1.2330593e-06
1.1911524e-06
1.1320087e-06
1.0513438e-06
9.4499088e-07
8.0964518e-07
6.4393006e-07
4.5000754e-07
2.3757071e-07
1.289698e-06
1.2924483e-06
1.2955691e-06
1.299007e-06
1.3026939e-06
1.3065423e-06
1.3104372e-06
1.314224e-06
1.3176896e-06
1.3205337e-06
1.32233e-06
1.3224721e-06
1.320106e-06
1.3140458e-06
1.3026794e-06
1.2838713e-06
1.2548797e-06
1.2123175e-06
1.152211e-06
1.0702001e-06
9.6204612e-07
8.2441015e-07
6.5596911e-07
4.5912915e-07
2.4462005e-07
1.3232778e-06
1.3258869e-06
1.3288464e-06
1.3321063e-06
1.3356024e-06
1.339251e-06
1.342941e-06
1.3465208e-06
1.3497785e-06
1.3524126e-06
1.3539918e-06
1.3539e-06
1.3512662e-06
1.344879e-06
1.3330899e-06
1.3137138e-06
1.2839451e-06
1.2403181e-06
1.1787672e-06
1.0948356e-06
9.841893e-07
8.434248e-07
6.7122587e-07
4.701513e-07
2.5151493e-07
1.3615238e-06
1.3639711e-06
1.3667449e-06
1.3697975e-06
1.3730675e-06
1.3764744e-06
1.3799098e-06
1.3832242e-06
1.3862059e-06
1.3885518e-06
1.3898249e-06
1.3893986e-06
1.3863845e-06
1.3795448e-06
1.3671928e-06
1.347092e-06
1.3163695e-06
1.2714761e-06
1.2082473e-06
1.1221198e-06
1.0086511e-06
8.6435071e-07
6.878627e-07
4.8177774e-07
2.5769223e-07
1.4016699e-06
1.4039463e-06
1.4065235e-06
1.4093561e-06
1.412385e-06
1.4155322e-06
1.4186917e-06
1.4217151e-06
1.424391e-06
1.4264139e-06
1.4273408e-06
1.4265345e-06
1.4230887e-06
1.4157387e-06
1.4027598e-06
1.3818631e-06
1.3501074e-06
1.3038587e-06
1.2388512e-06
1.1504111e-06
1.0339823e-06
8.8597738e-07
7.0498261e-07
4.935535e-07
2.6342309e-07
1.4421429e-06
1.4442477e-06
1.4466278e-06
1.4492395e-06
1.452026e-06
1.4549116e-06
1.4577919e-06
1.4605198e-06
1.4628833e-06
1.4645743e-06
1.4651439e-06
1.4639434e-06
1.460049e-06
1.4521692e-06
1.4385413e-06
1.4168242e-06
1.3840091e-06
1.3363771e-06
1.2695621e-06
1.1787796e-06
1.05936e-06
9.076212e-07
7.2210373e-07
5.053743e-07
2.6937628e-07
1.4819477e-06
1.4838858e-06
1.4860743e-06
1.4884716e-06
1.4910228e-06
1.4936541e-06
1.4962625e-06
1.4987018e-06
1.5007593e-06
1.5021239e-06
1.5023402e-06
1.5007486e-06
1.4964073e-06
1.4879987e-06
1.473722e-06
1.4511856e-06
1.4173139e-06
1.3683055e-06
1.2996964e-06
1.2065943e-06
1.0842194e-06
9.2879715e-07
7.3882915e-07
5.1692972e-07
2.7531098e-07
1.5203092e-06
1.5220882e-06
1.5240943e-06
1.5262875e-06
1.5286148e-06
1.5310037e-06
1.533353e-06
1.5355165e-06
1.5372808e-06
1.5383313e-06
1.5382064e-06
1.5362352e-06
1.5314584e-06
1.5225322e-06
1.5076196e-06
1.4842792e-06
1.4493719e-06
1.3990169e-06
1.3286573e-06
1.233299e-06
1.1080597e-06
9.4908339e-07
7.5486342e-07
5.2816503e-07
2.8151102e-07
1.5564497e-06
1.5580789e-06
1.5599133e-06
1.5619144e-06
1.5640309e-06
1.5661919e-06
1.5682969e-06
1.5702001e-06
1.5716867e-06
1.5724389e-06
1.5719883e-06
1.5696531e-06
1.5644568e-06
1.5550304e-06
1.539502e-06
1.5153833e-06
1.4794749e-06
1.4278229e-06
1.3557844e-06
1.258274e-06
1.1303186e-06
9.6799449e-07
7.6979416e-07
5.3860454e-07
2.8718262e-07
1.5894318e-06
1.5909209e-06
1.5925949e-06
1.5944168e-06
1.5963365e-06
1.5982844e-06
1.6001608e-06
1.60182e-06
1.6030456e-06
1.6035163e-06
1.6027572e-06
1.6000756e-06
1.5944786e-06
1.5845735e-06
1.5684556e-06
1.5435935e-06
1.5067333e-06
1.4538556e-06
1.3802431e-06
1.2807323e-06
1.1502758e-06
9.8489421e-07
7.8306725e-07
5.4773254e-07
2.918535e-07
1.6180234e-06
1.6193823e-06
1.6209073e-06
1.6225626e-06
1.6242994e-06
1.6260492e-06
1.6277128e-06
1.6291443e-06
1.6301257e-06
1.6303322e-06
1.6292825e-06
1.6262737e-06
1.6202975e-06
1.6099395e-06
1.5932658e-06
1.5677071e-06
1.529963e-06
1.4759602e-06
1.400922e-06
1.2996264e-06
1.1669732e-06
9.9894694e-07
7.9402335e-07
5.5518123e-07
2.9557573e-07
1.6405622e-06
1.6418008e-06
1.6431879e-06
1.6446891e-06
1.6462566e-06
1.6478228e-06
1.6492891e-06
1.6505089e-06
1.651263e-06
1.6512229e-06
1.6499014e-06
1.6465865e-06
1.6402562e-06
1.6294775e-06
1.6122922e-06
1.5861007e-06
1.5475677e-06
1.4925813e-06
1.416327e-06
1.3135501e-06
1.1791274e-06
1.0090352e-06
8.0175473e-07
5.6025699e-07
2.9778902e-07
1.6548108e-06
1.6559383e-06
1.6571984e-06
1.6585574e-06
1.6599688e-06
1.6613655e-06
1.6626493e-06
1.6636733e-06
1.6642167e-06
1.6639482e-06
1.6623756e-06
1.6587789e-06
1.6521255e-06
1.6409685e-06
1.6233322e-06
1.5965978e-06
1.5574103e-06
1.5016412e-06
1.4244667e-06
1.320635e-06
1.185041e-06
1.013696e-06
8.0512829e-07
5.6233042e-07
2.9739665e-07
1.6578032e-06
1.6588286e-06
1.6599717e-06
1.6611999e-06
1.6624674e-06
1.6637079e-06
1.6648236e-06
1.6656673e-06
1.6660173e-06
1.66554e-06
1.6637396e-06
1.6598912e-06
1.6529558e-06
1.6414789e-06
1.6234778e-06
1.5963294e-06
1.5566803e-06
1.5004147e-06
1.4227374e-06
1.3184465e-06
1.1825095e-06
1.0110293e-06
8.0262464e-07
5.6028773e-07
2.9594268e-07
1.6457003e-06
1.6466315e-06
1.6476668e-06
1.6487744e-06
1.6499091e-06
1.6510058e-06
1.6519669e-06
1.6526459e-06
1.6528204e-06
1.6521565e-06
1.6501572e-06
1.6460967e-06
1.6389359e-06
1.6272227e-06
1.6089818e-06
1.5816064e-06
1.5417733e-06
1.4854185e-06
1.4078246e-06
1.3038997e-06
1.168752e-06
9.9864731e-07
7.9236403e-07
5.529489e-07
2.920238e-07
1.6136843e-06
1.6145281e-06
1.6154631e-06
1.6164585e-06
1.6174702e-06
1.6184339e-06
1.6192535e-06
1.6197832e-06
1.6198024e-06
1.6189785e-06
1.6168178e-06
1.6125997e-06
1.6052944e-06
1.5934663e-06
1.5751675e-06
1.5478356e-06
1.5082163e-06
1.452347e-06
1.3756512e-06
1.273222e-06
1.1403885e-06
9.7365058e-07
7.7198385e-07
5.3845374e-07
2.8421944e-07
1.5559536e-06
1.5567142e-06
1.5575541e-06
1.5584433e-06
1.5593391e-06
1.560179e-06
1.560869e-06
1.5612661e-06
1.5611535e-06
1.560204e-06
1.5579328e-06
1.5536337e-06
1.5463003e-06
1.534533e-06
1.5164387e-06
1.489537e-06
1.4506922e-06
1.3961069e-06
1.321424e-06
1.222011e-06
1.0935094e-06
9.3272926e-07
7.3886464e-07
5.1490756e-07
2.7133736e-07
1.4659044e-06
1.4665833e-06
1.46733e-06
1.4681156e-06
1.4688997e-06
1.4696227e-06
1.4701947e-06
1.4704783e-06
1.4702638e-06
1.4692351e-06
1.4669242e-06
1.4626529e-06
1.4554575e-06
1.444001e-06
1.4264816e-06
1.4005497e-06
1.3632515e-06
1.3110337e-06
1.239852e-06
1.1454499e-06
1.0238833e-06
8.7235489e-07
6.9031741e-07
4.806509e-07
2.5259293e-07
1.3366432e-06
1.337239e-06
1.3378911e-06
1.3385725e-06
1.339247e-06
1.3398595e-06
1.3403263e-06
1.3405205e-06
1.3402454e-06
1.339202e-06
1.3369508e-06
1.3328601e-06
1.3260352e-06
1.3152354e-06
1.298797e-06
1.2745619e-06
1.2398365e-06
1.1914055e-06
1.1256426e-06
1.0387772e-06
9.2738444e-07
7.891407e-07
6.2381088e-07
4.3432109e-07
2.2919579e-07
1.1619833e-06
1.1624962e-06
1.1630526e-06
1.1636303e-06
1.1642027e-06
1.1647173e-06
1.165098e-06
1.1652362e-06
1.1649575e-06
1.1639887e-06
1.1619326e-06
1.1582304e-06
1.1520908e-06
1.1424059e-06
1.1277044e-06
1.1060971e-06
1.0752412e-06
1.032367e-06
9.743783e-07
8.9809729e-07
8.0071337e-07
6.8043531e-07
5.3732136e-07
3.7418642e-07
1.9862066e-07
9.3804428e-07
9.3848453e-07
9.3895641e-07
9.3944616e-07
9.3995274e-07
9.4040497e-07
9.4073133e-07
9.4085694e-07
9.4065202e-07
9.3986804e-07
9.3817607e-07
9.3512714e-07
9.300756e-07
9.2206482e-07
9.0987367e-07
8.9199695e-07
8.6653684e-07
8.3128341e-07
7.8377951e-07
7.2152806e-07
6.4240374e-07
5.4517309e-07
4.301305e-07
2.9976065e-07
1.5992585e-07
6.655199e-07
6.6590919e-07
6.6639731e-07
6.6684608e-07
6.6737162e-07
6.6782334e-07
6.6813113e-07
6.6829124e-07
6.6829667e-07
6.6780586e-07
6.6664469e-07
6.6453372e-07
6.6101549e-07
6.5525027e-07
6.4630029e-07
6.3329688e-07
6.1484288e-07
5.8938719e-07
5.5519995e-07
5.1052544e-07
4.5395341e-07
3.8477572e-07
3.0339583e-07
2.1174454e-07
1.1374805e-07
3.5197624e-07
3.523518e-07
3.5385915e-07
3.5431901e-07
3.5484874e-07
3.5526481e-07
3.5552597e-07
3.5576024e-07
3.5531905e-07
3.5519754e-07
3.5464855e-07
3.5363999e-07
3.5193231e-07
3.4880969e-07
3.4361531e-07
3.3646866e-07
3.2645197e-07
3.1275806e-07
2.9443049e-07
2.7051235e-07
2.4029527e-07
2.0349143e-07
1.6042884e-07
1.1229567e-07
6.1704685e-08
)
;

boundaryField
{
    Walls
    {
        type            kqRWallFunction;
        value           nonuniform List<scalar> 
38
(
3.7749432e-06
2.5203767e-06
7.9333464e-06
3.7535443e-05
0.00028030998
0.002353741
0.05624615
0.060825324
0.018575377
0.027481531
0.034417571
0.041322319
0.047248032
0.051330921
0.055833254
0.059938913
0.061944918
0.064187623
0.066190575
0.067313408
0.068295555
0.069772533
0.071055035
0.071245506
0.0716197
0.071957583
0.072471361
0.072786756
0.072618603
0.07298912
0.073395373
0.073177234
0.073056602
0.072883026
0.072535518
0.072526982
0.072140495
0.06688958
)
;
    }
    Inlet
    {
        type            turbulentIntensityKineticEnergyInlet;
        intensity       0.05;
        value           nonuniform List<scalar> 3(0.009689972 0.0082088394 0.0096760267);
    }
    Outlet
    {
        type            inletOutlet;
        inletValue      uniform 0;
        value           nonuniform List<scalar> 
86
(
0
0
0
0
0
0
0
0
0
0
0
0
0
0
0
0
0
0
0
0
0
0
0
0
0
0
0
0
0
0
0.00314123
0.0032464128
0.0026509683
0
0
0
0
0.00024519288
0.00021282042
0.00015599722
0
0
0
0
1.1847404e-05
7.9153299e-06
5.05892e-06
3.1067076e-06
1.8837071e-06
0
0
0
0
0
0
0
0
0
0
0
0
0
0
0
0
0
0
0
0
0
0
0
0
0
0
0
0
0
0
0
0
0
0
0
0.002584545
0.003242504
)
;
    }
    Front
    {
        type            wedge;
    }
    Back
    {
        type            wedge;
    }
    defaultFaces
    {
        type            empty;
    }
}


// ************************************************************************* //
