/*--------------------------------*- C++ -*----------------------------------*\
| =========                 |                                                 |
| \\      /  F ield         | OpenFOAM: The Open Source CFD Toolbox           |
|  \\    /   O peration     | Version:  4.0                                   |
|   \\  /    A nd           | Web:      www.OpenFOAM.org                      |
|    \\/     M anipulation  |                                                 |
\*---------------------------------------------------------------------------*/
FoamFile
{
    version     2.0;
    format      ascii;
    class       volScalarField;
    location    "0.47";
    object      p;
}
// * * * * * * * * * * * * * * * * * * * * * * * * * * * * * * * * * * * * * //

dimensions      [0 2 -2 0 0 0 0];

internalField   nonuniform List<scalar> 
1740
(
491.60967
491.69995
491.76028
475.09473
475.01995
475.2873
458.76531
458.44134
458.87424
442.52679
442.27027
442.36559
426.22792
426.01243
425.6783
409.49874
409.4952
409.1971
392.88039
393.17752
393.05221
376.75327
376.81337
376.87496
360.58116
360.43997
360.41956
344.43598
344.34165
344.09228
328.0874
328.05135
327.93511
311.13893
311.193
311.27614
294.32793
294.39419
294.48157
278.25636
278.18889
278.14106
261.87313
261.84199
261.71312
245.15563
245.22105
245.18233
228.78303
228.8492
229.0039
212.317
212.3021
212.44179
195.59037
195.48705
195.4607
178.55563
178.49281
178.52222
161.40619
161.45591
161.67096
144.58856
144.6852
144.80875
127.54804
127.69722
127.73292
110.59809
110.65812
110.80831
94.313442
94.099461
93.953918
77.78167
77.670022
77.484224
61.425985
61.698539
61.807978
46.021492
46.193654
46.299808
30.78797
30.678451
30.725093
16.115973
15.89341
15.420236
4.0983621
3.4838627
1.4363999
-0.66840698
-0.64195288
-0.5397374
-0.23306186
-0.23872861
-0.23964717
-0.099443589
-0.10744896
-0.11855062
-0.079289911
-0.082248874
-0.08518858
-0.070103
-0.070674151
-0.069920177
-0.062221456
-0.061879477
-0.060402287
-0.055549547
-0.05500782
-0.053540966
-0.049719043
-0.049178004
-0.047875417
-0.044398697
-0.043920708
-0.042826507
-0.039634575
-0.039235437
-0.038340905
-0.035576569
-0.035246376
-0.034508407
-0.032144842
-0.031870061
-0.031262855
-0.02923117
-0.029002551
-0.028499731
-0.026727156
-0.026536031
-0.026115891
-0.024535409
-0.024373909
-0.024019731
-0.022584874
-0.022447534
-0.02214637
-0.020829798
-0.020712212
-0.020454429
-0.019239595
-0.019138325
-0.018916304
-0.017791527
-0.017703776
-0.017511343
-0.016466918
-0.016390376
-0.016222475
-0.015249892
-0.015182696
-0.015035261
-0.014127063
-0.014067729
-0.013937518
-0.013087303
-0.013034647
-0.012919072
-0.012121474
-0.012074543
-0.01197152
-0.01122209
-0.011180111
-0.011087947
-0.010382971
-0.010345312
-0.010262622
-0.0095989188
-0.0095650565
-0.0094906958
-0.0088654568
-0.0088349529
-0.0087679609
-0.0081786426
-0.0081511268
-0.0080906924
-0.0075349453
-0.0075101033
-0.0074555371
-0.0069311586
-0.0069087212
-0.0068594335
-0.0063643316
-0.0063440671
-0.0062995499
-0.0058317154
-0.0058134228
-0.0057732346
-0.0053307185
-0.0053142223
-0.0052779791
-0.0048588806
-0.004844028
-0.004811394
-0.0044138507
-0.0044005075
-0.0043711888
-0.0039933732
-0.0039814218
-0.0039551603
-0.0035952791
-0.003584616
-0.0035611846
-0.003217479
-0.0032080132
-0.0031872122
-0.0028579547
-0.0028496068
-0.0028312623
-0.0025147562
-0.0025074576
-0.0024914175
-0.0021859934
-0.0021796842
-0.0021658183
-0.0018698319
-0.0018644613
-0.0018526578
-0.0015644847
-0.0015600094
-0.0015501736
-0.0012681952
-0.0012645798
-0.0012566336
-0.00097921739
-0.00097643346
-0.0009703142
-0.0006958168
-0.00069384219
-0.00068950205
-0.0004161822
-0.00041500213
-0.00041240893
-0.00013862455
-0.00013823167
-0.00013736834
-1.4424065
-1.0061089
-0.42614185
-0.32190389
-0.20830395
-0.17511109
-0.11115744
-0.096561346
-0.08004535
-0.069967529
-0.065492912
-0.058495655
-0.057006151
-0.051904735
-0.050851738
-0.047053295
-0.04572433
-0.042801704
-0.041107749
-0.038811522
-0.036967374
-0.035150111
-0.033391974
-0.03192785
-0.03034814
-0.029149344
-0.027743295
-0.026751465
-0.02548355
-0.024653996
-0.02348646
-0.022786009
-0.021693232
-0.021097303
-0.020066585
-0.019556032
-0.018582124
-0.018141627
-0.017221459
-0.01683877
-0.015969339
-0.015634696
-0.014812827
-0.014518432
-0.013740961
-0.013480566
-0.012744528
-0.01251311
-0.011815871
-0.011609371
-0.010948661
-0.010763766
-0.010137621
-0.0099716054
-0.0093782554
-0.0092288566
-0.0086666382
-0.0085319589
-0.0079992685
-0.0078777046
-0.0073729747
-0.0072631605
-0.0067848448
-0.0066856093
-0.0062321697
-0.006142502
-0.005712398
-0.0056314207
-0.0052231076
-0.0051500553
-0.0047619809
-0.0046961839
-0.0043267907
-0.0042676619
-0.0039153878
-0.0038624111
-0.0035256951
-0.0034784168
-0.0031557043
-0.0031137257
-0.0028034735
-0.0027664461
-0.0024671188
-0.0024347388
-0.0021448117
-0.0021168162
-0.0018347742
-0.0018109389
-0.0015352705
-0.001515406
-0.0012445932
-0.0012285435
-0.00096104131
-0.00094867987
-0.00068292505
-0.00067415707
-0.00040847964
-0.00040324143
-0.00013606035
-0.00013431665
-0.033954419
-0.032742445
-0.030615803
-0.027948061
-0.025092674
-0.022291973
-0.019682232
-0.017318901
-0.015213656
-0.013353275
-0.011714663
-0.010270579
-0.0089960865
-0.0078669037
-0.0068596122
-0.0059540061
-0.0051332125
-0.0043825415
-0.0036894047
-0.0030434341
-0.0024358214
-0.0018599109
-0.0013101186
-0.00078077444
-0.00026140544
-0.034901561
-0.033528875
-0.031190685
-0.028332981
-0.025369637
-0.022541776
-0.019958498
-0.017653405
-0.015624216
-0.013846551
-0.012287836
-0.010916527
-0.0096992505
-0.0086065988
-0.0076152998
-0.0067052167
-0.0058563937
-0.0050537138
-0.0042911321
-0.0035628803
-0.002863611
-0.0021911999
-0.0015429148
-0.00091336902
-0.00029545906
-0.040118376
-0.038301559
-0.035516979
-0.032494498
-0.029677783
-0.027181765
-0.025014511
-0.023146677
-0.021453629
-0.019878276
-0.018383988
-0.016947117
-0.015550054
-0.014181217
-0.01283134
-0.011495703
-0.010175956
-0.0088752971
-0.0075916336
-0.0063253269
-0.0050822866
-0.0038698957
-0.0026930697
-0.0015569015
-0.00047340828
-0.057317462
-0.054841516
-0.051876031
-0.049239877
-0.046906338
-0.044667872
-0.042394232
-0.040022039
-0.037593593
-0.035133388
-0.03265602
-0.030179068
-0.027709934
-0.025248552
-0.022801102
-0.020376671
-0.017984083
-0.015630563
-0.01332195
-0.01106237
-0.0088709917
-0.0067510286
-0.0046999596
-0.0027244383
-0.00085038288
-0.11045771
-0.10627872
-0.10104343
-0.094343168
-0.087659443
-0.080884066
-0.074218648
-0.067766469
-0.061562105
-0.055644069
-0.05009729
-0.044905317
-0.040006442
-0.035251214
-0.030847517
-0.026791271
-0.023058026
-0.019620537
-0.016449092
-0.013513115
-0.010766815
-0.0081806735
-0.0057345471
-0.0034005375
-0.0011564148
-0.27915961
-0.22809392
-0.19921884
-0.16339801
-0.13426211
-0.10917727
-0.088043141
-0.070730262
-0.056663981
-0.04526062
-0.036003685
-0.028552542
-0.022591865
-0.017895306
-0.014070456
-0.010997539
-0.0085358013
-0.0065689654
-0.0050045586
-0.0037664497
-0.0027874531
-0.0020071431
-0.0013778091
-0.00085112988
-0.00042370115
-0.38605999
-0.16634528
-0.11051027
-0.070494419
-0.034515273
-0.0058113817
0.012999852
0.023053465
0.027583287
0.029137706
0.029014366
0.027859616
0.026047699
0.023865044
0.02151456
0.01912303
0.016765387
0.014482513
0.012291375
0.010193177
0.0081791624
0.0062367225
0.0043443274
0.0024950944
0.00060643923
-0.25324586
-0.21241694
-0.17826385
-0.14767582
-0.12066845
-0.097343019
-0.077962872
-0.062188467
-0.049446342
-0.039222402
-0.031010682
-0.02443474
-0.019185116
-0.014966985
-0.011590882
-0.0089005159
-0.0067720213
-0.0050989707
-0.0037940775
-0.0027858045
-0.0020143777
-0.0014270325
-0.00097885909
-0.0006225223
-0.00035763277
-0.14796416
-0.12896914
-0.11482029
-0.10334275
-0.093434322
-0.084693007
-0.07671272
-0.069368653
-0.062577745
-0.056255126
-0.050375598
-0.044814015
-0.039613996
-0.034827288
-0.030436925
-0.026402546
-0.022695803
-0.019286413
-0.016142822
-0.013234306
-0.01053034
-0.0080003182
-0.0056147777
-0.0033403409
-0.0011479787
-0.081431823
-0.070777921
-0.063329981
-0.05787713
-0.053634565
-0.050097419
-0.046922741
-0.043926256
-0.041015215
-0.03814074
-0.035303226
-0.03250579
-0.029738003
-0.027001908
-0.024308877
-0.021678626
-0.019111652
-0.016607685
-0.014165891
-0.011784796
-0.0094642545
-0.0072065352
-0.0050171863
-0.0029060871
-0.00090539833
-0.058859024
-0.048713282
-0.040997555
-0.035387303
-0.031418718
-0.028707609
-0.026584032
-0.024777404
-0.023143283
-0.021596593
-0.020091748
-0.018612341
-0.01714259
-0.015683787
-0.014236463
-0.012801174
-0.011367383
-0.0099366186
-0.0085140718
-0.0071047562
-0.0057143604
-0.0043502227
-0.0030215175
-0.0017381947
-0.00052245836
-0.050525811
-0.042544433
-0.035671906
-0.030168636
-0.025733606
-0.022040058
-0.019205463
-0.016980237
-0.01518249
-0.013680825
-0.012379565
-0.011227074
-0.010172941
-0.009174002
-0.0082343675
-0.0073495738
-0.0064924417
-0.0056558557
-0.0048386831
-0.0040399354
-0.0032597779
-0.0024990874
-0.0017584736
-0.0010360097
-0.00032797939
-0.045903869
-0.039742505
-0.034056023
-0.029186597
-0.025137326
-0.021764395
-0.018885635
-0.016477992
-0.014461639
-0.012759498
-0.011307164
-0.010035392
-0.008905684
-0.0078887249
-0.0069513837
-0.0060738914
-0.0052624381
-0.0045120611
-0.0038158908
-0.0031611307
-0.0025400514
-0.0019466828
-0.0013757343
-0.00082119246
-0.00027294555
-0.042531376
-0.037749071
-0.033128433
-0.028933672
-0.02524987
-0.022056316
-0.01928652
-0.016903734
-0.014857878
-0.013096407
-0.011570116
-0.010233303
-0.0090547429
-0.0080071145
-0.0070561724
-0.0061807261
-0.0053700186
-0.0046125405
-0.0038974255
-0.0032222838
-0.0025818113
-0.0019709387
-0.0013851918
-0.00082054082
-0.0002721472
-0.039320707
-0.035559032
-0.031794797
-0.028237928
-0.024990103
-0.022079605
-0.01949465
-0.017214849
-0.015211536
-0.013451787
-0.011901685
-0.010530324
-0.0093103087
-0.0082169321
-0.0072250492
-0.0063156148
-0.0054753473
-0.0046930763
-0.0039593096
-0.0032677845
-0.0026128834
-0.0019897704
-0.0013942631
-0.0008226959
-0.00027162257
-0.036076128
-0.033079188
-0.030012895
-0.027026191
-0.024213887
-0.021623002
-0.019267542
-0.01714355
-0.015238258
-0.013532989
-0.012006253
-0.010637464
-0.0094070138
-0.0082959726
-0.0072848546
-0.006357337
-0.0055009721
-0.0047052183
-0.0039616901
-0.0032634716
-0.0026047669
-0.0019804341
-0.0013857781
-0.00081639171
-0.00026869254
-0.032970818
-0.030554306
-0.028032498
-0.025521569
-0.023101312
-0.020821247
-0.018705298
-0.016761866
-0.014987882
-0.013374457
-0.011909077
-0.01057872
-0.0093698149
-0.0082684586
-0.0072605431
-0.0063331124
-0.0054752022
-0.0046779179
-0.0039337859
-0.0032364943
-0.0025803537
-0.0019600004
-0.0013706803
-0.00080680948
-0.00026381693
-0.030168209
-0.028196008
-0.026105361
-0.023984889
-0.021901664
-0.019901496
-0.018012244
-0.016248168
-0.014613648
-0.013106036
-0.011719369
-0.010445977
-0.0092768494
-0.0082021719
-0.0072124241
-0.0062968698
-0.0054472652
-0.0046560108
-0.0039164361
-0.0032227579
-0.0025695887
-0.0019518905
-0.0013653381
-0.00080421426
-0.00026281493
-0.027706347
-0.026077137
-0.024328952
-0.022527457
-0.020727908
-0.018971814
-0.01728762
-0.015692137
-0.014193699
-0.012794326
-0.011492381
-0.010284004
-0.0091637805
-0.0081252099
-0.0071613582
-0.0062648464
-0.0054289793
-0.0046474451
-0.0039144613
-0.0032246887
-0.002573493
-0.001956049
-0.001370407
-0.00080810717
-0.00026143607
-0.025554015
-0.024192475
-0.02271592
-0.021174296
-0.019612771
-0.018067609
-0.016565533
-0.015124278
-0.013754135
-0.012460138
-0.011243522
-0.010103126
-0.0090360215
-0.00803822
-0.0071050448
-0.0062313188
-0.0054118993
-0.0046417878
-0.0039162266
-0.0032306754
-0.0025810645
-0.0019635515
-0.0013748147
-0.00080946618
-0.00026347313
-0.023649598
-0.022500416
-0.021243019
-0.019915988
-0.018555582
-0.017192485
-0.015850856
-0.014548251
-0.013296343
-0.012101969
-0.010968278
-0.0098958564
-0.0088835618
-0.0079292036
-0.0070296481
-0.0061814476
-0.0053809922
-0.0046245412
-0.0039083828
-0.0032288838
-0.0025826163
-0.0019662973
-0.0013767795
-0.00081047114
-0.00026463814
-0.021935483
-0.020957458
-0.019879509
-0.018731328
-0.017541624
-0.016336086
-0.015136097
-0.013958246
-0.012814507
-0.011712797
-0.010657776
-0.0096515149
-0.0086942267
-0.0077848714
-0.0069216036
-0.0061021371
-0.005324001
-0.0045845811
-0.0038811366
-0.0032109062
-0.0025711302
-0.0019591046
-0.001372221
-0.00080794253
-0.0002640961
-0.020371625
-0.019533425
-0.018603602
-0.017605073
-0.016560712
-0.015491854
-0.014417074
-0.013351529
-0.012306837
-0.011291346
-0.010310597
-0.0093678222
-0.0084645115
-0.0076007681
-0.0067757273
-0.0059879552
-0.0052357481
-0.0045172283
-0.0038304297
-0.0031733302
-0.0025438421
-0.0019398945
-0.0013595143
-0.00080071835
-0.00026168304
-0.018932694
-0.018209667
-0.017402907
-0.016530238
-0.015610024
-0.01465992
-0.013695841
-0.012731341
-0.011777324
-0.010842104
-0.0099316576
-0.0090499642
-0.0081994017
-0.0073810521
-0.00659502
-0.005840684
-0.0051169628
-0.0044225472
-0.0037559784
-0.0031157505
-0.0025003522
-0.0019082835
-0.0013381272
-0.00078836758
-0.00025759036
-0.017602483
-0.016974753
-0.016270754
-0.015504472
-0.014690657
-0.013843876
-0.012977675
-0.012103995
-0.011232848
-0.010372235
-0.009528246
-0.0087052683
-0.0079062421
-0.0071329398
-0.0063862071
-0.005666144
-0.0049723462
-0.0043040448
-0.003660254
-0.0030398862
-0.0024418428
-0.0018650446
-0.0013085037
-0.00077112137
-0.00025184697
-0.01636928
-0.015820839
-0.015203081
-0.014527073
-0.0138047
-0.01304796
-0.012268316
-0.011476187
-0.010680617
-0.0098891201
-0.0091076757
-0.0083408374
-0.0075918951
-0.0068630775
-0.0061557436
-0.0054705626
-0.0048076839
-0.0041668552
-0.0035475751
-0.0029491883
-0.00237095
-0.001812104
-0.0012719545
-0.00074972194
-0.00024464426
-0.015223287
-0.01474131
-0.014196391
-0.013597359
-0.012953831
-0.012275708
-0.011572668
-0.010853736
-0.010126978
-0.0093993229
-0.0086764904
-0.0079630278
-0.007262404
-0.0065771451
-0.0059089832
-0.0052590058
-0.0046277867
-0.0040155137
-0.0034221012
-0.0028472764
-0.0022906387
-0.0017517259
-0.0012300952
-0.00072510549
-0.00023629704
-0.014155861
-0.013730051
-0.013247093
-0.012714084
-0.012138849
-0.011529582
-0.010894449
-0.010241241
-0.0095770886
-0.0089082906
-0.0082402163
-0.0075772858
-0.0069230162
-0.006280105
-0.0056505406
-0.0050357178
-0.0044365467
-0.0038535605
-0.003287008
-0.002736932
-0.0022032305
-0.0016857111
-0.001184168
-0.00069805007
-0.00022715993
-0.013159398
-0.012781427
-0.012351559
-0.01187554
-0.011359775
-0.010811063
-0.010236297
-0.0096421836
-0.0090349967
-0.0084204117
-0.007803396
-0.0071881629
-0.0065781801
-0.0059762173
-0.0053844217
-0.0048044039
-0.0042373256
-0.003683987
-0.0031449041
-0.002620378
-0.002110552
-0.0016154606
-0.0011351093
-0.00066922433
-0.00021775898
-0.012227333
-0.011890423
-0.011506365
-0.011079855
-0.010616159
-0.01012094
-0.009600019
-0.0090591569
-0.0085038586
-0.0079392057
-0.007369747
-0.00679944
-0.0062316349
-0.0056690968
-0.0051140524
-0.0045682519
-0.0040330355
-0.0035094037
-0.0029980814
-0.0024995771
-0.0020142345
-0.0015422804
-0.0010839269
-0.00063922557
-0.00020825391
-0.0113541
-0.011052708
-0.010708457
-0.010325219
-0.0099073547
-0.0094595906
-0.0089868575
-0.0084941061
-0.0079861489
-0.0074675105
-0.0069423241
-0.0064142654
-0.0058865232
-0.005361802
-0.0048423467
-0.004329984
-0.0038261729
-0.003332058
-0.0028485234
-0.0023762429
-0.0019157251
-0.0014673635
-0.0010315518
-0.0006084861
-0.00019834548
-0.010535002
-0.010264564
-0.0099551509
-0.0096099634
-0.0092326456
-0.0088271609
-0.0083976991
-0.0079485206
-0.0074838214
-0.0070076124
-0.0065236253
-0.0060352447
-0.0055454702
-0.0050569054
-0.0045717665
-0.0040919084
-0.003618859
-0.0031538615
-0.0026979171
-0.0022518273
-0.0018162338
-0.001391664
-0.00097862506
-0.00057736606
-0.00018812691
-0.0097660443
-0.0095227726
-0.0092440393
-0.0089325192
-0.0085912568
-0.008223604
-0.0078331346
-0.007423509
-0.0069983903
-0.006561323
-0.0061156618
-0.0056645006
-0.0052106346
-0.0047565384
-0.0043043648
-0.0038559573
-0.0034128739
-0.002976418
-0.0025476705
-0.0021275267
-0.0017167277
-0.0013158977
-0.00092561784
-0.00054616642
-0.00017786197
-0.0090437463
-0.0088244719
-0.0085729231
-0.0082913431
-0.0079823071
-0.0076486532
-0.0072934269
-0.0069197975
-0.0065309488
-0.0061300123
-0.0057199966
-0.0053037125
-0.0048837459
-0.0044624251
-0.0040418134
-0.003623713
-0.0032096801
-0.0028010446
-0.0023989358
-0.0020043097
-0.0016179774
-0.0012406287
-0.00087289858
-0.00051512282
-0.00016769719
-0.0083649889
-0.0081670413
-0.0079397142
-0.0076849044
-0.0074047925
-0.007101813
-0.0067785472
-0.0064377457
-0.006082186
-0.0057146353
-0.0053377737
-0.0049541479
-0.0045661369
-0.0041759127
-0.0037854313
-0.0033964312
-0.0030104412
-0.0026287911
-0.0022526312
-0.001882953
-0.001520611
-0.0011663408
-0.00082082511
-0.00048445097
-0.00015767635
-0.0077269179
-0.0075480292
-0.0073423998
-0.0071116409
-0.0068576098
-0.0065823768
-0.0062881917
-0.0059774039
-0.0056524514
-0.005315771
-0.0049697514
-0.0046166975
-0.0042587755
-0.0038980011
-0.0035362127
-0.0031750688
-0.0028160518
-0.0024604701
-0.0021094735
-0.0017640677
-0.0014251308
-0.0010934301
-0.0007696911
-0.00045432499
-0.00014782885
-0.0071268871
-0.0069651168
-0.0067790141
-0.0065699565
-0.0063395305
-0.0060895115
-0.0058218379
-0.0055385573
-0.0052417889
-0.0049336843
-0.0046163718
-0.0042919219
-0.0039623068
-0.0036293811
-0.0032948617
-0.0029603191
-0.0026271702
-0.0022966871
-0.0019700022
-0.0016481194
-0.0013319246
-0.0010222042
-0.00071971515
-0.00042487499
-0.00013819944
-0.0065624151
-0.0064160912
-0.0062476375
-0.006058238
-0.0058492549
-0.0056222161
-0.0053787943
-0.0051207703
-0.00485
-0.0045683768
-0.0042777929
-0.0039801049
-0.0036771028
-0.0033704842
-0.0030618421
-0.0027526487
-0.0024442496
-0.0021378668
-0.0018346019
-0.0015354427
-0.0012412743
-0.000952887
-0.00067105386
-0.00039619023
-0.00012882343
-0.0060311455
-0.0058988192
-0.0057463841
-0.0055748609
-0.0053854233
-0.0051793916
-0.0049582123
-0.0047234343
-0.0044766835
-0.0042196286
-0.0039539476
-0.0036813021
-0.0034033113
-0.0031215242
-0.0028374088
-0.0025523351
-0.0022675717
-0.0019842816
-0.0017035251
-0.0014262645
-0.0011533698
-0.00088562674
-0.00062381214
-0.00036833372
-0.00011972481
-0.0055308246
-0.0054112335
-0.0052733935
-0.0051181862
-0.0049466254
-0.0047598532
-0.0045591241
-0.0043457894
-0.0041212706
-0.0038870367
-0.0036445784
-0.0033953776
-0.0031408934
-0.0028825344
-0.0026216472
-0.0023594987
-0.0020972765
-0.0018360785
-0.0015769156
-0.0013207152
-0.0010683238
-0.000820513
-0.00057805491
-0.00034134676
-0.00011091687
-0.0050592789
-0.0049513204
-0.0048268274
-0.0046865624
-0.0045314044
-0.0043623424
-0.0041804667
-0.0039869549
-0.0037830514
-0.003570049
-0.0033492674
-0.0031220324
-0.0028896498
-0.0026533957
-0.0024144982
-0.0021741281
-0.0019333849
-0.0016932982
-0.0014548243
-0.0012188483
-0.00098618552
-0.00075758635
-0.00053381106
-0.00031524612
-0.00010240397
-0.0046144029
-0.0045171094
-0.0044048653
-0.0042783327
-0.0041382728
-0.0039855442
-0.0038210952
-0.003645952
-0.0034612042
-0.0032679886
-0.0030674723
-0.0028608342
-0.002649245
-0.0024338566
-0.0022157831
-0.0019960968
-0.0017758134
-0.0015558897
-0.0013372245
-0.0011206539
-0.00090695528
-0.00069685088
-0.0004910833
-0.00029003363
-9.4185956e-05
-0.0041941517
-0.0041066714
-0.0040057096
-0.0038918396
-0.0037657224
-0.003628103
-0.0034798065
-0.0033217277
-0.0031548195
-0.0029800798
-0.0027985394
-0.0026112438
-0.0024192394
-0.0022235604
-0.002025216
-0.0018251812
-0.0016243892
-0.0014237232
-0.0012240204
-0.001026064
-0.00083058725
-0.00063827659
-0.00044985075
-0.00026569219
-8.6256351e-05
-0.0037965353
-0.0037181189
-0.0036275858
-0.0035254337
-0.0034122352
-0.0032886378
-0.0031553579
-0.0030131748
-0.0028629215
-0.0027054724
-0.0025417355
-0.0023726357
-0.0021991043
-0.0020220662
-0.0018424304
-0.0016610801
-0.0014788654
-0.0012966009
-0.0011150555
-0.00093495761
-0.00075699222
-0.00058180076
-0.00041007082
-0.00024219046
-7.86187e-05
-0.0034196157
-0.0033496035
-0.0032687478
-0.0031774793
-0.0030762945
-0.0029657542
-0.0028464801
-0.002719149
-0.0025844871
-0.0024432617
-0.0022962673
-0.00214432
-0.0019882446
-0.001828865
-0.0016669953
-0.001503431
-0.0013389428
-0.0011742722
-0.0010101247
-0.00084717084
-0.00068604454
-0.00052733866
-0.0003716933
-0.00021951335
-7.1265487e-05
-0.0030615083
-0.0029993205
-0.0029274805
-0.0028463608
-0.0027563901
-0.0026580533
-0.0025518881
-0.0024384815
-0.002318464
-0.002192504
-0.0020612969
-0.0019255582
-0.0017860152
-0.0016433979
-0.0014984305
-0.0013518249
-0.0012042741
-0.0010564481
-0.00090898894
-0.00076250944
-0.0006175918
-0.00047478267
-0.00033467869
-0.00019765938
-6.4159641e-05
-0.0027203806
-0.0026655086
-0.0026021038
-0.0025304869
-0.0024510273
-0.0023641419
-0.0022702939
-0.0021699899
-0.002063775
-0.0019522281
-0.0018359541
-0.0017155774
-0.001591735
-0.0014650689
-0.0013362191
-0.0012058171
-0.0010744812
-0.00094281144
-0.00081138668
-0.00068076197
-0.00055146785
-0.00042400652
-0.00029893207
-0.0001765686
-5.729283e-05
-0.0023944495
-0.0023464496
-0.0022909738
-0.0022282962
-0.0021587324
-0.0020826391
-0.0020004128
-0.0019124878
-0.0018193328
-0.0017214451
-0.001619347
-0.0015135792
-0.0014046947
-0.0012932534
-0.0011798155
-0.0010649363
-0.00094916156
-0.0008330236
-0.00071703858
-0.00060170414
-0.00048749867
-0.00037487842
-0.00026434232
-0.000156162
-5.0642174e-05
-0.0020819787
-0.0020404679
-0.0019924824
-0.001938255
-0.0018780531
-0.0018121789
-0.0017409691
-0.0016647923
-0.0015840472
-0.0014991578
-0.00141057
-0.0013187472
-0.0012241648
-0.001127305
-0.0010286525
-0.00092868962
-0.00082789224
-0.00072672676
-0.00062564712
-0.00052509327
-0.00042548975
-0.00032724089
-0.0002307844
-0.00013635067
-4.4205323e-05
-0.0017812757
-0.0017459252
-0.0017050542
-0.0016588576
-0.001607559
-0.0015514114
-0.0014906966
-0.0014257238
-0.0013568272
-0.0012843635
-0.0012087086
-0.0011302535
-0.0010494009
-0.00096656022
-0.00088214418
-0.00079656509
-0.00071023123
-0.00062354404
-0.00053689591
-0.00045066813
-0.00036522939
-0.00028092945
-0.00019814408
-0.00011707056
-3.794825e-05
-0.0014906824
-0.0014612149
-0.0014271408
-0.0013886205
-0.0013458373
-0.001298999
-0.0012483371
-0.0011941058
-0.0011365802
-0.0010760546
-0.0010128394
-0.00094725834
-0.0008796452
-0.00081034047
-0.00073968834
-0.0006680336
-0.00059571862
-0.00052308105
-0.00045045156
-0.0003781522
-0.00030649447
-0.00023577374
-0.00016630707
-9.8262823e-05
-3.1849741e-05
-0.0012085644
-0.0011847501
-0.0011572103
-0.0011260728
-0.0010914833
-0.0010536082
-0.0010126323
-0.00096875862
-0.00092220725
-0.00087321383
-0.0008220274
-0.00076890806
-0.00071412433
-0.00065795088
-0.00060066594
-0.0005425488
-0.00048387755
-0.00042492681
-0.00036596587
-0.00030725716
-0.00024905464
-0.00019159959
-0.00013515328
-7.98582e-05
-2.5887412e-05
-0.0009332912
-0.00091494697
-0.00089373193
-0.00086974132
-0.00084308763
-0.00081389828
-0.00078231384
-0.00074848966
-0.00071259388
-0.00067480678
-0.00063531899
-0.00059432981
-0.00055204502
-0.00050867615
-0.00046443758
-0.00041954479
-0.00037421266
-0.00032865362
-0.00028307611
-0.00023768322
-0.00019267145
-0.00014822832
-0.00010455981
-6.1782323e-05
-2.003326e-05
-0.00066324181
-0.00065022982
-0.00063517862
-0.00061815754
-0.00059924558
-0.00057853115
-0.00055611434
-0.0005321054
-0.00050662306
-0.00047979451
-0.00045175406
-0.00042264212
-0.00039260457
-0.00036179108
-0.00033035362
-0.00029844516
-0.00026621835
-0.00023382433
-0.00020141138
-0.00016912382
-0.00013710109
-0.00010547677
-7.4400224e-05
-4.3958809e-05
-1.4260306e-05
-0.00039672028
-0.00038894583
-0.00037995203
-0.00036978047
-0.00035847802
-0.00034609746
-0.00033269864
-0.0003183469
-0.00030311407
-0.00028707607
-0.00027031251
-0.00025290682
-0.00023494587
-0.00021651863
-0.0001977157
-0.00017862847
-0.0001593483
-0.00013996567
-0.00012056936
-0.00010124565
-8.2077686e-05
-6.3145043e-05
-4.4534051e-05
-2.6308466e-05
-8.5435464e-06
-0.00013214582
-0.00012955757
-0.00012656319
-0.00012317598
-0.00011941192
-0.00011528865
-0.00011082613
-0.00010604639
-0.00010097289
-9.5632498e-05
-9.0050371e-05
-8.4254647e-05
-7.8273823e-05
-7.2137245e-05
-6.5874952e-05
-5.95174e-05
-5.3095078e-05
-4.6638206e-05
-4.0176423e-05
-3.3738466e-05
-2.7351847e-05
-2.1042656e-05
-1.4839288e-05
-8.7656078e-06
-2.848618e-06
)
;

boundaryField
{
    Walls
    {
        type            zeroGradient;
    }
    Inlet
    {
        type            fixedValue;
        value           uniform 500;
    }
    Outlet
    {
        type            fixedValue;
        value           uniform 0;
    }
    Front
    {
        type            wedge;
    }
    Back
    {
        type            wedge;
    }
    defaultFaces
    {
        type            empty;
    }
}


// ************************************************************************* //
