/*--------------------------------*- C++ -*----------------------------------*\
| =========                 |                                                 |
| \\      /  F ield         | OpenFOAM: The Open Source CFD Toolbox           |
|  \\    /   O peration     | Version:  4.0                                   |
|   \\  /    A nd           | Web:      www.OpenFOAM.org                      |
|    \\/     M anipulation  |                                                 |
\*---------------------------------------------------------------------------*/
FoamFile
{
    version     2.0;
    format      ascii;
    class       volVectorField;
    location    "0.47";
    object      U;
}
// * * * * * * * * * * * * * * * * * * * * * * * * * * * * * * * * * * * * * //

dimensions      [0 1 -1 0 0 0 0];

internalField   nonuniform List<vector> 
1740
(
(1.5955514 -0.0061954999 4.8101875e-06)
(1.4832098 -0.014608875 8.1385184e-07)
(1.6061256 -0.0050366673 1.6437751e-08)
(1.7016475 0.0037968691 7.9347508e-06)
(1.5098462 -0.036063509 1.5022298e-06)
(1.6048266 -0.027965405 3.0870914e-07)
(1.590373 0.012783616 1.1421897e-05)
(1.5999586 -0.028793217 2.4267191e-06)
(1.5019045 -0.028288964 4.6261386e-07)
(1.5934752 -0.003489806 1.310443e-05)
(1.7244611 0.0022086761 3.3681795e-06)
(1.5167841 -0.002621872 5.6207436e-07)
(1.5972593 -0.0019516558 1.5381524e-05)
(1.6093098 0.023416252 4.3501414e-06)
(1.5206777 0.012566417 8.258769e-07)
(1.5169612 0.0013149322 1.649016e-05)
(1.6170477 0.013905719 4.9979633e-06)
(1.49412 0.0073064961 9.9408889e-07)
(1.6053499 -0.0034384533 1.7662235e-05)
(1.6043926 0.016331584 5.9392456e-06)
(1.5881583 0.010695897 1.1080573e-06)
(1.5647944 0.003042555 1.8153095e-05)
(1.4884383 0.0017465194 6.5707391e-06)
(1.6036415 -0.0060666462 1.3821174e-06)
(1.5677387 0.0089550352 1.8449159e-05)
(1.5925548 -0.0033128735 7.115218e-06)
(1.491271 -0.0079125981 1.5557119e-06)
(1.5759754 0.0023185322 1.9015515e-05)
(1.5851864 0.022192994 7.9200312e-06)
(1.592306 0.010267927 1.7120617e-06)
(1.5017496 -6.2655215e-05 1.9109777e-05)
(1.5047191 0.0099935046 8.3571461e-06)
(1.6109199 0.0035064782 1.9514743e-06)
(1.5284726 -0.013272488 1.9486242e-05)
(1.5352374 -0.015185907 8.9241974e-06)
(1.5675288 -0.008584628 2.1267573e-06)
(1.6007486 -0.0071523618 2.0132837e-05)
(1.5476909 0.0005480489 9.4486074e-06)
(1.5490058 0.003530846 2.3394615e-06)
(1.5821228 0.0099877645 2.0629263e-05)
(1.5312195 0.023061393 1.0020098e-05)
(1.6111587 0.014088092 2.4886973e-06)
(1.5117569 0.012827514 2.0792634e-05)
(1.5203396 0.011470741 1.0422631e-05)
(1.6261738 -0.00040413958 2.7322856e-06)
(1.5060989 -0.0081658373 2.0947156e-05)
(1.5130064 -0.016019465 1.1017875e-05)
(1.6082187 -0.0084327954 2.9046737e-06)
(1.6003481 -0.020654445 2.1202273e-05)
(1.533744 -0.028127495 1.1326183e-05)
(1.6086122 -0.012408004 3.1008469e-06)
(1.6156479 0.00078452632 2.1357955e-05)
(1.5529001 -0.0032033598 1.1773386e-05)
(1.5299272 -0.0033534509 3.2979739e-06)
(1.5245328 0.0084474501 2.1405582e-05)
(1.5419155 0.0080023701 1.2137447e-05)
(1.5649464 0.0031343468 3.453082e-06)
(1.5459066 -0.00036891057 2.1630929e-05)
(1.5538954 -0.0093439242 1.2467692e-05)
(1.5583814 -0.0059305726 3.6005848e-06)
(1.5662196 -0.0047520062 2.1782985e-05)
(1.5871392 -0.006632524 1.2801718e-05)
(1.5407611 -0.0036918983 3.8005129e-06)
(1.566911 -0.0027983909 2.1713644e-05)
(1.5914414 0.0017244376 1.3150672e-05)
(1.5553621 0.0056769393 3.9651411e-06)
(1.5529697 -0.0059344389 2.1759785e-05)
(1.5738957 -0.00094860643 1.3428962e-05)
(1.5596018 -0.0013838529 4.1184089e-06)
(1.6301935 -0.0064092387 2.2136122e-05)
(1.599433 -0.0026402385 1.3880275e-05)
(1.5499739 -0.00031719589 4.2603368e-06)
(1.6009103 0.0022354603 2.2507622e-05)
(1.5711811 0.020897183 1.4203315e-05)
(1.5304111 0.014267434 4.4137741e-06)
(1.4871159 0.0065575184 2.2278658e-05)
(1.502604 0.0023998566 1.4417398e-05)
(1.5738706 0.0017134418 4.5536494e-06)
(1.5418568 -0.01205608 2.226056e-05)
(1.5648221 -0.026985717 1.462714e-05)
(1.5208814 -0.0092080077 4.7096308e-06)
(1.6248506 -0.0043489309 2.2845949e-05)
(1.5254725 -0.014481835 1.4942599e-05)
(1.5211563 -0.0034692127 4.8503205e-06)
(1.4932418 0.010610472 2.245648e-05)
(1.4691528 0.003186028 1.5098414e-05)
(1.5191082 -0.0060186325 4.8228364e-06)
(1.3082948 0.043074185 2.3607036e-05)
(1.3418637 0.10022855 1.5722711e-05)
(1.3488732 0.050568493 5.509679e-06)
(0.85183595 0.3772569 1.1447683e-05)
(0.8106697 0.94237845 9.897959e-06)
(0.74901818 1.2563654 5.3828776e-06)
(0.22550999 0.11476317 1.4397116e-06)
(0.19328889 0.37295573 3.0908031e-06)
(0.084876206 0.50994291 7.1653558e-07)
(-0.029943847 -0.013135237 1.2181852e-06)
(-0.028353047 -0.026867155 1.6764381e-06)
(-0.022517647 -0.031591446 5.7894465e-07)
(-0.0081531025 -0.0028505754 4.5056208e-07)
(-0.0083654608 -0.0075334129 7.3204894e-07)
(-0.0082956223 -0.010745744 3.3117239e-07)
(-0.0015635449 -0.00033314779 1.2163389e-07)
(-0.001978035 -0.0010435341 2.4053718e-07)
(-0.0026280121 -0.0019581268 1.0352504e-07)
(-0.00091787957 -7.3539462e-05 2.3957361e-08)
(-0.001102782 -0.00024994518 4.9677922e-08)
(-0.0013452034 -0.00056492012 -1.302224e-08)
(-0.00078659764 -3.8194954e-05 -5.1193716e-09)
(-0.00085126503 -0.00011602177 -1.6737756e-08)
(-0.00089127376 -0.00023010174 -5.7977788e-08)
(-0.0006765677 -9.9911428e-06 -1.4233036e-08)
(-0.0006908385 -3.0985221e-05 -3.712632e-08)
(-0.0006821878 -7.0903128e-05 -6.8897442e-08)
(-0.00060305553 -1.2868387e-05 -1.456899e-08)
(-0.00060258122 -2.4203935e-05 -3.8052063e-08)
(-0.00058295183 -4.2850614e-05 -6.3510919e-08)
(-0.00054490461 -2.2772161e-05 -1.1686641e-08)
(-0.00053983689 -5.1043694e-05 -3.1607236e-08)
(-0.00051817151 -8.3988307e-05 -5.1982877e-08)
(-0.00047654369 -2.9672312e-05 -8.4482396e-09)
(-0.00047077174 -6.8479184e-05 -2.3981181e-08)
(-0.00045182184 -0.00010971648 -3.9878539e-08)
(-0.00040465104 -2.7227828e-05 -6.0327577e-09)
(-0.00039975944 -6.358471e-05 -1.7599599e-08)
(-0.00038446591 -0.00010124643 -2.9569013e-08)
(-0.00034295271 -2.0904317e-05 -4.3687524e-09)
(-0.00033896617 -4.8947935e-05 -1.2785389e-08)
(-0.00032644032 -7.8679082e-05 -2.1506687e-08)
(-0.00029291281 -1.5171943e-05 -3.2141625e-09)
(-0.00028963381 -3.4246795e-05 -9.2579684e-09)
(-0.00027966741 -5.5075674e-05 -1.5420419e-08)
(-0.00025393035 -1.1284929e-05 -2.3529531e-09)
(-0.00025134483 -2.4302541e-05 -6.6229e-09)
(-0.00024342668 -3.8188448e-05 -1.085618e-08)
(-0.00022400265 -7.9364599e-06 -1.693206e-09)
(-0.00022198755 -1.8396576e-05 -4.6179821e-09)
(-0.00021565241 -2.9132011e-05 -7.4468766e-09)
(-0.00020036627 -6.6556248e-06 -1.1508976e-09)
(-0.00019877069 -1.5382087e-05 -3.0997737e-09)
(-0.00019364163 -2.4267778e-05 -4.9444567e-09)
(-0.00018085375 -5.857094e-06 -7.4383192e-10)
(-0.00017959265 -1.308791e-05 -1.9978729e-09)
(-0.00017538584 -2.1532352e-05 -3.1669122e-09)
(-0.0001642282 -5.2285129e-06 -4.6295597e-10)
(-0.00016323178 -1.1737851e-05 -1.2422669e-09)
(-0.00015976257 -1.9152858e-05 -1.959462e-09)
(-0.0001498461 -4.6072324e-06 -2.8351897e-10)
(-0.00014906608 -1.0387521e-05 -7.5458737e-10)
(-0.00014619728 -1.6796468e-05 -1.1786553e-09)
(-0.00013733511 -4.0025758e-06 -1.7660185e-10)
(-0.00013673089 -9.0345235e-06 -4.5644962e-10)
(-0.00013434965 -1.4581632e-05 -6.9598828e-10)
(-0.00012640817 -3.4707451e-06 -1.1500856e-10)
(-0.00012594287 -7.8525578e-06 -2.8056551e-10)
(-0.00012395213 -1.2676199e-05 -4.0825509e-10)
(-0.00011680829 -3.0480206e-06 -7.8938747e-11)
(-0.00011645117 -6.8710133e-06 -1.7774949e-10)
(-0.00011477183 -1.1103511e-05 -2.4070894e-10)
(-0.00010830591 -2.7084288e-06 -5.7422855e-11)
(-0.00010803289 -6.0992676e-06 -1.1768101e-10)
(-0.00010660297 -9.8655496e-06 -1.4469883e-10)
(-0.00010070436 -2.4358927e-06 -4.4889407e-11)
(-0.00010049686 -5.4937434e-06 -8.3281502e-11)
(-9.9268364e-05 -8.9019078e-06 -9.0727005e-11)
(-9.3843896e-05 -2.2184847e-06 -3.7175694e-11)
(-9.3687459e-05 -5.0106076e-06 -6.3034505e-11)
(-9.2622863e-05 -8.1246443e-06 -6.0464342e-11)
(-8.7600865e-05 -2.0347843e-06 -3.2228051e-11)
(-8.7484314e-05 -4.6012456e-06 -5.063505e-11)
(-8.6554356e-05 -7.4631111e-06 -4.3399562e-11)
(-8.1883129e-05 -1.8714608e-06 -2.9217042e-11)
(-8.179789e-05 -4.2371037e-06 -4.3045573e-11)
(-8.097984e-05 -6.8757365e-06 -3.3842909e-11)
(-7.6622634e-05 -1.7241068e-06 -2.7491012e-11)
(-7.656207e-05 -3.9078281e-06 -3.8452834e-11)
(-7.5837968e-05 -6.3447983e-06 -2.865247e-11)
(-7.1767965e-05 -1.591291e-06 -2.6493176e-11)
(-7.1726833e-05 -3.6099348e-06 -3.5619113e-11)
(-7.1082176e-05 -5.8667589e-06 -2.5895735e-11)
(-6.7279106e-05 -1.4713776e-06 -2.5791274e-11)
(-6.7253242e-05 -3.3426842e-06 -3.3677801e-11)
(-6.6676179e-05 -5.4343464e-06 -2.43943e-11)
(-6.312446e-05 -1.3627302e-06 -2.5241238e-11)
(-6.3110575e-05 -3.0978663e-06 -3.2275647e-11)
(-6.2591412e-05 -5.0372096e-06 -2.3564647e-11)
(-5.927906e-05 -1.2618598e-06 -2.4782696e-11)
(-5.9274561e-05 -2.870166e-06 -3.1200704e-11)
(-5.8805372e-05 -4.6686407e-06 -2.3066446e-11)
(-5.5723253e-05 -1.1653279e-06 -2.4375008e-11)
(-5.5726129e-05 -2.6534756e-06 -3.0286863e-11)
(-5.5300289e-05 -4.3171275e-06 -2.2720154e-11)
(-5.2441214e-05 -1.0747723e-06 -2.3977704e-11)
(-5.244984e-05 -2.4464715e-06 -2.9488295e-11)
(-5.2061725e-05 -3.980502e-06 -2.2451118e-11)
(-4.9419753e-05 -9.8819602e-07 -2.3541538e-11)
(-4.9432816e-05 -2.2493573e-06 -2.8719816e-11)
(-4.9077644e-05 -3.6594684e-06 -2.221597e-11)
(-4.6647614e-05 -9.0486403e-07 -2.3131207e-11)
(-4.6664112e-05 -2.0605552e-06 -2.8037572e-11)
(-4.6337763e-05 -3.3530021e-06 -2.1996744e-11)
(-4.4114809e-05 -8.2495942e-07 -2.2725374e-11)
(-4.4133953e-05 -1.8796977e-06 -2.743504e-11)
(-4.3832888e-05 -3.0593929e-06 -2.1814148e-11)
(-4.1812234e-05 -7.4836058e-07 -2.2331338e-11)
(-4.1833413e-05 -1.7063261e-06 -2.6918374e-11)
(-4.1554548e-05 -2.7771734e-06 -2.1687566e-11)
(-3.9731613e-05 -6.7377141e-07 -2.2053963e-11)
(-3.9754328e-05 -1.5373475e-06 -2.6574776e-11)
(-3.9494869e-05 -2.5022265e-06 -2.1664547e-11)
(-3.7865323e-05 -6.0172769e-07 -2.1774821e-11)
(-3.788915e-05 -1.374645e-06 -2.6235915e-11)
(-3.7646603e-05 -2.2380131e-06 -2.1628591e-11)
(-3.620637e-05 -5.3250522e-07 -2.152636e-11)
(-3.6231009e-05 -1.2146216e-06 -2.5984779e-11)
(-3.6003084e-05 -1.977949e-06 -2.1641227e-11)
(-3.4748432e-05 -4.6424284e-07 -2.1364987e-11)
(-3.477366e-05 -1.0595468e-06 -2.5809846e-11)
(-3.4558259e-05 -1.7250668e-06 -2.1710072e-11)
(-3.3485896e-05 -3.9836183e-07 -2.119533e-11)
(-3.3511534e-05 -9.0936887e-07 -2.5669687e-11)
(-3.3306805e-05 -1.4791172e-06 -2.1810152e-11)
(-3.2414506e-05 -3.332894e-07 -2.1209775e-11)
(-3.2440428e-05 -7.6072934e-07 -2.5726159e-11)
(-3.2244618e-05 -1.2376292e-06 -2.197607e-11)
(-3.1531983e-05 -2.6979522e-07 -2.1306273e-11)
(-3.1558086e-05 -6.1518493e-07 -2.588077e-11)
(-3.1369539e-05 -1.001163e-06 -2.212597e-11)
(-3.0837061e-05 -2.0633526e-07 -2.1426494e-11)
(-3.0863321e-05 -4.6838263e-07 -2.590019e-11)
(-3.0680477e-05 -7.5962155e-07 -2.2008576e-11)
(-3.0333231e-05 -1.4253403e-07 -2.1461385e-11)
(-3.0359623e-05 -3.2172397e-07 -2.5356924e-11)
(-3.0180911e-05 -5.2164886e-07 -2.1035493e-11)
(-3.0017813e-05 -7.7953676e-08 -2.0944432e-11)
(-3.0044241e-05 -1.7595578e-07 -2.3235205e-11)
(-2.9868078e-05 -2.8918016e-07 -1.828535e-11)
(-2.9886542e-05 -1.802713e-08 -1.7906467e-11)
(-2.991294e-05 -3.946794e-08 -1.7039371e-11)
(-2.973778e-05 -6.7786368e-08 -1.2184227e-11)
(-0.048217599 1.9611264 -3.6940095e-07)
(-0.03385397 1.7085796 -3.4493296e-06)
(-0.064372468 0.34862832 -2.4683502e-07)
(-0.044098908 0.15700818 -1.0182473e-06)
(-0.016818416 -0.040199878 -2.1486933e-07)
(-0.012022629 -0.043179062 -6.2896646e-07)
(-0.006889232 -0.013679078 -1.089941e-07)
(-0.0056398936 -0.015061191 -4.0695053e-07)
(-0.0024686931 -0.0030745813 -1.113371e-07)
(-0.0020554612 -0.0040013311 -2.9385821e-07)
(-0.0012521691 -0.00095333469 -1.2301248e-07)
(-0.00098270351 -0.0012848491 -2.3164748e-07)
(-0.00079801661 -0.00033502306 -1.2184253e-07)
(-0.00062528517 -0.0003920152 -1.8877263e-07)
(-0.00061533629 -9.2948897e-05 -1.1022307e-07)
(-0.00049771994 -8.657222e-05 -1.537588e-07)
(-0.00053079298 -5.9020757e-05 -9.2577204e-08)
(-0.00044970359 -6.549092e-05 -1.2246093e-07)
(-0.0004763578 -0.00010953664 -7.3451339e-08)
(-0.00041670153 -0.00012767707 -9.4806691e-08)
(-0.00041942692 -0.00014524582 -5.595767e-08)
(-0.00037452773 -0.00017061238 -7.1552904e-08)
(-0.00035978867 -0.00013585953 -4.1470987e-08)
(-0.00032642123 -0.00016221228 -5.285082e-08)
(-0.00030707578 -0.00010451877 -3.012194e-08)
(-0.00028159772 -0.00012446974 -3.8298379e-08)
(-0.00026447663 -7.3216995e-05 -2.1478283e-08)
(-0.00024455792 -8.7767535e-05 -2.7214891e-08)
(-0.0002314199 -5.126714e-05 -1.4996316e-08)
(-0.0002157011 -6.2261696e-05 -1.8913506e-08)
(-0.00020601056 -3.8456313e-05 -1.0202127e-08)
(-0.00019340797 -4.7395825e-05 -1.280356e-08)
(-0.00018581765 -3.2009097e-05 -6.7300933e-09)
(-0.00017557497 -3.9517485e-05 -8.4110994e-09)
(-0.00016898691 -2.8962658e-05 -4.2937026e-09)
(-0.00016060408 -3.5068622e-05 -5.3521247e-09)
(-0.00015449437 -2.5857697e-05 -2.6509658e-09)
(-0.00014759872 -3.1402923e-05 -3.2994923e-09)
(-0.00014183985 -2.2680636e-05 -1.5892669e-09)
(-0.00013613166 -2.783122e-05 -1.9741837e-09)
(-0.00013072402 -1.9726674e-05 -9.2991585e-10)
(-0.00012596314 -2.4326778e-05 -1.1501236e-09)
(-0.0001209117 -1.7143379e-05 -5.3467605e-10)
(-0.00011690839 -2.1236999e-05 -6.5498707e-10)
(-0.00011219911 -1.5061108e-05 -3.0420738e-10)
(-0.00010880369 -1.8731069e-05 -3.6596708e-10)
(-0.00010440598 -1.3413096e-05 -1.7288716e-10)
(-0.00010150055 -1.6681069e-05 -2.0154242e-10)
(-9.7375455e-05 -1.2135232e-05 -9.9555057e-11)
(-9.4867705e-05 -1.5149198e-05 -1.0997381e-10)
(-9.0978171e-05 -1.1113346e-05 -5.9193283e-11)
(-8.8796058e-05 -1.3929593e-05 -6.0013559e-11)
(-8.5114236e-05 -1.0234988e-05 -3.7321398e-11)
(-8.3201202e-05 -1.2855072e-05 -3.3498768e-11)
(-7.9710054e-05 -9.4428263e-06 -2.5743316e-11)
(-7.8021423e-05 -1.1872683e-05 -1.9907875e-11)
(-7.4711371e-05 -8.7202695e-06 -1.9914829e-11)
(-7.3211586e-05 -1.0982468e-05 -1.3307556e-11)
(-7.00769e-05 -8.0696282e-06 -1.7179984e-11)
(-6.8737286e-05 -1.018292e-05 -1.0398296e-11)
(-6.5774379e-05 -7.4795547e-06 -1.6025471e-11)
(-6.4571567e-05 -9.4564488e-06 -9.3857661e-12)
(-6.1778427e-05 -6.9398204e-06 -1.5644951e-11)
(-6.0693265e-05 -8.7869556e-06 -9.2905587e-12)
(-5.8069206e-05 -6.4343462e-06 -1.5629719e-11)
(-5.7085854e-05 -8.1478283e-06 -9.6156174e-12)
(-5.4630897e-05 -5.9510508e-06 -1.5762695e-11)
(-5.3736101e-05 -7.5391904e-06 -1.0086731e-11)
(-5.145058e-05 -5.4923241e-06 -1.5933256e-11)
(-5.0633131e-05 -6.9627445e-06 -1.0574386e-11)
(-4.8517471e-05 -5.0527891e-06 -1.6128136e-11)
(-4.7767757e-05 -6.4110515e-06 -1.105969e-11)
(-4.5822255e-05 -4.6303935e-06 -1.6307515e-11)
(-4.5131989e-05 -5.876018e-06 -1.1528808e-11)
(-4.3356629e-05 -4.2250286e-06 -1.6480038e-11)
(-4.2718609e-05 -5.3613062e-06 -1.196359e-11)
(-4.1112805e-05 -3.8354181e-06 -1.6662944e-11)
(-4.05207e-05 -4.8674126e-06 -1.2369363e-11)
(-3.9083343e-05 -3.4583302e-06 -1.6877057e-11)
(-3.8531481e-05 -4.3944228e-06 -1.2749173e-11)
(-3.7261405e-05 -3.093263e-06 -1.7087191e-11)
(-3.6744674e-05 -3.930769e-06 -1.3138706e-11)
(-3.5640753e-05 -2.7359691e-06 -1.7317403e-11)
(-3.5154532e-05 -3.4774015e-06 -1.3528194e-11)
(-3.4215579e-05 -2.3863476e-06 -1.7571381e-11)
(-3.375559e-05 -3.0347851e-06 -1.3907896e-11)
(-3.2980802e-05 -2.0455053e-06 -1.7825473e-11)
(-3.2543087e-05 -2.6031447e-06 -1.4257635e-11)
(-3.1932543e-05 -1.7116226e-06 -1.8059405e-11)
(-3.1513417e-05 -2.1803278e-06 -1.4538943e-11)
(-3.1068864e-05 -1.3840745e-06 -1.8183779e-11)
(-3.0664945e-05 -1.7551643e-06 -1.467479e-11)
(-3.0388732e-05 -1.0492628e-06 -1.796347e-11)
(-2.9996726e-05 -1.3320228e-06 -1.4431386e-11)
(-2.9895573e-05 -7.2032217e-07 -1.6863723e-11)
(-2.9512099e-05 -9.1564404e-07 -1.3396736e-11)
(-2.9586735e-05 -4.0056936e-07 -1.4169791e-11)
(-2.9208591e-05 -5.0984279e-07 -1.1034485e-11)
(-2.9458061e-05 -9.4931353e-08 -8.9623218e-12)
(-2.9082102e-05 -1.2144468e-07 -6.7856773e-12)
(0.003724475 -3.813866e-05 -1.0820669e-07)
(0.0036050104 -0.00013728731 -2.5628348e-07)
(0.0033634538 -0.00016899172 -3.6210329e-07)
(0.0030649675 -0.00020962273 -4.2846465e-07)
(0.0027505507 -0.00021612965 -4.6381154e-07)
(0.0024457938 -0.00022617653 -4.7771802e-07)
(0.0021640248 -0.00023205361 -4.7743849e-07)
(0.0019103234 -0.00024473075 -4.6808912e-07)
(0.0016853777 -0.00026573488 -4.532325e-07)
(0.0014872438 -0.00029386894 -4.3532846e-07)
(0.001312956 -0.00032992323 -4.1607697e-07)
(0.0011593591 -0.00037345993 -3.9649418e-07)
(0.0010233069 -0.00042246063 -3.7705834e-07)
(0.00090189873 -0.00047487895 -3.5784241e-07)
(0.00079261221 -0.00052856233 -3.386949e-07)
(0.00069326616 -0.00058111771 -3.1933405e-07)
(0.00060187099 -0.00063174106 -2.9936998e-07)
(0.00051681368 -0.00067814981 -2.782542e-07)
(0.00043708187 -0.00071674052 -2.5538097e-07)
(0.00036179896 -0.00074690152 -2.3004963e-07)
(0.0002901953 -0.00076792545 -2.0150234e-07)
(0.00022179406 -0.00077948439 -1.6861511e-07)
(0.00015614753 -0.0007818426 -1.3040696e-07)
(9.2667385e-05 -0.00077921396 -8.6303035e-08)
(3.0241108e-05 -0.00073945434 -3.5768393e-08)
(0.00033146589 -0.00015553162 -1.2423328e-07)
(0.0002996722 -0.00061133752 -2.9031681e-07)
(0.00026374539 -0.00084708356 -4.0256847e-07)
(0.00024404174 -0.0011565873 -4.6675242e-07)
(0.00024553147 -0.0013881624 -4.9631278e-07)
(0.00026144214 -0.0016293353 -5.043034e-07)
(0.00028487549 -0.0018652513 -4.9904244e-07)
(0.00031123239 -0.0021226767 -4.8587386e-07)
(0.00033318288 -0.002401946 -4.6814357e-07)
(0.00034836083 -0.0026815258 -4.4803899e-07)
(0.00035603028 -0.0029595192 -4.2721831e-07)
(0.0003563783 -0.0032326378 -4.0656739e-07)
(0.00034979826 -0.0034949266 -3.8644533e-07)
(0.00033696982 -0.0037427656 -3.667744e-07)
(0.00031864929 -0.0039737342 -3.4731641e-07)
(0.00029566612 -0.0041893478 -3.2776311e-07)
(0.00026901143 -0.0043989216 -3.077743e-07)
(0.00023964307 -0.0045919488 -2.8667709e-07)
(0.00020812361 -0.0047444783 -2.6390801e-07)
(0.00017501696 -0.0048496819 -2.3870223e-07)
(0.00014113068 -0.0049047018 -2.1059479e-07)
(0.00010720663 -0.0049118319 -1.77798e-07)
(7.3785054e-05 -0.0048743612 -1.390281e-07)
(4.1426016e-05 -0.0047778824 -9.2663542e-08)
(1.132755e-05 -0.0045624147 -4.0090059e-08)
(0.0012025719 -0.00035393084 -1.6271306e-07)
(0.0011452869 -0.0016086594 -3.6639287e-07)
(0.0011097877 -0.002134208 -4.8765726e-07)
(0.001119458 -0.0029806288 -5.4260569e-07)
(0.0011514231 -0.0036559064 -5.586916e-07)
(0.001181861 -0.0043620506 -5.5449387e-07)
(0.0011977725 -0.0050669632 -5.3938662e-07)
(0.0011937853 -0.0059444744 -5.190751e-07)
(0.0011721899 -0.0069704963 -4.9611158e-07)
(0.0011355223 -0.0079332507 -4.7184433e-07)
(0.0010862698 -0.0087820309 -4.4815707e-07)
(0.0010270693 -0.0095072522 -4.2560102e-07)
(0.00096009738 -0.010103454 -4.0436605e-07)
(0.00088692231 -0.010577791 -3.8400318e-07)
(0.00080911896 -0.010936801 -3.6411051e-07)
(0.00072820149 -0.011181044 -3.443206e-07)
(0.00064581359 -0.011303702 -3.2467352e-07)
(0.00056310061 -0.011326117 -3.0387345e-07)
(0.00048069104 -0.011277215 -2.8175438e-07)
(0.00039911887 -0.011171023 -2.5758354e-07)
(0.00031968193 -0.011017297 -2.3047356e-07)
(0.00024266943 -0.010825016 -1.9898133e-07)
(0.00016807442 -0.010600767 -1.6110963e-07)
(9.6450514e-05 -0.010315728 -1.1345783e-07)
(2.9604234e-05 -0.0099259682 -5.5797988e-08)
(0.0037683974 -0.0011125744 -2.4522388e-07)
(0.0036465995 -0.0048088876 -5.0725882e-07)
(0.0035091765 -0.0060552185 -6.2751095e-07)
(0.0033064245 -0.0091179888 -6.5741922e-07)
(0.0030964678 -0.01184441 -6.4922153e-07)
(0.0028660406 -0.014324656 -6.2591756e-07)
(0.0026240187 -0.016122309 -5.962225e-07)
(0.0023765593 -0.017091544 -5.6695718e-07)
(0.0021364078 -0.017391175 -5.3812196e-07)
(0.0019058636 -0.01727671 -5.0798764e-07)
(0.0016894372 -0.016851087 -4.8061378e-07)
(0.0014889622 -0.016228818 -4.5551557e-07)
(0.0013020747 -0.015425234 -4.3311455e-07)
(0.0011214282 -0.014495341 -4.1201723e-07)
(0.00095857699 -0.013493447 -3.9166727e-07)
(0.00081354583 -0.012465212 -3.7179354e-07)
(0.00068493736 -0.011449527 -3.5206771e-07)
(0.00057109526 -0.010479868 -3.3201658e-07)
(0.00047060784 -0.0095796212 -3.1114709e-07)
(0.00038178253 -0.008769883 -2.8881836e-07)
(0.00030187888 -0.0080655529 -2.6420546e-07)
(0.00022891342 -0.0074716456 -2.3610251e-07)
(0.00016154476 -0.0069877669 -2.0269213e-07)
(9.7964573e-05 -0.0065724565 -1.6092607e-07)
(3.6377207e-05 -0.0062774166 -1.0121172e-07)
(0.011856798 -0.008757208 -4.3293033e-07)
(0.0092711181 -0.025633688 -7.4605925e-07)
(0.0078598113 -0.027845264 -8.2959468e-07)
(0.0060822056 -0.031901271 -8.1679458e-07)
(0.0046582889 -0.029266221 -7.7694896e-07)
(0.0034385099 -0.025495758 -7.2877181e-07)
(0.0024323565 -0.0208765 -6.8119013e-07)
(0.001635381 -0.015981502 -6.3691035e-07)
(0.0010152275 -0.011071379 -5.9760655e-07)
(0.00053884542 -0.0065365515 -5.6158473e-07)
(0.0001778983 -0.0024388528 -5.2921651e-07)
(-8.6793184e-05 0.0010922525 -4.9921742e-07)
(-0.00027246169 0.0043765666 -4.7524194e-07)
(-0.00039120286 0.0075132181 -4.5258873e-07)
(-0.00046426218 0.01040747 -4.3078627e-07)
(-0.00049853112 0.012921099 -4.0998746e-07)
(-0.00050199509 0.015021193 -3.8986793e-07)
(-0.0004812498 0.016724157 -3.7002954e-07)
(-0.00044154535 0.018057194 -3.500279e-07)
(-0.00038717084 0.019049737 -3.2935849e-07)
(-0.00032271495 0.019728763 -3.0738991e-07)
(-0.00025158246 0.020120344 -2.8322822e-07)
(-0.00017597646 0.020221512 -2.554214e-07)
(-9.9190618e-05 0.020089759 -2.2827749e-07)
(-2.2717442e-05 0.019382126 -2.0122361e-07)
(0.014723347 0.024429412 -7.9658225e-07)
(0.0032125747 -0.00011138901 -1.1258378e-06)
(0.00050908295 0.04929915 -1.1280483e-06)
(-0.0012648027 0.052282743 -1.0546172e-06)
(-0.0028221389 0.066313983 -9.7716929e-07)
(-0.0039931125 0.076413262 -8.9062757e-07)
(-0.0046391234 0.08345844 -8.129951e-07)
(-0.0048306726 0.089334146 -7.4544514e-07)
(-0.0047413556 0.093650546 -6.8673872e-07)
(-0.00450885 0.096334219 -6.3656812e-07)
(-0.0042067468 0.097860104 -5.9427965e-07)
(-0.0038481256 0.098302521 -5.5043628e-07)
(-0.0034859986 0.098011128 -5.2562959e-07)
(-0.0031351446 0.096693283 -4.9880353e-07)
(-0.0027819914 0.094515357 -4.7231127e-07)
(-0.0024387112 0.092074878 -4.4862182e-07)
(-0.0021145127 0.089433241 -4.2662507e-07)
(-0.0018101373 0.086674684 -4.0570278e-07)
(-0.0015249224 0.083875941 -3.8537162e-07)
(-0.0012573207 0.081094542 -3.6517615e-07)
(-0.0010044582 0.078367282 -3.4462606e-07)
(-0.00076409093 0.075736579 -3.2311576e-07)
(-0.000534001 0.073174417 -3.0001077e-07)
(-0.0003123055 0.070868387 -2.761609e-07)
(-9.3541698e-05 0.067378274 -2.5280572e-07)
(-0.0013533519 1.1820247 -2.5167659e-06)
(-0.000826232 0.96628757 -2.004375e-06)
(-0.0011116041 0.8691316 -1.6280875e-06)
(-0.0008354175 0.7755587 -1.3383901e-06)
(-0.00072311183 0.67891173 -1.1217459e-06)
(-0.00063004844 0.5872891 -9.6331946e-07)
(-0.00053698676 0.50875248 -8.4628255e-07)
(-0.00045524988 0.44491658 -7.5904471e-07)
(-0.00038482806 0.39228615 -6.8819865e-07)
(-0.0003220266 0.34738174 -6.3384548e-07)
(-0.00026633903 0.30861341 -5.9174854e-07)
(-0.00021967691 0.27524173 -5.5509278e-07)
(-0.00018175267 0.246708 -5.2485901e-07)
(-0.00015621323 0.22228055 -4.9861841e-07)
(-0.00013226414 0.20130274 -4.7491702e-07)
(-0.00011184519 0.18329253 -4.5306112e-07)
(-9.4054993e-05 0.16781844 -4.3245587e-07)
(-7.8372005e-05 0.15451695 -4.1267646e-07)
(-6.4519461e-05 0.14308492 -3.9339512e-07)
(-5.2252009e-05 0.13327254 -3.7430327e-07)
(-4.1179764e-05 0.12486323 -3.5505708e-07)
(-3.0892497e-05 0.11771475 -3.3517509e-07)
(-2.1240286e-05 0.11158511 -3.1436648e-07)
(-1.2169413e-05 0.10675713 -2.9240222e-07)
(-3.518286e-06 0.1007361 -2.6868666e-07)
(-0.012584979 0.094208159 -1.2345444e-06)
(-0.0019750202 0.10135753 -1.2729309e-06)
(0.00023019124 0.10664483 -1.2259915e-06)
(0.0017458102 0.10783472 -1.1346665e-06)
(0.00313071 0.10939901 -1.0316309e-06)
(0.0041916812 0.11069483 -9.3135006e-07)
(0.0047677241 0.11209649 -8.4165058e-07)
(0.0049120277 0.11343177 -7.6419295e-07)
(0.0047618696 0.11409707 -6.8146385e-07)
(0.0044949098 0.11404914 -6.3915937e-07)
(0.0042030315 0.11327989 -5.9745708e-07)
(0.003860808 0.11156829 -5.5430574e-07)
(0.0034886847 0.10901889 -5.1833869e-07)
(0.0031177842 0.1059684 -4.8759368e-07)
(0.0027590451 0.10266835 -4.606202e-07)
(0.0024170903 0.099243346 -4.3642385e-07)
(0.0020944436 0.095776613 -4.142711e-07)
(0.0017916831 0.092335943 -3.9357228e-07)
(0.0015080579 0.088972422 -3.738164e-07)
(0.0012420194 0.085723773 -3.5451439e-07)
(0.0009914964 0.082611392 -3.3512013e-07)
(0.00075420292 0.079664821 -3.149125e-07)
(0.00052742362 0.076846403 -2.9421765e-07)
(0.00030898328 0.074347715 -2.7184793e-07)
(9.3039234e-05 0.070644422 -2.4939009e-07)
(-0.0091676551 -0.040552768 -8.538873e-07)
(-0.0075503623 -0.037730913 -9.1798828e-07)
(-0.0061239515 -0.035756885 -9.0466599e-07)
(-0.0047836371 -0.032283591 -8.5847013e-07)
(-0.0035709035 -0.027422822 -8.0007961e-07)
(-0.0025162518 -0.021983447 -7.3862927e-07)
(-0.0016534849 -0.016410136 -6.8164087e-07)
(-0.00097315944 -0.010940203 -6.2957384e-07)
(-0.00044977768 -0.0060394648 -5.8135836e-07)
(-5.8588741e-05 -0.001706245 -5.4526029e-07)
(0.00022736938 0.0020420698 -5.1211591e-07)
(0.00042833265 0.0057203841 -4.8124329e-07)
(0.00056025101 0.0092296704 -4.5354455e-07)
(0.00063894031 0.012376201 -4.2866314e-07)
(0.00067511194 0.01508427 -4.0601741e-07)
(0.00067815823 0.017353316 -3.8509089e-07)
(0.00065469307 0.019221213 -3.6547352e-07)
(0.00061040096 0.020725625 -3.4669979e-07)
(0.0005499017 0.021884727 -3.2829233e-07)
(0.00047694298 0.022719441 -3.0970603e-07)
(0.00039471135 0.023250875 -2.9017881e-07)
(0.00030587457 0.023499603 -2.6833093e-07)
(0.00021356132 0.023475517 -2.4707936e-07)
(0.00012082906 0.023222534 -2.2130801e-07)
(2.912909e-05 0.022364273 -1.9609347e-07)
(-0.0047692817 -0.016149202 -5.794037e-07)
(-0.004289058 -0.018169933 -6.5484674e-07)
(-0.003941682 -0.02062314 -6.6940362e-07)
(-0.0036255432 -0.022436693 -6.525097e-07)
(-0.0033035539 -0.02358971 -6.2280978e-07)
(-0.0029821563 -0.023983636 -5.9050493e-07)
(-0.0026729456 -0.023765985 -5.5113431e-07)
(-0.0023773764 -0.023136037 -5.1441017e-07)
(-0.0021021266 -0.022245351 -4.8113256e-07)
(-0.0018472012 -0.021151854 -4.5270641e-07)
(-0.0016136943 -0.019930545 -4.2691429e-07)
(-0.0013958554 -0.018565041 -4.0318247e-07)
(-0.0011968403 -0.017126368 -3.8145866e-07)
(-0.0010193277 -0.015667018 -3.6154838e-07)
(-0.00086237185 -0.014223891 -3.4293165e-07)
(-0.00072373984 -0.012834716 -3.2520038e-07)
(-0.00060260128 -0.011541016 -3.0825212e-07)
(-0.00049718963 -0.010371674 -2.9152831e-07)
(-0.00040554577 -0.0093308669 -2.7451723e-07)
(-0.0003257617 -0.00842048 -2.5660625e-07)
(-0.0002559043 -0.007641451 -2.3695242e-07)
(-0.00019394771 -0.0069937379 -2.1439604e-07)
(-0.0001378261 -0.0064742126 -1.877419e-07)
(-8.5192116e-05 -0.0060428951 -1.5169238e-07)
(-3.3330558e-05 -0.0057529389 -9.7434661e-08)
(-0.0016638238 -0.0047484855 -4.1829685e-07)
(-0.001515243 -0.0053432322 -4.8723812e-07)
(-0.001481038 -0.0059708844 -5.1399669e-07)
(-0.001481554 -0.0066103439 -5.1446205e-07)
(-0.001490588 -0.0073192098 -5.0037706e-07)
(-0.0014983584 -0.0082700256 -4.7881551e-07)
(-0.001479799 -0.0093928579 -4.5258254e-07)
(-0.0014382913 -0.010410014 -4.2608063e-07)
(-0.0013785448 -0.011289127 -4.0116355e-07)
(-0.0013049693 -0.012014213 -3.7850988e-07)
(-0.0012226786 -0.012595892 -3.5768562e-07)
(-0.0011346221 -0.013032754 -3.3838992e-07)
(-0.0010428046 -0.013328717 -3.2044302e-07)
(-0.00094995842 -0.01347209 -3.040556e-07)
(-0.00085638378 -0.013495528 -2.882488e-07)
(-0.00076311132 -0.013435151 -2.7319003e-07)
(-0.00067184212 -0.013313386 -2.5817449e-07)
(-0.00058289948 -0.013143781 -2.4292498e-07)
(-0.00049630362 -0.012935843 -2.2696285e-07)
(-0.00041203207 -0.012697068 -2.0967806e-07)
(-0.00033006548 -0.012433355 -1.9014767e-07)
(-0.00025046564 -0.012150393 -1.6701266e-07)
(-0.00017346891 -0.011851713 -1.3827202e-07)
(-9.9596948e-05 -0.011499818 -9.9747291e-08)
(-3.0807975e-05 -0.011055753 -5.0633777e-08)
(-0.00070550521 -0.0015593598 -3.1595393e-07)
(-0.00048841881 -0.0017832486 -3.7038612e-07)
(-0.00037696597 -0.0019997076 -3.9823839e-07)
(-0.0003351693 -0.0022341128 -4.0662629e-07)
(-0.00033800985 -0.0025118796 -4.0224219e-07)
(-0.00037251291 -0.0028282908 -3.9004787e-07)
(-0.00041234437 -0.0031695405 -3.732912e-07)
(-0.00044408944 -0.0035190865 -3.547944e-07)
(-0.00046422375 -0.0038691554 -3.3626267e-07)
(-0.00047228965 -0.0042099138 -3.1852149e-07)
(-0.00046928091 -0.0045371928 -3.0175023e-07)
(-0.00045799782 -0.0048479875 -2.8593835e-07)
(-0.00043966312 -0.0051518521 -2.710283e-07)
(-0.00041590333 -0.00546587 -2.56961e-07)
(-0.00038854774 -0.0057726145 -2.4341011e-07)
(-0.00035869151 -0.0060378658 -2.3016896e-07)
(-0.00032542421 -0.0062541253 -2.168546e-07)
(-0.00028909024 -0.0064179037 -2.031066e-07)
(-0.00025031427 -0.0065287675 -1.8845613e-07)
(-0.00021009229 -0.0065864566 -1.7251149e-07)
(-0.00016912655 -0.0065924612 -1.5439485e-07)
(-0.00012809111 -0.0065497337 -1.3285278e-07)
(-8.775613e-05 -0.0064631476 -1.0658317e-07)
(-4.893181e-05 -0.0063152502 -7.3364267e-08)
(-1.33334e-05 -0.0060342583 -3.3697607e-08)
(-0.00043860709 -0.00041203044 -2.4532288e-07)
(-0.00026499603 -0.0004027545 -2.8589538e-07)
(-0.00014243295 -0.00037710711 -3.102585e-07)
(-7.0888684e-05 -0.0003765553 -3.2111608e-07)
(-2.9524365e-05 -0.00040261154 -3.219746e-07)
(-1.8179551e-06 -0.00045411428 -3.1599744e-07)
(2.2895574e-06 -0.0005278027 -3.0569524e-07)
(-5.6908336e-06 -0.00061452893 -2.9309976e-07)
(-1.863516e-05 -0.00071526012 -2.7961199e-07)
(-3.228907e-05 -0.00082526318 -2.660582e-07)
(-4.4155046e-05 -0.00093769281 -2.5282873e-07)
(-5.3871713e-05 -0.0010477831 -2.4007879e-07)
(-6.039202e-05 -0.0011541326 -2.2784134e-07)
(-6.2838119e-05 -0.001256512 -2.1606445e-07)
(-6.3312502e-05 -0.0013519231 -2.0458251e-07)
(-6.2718671e-05 -0.0014351583 -1.9319355e-07)
(-6.0164965e-05 -0.0015051425 -1.8162522e-07)
(-5.5883387e-05 -0.0015618533 -1.6956972e-07)
(-5.0393056e-05 -0.0016049632 -1.5666289e-07)
(-4.3761228e-05 -0.0016338102 -1.4249928e-07)
(-3.6280026e-05 -0.0016476955 -1.2659395e-07)