/*--------------------------------*- C++ -*----------------------------------*\
| =========                 |                                                 |
| \\      /  F ield         | OpenFOAM: The Open Source CFD Toolbox           |
|  \\    /   O peration     | Version:  4.0                                   |
|   \\  /    A nd           | Web:      www.OpenFOAM.org                      |
|    \\/     M anipulation  |                                                 |
\*---------------------------------------------------------------------------*/
FoamFile
{
    version     2.0;
    format      ascii;
    class       volScalarField;
    location    "0.32";
    object      nut;
}
// * * * * * * * * * * * * * * * * * * * * * * * * * * * * * * * * * * * * * //

dimensions      [0 2 -1 0 0 0 0];

internalField   nonuniform List<scalar> 
1740
(
1.4805538e-05
1.3296756e-05
1.2269396e-06
8.6128883e-06
6.8437391e-06
1.8187523e-06
9.6817643e-06
5.3317629e-06
2.2800566e-06
2.4451186e-05
4.7348477e-06
2.7146118e-06
1.0354064e-05
4.3576644e-06
3.0954442e-06
1.5910233e-05
4.049613e-06
3.3922881e-06
1.361041e-05
3.8367772e-06
3.6422756e-06
1.1817122e-05
3.6963914e-06
3.8542966e-06
1.0470445e-05
3.6095497e-06
4.0198297e-06
9.5401757e-06
3.562459e-06
4.1311741e-06
8.665622e-06
3.5079219e-06
4.2471265e-06
7.8112973e-06
3.4889261e-06
4.3556262e-06
7.2746679e-06
3.5018079e-06
4.4367455e-06
6.8892964e-06
3.5022203e-06
4.4701646e-06
6.4848315e-06
3.4863672e-06
4.5353229e-06
6.1874988e-06
3.4924339e-06
4.5987253e-06
5.9262947e-06
3.5145459e-06
4.5943443e-06
5.6637842e-06
3.5255388e-06
4.6405928e-06
5.411359e-06
3.526432e-06
4.6796423e-06
5.1929723e-06
3.5401751e-06
4.6462738e-06
5.0509138e-06
3.5303429e-06
4.6618742e-06
4.9030546e-06
3.5419502e-06
4.7023063e-06
4.7614257e-06
3.566407e-06
4.6835837e-06
4.6424193e-06
3.5521464e-06
4.6724023e-06
4.5341104e-06
3.5381649e-06
4.6914743e-06
4.4242027e-06
3.5377929e-06
4.6753637e-06
4.3151694e-06
3.5416115e-06
4.6756483e-06
4.2128139e-06
3.5647165e-06
4.6513468e-06
4.1579749e-06
3.584248e-06
4.5993378e-06
2.906024e-06
3.7143413e-06
4.2998957e-06
1.891028e-06
2.2237414e-06
4.4123244e-06
7.18307e-06
7.3738814e-06
6.7241525e-06
6.5366284e-06
6.7441464e-06
6.37553e-06
5.182359e-06
5.1217147e-06
4.873557e-06
4.3346681e-06
4.263838e-06
4.1280201e-06
3.7738158e-06
3.7315971e-06
3.6713204e-06
3.3719327e-06
3.3543883e-06
3.3381051e-06
3.0426804e-06
3.0396588e-06
3.0455314e-06
2.7254305e-06
2.7291001e-06
2.7436579e-06
2.3826285e-06
2.3882596e-06
2.4039204e-06
2.0008298e-06
2.006002e-06
2.0190573e-06
1.5914475e-06
1.5952146e-06
1.6043929e-06
1.1865002e-06
1.1887715e-06
1.1942605e-06
8.2578499e-07
8.268973e-07
8.2962182e-07
5.3907659e-07
5.3947563e-07
5.4051325e-07
3.3485845e-07
3.3490884e-07
3.3511721e-07
2.0279906e-07
2.027305e-07
2.0264174e-07
1.2444878e-07
1.2438099e-07
1.2425838e-07
8.1020053e-08
8.0976082e-08
8.0891837e-08
5.8428979e-08
5.8410239e-08
5.837581e-08
4.7622969e-08
4.7623164e-08
4.7628196e-08
4.3193728e-08
4.3205661e-08
4.3235837e-08
4.2078074e-08
4.2096327e-08
4.2140117e-08
4.2614656e-08
4.2635842e-08
4.2685685e-08
4.3937398e-08
4.3959573e-08
4.4011033e-08
4.5613133e-08
4.5635217e-08
4.5685879e-08
4.7434939e-08
4.7456346e-08
4.7504982e-08
4.9308709e-08
4.9329137e-08
4.9375183e-08
5.1193515e-08
5.1212821e-08
5.1256066e-08
5.3071759e-08
5.3089886e-08
5.3130295e-08
5.4935032e-08
5.4951972e-08
5.4989595e-08
5.677782e-08
5.6793592e-08
5.6828517e-08
5.8594907e-08
5.8609543e-08
5.8641879e-08
6.0380431e-08
6.0393971e-08
6.0423834e-08
6.2127616e-08
6.2140107e-08
6.2167617e-08
6.3828798e-08
6.3840291e-08
6.3865573e-08
6.5475556e-08
6.5486105e-08
6.5509288e-08
6.705892e-08
6.7068582e-08
6.7089803e-08
6.8569635e-08
6.8578474e-08
6.8597874e-08
6.9998478e-08
7.000656e-08
7.0024289e-08
7.1336584e-08
7.1343979e-08
7.1360195e-08
7.2575686e-08
7.2582469e-08
7.2597338e-08
7.370814e-08
7.3714387e-08
7.3728079e-08
7.4726529e-08
7.4732319e-08
7.4745007e-08
7.5622742e-08
7.5628156e-08
7.5640012e-08
7.6384975e-08
7.639009e-08
7.6401281e-08
7.6991524e-08
7.69964e-08
7.7007067e-08
7.7409026e-08
7.7413717e-08
7.7423986e-08
7.7571602e-08
7.7576143e-08
7.7586108e-08
7.7305264e-08
7.7309613e-08
7.731928e-08
4.1768634e-06
4.5047951e-06
6.7179307e-06
8.4419846e-06
5.9943072e-06
6.0381161e-06
4.7259822e-06
4.8297711e-06
4.0782169e-06
4.1846861e-06
3.67208e-06
3.7708153e-06
3.3639997e-06
3.4523438e-06
3.0809912e-06
3.1571179e-06
2.7793125e-06
2.8420235e-06
2.4345849e-06
2.4834731e-06
2.0424631e-06
2.0779979e-06
1.6202813e-06
1.6439094e-06
1.2037075e-06
1.2177487e-06
8.3440336e-07
8.4165096e-07
5.4246284e-07
5.4557658e-07
3.3564981e-07
3.3665422e-07
2.0262939e-07
2.0277517e-07
1.2413133e-07
1.2404408e-07
8.0793408e-08
8.0704205e-08
5.8339102e-08
5.8312422e-08
4.764494e-08
4.7679806e-08
4.3287843e-08
4.3364943e-08
4.221134e-08
4.2311554e-08
4.2765094e-08
4.2874677e-08
4.4092016e-08
4.4202576e-08
4.5764865e-08
4.5871896e-08
4.7580245e-08
4.7681645e-08
4.9446012e-08
4.9541012e-08
5.132227e-08
5.1410757e-08
5.3191929e-08
5.3274082e-08
5.5046815e-08
5.5122924e-08
5.6881518e-08
5.6951898e-08
5.8690866e-08
5.875583e-08
6.0469011e-08
6.0528861e-08
6.2209189e-08
6.2264216e-08
6.3903744e-08
6.3954234e-08
6.5544265e-08
6.5590503e-08
6.7121799e-08
6.7164074e-08
6.8627109e-08
6.8665719e-08
7.0050995e-08
7.0086249e-08
7.1384613e-08
7.1416835e-08
7.261972e-08
7.2649245e-08
7.3748684e-08
7.3775857e-08
7.4764096e-08
7.4789264e-08
7.5657845e-08
7.5681348e-08
7.6418102e-08
7.6440267e-08
7.7023102e-08
7.7044235e-08
7.7439436e-08
7.7459831e-08
7.7601155e-08
7.7621142e-08
7.7334078e-08
7.7354137e-08
4.7428217e-10
1.3269356e-08
1.9312528e-07
8.2678226e-07
1.6442644e-06
2.2309724e-06
2.5756895e-06
2.7836609e-06
2.9272786e-06
3.0421232e-06
3.1451898e-06
3.2498695e-06
3.3538223e-06
3.4558285e-06
3.55506e-06
3.6501764e-06
3.7387715e-06
3.8167969e-06
3.8776842e-06
3.9110213e-06
3.9004113e-06
3.819882e-06
3.6272719e-06
3.2463369e-06
2.4419718e-06
2.1556444e-10
2.6908393e-08
3.6016709e-07
1.3781764e-06
2.5719879e-06
3.3804287e-06
3.8531918e-06
4.1593265e-06
4.3933265e-06
4.5978996e-06
4.7934011e-06
4.9918702e-06
5.1917443e-06
5.3918228e-06
5.5904231e-06
5.7848207e-06
5.9703376e-06
6.1393341e-06
6.2793258e-06
6.3703388e-06
6.380481e-06
6.258e-06
5.9159485e-06
5.1946052e-06
3.6673114e-06
6.6323732e-10
7.8890162e-08
8.5816106e-07
2.5090895e-06
3.7947098e-06
4.5310575e-06
4.9943604e-06
5.339569e-06
5.639212e-06
5.925571e-06
6.213809e-06
6.510485e-06
6.8142522e-06
7.1238577e-06
7.4378016e-06
7.752992e-06
8.0632427e-06
8.3587117e-06
8.6220235e-06
8.824898e-06
8.9213565e-06
8.8347641e-06
8.4311424e-06
7.4543291e-06
5.2649944e-06
3.12962e-09
2.8558374e-07
2.0640965e-06
4.0050852e-06
5.0455601e-06
5.6331105e-06
6.0397037e-06
6.3820308e-06
6.7102224e-06
7.042778e-06
7.390394e-06
7.7560486e-06
8.1361155e-06
8.5291721e-06
8.9349132e-06
9.3518574e-06
9.7749653e-06
1.0194738e-05
1.0594705e-05
1.0947369e-05
1.1207202e-05
1.129686e-05
1.1074389e-05
1.0233812e-05
7.8528935e-06
2.3384919e-08
1.1391212e-06
3.9907552e-06
5.5999981e-06
6.4519455e-06
6.9729661e-06
7.3563378e-06
7.7024524e-06
8.051748e-06
8.4061511e-06
8.7790505e-06
9.1770416e-06
9.5898571e-06
1.0012625e-05
1.0447818e-05
1.0899837e-05
1.1367792e-05
1.1846939e-05
1.2327341e-05
1.2790971e-05
1.3207211e-05
1.3526763e-05
1.3674322e-05
1.3555839e-05
1.3144107e-05
1.9532884e-07
2.7555525e-06
5.9034622e-06
7.7095135e-06
8.6260989e-06
9.044491e-06
9.2411588e-06
9.3778143e-06
9.5161116e-06
9.674372e-06
9.8606993e-06
1.008135e-05
1.0336757e-05
1.062692e-05
1.0952774e-05
1.1315022e-05
1.1713468e-05
1.214582e-05
1.2606819e-05
1.308658e-05
1.3567654e-05
1.4021815e-05
1.4406996e-05
1.4676089e-05
1.4773465e-05
4.3470372e-06
4.3220066e-06
4.3660916e-06
4.4758253e-06
4.6508587e-06
4.8812599e-06
5.1566857e-06
5.4733189e-06
5.8320737e-06
6.2342101e-06
6.679337e-06
7.1646649e-06
7.6845325e-06
8.2316768e-06
8.7990648e-06
9.381523e-06
9.9760626e-06
1.0580776e-05
1.1193327e-05
1.1808967e-05
1.241764e-05
1.3000949e-05
1.3529383e-05
1.3967789e-05
1.4250654e-05
9.1221183e-06
9.3792267e-06
9.7776499e-06
1.0196951e-05
1.0373618e-05
1.0337106e-05
1.0219189e-05
1.0121109e-05
1.0083067e-05
1.0106838e-05
1.0188201e-05
1.0322402e-05
1.0507248e-05
1.0742189e-05
1.1026774e-05
1.1360106e-05
1.1739938e-05
1.2162131e-05
1.2619644e-05
1.3100572e-05
1.3585112e-05
1.4042449e-05
1.4427872e-05
1.4692965e-05
1.4784537e-05
6.4115378e-06
6.8214992e-06
7.2528929e-06
7.6528675e-06
7.9544152e-06
8.1707913e-06
8.3621165e-06
8.5681741e-06
8.7972181e-06
9.0636387e-06
9.3640476e-06
9.6892539e-06
1.0033999e-05
1.040424e-05
1.080362e-05
1.1232596e-05
1.168826e-05
1.2163652e-05
1.2645906e-05
1.3113315e-05
1.3530839e-05
1.3844199e-05
1.3973209e-05
1.3820953e-05
1.3364868e-05
5.1423999e-06
5.4986916e-06
5.8485573e-06
6.1644587e-06
6.4294491e-06
6.656046e-06
6.874391e-06
7.104795e-06
7.3581233e-06
7.6407668e-06
7.9505843e-06
8.2846548e-06
8.6425975e-06
9.0254056e-06
9.432677e-06
9.8610019e-06
1.0302796e-05
1.0744669e-05
1.1164871e-05
1.1529182e-05
1.1783997e-05
1.184313e-05
1.1556132e-05
1.0608098e-05
8.0537819e-06
4.4260616e-06
4.7145211e-06
5.0034878e-06
5.2722731e-06
5.5148314e-06
5.7390592e-06
5.9592826e-06
6.1880925e-06
6.4338042e-06
6.7003788e-06
6.9873943e-06
7.2935414e-06
7.6184578e-06
7.9612734e-06
8.3196491e-06
8.6874268e-06
9.0536551e-06
9.4007051e-06
9.701538e-06
9.9155788e-06
9.9821492e-06
9.8089867e-06
9.2489964e-06
8.0412838e-06
5.5574908e-06
3.9560595e-06
4.1822612e-06
4.4164256e-06
4.6424177e-06
4.8561927e-06
5.0621228e-06
5.2680805e-06
5.4815788e-06
5.7081035e-06
5.9503492e-06
6.2084919e-06
6.4817127e-06
6.7689964e-06
7.0682201e-06
7.3750493e-06
7.681818e-06
7.9761409e-06
8.2392304e-06
8.4437028e-06
8.5506204e-06
8.5053497e-06
8.2311479e-06
7.6167973e-06
6.4809011e-06
4.3565274e-06
3.5971208e-06
3.7743151e-06
3.9627171e-06
4.1503753e-06
4.3334431e-06
4.5136586e-06
4.6953027e-06
4.8829533e-06
5.080148e-06
5.2887823e-06
5.5091496e-06
5.7405929e-06
5.9817325e-06
6.2299183e-06
6.4803518e-06
6.7251661e-06
6.9523883e-06
7.1446729e-06
7.2778507e-06
7.3193337e-06
7.226391e-06
6.9439726e-06
6.3997995e-06
5.4816055e-06
3.8489169e-06
3.2709265e-06
3.4095293e-06
3.5597744e-06
3.7129975e-06
3.8655798e-06
4.0176723e-06
4.1714064e-06
4.3294313e-06
4.4939474e-06
4.666186e-06
4.8463324e-06
5.0337038e-06
5.2267746e-06
5.4227994e-06
5.6172055e-06
5.8028972e-06
5.9694805e-06
6.1024403e-06
6.1823886e-06
6.1845929e-06
6.0791894e-06
5.8329098e-06
5.4148419e-06
4.8176608e-06
4.1551921e-06
2.9304159e-06
3.0374461e-06
3.1549516e-06
3.2768004e-06
3.3997677e-06
3.5231267e-06
3.6477064e-06
3.7749128e-06
3.9060178e-06
4.0417363e-06
4.182089e-06
4.3263788e-06
4.4731334e-06
4.6198552e-06
4.7626103e-06
4.8955439e-06
5.0103734e-06
5.0959326e-06
5.1379237e-06
5.1191562e-06
5.0207969e-06
4.8258063e-06
4.5277786e-06
4.155135e-06
3.8335398e-06
2.5499732e-06
2.6301763e-06
2.719007e-06
2.8121275e-06
2.9068155e-06
3.0019654e-06
3.0976329e-06
3.1944232e-06
3.2929839e-06
3.3936622e-06
3.4963453e-06
3.600383e-06
3.704513e-06
3.8066988e-06
3.9038875e-06
3.991709e-06
4.0641921e-06
4.1135773e-06
4.1303702e-06
4.1038762e-06
4.0236254e-06
3.8824505e-06
3.6827574e-06
3.4489849e-06
3.2169474e-06
2.1254344e-06
2.1825853e-06
2.2462902e-06
2.3135201e-06
2.3820763e-06
2.450777e-06
2.5192641e-06
2.587652e-06
2.6561815e-06
2.7249567e-06
2.7937945e-06
2.8621483e-06
2.9290548e-06
2.9930458e-06
3.0520253e-06
3.1031289e-06
3.1426115e-06
3.1658311e-06
3.1674364e-06
3.141898e-06
3.0845381e-06
2.9930404e-06
2.8683115e-06
2.7078344e-06
2.4431847e-06
1.6752446e-06
1.7130809e-06
1.7554702e-06
1.800358e-06
1.8460645e-06
1.8915154e-06
1.9361838e-06
1.9799233e-06
2.0227317e-06
2.0645681e-06
2.1052385e-06
2.1443348e-06
2.1812083e-06
2.2149416e-06
2.2443177e-06
2.2677838e-06
2.2834482e-06
2.2891503e-06
2.282661e-06
2.2620545e-06
2.2261879e-06
2.1748397e-06
2.1066412e-06
2.0075724e-06
1.7904362e-06
1.2364334e-06
1.2591238e-06
1.2846558e-06
1.3116984e-06
1.3390591e-06
1.365875e-06
1.3916246e-06
1.4160592e-06
1.439063e-06
1.4605339e-06
1.4803072e-06
1.498118e-06
1.5135945e-06
1.5262662e-06
1.5355817e-06
1.5409305e-06
1.5416833e-06
1.5372752e-06
1.5273429e-06
1.5119001e-06
1.4914077e-06
1.4662721e-06
1.4344235e-06
1.3828593e-06
1.2508993e-06
8.514365e-07
8.6344557e-07
8.7701885e-07
8.9134419e-07
9.056427e-07
9.1929801e-07
9.318951e-07
9.4319111e-07
9.5305004e-07
9.6136894e-07
9.6803644e-07
9.72909e-07
9.7581601e-07
9.7658263e-07
9.7506155e-07
9.7116857e-07
9.6492098e-07
9.5648768e-07
9.4624684e-07
9.3481933e-07
9.2295591e-07
9.1097038e-07
8.9703588e-07
8.7268763e-07
8.0694766e-07
5.4993027e-07
5.5537865e-07
5.6157641e-07
5.6806062e-07
5.7436359e-07
5.8009481e-07
5.849693e-07
5.8880637e-07
5.9149768e-07
5.9297302e-07
5.9317161e-07
5.9203525e-07
5.8951278e-07
5.8558184e-07
5.8027457e-07
5.7370825e-07
5.6610415e-07
5.5780052e-07
5.492568e-07
5.4102486e-07
5.336225e-07
5.2715166e-07
5.2040422e-07
5.0900935e-07
4.8047143e-07
3.3819406e-07
3.4021046e-07
3.4253548e-07
3.4492479e-07
3.4711983e-07
3.4889466e-07
3.5007963e-07
3.5056049e-07
3.5026966e-07
3.4916839e-07
3.4723274e-07
3.444514e-07
3.4082761e-07
3.3639127e-07
3.3121799e-07
3.2545086e-07
3.1930209e-07
3.1304629e-07
3.0700514e-07
3.0150611e-07
2.9681311e-07
2.9294067e-07
2.8929592e-07
2.8413474e-07
2.7362371e-07
2.0312112e-07
2.0364868e-07
2.0427984e-07
2.0489508e-07
2.0536303e-07
2.0556513e-07
2.0541018e-07
2.0483742e-07
2.0381145e-07
2.0231557e-07
2.0034568e-07
1.9790748e-07
1.9501915e-07
1.9171827e-07
1.8805787e-07
1.8414649e-07
1.8012886e-07
1.7617788e-07
1.7247814e-07
1.6917818e-07
1.6639258e-07
1.641272e-07
1.621563e-07
1.5992102e-07
1.5639549e-07
1.2402168e-07
1.2405984e-07
1.2412462e-07
1.2416109e-07
1.241064e-07
1.2390223e-07
1.2350282e-07
1.228775e-07
1.2200967e-07
1.2089319e-07
1.1953e-07
1.1792873e-07
1.1610547e-07
1.1408763e-07
1.1190767e-07
1.0962902e-07
1.0733916e-07
1.051598e-07
1.0319613e-07
1.0145873e-07
9.9986048e-08
9.8790857e-08
9.7798749e-08
9.684101e-08
9.5624758e-08
8.0638883e-08
8.0598038e-08
8.0568142e-08
8.0524873e-08
8.043909e-08
8.0282986e-08
8.0034136e-08
7.9677221e-08
7.9203671e-08
7.8610368e-08
7.7898214e-08
7.7071549e-08
7.6138788e-08
7.511454e-08
7.4020789e-08
7.2886527e-08
7.1759728e-08
7.0699344e-08
6.9775281e-08
6.9013266e-08
6.8363303e-08
6.7836244e-08
6.7405018e-08
6.7005452e-08
6.6519045e-08
5.8304089e-08
5.8315913e-08
5.8342705e-08
5.8373789e-08
5.8395644e-08
5.8394692e-08
5.835941e-08
5.8281181e-08
5.8154275e-08
5.7975299e-08
5.7742717e-08
5.7456872e-08
5.7120635e-08
5.6740696e-08
5.6328883e-08
5.5898166e-08
5.5472798e-08
5.5082123e-08
5.4759963e-08
5.4541597e-08
5.4359876e-08
5.4215483e-08
5.4091396e-08
5.3944389e-08
5.3674527e-08
4.7737389e-08
4.7819256e-08
4.7923293e-08
4.8044425e-08
4.8175755e-08
4.8309819e-08
4.8439617e-08
4.8559055e-08
4.8663037e-08
4.8747388e-08
4.8808858e-08
4.8845387e-08
4.8856678e-08
4.884486e-08
4.8814983e-08
4.8774819e-08
4.8733352e-08
4.8706258e-08
4.8711871e-08
4.8773638e-08
4.8838183e-08
4.8896485e-08
4.8933122e-08
4.8911519e-08
4.8740655e-08
4.3469549e-08
4.3602649e-08
4.3763016e-08
4.3947554e-08
4.4151889e-08
4.4370915e-08
4.4599302e-08
4.4831812e-08
4.506345e-08
4.5289618e-08
4.5506314e-08
4.5710458e-08
4.5900295e-08
4.6075788e-08
4.6238881e-08
4.6393606e-08
4.6542986e-08
4.6695686e-08
4.6862504e-08
4.705904e-08
4.7242837e-08
4.7400123e-08
4.7515305e-08
4.7554541e-08
4.7431855e-08
4.2441887e-08
4.2602752e-08
4.2792973e-08
4.3010027e-08
4.3250369e-08
4.3509748e-08
4.3783492e-08
4.4066757e-08
4.435473e-08
4.4642848e-08
4.4927049e-08
4.5204056e-08
4.5471675e-08
4.5729041e-08
4.5976771e-08
4.6217054e-08
4.6450844e-08
4.6683128e-08
4.6920855e-08
4.7175049e-08
4.74104e-08
4.7611071e-08
4.7760461e-08
4.7824833e-08
4.7719037e-08
4.3014778e-08
4.3185327e-08
4.3384981e-08
4.3611337e-08
4.3861154e-08
4.4130575e-08
4.4415332e-08
4.4710961e-08
4.5013004e-08
4.5317227e-08
4.5619866e-08
4.5917856e-08
4.6209067e-08
4.6492459e-08
4.676815e-08
4.7037301e-08
4.7301689e-08
4.756306e-08
4.7826497e-08
4.8100101e-08
4.8353371e-08
4.8569566e-08
4.8730574e-08
4.8801021e-08
4.8693779e-08
4.4342564e-08
4.4511535e-08
4.4707998e-08
4.4929604e-08
4.5173318e-08
4.5435601e-08
4.5712573e-08
4.6000197e-08
4.6294467e-08
4.6591603e-08
4.6888268e-08
4.718177e-08
4.7470249e-08
4.7752806e-08
4.8029534e-08
4.8301415e-08
4.8570194e-08
4.8836867e-08
4.9104974e-08
4.9380412e-08
4.9636119e-08
4.9854894e-08
5.0016993e-08
5.0084888e-08
4.996665e-08
4.6006508e-08
4.6167993e-08
4.6354787e-08
4.6564631e-08
4.679471e-08
4.7041805e-08
4.7302433e-08
4.7572994e-08
4.7849944e-08
4.8129972e-08
4.8410182e-08
4.8688284e-08
4.8962762e-08
4.9232978e-08
4.9499186e-08
4.9762402e-08
5.0024155e-08
5.0286162e-08
5.0550012e-08
5.0820002e-08
5.1071704e-08
5.128763e-08
5.1446524e-08
5.1508924e-08
5.1378888e-08
4.780853e-08
4.7960021e-08
4.8134548e-08
4.8329978e-08
4.8543732e-08
4.8772902e-08
4.9014377e-08
4.9264972e-08
4.9521569e-08
4.9781281e-08
5.0041623e-08
5.0300694e-08
5.0557322e-08
5.0811172e-08
5.1062739e-08
5.1313205e-08
5.1564154e-08
5.1817314e-08
5.2073524e-08
5.2335558e-08
5.2581014e-08
5.2792121e-08
5.2946143e-08
5.3001577e-08
5.2858516e-08
4.9659417e-08
4.9800255e-08
4.9961993e-08
5.014264e-08
5.0339844e-08
5.0550986e-08
5.0773287e-08
5.1003923e-08
5.1240152e-08
5.147946e-08
5.171973e-08
5.1959408e-08
5.2197655e-08
5.2434443e-08
5.2670536e-08
5.290732e-08
5.3146487e-08
5.3389688e-08
5.363743e-08
5.3891101e-08
5.4129903e-08
5.4335734e-08
5.4484362e-08
5.4532105e-08
5.4375991e-08
5.1520705e-08
5.1651099e-08
5.1800466e-08
5.196696e-08
5.2148434e-08
5.2342525e-08
5.2546744e-08
5.2758575e-08
5.2975596e-08
5.3195619e-08
5.3416849e-08
5.3638048e-08
5.3858687e-08
5.4079031e-08
5.4300117e-08
5.4523547e-08
5.4751116e-08
5.4984322e-08
5.5223917e-08
5.546966e-08
5.5702147e-08
5.5902926e-08
5.6046323e-08
5.6086333e-08
5.5915225e-08
5.3375916e-08
5.3496408e-08
5.3634159e-08
5.3787455e-08
5.3954337e-08
5.4132663e-08
5.432019e-08
5.4514668e-08
5.4713951e-08
5.491613e-08
5.5119696e-08
5.5323698e-08
5.5527892e-08
5.5732827e-08
5.5939804e-08
5.6150649e-08
5.6367296e-08
5.6591228e-08
5.6822996e-08
5.7061426e-08
5.7288147e-08
5.7484312e-08
5.7622852e-08
5.7655233e-08
5.7469045e-08
5.5217088e-08
5.5328303e-08
5.5455246e-08
5.5596329e-08
5.5749757e-08
5.591358e-08
5.6085769e-08
5.6264301e-08
5.6447269e-08
5.6633014e-08
5.6820276e-08
5.7008367e-08
5.7197309e-08
5.7387919e-08
5.7581754e-08
5.7780866e-08
5.7987336e-08
5.8202651e-08
5.8427112e-08
5.8658884e-08
5.8880385e-08
5.9072353e-08
5.9206457e-08
5.9231962e-08
5.9030364e-08
5.7038847e-08
5.7141389e-08
5.7258284e-08
5.7388059e-08
5.7529063e-08
5.7679516e-08
5.7837575e-08
5.8001417e-08
5.8169345e-08
5.8339918e-08
5.8512106e-08
5.8685459e-08
5.8860249e-08
5.9037546e-08
5.9219153e-08
5.9407339e-08
5.9604332e-08
5.9811622e-08
6.0029211e-08
6.0254983e-08
6.0471693e-08
6.0659679e-08
6.0789382e-08
6.0807864e-08
6.0589749e-08
5.8835993e-08
5.8930423e-08
5.9037954e-08
5.9157224e-08
5.9286712e-08
5.9424787e-08
5.9569771e-08
5.9720019e-08
5.9874021e-08
6.0030532e-08
6.0188733e-08
6.0348394e-08
6.0510017e-08
6.0674913e-08
6.084512e-08
6.1023118e-08
6.1211281e-08
6.1411117e-08
6.1622421e-08
6.1842538e-08
6.2054694e-08
6.2238671e-08
6.236355e-08
6.2373867e-08
6.2137774e-08
6.0602642e-08
6.0689471e-08
6.0788257e-08
6.0897738e-08
6.1016512e-08
6.1143083e-08
6.1275921e-08
6.1413539e-08
6.1554596e-08
6.1698029e-08
6.1843209e-08
6.1990109e-08
6.2139451e-08
6.2292769e-08
6.2452327e-08
6.2620803e-08
6.2800716e-08
6.2993593e-08
6.3199042e-08
6.3413852e-08
6.3621611e-08
6.3801464e-08
6.3921079e-08
6.3922587e-08
6.366907e-08
6.2331998e-08
6.2411701e-08
6.2502308e-08
6.2602651e-08
6.2711435e-08
6.2827288e-08
6.2948814e-08
6.307467e-08
6.3203669e-08
6.3334911e-08
6.3467944e-08
6.3602933e-08
6.3740801e-08
6.3883294e-08
6.4032887e-08
6.419245e-08
6.436463e-08
6.4550979e-08
6.4750923e-08
6.4960722e-08
6.5164201e-08
6.5339826e-08
6.5453848e-08
6.5446055e-08
6.5175478e-08
6.4016385e-08
6.4089413e-08
6.4172375e-08
6.4264185e-08
6.4363653e-08
6.4469517e-08
6.4580502e-08
6.4695398e-08
6.4813157e-08
6.4933032e-08
6.5054734e-08
6.5178602e-08
6.5305749e-08
6.543812e-08
6.5578385e-08
6.5729591e-08
6.5894507e-08
6.60747e-08
6.6269421e-08
6.6474443e-08
6.6673728e-08
6.6845055e-08
6.6953289e-08
6.6935755e-08
6.6645605e-08
6.5647386e-08
6.5714181e-08
6.5790011e-08
6.5873873e-08
6.5964667e-08
6.6061235e-08
6.6162415e-08
6.6267113e-08
6.6374415e-08
6.6483709e-08
6.6594857e-08
6.6708361e-08
6.6825508e-08
6.6948425e-08
6.7079964e-08
6.722333e-08
6.7381403e-08
6.7555759e-08
6.774548e-08
6.794588e-08
6.8141016e-08
6.8307973e-08
6.8410336e-08
6.8383313e-08
6.8076548e-08
6.7216054e-08
6.7277055e-08
6.7346263e-08
6.7422751e-08
6.7505503e-08
6.7593456e-08
6.7685548e-08
6.7780798e-08
6.7878407e-08
6.797789e-08
6.8079248e-08
6.8183128e-08
6.8290978e-08
6.840509e-08
6.8528477e-08
6.866449e-08
6.8816102e-08
6.8984887e-08
6.9169769e-08
6.936565e-08
6.9556592e-08
6.9719083e-08
6.9815577e-08
6.9779507e-08
6.9457145e-08
6.8713169e-08
6.8768823e-08
6.8831925e-08
6.8901617e-08
6.8976963e-08
6.9056983e-08
6.9140709e-08
6.922726e-08
6.9315942e-08
6.9406387e-08
6.9498717e-08
6.9593714e-08
6.9692966e-08
6.9798912e-08
6.9914708e-08
7.0043825e-08
7.0189311e-08
7.035273e-08
7.0532857e-08
7.0724219e-08
7.0910833e-08
7.106867e-08
7.1159163e-08
7.1113941e-08
7.0774989e-08
7.0129556e-08
7.0180323e-08
7.0237848e-08
7.0301338e-08
7.0369925e-08
7.0442709e-08
7.0518804e-08
7.0597419e-08
7.0677955e-08
7.0760147e-08
7.0844226e-08
7.0931089e-08
7.1022448e-08
7.1120866e-08
7.1229616e-08
7.1352266e-08
7.1491916e-08
7.1650106e-08
7.1825464e-08
7.2012183e-08
7.2194188e-08
7.2347006e-08
7.2431116e-08
7.2376199e-08
7.2018974e-08
7.14564e-08
7.1502756e-08
7.1555252e-08
7.161315e-08
7.1675646e-08
7.1741909e-08
7.1811129e-08
7.1882592e-08
7.1955784e-08
7.2030529e-08
7.2107151e-08
7.2186647e-08
7.2270828e-08
7.2362357e-08
7.2464597e-08
7.2581179e-08
7.2715229e-08
7.2868245e-08
7.3038708e-08
7.3220509e-08
7.3397436e-08
7.354467e-08
7.362191e-08
7.3557286e-08
7.3183278e-08
7.2685484e-08
7.2727922e-08
7.2775952e-08
7.2828886e-08
7.2885977e-08
7.2946455e-08
7.3009574e-08
7.3074689e-08
7.3141358e-08
7.3209481e-08
7.3279459e-08
7.3352369e-08
7.3430098e-08
7.351538e-08
7.3611631e-08
7.3722514e-08
7.3851145e-08
7.3998952e-08
7.4164262e-08
7.4340691e-08
7.4511841e-08
7.4652698e-08
7.4722371e-08
7.4647801e-08
7.4253451e-08
7.3809196e-08
7.384822e-08
7.3892358e-08
7.3940967e-08
7.3993349e-08
7.4048786e-08
7.4106588e-08
7.416617e-08
7.4227149e-08
7.4289485e-08
7.4353642e-08
7.4420753e-08
7.4492758e-08
7.4572427e-08
7.4663197e-08
7.476872e-08
7.4892059e-08
7.5034534e-08
7.51943e-08
7.5364659e-08
7.5529084e-08
7.5662534e-08
7.5723831e-08
7.5639441e-08
7.5232269e-08
7.4820131e-08
7.4856243e-08
7.4897063e-08
7.4941983e-08
7.4990347e-08
7.5041482e-08
7.5094745e-08
7.5149599e-08
7.5205711e-08
7.5263087e-08
7.5322235e-08
7.5384326e-08
7.5451323e-08
7.5526003e-08
7.5611783e-08
7.5712262e-08
7.5830402e-08
7.5967363e-08
7.6121171e-08
7.6284288e-08
7.6440752e-08
7.6565474e-08
7.6617332e-08
7.652386e-08
7.6119636e-08
7.5710163e-08
7.5743855e-08
7.5781912e-08
7.5823758e-08
7.5868768e-08
7.5916307e-08
7.5965773e-08
7.6016667e-08
7.6068694e-08
7.6121896e-08
7.6176809e-08
7.6234622e-08
7.6297296e-08
7.6367582e-08
7.6448844e-08
7.6544586e-08
7.6657611e-08
7.6788791e-08
7.6935568e-08
7.7090149e-08
7.7237225e-08
7.7351587e-08
7.7392245e-08
7.7287358e-08
7.6874766e-08
7.646743e-08
7.6499171e-08
7.6534995e-08
7.6574347e-08
7.661663e-08
7.6661234e-08
7.6707589e-08
7.6755229e-08
7.680389e-08
7.6853642e-08
7.690503e-08
7.6959239e-08
7.7018196e-08
7.7084575e-08
7.7161616e-08
7.7252645e-08
7.7360232e-08
7.7484975e-08
7.7624012e-08
7.7769324e-08
7.7905706e-08
7.8008059e-08
7.8035782e-08
7.7917792e-08
7.74926e-08
7.7070135e-08
7.7100382e-08
7.7134497e-08
7.7171939e-08
7.7212121e-08
7.7254449e-08
7.7298375e-08
7.7343463e-08
7.7389478e-08
7.7436517e-08
7.7485116e-08
7.7536442e-08
7.7592361e-08
7.7655437e-08
7.772875e-08
7.7815412e-08
7.7917734e-08
7.8035995e-08
7.8166972e-08
7.8302359e-08
7.8426937e-08
7.8515869e-08
7.8529345e-08
7.8398041e-08
7.7963921e-08
7.7484863e-08
7.7514051e-08
7.7546942e-08
7.758301e-08
7.7621665e-08
7.7662304e-08
7.7704396e-08
7.7747533e-08
7.779153e-08
7.7836529e-08
7.7882979e-08
7.7932075e-08
7.7985593e-08
7.804595e-08
7.8116035e-08
7.8198712e-08
7.8296122e-08
7.8408234e-08
7.8531284e-08
7.8656527e-08
7.8768742e-08
7.8843478e-08
7.8842181e-08
7.8698555e-08
7.8262075e-08
7.7645813e-08
7.7674389e-08
7.7706495e-08
7.7741672e-08
7.7779315e-08
7.7818785e-08
7.7859554e-08
7.7901263e-08
7.7943846e-08
7.7987503e-08
7.8032227e-08
7.807968e-08
7.8131426e-08
7.8189645e-08
7.8257019e-08
7.8336102e-08
7.8429363e-08
7.8536961e-08
7.8653483e-08
7.8769407e-08
7.8869882e-08
7.8930874e-08
7.8915594e-08
7.8762039e-08
7.8332512e-08
7.7379324e-08
7.7407834e-08
7.7439561e-08
7.7474275e-08
7.7511388e-08
7.7550195e-08
7.7590166e-08
7.763105e-08
7.7673058e-08
7.7716278e-08
7.7758476e-08
7.7804711e-08
7.7855366e-08
7.7908273e-08
7.7973277e-08
7.8048697e-08
7.8139419e-08
7.8251937e-08
7.8367838e-08
7.8477198e-08
7.8568638e-08
7.8618439e-08
7.8592638e-08
7.8435912e-08
7.8034012e-08
)
;

boundaryField
{
    Walls
    {
        type            nutUWallFunction;
        Cmu             0.09;
        kappa           0.41;
        E               9.8;
        value           uniform 0;
    }
    Inlet
    {
        type            calculated;
        value           nonuniform List<scalar> 3(1.3095145e-05 3.5410928e-05 7.6053272e-07);
    }
    Outlet
    {
        type            calculated;
        value           nonuniform List<scalar> 
86
(
7.7305264e-08
7.7309613e-08
7.731928e-08
7.7334078e-08
7.7354137e-08
7.7379324e-08
7.7407834e-08
7.7439561e-08
7.7474275e-08
7.7511388e-08
7.7550195e-08
7.7590166e-08
7.763105e-08
7.7673058e-08
7.7716278e-08
7.7758476e-08
7.7804711e-08
7.7855366e-08
7.7908273e-08
7.7973277e-08
7.8048697e-08
7.8139419e-08
7.8251937e-08
7.8367838e-08
7.8477198e-08
7.8568638e-08
7.8618439e-08
7.8592638e-08
7.8435912e-08
7.8034012e-08
1.4250654e-05
1.4784537e-05
1.3364868e-05
0
0
0
0
4.1551921e-06
3.8335398e-06
3.2169474e-06
0
0
0
8.0694766e-07
4.8047143e-07
2.7362371e-07
1.5639549e-07
9.5624758e-08
6.6519045e-08
5.3674527e-08
4.8740655e-08
4.7431855e-08
4.7719037e-08
4.8693779e-08
4.996665e-08
5.1378888e-08
5.2858516e-08
5.4375991e-08
5.5915225e-08
5.7469045e-08
5.9030364e-08
6.0589749e-08
6.2137774e-08
6.366907e-08
6.5175478e-08
6.6645605e-08
6.8076548e-08
6.9457145e-08
7.0774989e-08
7.2018974e-08
7.3183278e-08
7.4253451e-08
7.5232269e-08
0
0
0
0
0
7.8332512e-08
7.8034012e-08
0
0
0
0
1.3144107e-05
1.4773465e-05
)
;
    }
    Front
    {
        type            wedge;
    }
    Back
    {
        type            wedge;
    }
    defaultFaces
    {
        type            empty;
    }
}


// ************************************************************************* //
