/*--------------------------------*- C++ -*----------------------------------*\
| =========                 |                                                 |
| \\      /  F ield         | OpenFOAM: The Open Source CFD Toolbox           |
|  \\    /   O peration     | Version:  4.0                                   |
|   \\  /    A nd           | Web:      www.OpenFOAM.org                      |
|    \\/     M anipulation  |                                                 |
\*---------------------------------------------------------------------------*/
FoamFile
{
    version     2.0;
    format      ascii;
    class       volScalarField;
    location    "0.32";
    object      omega;
}
// * * * * * * * * * * * * * * * * * * * * * * * * * * * * * * * * * * * * * //

dimensions      [0 0 -1 0 0 0 0];

internalField   nonuniform List<scalar> 
1740
(
65.350835
690.95764
14919.889
181.92763
1454.5495
15029.975
303.60703
1981.1682
15116.148
401.01798
2288.6233
15198.683
518.70192
2518.0415
15271.47
633.67962
2789.7921
15327.335
741.53669
3045.6715
15375.432
852.79998
3249.8376
15414.029
959.06997
3460.185
15444.983
1045.4794
3604.0303
15468.536
1146.7112
3632.0452
15490.987
1267.6568
3724.2339
15513.265
1351.9219
3855.9168
15526.596
1413.5382
3937.845
15532.637
1495.6123
3949.4662
15545.208
1547.5033
3979.7895
15556.469
1594.4968
4028.5887
15556.665
1647.2954
4061.7633
15563.585
1711.2982
4087.0182
15571.358
1769.3314
4144.7931
15565.953
1788.4834
4121.3308
15571.579
1823.3526
4124.2369
15578.475
1861.9273
4175.083
15574.136
1874.4419
4150.4373
15572.973
1882.5982
4135.9663
15575.044
1904.0831
4149.9293
15572.022
1942.4474
4160.3275
15572.586
1993.8699
4203.1979
15568.84
2022.0337
4225.2963
15555.904
2147.6193
4304.4296
15497.503
3208.4648
4568.8346
10739.24
3336.2171
4231.4419
5924.1518
1573.4123
1860.4482
2153.7607
825.15843
900.0376
957.65901
479.45611
497.70962
507.5313
301.31603
305.10766
305.1895
201.81047
202.16131
200.75291
142.7051
142.39775
141.17981
105.857
105.5367
104.71831
82.048912
81.822996
81.315235
66.313688
66.170233
65.863354
55.844538
55.756725
55.57221
48.971185
48.918297
48.807442
44.616508
44.585342
44.519457
42.013465
41.996043
41.958236
40.580021
40.571614
40.551597
39.865372
39.862288
39.852144
39.441951
39.438551
39.429912
39.116621
39.113839
39.106937
38.837355
38.835497
38.830354
38.577002
38.576247
38.572872
38.325708
38.326015
38.324242
38.086961
38.087955
38.087317
37.870706
37.871909
37.871843
37.685097
37.686182
37.686278
37.532503
37.53334
37.533399
37.410277
37.410861
37.410823
37.313263
37.31364
37.313508
37.235871
37.236094
37.235892
37.173155
37.173268
37.173021
37.12113
37.121168
37.120895
37.076672
37.07666
37.076376
37.037222
37.037179
37.036894
37.000367
37.000304
37.000025
36.96327
36.963196
36.962929
36.92187
36.921792
36.921541
36.869675
36.869596
36.869364
36.795945
36.79587
36.79566
36.683031
36.682963
36.682779
36.502606
36.502548
36.502395
36.210636
36.210592
36.210475
35.741133
35.741107
35.741037
34.999209
34.999207
34.999193
33.854718
33.854746
33.854805
32.139042
32.139108
32.13926
29.649829
29.649942
29.650211
26.169868
26.170039
26.170449
21.505079
21.505302
21.505855
15.55933
15.559577
15.560237
8.475703
8.4759128
8.4765339
13481.108
13536.05
5993.325
5332.4315
2083.6353
1881.5118
921.86596
853.66929
490.61329
463.40754
296.87544
284.81644
196.44112
190.69567
138.84804
135.93901
103.42057
101.87042
80.576076
79.715224
65.433477
64.937219
55.317134
55.021458
48.653767
48.47305
44.426634
44.314682
41.903132
41.833851
40.520061
40.477568
39.833586
39.806182
39.415059
39.393103
39.094953
39.076836
38.820739
38.805504
38.565345
38.552492
38.31855
38.307829
38.083106
38.07434
37.868711
37.861698
37.683891
37.67838
37.531525
37.527234
37.409309
37.405968
37.312254
37.309628
37.23483
37.232732
37.172104
37.170396
37.120091
37.118672
37.075663
37.074463
37.036256
37.035226
36.999453
36.998557
36.962414
36.961629
36.921077
36.920388
36.86895
36.868345
36.795295
36.794768
36.682464
36.682015
36.502135
36.501767
36.210279
36.210002
35.740916
35.740747
34.999167
34.999131
33.854898
33.85503
32.139507
32.139857
29.650657
29.651301
26.171149
26.172215
21.506882
21.50869
15.561719
15.565047
8.4783039
8.4832054
12058.195
2043.6842
696.75765
369.20467
281.3266
257.07033
249.90936
246.84193
244.46318
242.02541
239.44809
236.64378
233.73449
230.73486
227.61234
224.30505
220.70328
216.61618
211.71744
205.46001
196.93054
184.58522
165.74238
135.40924
81.951061
12058.133
2037.4196
697.81663
374.75368
283.272
254.42289
242.87518
235.64715
229.52272
223.70462
217.99956
212.34796
206.80428
201.35238
195.97117
190.63377
185.28578
179.82616
174.07128
167.70237
160.17144
150.51424
136.93714
115.7541
77.585128
12058.18
2030.4901
718.63262
430.75975
359.41404
332.4845
315.11435
300.61236
287.36819
274.8092
262.82003
251.2312
240.24329
229.76447
219.73401
210.13862
200.95815
192.14767
183.60821
175.16295
166.49928
157.03514
145.56146
129.11416
98.376966
12058.528
2031.7796
817.66995
609.01717
550.16772
512.96395
479.93867
449.41727
421.42806
395.10987
370.42842
347.41605
326.20345
306.33643
287.66934
270.20849
253.94115
238.83462
224.83357
211.84687
199.73351
188.26561
176.99736
164.72934
146.13961
12061.54
2151.1441
1232.8491
1078.9134
990.14974
907.30125
828.79202
757.37463
693.45
634.31667
579.94806
530.29633
486.18199
445.88105
408.89219
375.2192
344.7236
317.23208
292.56136
270.51623
250.89895
233.53259
218.3009
205.37357
195.82757
12087.273
3823.0373
2809.9914
2405.2421
2096.484
1827.3232
1591.8508
1388.4363
1212.4078
1060.5034
929.64174
816.99022
720.01395
636.29142
563.89964
501.32956
447.2853
400.63528
360.40101
325.74422
295.9531
270.45006
248.82774
231.18075
218.74712
10362.587
7904.0658
6099.7823
4790.3246
3820.0528
3084.1919
2514.6298
2067.3118
1712.5048
1428.8415
1200.431
1015.3782
864.72285
741.54616
640.36453
556.82544
487.49333
429.6682
381.23054
340.51385
306.20711
277.29967
253.07207
233.40251
219.57493
4091.286
3307.1894
2843.8136
2468.3743
2148.8634
1868.1956
1623.3579
1411.709
1230.2822
1074.7598
941.32949
826.57862
727.53449
642.03685
568.24675
504.57395
449.6435
402.27688
361.46817
326.36161
296.23462
270.50354
248.75126
231.05412
218.60968
1594.7624
1400.1439
1269.9786
1161.7231
1059.4883
962.20017
873.52193
794.45687
722.41015
657.13973
598.75858
547.12548
499.71802
456.40591
417.06775
381.50479
349.48381
320.77024
295.12921
272.34027
252.20173
234.54178
219.24543
206.46299
197.16555
771.17548
707.96893
661.75268
621.18195
580.83344
540.70451
503.12978
468.50369
436.40948
406.81798
379.77011
354.99743
331.81372
310.11598
289.8937
271.13059
253.79429
237.84087
223.2168
209.85504
197.65777
186.4523
175.85748
164.77363
148.24695
434.01251
410.24496
391.5263
374.30313
356.5635
338.28017
320.42397
303.42875
287.37067
272.30211
258.23188
245.03715
232.50902
220.59852
209.33521
198.71327
188.7232
179.34178
170.5217
162.16795
154.08169
145.82277
136.33737
122.80223
96.045749
272.39017
261.93193
253.26068
245.09525
236.58265
227.65218
218.66634
209.88793
201.43836
193.37486
185.7055
178.3805
171.32575
164.51518
157.9591
151.65931
145.60467
139.76255
134.06307
128.36596
122.39
115.55817
106.63414
92.776538
66.375568
184.88485
179.81186
175.41227
171.19875
166.79386
162.12994
157.34005
152.56661
147.89791
143.37913
139.02053
134.80245
130.69429
126.67863
122.74895
118.89353
115.0873
111.28181
107.38803
103.24535
98.563178
92.807485
84.966685
72.977298
51.432938
133.0147
130.38335
128.02165
125.72752
123.32867
120.777
118.12069
115.43025
112.76022
110.14191
107.58461
105.08014
102.6124
100.16626
97.726711
95.271784
92.765281
90.147378
87.320487
84.12724
80.317544
75.506539
69.156
60.772795
51.24471
100.31236
98.875924
97.54995
96.248009
94.88846
93.439891
91.917977
90.356599
88.786249
87.226398
85.683783
84.154082
82.626065
81.084705
79.510207
77.873677
76.131201
74.216227
72.029536
69.427104
66.209872
62.132379
56.988238
50.955713
45.64548
78.844263
78.023063
77.248113
76.479873
75.67847
74.824935
73.922955
72.987798
72.035624
71.07739
70.116835
69.150309
68.167962
67.154236
66.086391
64.93093
63.63868
62.138675
60.331232
58.08192
55.221741
51.567963
47.000724
41.674995
35.870326
64.428882
63.9382
63.465254
62.991774
62.49769
61.971888
61.414058
60.830671
60.229722
59.616792
58.993056
58.354459
57.691344
56.987538
56.218279
55.346777
54.319638
53.061416
51.468878
49.406215
46.70346
43.159198
38.530877
32.389607
22.979489
54.712709
54.406512
54.10407
53.797258
53.475981
53.13391
52.769783
52.386196
51.986795
51.573972
51.147231
50.701995
50.228465
49.709906
49.120059
48.419402
47.550438
46.432202
44.954416
42.971911
40.299324
36.701542
31.854191
25.168792
15.100874
48.279184
48.080451
47.878117
47.668767
47.447602
47.211271
46.958757
46.691027
46.409631
46.115261
45.806473
45.478377
45.121063
44.717365
44.239762
43.646223
42.875127
41.839453
40.420661
38.462927
35.768147
32.089553
27.111048
20.370798
11.033479
44.190176
44.057198
43.916619
43.76712
43.606644
43.433683
43.247792
43.0494
42.839138
42.616878
42.38072
42.125639
41.841695
41.51143
41.106288
40.582011
39.873227
38.887488
37.499333
35.545563
32.823885
29.097417
24.104226
17.564181
9.1925474
41.752951
41.661873
41.560963
41.449748
41.327537
41.193916
41.048896
40.89281
40.725887
40.547616
40.355836
40.145452
39.906541
39.621531
39.261191
38.779495
38.108163
37.150895
35.778017
33.823327
31.086541
27.348032
22.401512
16.10817
8.444629
40.42441
40.36034
40.285193
40.19879
40.101057
39.992107
39.872213
39.74164
39.600363
39.447553
39.280794
39.094845
38.879676
38.617837
38.280121
37.819297
37.165206
36.219435
34.850628
32.893181
30.150637
26.416295
21.517478
15.382104
8.112875
39.769277
39.72195
39.66379
39.594586
39.514265
39.422861
39.320431
39.206899
39.081782
38.94376
38.789983
38.614916
38.408412
38.152723
37.820796
37.364529
36.712754
35.765482
34.390471
32.427037
29.681878
25.953144
21.080021
15.009495
7.8614446
39.363168
39.324425
39.276288
39.218368
39.150435
39.072358
38.984002
38.885058
38.774751
38.651459
38.512012
38.350622
38.157049
37.913551
37.593596
37.149962
36.509854
35.56403
34.176467
32.204057
29.457266
25.732234
20.868839
14.816741
7.70941
39.051579
39.018283
38.976255
38.92501
38.864222
38.793662
38.713091
38.622118
38.51998
38.405203
38.274983
38.124081
37.942842
37.714068
37.408747
36.982075
36.360546
35.438457
34.070507
32.094551
29.349554
25.628518
20.768121
14.712007
7.6570032
38.783559
38.753907
38.715796
38.668709
38.612315
38.546409
38.470842
38.385423
38.289744
38.182832
38.062443
37.923745
37.75714
37.544979
37.256994
36.847933
36.244426
35.341601
33.997258
32.031995
29.294758
25.580898
20.727193
14.675693
7.6226164
38.533183
38.506327
38.471179
38.427295
38.374478
38.312736
38.242224
38.16315
38.075562
37.97889
37.871094
37.747222
37.597201
37.402691
37.132909
36.739607
36.151812
35.264773
33.937394
31.990102
29.264165
25.560762
20.71916
14.681421
7.6270959
38.290976
38.266859
38.234832
38.194637
38.146327
38.090215
38.02679
37.956578
37.879843
37.796042
37.702911
37.59502
37.461636
37.283713
37.029825
36.65092
36.076411
35.202321
33.888853
31.958371
29.244861
25.553828
20.728334
14.716991
7.6931728
38.060025
38.039087
38.011043
37.975841
37.93376
37.885328
37.8312
37.771963
37.707796
37.637901
37.559593
37.46691
37.34856
37.185003
36.944457
36.577684
36.013928
35.150247
33.848131
31.931954
29.230487
25.551612
20.740633
14.747394
7.7368292
37.849972
37.832611
37.809286
37.780081
37.745378
37.70575
37.661813
37.614015
37.562285
37.505477
37.440495
37.36095
37.25517
37.103339
36.873576
36.516889
35.961298
35.105802
33.812823
31.908458
29.21769
25.54928
20.749231
14.766016
7.7870317
37.669088
37.655285
37.636755
37.613631
37.586281
37.555192
37.520828
37.483412
37.442594
37.396908
37.342934
37.273986
37.178153
37.035469
36.814017
36.464875
35.916036
35.067005
33.781327
31.886565
29.204754
25.544558
20.751487
14.770492
7.7821345
37.520034
37.509376
37.495116
37.477377
37.456452
37.432695
37.406385
37.377524
37.345517
37.30865
37.263266
37.202483
37.114242
36.978499
36.763337
36.419945
35.876611
35.032464
33.752566
31.865573
29.191162
25.537699
20.750625
14.774308
7.7872503
37.400441
37.392327
37.381526
37.368131
37.352346
37.334392
37.314385
37.292144
37.266881
37.236702
37.197786
37.143118
37.060548
36.929985
36.719525
36.380438
35.841175
35.001058
33.725817
31.845156
29.176934
25.529392
20.748718
14.781147
7.8050822
37.305373
37.299202
37.29104
37.280949
37.269055
37.25547
37.240181
37.222869
37.202608
37.177371
37.143228
37.093071
37.014689
36.887962
36.681003
36.345148
35.808997
34.97213
33.700659
31.825223
29.162221
25.519697
20.744344
14.785966
7.8440301
37.229418
37.224681
37.218465
37.210803
37.201763
37.191377
37.179537
37.165823
37.149211
37.127584
37.096931
37.050081
36.974781
36.850892
36.646543
36.313134
35.779414
34.945277
33.676857
31.805889
29.147547
25.509709
20.739639
14.791386
7.8780703
37.167769
37.164075
37.15927
37.153368
37.146394
37.138322
37.128978
37.117872
37.103911
37.084912
37.056809
37.012385
36.939356
36.817571
36.615174
36.283625
35.7518
34.91983
33.654192
31.787313
29.133525
25.500547
20.73524
14.791116
7.9142947
37.116548
37.113612
37.109829
37.1052
37.099719
37.093321
37.085786
37.076573
37.064542
37.047464
37.021233
36.978598
36.90725
36.787032
36.586102
36.25598
35.725668
34.895538
33.632484
31.769548
29.120581
25.493407
20.734611
14.794873
7.9147143
37.072712
37.070332
37.067295
37.063593
37.059199
37.054021
37.047806
37.03998
37.029367
37.013706
36.988859
36.947551
36.877456
36.75841
36.558591
36.229576
35.700498
34.871989
33.611422
31.75233
29.108556
25.488354
20.738877
14.809855
7.9226518
37.033756
37.031792
37.029308
37.02629
37.022699
37.018421
37.013183
37.006385
36.996826
36.982221
36.95841
36.918097
36.848941
36.730777
36.531801
36.203648
35.675584
34.848495
33.5902
31.734899
29.096427
25.48349
20.743116
14.821443
7.9295519
36.997306
36.995658
36.993593
36.99109
36.988101
36.984501
36.979996
36.973972
36.965209
36.951403
36.928374
36.888814
36.820367
36.702869
36.504534
36.177055
35.649827
34.823981
33.567761
31.716011
29.08256
25.476406
20.744302
14.830102
7.9404778
36.960553
36.959153
36.957412
36.955306
36.95278
36.949698
36.945756
36.940326
36.932174
36.91898
36.896553
36.857567
36.789659
36.672664
36.474813
36.147859
35.62132
34.796561
33.542213
31.693678
29.064726
25.464392
20.739038
14.83312
7.9669086
36.919455
36.918256
36.916773
36.914981
36.91282
36.910145
36.906646
36.901681
36.894008
36.881293
36.859333
36.82079
36.753294
36.636677
36.439191
36.112645
35.586676
34.762869
33.510212
31.664585
29.039656
25.444325
20.724288
14.822787
7.9608108
36.867536
36.866504
36.865235
36.863701
36.861836
36.859493
36.856351
36.851762
36.844473
36.832142
36.810552
36.772356
36.705174
36.588841
36.391629
36.065401
35.539917
34.716979
33.465915
31.62305
29.001978
25.41144
20.696498
14.8014
7.9612327
36.79407
36.793187
36.792103
36.790789
36.789178
36.787114
36.784273
36.78
36.773031
36.761016
36.739727
36.701807
36.63487
36.518753
36.321751
35.995792
35.470766
34.648712
33.399323
31.55942
28.94272
25.35805
20.650645
14.768247
7.9563431
36.681424
36.680679
36.679765
36.678653
36.67727
36.675457
36.672884
36.668889
36.6622
36.650458
36.629426
36.591737
36.525
36.409061
36.212247
35.886572
35.36209
34.541135
33.29387
31.457789
28.84712
25.271333
20.576723
14.716209
7.9441724
36.501285
36.50068
36.499936
36.49902
36.497858
36.496287
36.49397
36.490239
36.483814
36.472326
36.451529
36.41405
36.347502
36.231747
36.035173
35.709917
35.186279
34.367013
33.122967
31.292652
28.691398
25.129961
20.455551
14.622114
7.88896
36.209641
36.209186
36.208623
36.207915
36.206985
36.205666
36.203614
36.200154
36.193997
36.182769
36.162215
36.124964
36.058642
35.943157
35.747003
35.422529
34.900421
34.084097
32.845464
31.024625
28.438904
24.901479
20.261737
14.474962
7.802276
35.740527
35.740246
35.739887
35.739413
35.738742
35.737701
35.735942
35.732782
35.726925
35.715991
35.695726
35.658773
35.5928
35.477813
35.282498
34.959569
34.440357
33.629344
32.400121
30.59528
28.035416
24.537642
19.955186
14.245694
7.6386601
34.999082
34.999009
34.998892
34.998689
34.998314
34.997592
34.996168
34.993355
34.987853
34.977281
34.957404
34.920907
34.85555
34.741528
34.547881
34.22795
33.714126
32.912615
31.699652
29.921709
27.40445
23.971094
19.480903
13.894984
7.4406738
33.855196
33.85538
33.855553
33.855667
33.855631
33.855268
33.854225
33.851814
33.846739
33.836639
33.81732
33.781566
33.717325
33.605136
33.414656
33.100284
32.59614
31.811147
30.625594
28.891999
26.443335
23.111818
18.765104
13.367588
7.1099877
32.140304
32.140816
32.141349
32.14184
32.142188
32.142218
32.141584
32.139615
32.135042
32.125556
32.107065
32.072541
32.010276
31.901405
31.71663
31.412079
30.924622
30.167382
29.026889
27.364133
25.022731
21.84762
17.718411
12.607398
6.7095416
29.652136
29.6531
29.654121
29.655102
29.655912
29.656357
29.656119
29.654571
29.650525
29.641817
29.624544
29.592033
29.533157
29.430038
29.255079
28.967161
28.507395
27.795095
26.725623
25.171937
22.992712
20.050059
16.239732
11.542927
6.1427073
26.173673
26.175317
26.177066
26.178773
26.180215
26.18111
26.18117
26.179878
26.176265
26.168516
26.152974
26.123627
26.070287
25.976597
25.817568
25.556192
25.139935
24.496932
23.534852
22.142914
20.199711
17.589351
14.228346
10.109893
5.3955504
21.511454
21.514211
21.517029
21.51982
21.522197
21.523642
21.523869
21.522585
21.51937
21.513152
21.499931
21.475395
21.430714
21.351772
21.217285
20.995871
20.644518
20.103222
19.296078
18.133494
16.519019
14.362612
11.605004
8.2528949
4.4385218
15.570821
15.575276
15.579185
15.583019
15.58632
15.588256
15.588525
15.587233
15.585124
15.582097
15.570053
15.551884
15.519552
15.461396
15.361596
15.195164
14.934099
14.533047
13.936947
13.082601
11.90321
10.334918
8.3431659
5.9447495
3.2539475
8.4923541
8.497844
8.501535
8.5049139
8.5078275
8.5094945
8.5096993
8.5089954
8.5092959
8.5097738
8.490492
8.4781933
8.4603235
8.3953633
8.3386263
8.240942
8.0948975
7.8718936
7.5430668
7.0757257
6.4358339
5.5832867
4.5059029
3.2224594
1.806258
)
;

boundaryField
{
    Walls
    {
        Cmu             0.09;
        kappa           0.41;
        E               9.8;
        beta1           0.075;
        type            omegaWallFunction;
        value           nonuniform List<scalar> 
38
(
12058.195
12058.133
12058.18
12058.528
12061.54
12087.273
13481.108
13536.05
14919.889
15029.975
15116.148
15198.683
15271.47
15327.335
15375.432
15414.029
15444.983
15468.536
15490.987
15513.265
15526.596
15532.637
15545.208
15556.469
15556.665
15563.585
15571.358
15565.953
15571.579
15578.475
15574.136
15572.973
15575.044
15572.022
15572.586
15568.84
15555.904
15497.503
)
;
    }
    Inlet
    {
        type            turbulentMixingLengthDissipationRateInlet;
        mixingLength    0.03;
        phi             phi;
        k               k;
        value           nonuniform List<scalar> 3(0.0040954235 0.004013314 0.0052263496);
    }
    Outlet
    {
        type            inletOutlet;
        inletValue      uniform 1e-05;
        value           nonuniform List<scalar> 
86
(
8.475703
8.4759128
8.4765339
8.4783039
8.4832054
8.4923541
8.497844
8.501535
8.5049139
8.5078275
8.5094945
8.5096993
8.5089954
8.5092959
8.5097738
8.490492
8.4781933
8.4603235
8.3953633
8.3386263
8.240942
8.0948975
7.8718936
7.5430668
7.0757257
6.4358339
5.5832867
4.5059029
3.2224594
1.806258
219.57493
218.60968
197.16555
1e-05
1e-05
1e-05
1e-05
51.24471
45.64548
35.870326
1e-05
1e-05
1e-05
9.1925474
8.444629
8.112875
7.8614446
7.70941
7.6570032
7.6226164
7.6270959
7.6931728
7.7368292
7.7870317
7.7821345
7.7872503
7.8050822
7.8440301
7.8780703
7.9142947
7.9147143
7.9226518
7.9295519
7.9404778
7.9669086
7.9608108
7.9612327
7.9563431
7.9441724
7.88896
7.802276
7.6386601
7.4406738
1e-05
1e-05
1e-05
1e-05
1e-05
3.2539475
1.806258
1e-05
1e-05
1e-05
1e-05
195.82757
218.74712
)
;
    }
    Front
    {
        type            wedge;
    }
    Back
    {
        type            wedge;
    }
    defaultFaces
    {
        type            empty;
    }
}


// ************************************************************************* //
