/*--------------------------------*- C++ -*----------------------------------*\
| =========                 |                                                 |
| \\      /  F ield         | OpenFOAM: The Open Source CFD Toolbox           |
|  \\    /   O peration     | Version:  4.0                                   |
|   \\  /    A nd           | Web:      www.OpenFOAM.org                      |
|    \\/     M anipulation  |                                                 |
\*---------------------------------------------------------------------------*/
FoamFile
{
    version     2.0;
    format      ascii;
    class       volScalarField;
    location    "0.32";
    object      p;
}
// * * * * * * * * * * * * * * * * * * * * * * * * * * * * * * * * * * * * * //

dimensions      [0 2 -2 0 0 0 0];

internalField   nonuniform List<scalar> 
1740
(
491.86308
491.81449
491.83807
475.36147
475.56494
475.48298
458.5869
458.95093
459.04545
442.09587
442.08796
442.39353
425.89832
425.77273
425.8247
409.45812
409.53876
409.46756
392.88161
392.9478
392.72011
376.59482
376.50845
376.10493
360.21397
360.04131
360.10718
343.55873
343.37137
343.72897
326.95861
327.07702
327.09966
310.37429
310.58837
310.35836
293.69835
293.56829
293.43147
276.97863
276.85737
276.70016
260.37313
260.5799
260.35487
244.10497
244.16243
244.13694
227.48794
227.31587
227.47335
210.73648
210.63228
210.78083
194.55093
194.38228
194.39296
177.8036
177.67095
177.76503
160.88773
160.74236
160.88454
144.63842
144.6161
144.60707
128.55569
128.99244
128.91045
112.77016
113.11911
112.9499
96.740796
96.6605
96.582472
79.761994
79.753662
79.909805
62.970973
62.993454
63.087462
46.917871
46.847206
46.476062
31.048509
30.956263
30.67515
16.200362
15.887868
15.690948
4.1895429
3.5299982
1.7934604
-0.51052182
-0.46110653
-0.27238297
-0.048992565
-0.042634821
-0.022877474
0.061879027
0.061778508
0.059601642
0.061358945
0.061620462
0.060861815
0.052794306
0.052802637
0.052124348
0.044702902
0.044374693
0.043500388
0.038318652
0.037856159
0.036724479
0.033159457
0.032727608
0.031750874
0.029142112
0.028764198
0.027942062
0.025895118
0.025569124
0.024875653
0.023096706
0.022816123
0.022224413
0.020591069
0.020349912
0.019842249
0.0183099
0.018102971
0.017668356
0.016237411
0.016060007
0.015687182
0.014371819
0.014219928
0.013899974
0.012702956
0.012573002
0.012298613
0.011213836
0.011102627
0.010867211
0.0098862996
0.0097909332
0.0095885688
0.0087038086
0.0086217812
0.0084473557
0.0076521693
0.0075813876
0.0074305881
0.006719221
0.0066579512
0.0065271771
0.0058942381
0.0058410577
0.0057273541
0.0051674318
0.0051211815
0.0050221622
0.0045296291
0.0044893503
0.0044030474
0.0039721011
0.0039369678
0.0038616403
0.0034865354
0.003455851
0.0033899867
0.0030649914
0.0030381161
0.002980442
0.0027000582
0.0026765093
0.0026259348
0.0023847224
0.0023640604
0.0023196329
0.002112483
0.0020943303
0.0020552586
0.0018773696
0.0018613975
0.0018269863
0.001673946
0.0016598715
0.0016295236
0.0014973063
0.0014848876
0.0014580917
0.0013430667
0.0013320977
0.0013084161
0.0012073489
0.0011976544
0.0011767134
0.0010867589
0.0010781901
0.0010596718
0.0009783595
0.00097079047
0.00095442559
0.00087963843
0.00087296329
0.00085852578
0.00078847574
0.00078260647
0.00076990704
0.00070310783
0.00069797104
0.00068685247
0.00062208844
0.00061762356
0.00060795615
0.00054425026
0.00054040776
0.00053208545
0.00046866766
0.00046540743
0.00045834424
0.00039462359
0.00039191353
0.00038604076
0.00032158861
0.00031940347
0.00031466715
0.0002492193
0.00024753962
0.00024389817
0.00017731422
0.00017612506
0.0001735473
0.00010607022
0.00010536051
0.00010382258
3.5157261e-05
3.4920826e-05
3.4409516e-05
-1.1933231
-0.84537563
-0.22464296
-0.17785241
-0.018134811
-0.025570065
0.050596531
0.038041067
0.057752261
0.051175381
0.049871694
0.046213969
0.04160157
0.0388705
0.035073915
0.033026856
0.030325007
0.028608707
0.026752881
0.025355574
0.0238904
0.022726725
0.021391207
0.020404108
0.019129562
0.018282229
0.017056912
0.016325415
0.015161191
0.014526423
0.013447379
0.012897837
0.011908966
0.01143365
0.010531517
0.010119986
0.009298778
0.008941446
0.0081965165
0.007885371
0.007212842
0.0069412911
0.0063376422
0.0061002483
0.0055619781
0.005354034
0.0048777232
0.0046954104
0.0042769292
0.0041174912
0.0037513517
0.0036116773
0.0032934708
0.0031705451
0.0028959112
0.0027877258
0.0025516302
0.002456431
0.0022541418
0.0021703844
0.0019975936
0.0019235498
0.0017761431
0.0017107139
0.0015846393
0.0015267865
0.0014184249
0.0013672279
0.0012733303
0.0012279901
0.0011456639
0.0011054922
0.0010321938
0.0009966046
0.00093012622
0.00089862202
0.00083707432
0.00080923609
0.00075102679
0.00072650378
0.00067031337
0.00064881384
0.00059356841
0.00057485171
0.00051969391
0.00050356331
0.00044782325
0.0004341197
0.00037728994
0.0003658864
0.00030760766
0.00029840439
0.0002384693
0.00023138957
0.00016970369
0.00016469025
0.00010152924
9.8537688e-05
3.3647352e-05
3.2653499e-05
0.033988425
0.033174332
0.03186935
0.030332673
0.028740343
0.027124665
0.025364981
0.02350482
0.021592781
0.01967116
0.017776562
0.01593549
0.014167624
0.012489372
0.010913363
0.0094474692
0.008093228
0.0068452351
0.0056959135
0.0046360537
0.003657938
0.0027517099
0.0019057743
0.0011096802
0.00035702771
0.034150165
0.033230906
0.031808575
0.030117558
0.028347296
0.0264533
0.024488822
0.022447904
0.020367588
0.018311724
0.016335664
0.014471516
0.012735802
0.011134011
0.009664201
0.0083200653
0.0070956434
0.0059848001
0.004971651
0.004044187
0.0031922966
0.002402271
0.001664037
0.0009729042
0.00032186391
0.030466082
0.029185062
0.027414416
0.025442881
0.023113353
0.020510326
0.017814252
0.015195688
0.012832693
0.010739998
0.0089227094
0.007355402
0.0060120167
0.0048693386
0.0039097203
0.0031134065
0.0024583292
0.0019226037
0.0014930016
0.0011528693
0.00088174558
0.00065977331
0.00047225385
0.00030564895
0.00013613978
0.015180095
0.013467019
0.010837802
0.0073998365
0.0038342283
0.00065471558
-0.0018954456
-0.0037968124
-0.0051914599
-0.0061590076
-0.006749872
-0.0070609728
-0.0071455321
-0.0070204199
-0.0067270021
-0.0063008201
-0.0057700681
-0.0051580437
-0.0044858157
-0.0037736464
-0.0030491678
-0.0023248017
-0.0016045757
-0.00090199242
-0.00025404708
-0.035128722
-0.037082455
-0.039879888
-0.040510115
-0.040120027
-0.038526755
-0.03636307
-0.033820727
-0.031050229
-0.028201622
-0.025426064
-0.022818725
-0.020335083
-0.017746894
-0.015354943
-0.013183046
-0.011223872
-0.0094615948
-0.007873875
-0.0064344336
-0.0051081429
-0.0038733095
-0.0027187583
-0.001624278
-0.00057380502
-0.19569097
-0.15680065
-0.14105032
-0.11319175
-0.090170418
-0.069964642
-0.05278599
-0.038879382
-0.027850272
-0.019180915
-0.012431625
-0.0072496454
-0.0033741369
-0.00070763786
0.0011976111
0.0024513945
0.0031893685
0.0035202821
0.0035298222
0.0032889315
0.0028582804
0.0022926888
0.0016334961
0.00092260427
0.00015701771
-0.29409836
-0.10099646
-0.055159672
-0.021132289
0.010022219
0.034433431
0.049359497
0.055861187
0.057153528
0.055864463
0.053141018
0.049574125
0.04553121
0.041257349
0.036938223
0.032689243
0.028579127
0.024640585
0.020881037
0.017292812
0.013859352
0.010561679
0.0073721509
0.0042777235
0.0011892793
-0.15038603
-0.13645894
-0.11818851
-0.097575916
-0.077395953
-0.05934853
-0.04403913
-0.031674465
-0.021952271
-0.014312676
-0.0085103787
-0.0041635557
-0.00098477808
0.0012931262
0.0028435971
0.0038032724
0.0043004671
0.0044350875
0.0042806399
0.0038987152
0.0033415583
0.0026560622
0.0018828827
0.0010643042
0.00019510612
-0.037792646
-0.044556739
-0.047910723
-0.048673412
-0.047543667
-0.045032196
-0.041960191
-0.0385808
-0.035042341
-0.031675563
-0.02839317
-0.025139591
-0.022039397
-0.019185898
-0.01659182
-0.014261288
-0.012137745
-0.01020398
-0.0084548676
-0.0068717001
-0.0054324212
-0.0041126674
-0.0028892785
-0.0017333891
-0.0006203089
0.025947909
0.016146581
0.0077541012
0.0010621938
-0.0040618534
-0.007772163
-0.010333837
-0.01195229
-0.01283633
-0.013201496
-0.013162647
-0.012833398
-0.012272012
-0.011531789
-0.010660617
-0.0096834992
-0.0086690938
-0.007635055
-0.0065806667
-0.0055140932
-0.0044444409
-0.0033816229
-0.0023373036
-0.0013261535
-0.00038723001
0.044239817
0.037844521
0.031801173
0.026050654
0.020712046
0.015984936
0.012068166
0.0088942094
0.0063567275
0.0043579084
0.0027992877
0.0015989558
0.00069367683
3.1619375e-05
-0.0004321535
-0.00072689809
-0.00089165615
-0.00095360331
-0.00093205727
-0.00084482933
-0.00070850061
-0.00053928325
-0.00035344532
-0.00016634111
-7.2948931e-06
0.042125576
0.038146712
0.034651212
0.031254044
0.027900234
0.02464007
0.021497416
0.018545219
0.015856975
0.013540731
0.011526343
0.0097912689
0.0082998455
0.0070209549
0.0059271014
0.0049886714
0.00417717
0.003468991
0.0028468083
0.0022949591
0.0017998187
0.0013496754
0.00093503597
0.00055065124
0.00019153199
0.036035623
0.033349998
0.030908508
0.028530661
0.026180811
0.023881878
0.021629342
0.019509226
0.017482645
0.015519068
0.013711277
0.012062432
0.010566561
0.0092188448
0.0080042824
0.0069084138
0.0059152511
0.0050089338
0.0041775023
0.0034099933
0.0026967926
0.0020300858
0.0014037105
0.00081378277
0.00026140243
0.030870417
0.028841027
0.026950184
0.025133927
0.02336057
0.021590893
0.019841972
0.018111377
0.016456611
0.014841303
0.013299552
0.011842303
0.010476472
0.0092163647
0.0080547551
0.0069882369
0.0060084237
0.0051049665
0.0042688917
0.0034924558
0.0027683352
0.0020899781
0.0014513814
0.00084751823
0.00027205631
0.026823426
0.025201755
0.023685644
0.022223897
0.020797305
0.019399804
0.018016446
0.016632901
0.01526627
0.013917481
0.012598256
0.011355321
0.01017131
0.0090414989
0.0079765983
0.0069758847
0.0060370421
0.005156825
0.0043314045
0.0035568763
0.0028286207
0.0021417235
0.0014913863
0.00087330407
0.00028120146
0.02387245
0.02239071
0.021096072
0.019861129
0.018674872
0.017529973
0.016404456
0.015277904
0.014155158
0.013036278
0.011932914
0.010852524
0.0098124926
0.0088031851
0.0078309876
0.0069007388
0.0060132563
0.0051681657
0.0043644509
0.0036005964
0.0028744475
0.0021826487
0.0015218066
0.0008927772
0.0002899077
0.021491324
0.020242629
0.019046214
0.017951934
0.016922332
0.015937112
0.014977304
0.014029412
0.013087787
0.012156275
0.011233994
0.010302363
0.0093791261
0.0084735407
0.0075895318
0.0067340947
0.0059046226
0.0051037665
0.0043322797
0.0035904236
0.0028775443
0.0021926247
0.0015343704
0.00090199011
0.00029184135
0.019349011
0.018281064
0.01722611
0.016247119
0.015337852
0.014474595
0.013639053
0.012819947
0.012009305
0.011204308
0.010401702
0.009596827
0.0087936297
0.007996219
0.0072090127
0.0064307653
0.005668376
0.0049231606
0.0041971645
0.0034914212
0.002806757
0.0021437843
0.0015026139
0.00088320934
0.00028452343
0.017370224
0.016441409
0.015519107
0.014655841
0.013846785
0.013080347
0.012343338
0.011624261
0.010915245
0.010210697
0.0095069721
0.008801524
0.0080955258
0.0073918779
0.0066918105
0.005996206
0.0053072924
0.0046272587
0.0039584213
0.0033026946
0.0026617681
0.0020370869
0.0014297676
0.00084121552
0.00027120155
0.015532385
0.014717969
0.013911772
0.013147818
0.012425967
0.01174148
0.011084776
0.0104473
0.0098217344
0.0092005954
0.008581369
0.007961429
0.0073404741
0.0067195885
0.0060992205
0.0054800001
0.004863834
0.0042523797
0.0036473688
0.0030505016
0.0024635578
0.0018882948
0.001326075
0.00078096423
0.00025314128
0.013829192
0.013116646
0.01241272
0.011736964
0.011090684
0.010476047
0.0098878514
0.0093189724
0.0087626011
0.0082122808
0.0076649676
0.0071184674
0.0065716572
0.0060245122
0.00547701
0.0049295117
0.0043831221
0.0038390436
0.0032986241
0.00276335
0.0022347954
0.0017148231
0.0012023137
0.00070881691
0.00023366711
0.012288093
0.011658363
0.011041169
0.01043758
0.0098580492
0.0093049434
0.0087747849
0.0082634477
0.0077652282
0.0072748945
0.0067893669
0.0063057789
0.0058232093
0.0053409591
0.0048587734
0.0043766745
0.0038951605
0.0034150066
0.00293723
0.0024630602
0.0019938948
0.0015313009
0.0010766504
0.00063488696
0.00020674378
0.010902452
0.010345089
0.0097984651
0.0092574296
0.0087348828
0.0082345447
0.0077550245
0.0072928597
0.0068442875
0.0064051592
0.0059723321
0.005543274
0.0051166308
0.0046914179
0.0042671724
0.0038437726
0.0034213658
0.0030003724
0.0025814932
0.0021656603
0.0017540501
0.0013480585
0.00094921127
0.00055999385
0.00018152462
0.0096572388
0.0091684762
0.0086784426
0.0081907642
0.0077184513
0.0072644985
0.00682906
0.0064100518
0.0060046804
0.0056098701
0.0052227295
0.0048410704
0.0044632762
0.0040882948
0.0037154782
0.0033445272
0.0029753907
0.0026082553
0.0022435397
0.0018819112
0.0015242753
0.0011717117
0.00082538997
0.00048713665
0.00015785999
0.0085367329
0.0081049623
0.0076636698
0.0072282224
0.006801849
0.0063898222
0.0059939168
0.0056133983
0.0052463714
0.004890501
0.0045434947
0.0042033446
0.0038685208
0.0035378995
0.0032107034
0.0028865145
0.0025651069
0.0022464922
0.0019308801
0.0016186827
0.0013105057
0.0010071451
0.00070939761
0.00041862663
0.00013565894
0.007530568
0.0071489488
0.0067563127
0.0063640739
0.0059786514
0.0056048129
0.0052449735
0.0048993236
0.0045668122
0.0042457772
0.0039343838
0.0036309674
0.0033341482
0.0030427545
0.0027560254
0.0024733832
0.0021944835
0.0019192105
0.0016475893
0.0013798066
0.0011162111
0.00085727938
0.00060349179
0.00035598127
0.00011529955
0.0066298876
0.0062927834
0.0059426827
0.0055899749
0.0052423537
0.0049037849
0.0045771574
0.0042634666
0.003962346
0.0036727542
0.0033933353
0.0031226917
0.0028595856
0.0026029749
0.0023520394
0.0021061468
0.0018648973
0.001628012
0.0013953713
0.0011669787
0.00094296377
0.00072353975
0.00050894831
0.00030009262
9.722883e-05
0.0058267624
0.0055290587
0.0052168532
0.0049003515
0.0045861745
0.0042810683
0.003985329
0.0037010685
0.0034286803
0.0031676531
0.0029170261
0.0026757116
0.0024426332
0.0022168339
0.0019975085
0.0017840145
0.0015758634
0.0013726802
0.0011742219
0.00098035694
0.00079103354
0.00060626469
0.00042610311
0.00025117031
8.1495165e-05
0.0051142305
0.004851063
0.0045728525
0.0042893498
0.0040069342
0.0037302452
0.0034639673
0.0032070482
0.0029609715
0.0027259587
0.0025013151
0.0022862637
0.0020798961
0.0018813545
0.0016898716
0.0015047888
0.0013255567
0.0011517352
0.00098298774
0.00081906438
0.00065977003
0.00050498369
0.00035459833
0.00020897624
6.7943869e-05
0.0044853544
0.0042517812
0.0040044136
0.0037509521
0.003497382
0.0032479936
0.0030063014
0.0027758895
0.00255386
0.0023426578
0.0021414282
0.0019498933
0.0017672383
0.0015927327
0.0014256633
0.0012653647
0.0011112471
0.00096282276
0.00081968036
0.00068146812
0.00054789912
0.00041873231
0.00029373012
0.00017306645
5.6435248e-05
0.0039317402
0.0037251206
0.0035053924
0.0032791092
0.0030517454
0.0028275387
0.0026094522
0.002399505
0.0022010701
0.0020124486
0.001832163
0.0016617226
0.0015000502
0.0013466565
0.001200894
0.0010620997
0.00092964218
0.00080301311
0.00068175017
0.0005654313
0.00045368147
0.00034616174
0.00024252591
0.00014285755
4.6709856e-05
0.0034474193
0.0032647388
0.0030696436
0.0028678479
0.0026642924
0.0024629728
0.0022668864
0.0020781353
0.0018983184
0.0017275093
0.0015675781
0.001416683
0.0012734654
0.0011385341
0.0010113154
0.00089110228
0.00077717513
0.00066909574
0.00056637273
0.0004685288
0.00037511751
0.00028572477
0.00019993177
0.00011773646
3.8636293e-05
0.0030257215
0.0028641876
0.0026909826
0.002511177
0.0023291737
0.0021486378
0.0019724657
0.0018027696
0.0016409946
0.0014878173
0.0013437663
0.0012081542
0.0010819069
0.00096353144
0.00085255794
0.00074846464
0.00065021831
0.00055780053
0.00047067152
0.00038829224
0.00031018007
0.00023587398
0.00016488783
9.7075457e-05
3.1979218e-05
0.0026599437
0.0025169758
0.0023632829
0.0022031832
0.0020405979
0.0018788697
0.0017207029
0.0015681541
0.0014226766
0.0012851479
0.0011559874
0.0010351578
0.00092267385
0.00081789901
0.00072024231
0.00062921118
0.00054475573
0.0004657919
0.00039180176
0.00032231305
0.00025685995
0.00019502969
0.00013639741
8.0186088e-05
2.6510605e-05
0.0023436248
0.0022170966
0.0020806989
0.0019381682
0.0017929886
0.0016481919
0.0015062756
0.0013691916
0.0012383739
0.00111476
0.00099885638
0.00089081249
0.00079054046
0.00069766649
0.00061172857
0.00053225153
0.00045881555
0.00039075889
0.00032751683
0.00026856952
0.00021341332
0.00016153104
0.00011231991
6.6342942e-05
2.2347978e-05
0.0020707247
0.0019586916
0.0018376393
0.0017107239
0.0015810921
0.0014514736
0.0013241619
0.0012009922
0.0010833418
0.00097215653
0.00086799895
0.00077111052
0.00068146856
0.00059882512
0.00052280835
0.0004529729
0.00038883766
0.00032985138
0.00027546695
0.00022515771
0.0001784208
0.00013476792
9.3708349e-05
5.5176906e-05
1.8425932e-05
0.0018355824
0.0017363321
0.0016287766
0.0015157614
0.0014000022
0.0012839577
0.001169727
0.0010590222
0.00095315582
0.00085306019
0.00075932212
0.0006722351
0.00059184104
0.00051798416
0.00045036723
0.00038859626
0.00033220938
0.00028070152
0.00023355616
0.00019026359
0.00015032318
0.00011326018
7.8584469e-05
4.6288648e-05
1.5704816e-05
0.0016328336
0.0015448746
0.0014493025
0.0013486111
0.0012451979
0.0011412678
0.0010387282
0.00093916186
0.00084381097
0.00075358325
0.00066907678
0.00059061556
0.00051829186
0.00045201486
0.00039154796
0.00033654729
0.00028659954
0.00024124395
0.00019999856
0.00016237746
0.00012790149
9.6110796e-05
6.6533444e-05
3.9221146e-05
1.3481787e-05
0.0014577855
0.0013796625
0.0012947652
0.0012049848
0.0011125517
0.0010194331
0.00092733414
0.00083771595
0.00075174475
0.00067029371
0.0005939599
0.00052308997
0.00045781714
0.00039809709
0.00034374359
0.00029446365
0.00024989305
0.00020961613
0.00017318828
0.00014015427
0.00011006233
8.2476191e-05
5.6936175e-05
3.3602022e-05
1.1705279e-05
0.0013060666
0.0012367007
0.0011610424
0.001080993
0.00099835004
0.00091490756
0.00083213253
0.00075140646
0.00067381518
0.00060018743
0.00053110826
0.00046693838
0.00040784147
0.0003538128
0.00030471234
0.00026029618
0.00022024409
0.00018418323
0.00015170829
0.00012239913
9.5835196e-05
7.1608084e-05
4.9287502e-05
2.9112363e-05
1.0278399e-05
0.0011737396
0.0011121006
0.0010447019
0.00097320283
0.00089927457
0.00082458705
0.00075011493
0.00067735539
0.00060727619
0.00054065186
0.00047804695
0.00041982683
0.00036617702
0.00031712723
0.00027257884
0.00023233185
0.00019610857
0.00016357746
0.00013437269
0.00010811078
8.440401e-05
6.2875254e-05
4.3113444e-05
2.548822e-05
9.1312783e-06
0.0010573566
0.0010025702
0.00094254681
0.00087874518
0.00081261152
0.00074552082
0.00067862137
0.00061306244
0.00054975655
0.00048944087
0.00043265591
0.00037976506
0.00033096896
0.00028632524
0.00024577086
0.00020914489
0.00017621033
0.00014667538
0.00012021223
9.6472716e-05
7.5101152e-05
5.5751315e-05
3.8040986e-05
2.2502276e-05
8.2095676e-06
0.00095390132
0.00090521779
0.00085178037
0.00079485868
0.00073571526
0.00067555146
0.00061544717
0.00055639568
0.00049923672
0.00044464763
0.00039314177
0.00034507562
0.00030065863
0.00025996985
0.00022297598
0.00018955093
0.00015949476
0.00013255262
0.00010843225
8.6817981e-05
6.7383893e-05
4.9814733e-05
3.3752964e-05
1.9978265e-05
7.4579791e-06
0.00086077121
0.00081755246
0.00077002794
0.0007193015
0.00066647634
0.00061260993
0.00055867751
0.00050556051
0.00045401812
0.00040467309
0.00035800663
0.00031436216
0.00027395238
0.00023687178
0.00020311115
0.000172575
0.00014509608
0.00012045255
9.8385432e-05
7.8607375e-05
6.0816562e-05
4.4723258e-05
2.99779e-05
1.7763115e-05
6.8581927e-06
0.00077574906
0.00073745671
0.00069527747
0.00065016982
0.00060309643
0.00055498764
0.00050671111
0.00045905079
0.00041268979
0.00036819641
0.00032601733
0.00028647873
0.00024979153
0.00021606048
0.00018529395
0.00015742471
0.00013231284
0.00010976378
8.9553412e-05
7.1416227e-05
5.5066483e-05
4.0221734e-05
2.647126e-05
1.5737308e-05
6.4423021e-06
0.00069697126
0.00066315452
0.00062584578
0.00058587522
0.00054408002
0.00050127543
0.00045822943
0.00041563296
0.00037409957
0.00033414371
0.00029617555
0.00026050075
0.00022732382
0.0001967548
0.00016881839
0.00014346639
0.00012058784
9.9998108e-05
8.1528741e-05
6.4921485e-05
4.9904717e-05
3.6187427e-05
2.3049952e-05
1.3863455e-05
6.2797156e-06
0.00062289543
0.00059317964
0.00056034736
0.00052511456
0.00048820635
0.00045033258
0.00041216437
0.00037431445
0.00033732588
0.00030166002
0.00026768978
0.00023569783
0.00020587865
0.0001783435
0.00015312747
0.00013019858
0.00010946629
9.0788864e-05
7.3996447e-05
5.8875948e-05
4.5184567e-05
3.2719847e-05
2.0128987e-05
1.2393077e-05
5.9264887e-06
0.00055226669
0.00052634309
0.00049766268
0.00046683912
0.00043449626
0.00040124728
0.00036767527
0.00033431666
0.00030164888
0.00027008119
0.00023994835
0.00021150798
0.00018494152
0.00016035774
0.00013779835
0.00011724496
9.8626796e-05
8.1828782e-05
6.6701485e-05
5.3062127e-05
4.0696929e-05
2.9361015e-05
1.8413385e-05
1.1177433e-05
5.3565652e-06
0.00048408247
0.00046169899
0.00043690578
0.000410224
0.00038218538
0.00035331446
0.00032411257
0.00029504356
0.00026652217
0.00023890685
0.00021249356
0.00018751312
0.00016413134
0.00014245147
0.00012251849
0.00010432471
8.7816385e-05
7.2900894e-05
5.9454148e-05
4.7326307e-05
3.6348389e-05
2.6347791e-05
1.7056663e-05
1.0177099e-05
4.4763102e-06
0.00041755772
0.00039851094
0.00037739154
0.0003546365
0.00033069294
0.00030600347
0.00028099286
0.00025605581
0.00023154736
0.00020777589
0.00018499819
0.00016341678
0.00014317964
0.00012438183
0.00010706861
9.1240135e-05
7.6856892e-05
6.3845948e-05
5.2107778e-05
4.1523246e-05
3.1962312e-05
2.3300846e-05
1.5374071e-05
9.1316261e-06
3.7841014e-06
0.00035209541
0.00033622315
0.00031860794
0.00029960921
0.00027959565
0.00025893341
0.00023797498
0.0002170493
0.00019645359
0.00017644713
0.0001572473
0.00013902711
0.00012191474
0.00010599468
9.1309962e-05
7.7865935e-05
6.5634567e-05
5.4559763e-05
4.4563439e-05
3.5551953e-05
2.7423617e-05
2.0081008e-05
1.3391016e-05
7.9487261e-06
3.1913981e-06
0.00028726846
0.00027444377
0.00026020023
0.00024482513
0.00022861376
0.00021186012
0.000194848
0.0001778432
0.00016108668
0.00014478957
0.00012912972
0.00011424963
0.00010025596
8.7220611e-05
7.5182374e-05
6.4149249e-05
5.4101978e-05
4.49985e-05
3.6778746e-05
2.936969e-05
2.2690978e-05
1.6662648e-05
1.1169017e-05
6.6322927e-06
2.6274902e-06
0.00022281966
0.00021294527
0.00020197213
0.00019011956
0.00017761333
0.00016467871
0.00015153367
0.0001383829
0.00012541257
0.00011278641
0.0001006428
8.9093058e-05
7.822094e-05
6.8083721e-05
5.8713834e-05
5.0119336e-05
4.2287226e-05
3.5187002e-05
2.8774034e-05
2.2992812e-05
1.778064e-05
1.3072221e-05
8.7693212e-06
5.2102634e-06
2.0672881e-06
0.00015861996
0.00015162342
0.00014384546
0.00013544055
0.0001265679
0.00011738659
0.00010805077
9.8705709e-05
8.9484018e-05
8.0502737e-05
7.1861061e-05
6.3638899e-05
5.589607e-05
4.867263e-05
4.1990812e-05
3.5856704e-05
3.0262465e-05
2.5188022e-05
2.0602834e-05
1.6467622e-05
1.2736245e-05
9.3573598e-06
6.2440976e-06
3.7127154e-06
1.5101664e-06
9.4915066e-05
9.0739169e-05
8.6095993e-05
8.1077595e-05
7.5778776e-05
7.0294197e-05
6.4715773e-05
5.9130398e-05
5.3617918e-05
4.8249235e-05
4.3084639e-05
3.8172817e-05
3.354926e-05
2.9234998e-05
2.5237307e-05
2.156012e-05
1.8201822e-05
1.515243e-05
1.2395166e-05
9.9065608e-06
7.6577625e-06
5.6128017e-06
3.6737476e-06
2.1863745e-06
9.7524518e-07
3.1450245e-05
3.0063323e-05
2.8521518e-05
2.6855375e-05
2.5096475e-05
2.3276223e-05
2.1425225e-05
1.9572455e-05
1.7744863e-05
1.5966812e-05
1.4258693e-05
1.2637669e-05
1.111529e-05
9.6973066e-06
8.3765764e-06
7.1565727e-06
6.0400987e-06
5.0256307e-06
4.1082104e-06
3.2802996e-06
2.5326563e-06
1.8541294e-06
1.2281147e-06
7.2839887e-07
2.9846426e-07
)
;

boundaryField
{
    Walls
    {
        type            zeroGradient;
    }
    Inlet
    {
        type            fixedValue;
        value           uniform 500;
    }
    Outlet
    {
        type            fixedValue;
        value           uniform 0;
    }
    Front
    {
        type            wedge;
    }
    Back
    {
        type            wedge;
    }
    defaultFaces
    {
        type            empty;
    }
}


// ************************************************************************* //
