/*--------------------------------*- C++ -*----------------------------------*\
| =========                 |                                                 |
| \\      /  F ield         | OpenFOAM: The Open Source CFD Toolbox           |
|  \\    /   O peration     | Version:  4.0                                   |
|   \\  /    A nd           | Web:      www.OpenFOAM.org                      |
|    \\/     M anipulation  |                                                 |
\*---------------------------------------------------------------------------*/
FoamFile
{
    version     2.0;
    format      ascii;
    class       surfaceScalarField;
    location    "0.32";
    object      phi;
}
// * * * * * * * * * * * * * * * * * * * * * * * * * * * * * * * * * * * * * //

dimensions      [0 3 -1 0 0 0 0];

internalField   nonuniform List<scalar> 
3364
(
-1.6283293e-10
1.5765231e-08
-5.2710138e-10
5.1749017e-08
8.5434153e-08
-8.9205539e-10
1.6657262e-08
-1.2857345e-09
5.2142724e-08
8.4148453e-08
-1.0815258e-09
1.7738755e-08
-1.5297707e-09
5.2591025e-08
8.2618702e-08
1.6333946e-10
1.757538e-08
-1.0549472e-09
5.380931e-08
8.156373e-08
6.6881533e-10
1.6906536e-08
5.2344164e-10
5.3954623e-08
8.2087117e-08
3.3197512e-11
1.6873312e-08
9.6599087e-10
5.3021761e-08
8.3053055e-08
-1.8997147e-10
1.7063236e-08
9.2434638e-10
5.1907375e-08
8.397737e-08
-3.1679144e-10
1.7379982e-08
1.0561307e-09
5.0534409e-08
8.5033479e-08
-1.3414148e-10
1.7514104e-08
-1.0168263e-09
5.1417069e-08
8.4016633e-08
6.3670887e-10
1.6877364e-08
-1.9632777e-09
5.4017043e-08
8.2053332e-08
6.517366e-11
1.6812139e-08
1.6436356e-10
5.3917802e-08
8.2217657e-08
-5.3374682e-10
1.7345841e-08
1.5122611e-09
5.1871724e-08
8.3729866e-08
2.1000266e-10
1.7135806e-08
5.6146043e-10
5.1520229e-08
8.4291281e-08
1.7415389e-10
1.696161e-08
1.2041436e-10
5.1573943e-08
8.4411665e-08
-7.7074355e-10
1.7732312e-08
8.0696766e-10
4.9996197e-08
8.5218604e-08
-3.2228568e-10
1.8054564e-08
1.4234146e-10
4.9531516e-08
8.5360906e-08
6.1688091e-10
1.7437647e-08
-2.7191809e-10
5.0420272e-08
8.5088954e-08
4.7218701e-10
1.6965407e-08
6.1297449e-11
5.083113e-08
8.5150223e-08
1.2238964e-10
1.6842957e-08
-1.7949084e-10
5.1132957e-08
8.49707e-08
-2.285664e-10
1.70715e-08
-1.2929541e-09
5.2197326e-08
8.3677709e-08
1.1439493e-10
1.6957093e-08
-1.0467084e-09
5.3358419e-08
8.2630957e-08
3.0211626e-10
1.6654957e-08
1.2130498e-10
5.3539192e-08
8.275222e-08
-6.3116066e-10
1.728608e-08
5.9721877e-10
5.2310815e-08
8.3349418e-08
-4.1987256e-10
1.7705883e-08
1.218261e-09
5.0672648e-08
8.4567663e-08
3.3378567e-10
1.7372037e-08
4.3782514e-10
5.0568538e-08
8.5005444e-08
1.5167253e-10
1.7220325e-08
-8.5144184e-10
5.1571612e-08
8.4153956e-08
-1.0856428e-10
1.7328849e-08
-4.8783716e-10
5.1950854e-08
8.3666089e-08
-4.3742688e-11
1.737256e-08
1.1595937e-09
5.0747487e-08
8.4825648e-08
4.5012238e-11
1.732759e-08
8.9696265e-10
4.9895626e-08
8.5722635e-08
1.6516172e-09
1.5676203e-08
4.3484658e-09
4.7198902e-08
9.007108e-08
1.1433176e-08
4.2423841e-09
4.8110603e-08
1.0519599e-08
1.0937478e-08
1.2724163e-07
4.7592675e-09
-5.173487e-10
1.6689001e-08
-1.411611e-09
-1.3883122e-09
2.9012933e-08
-4.1426858e-10
-1.0304477e-10
-1.5432358e-09
-2.8257043e-10
-3.562427e-10
-2.5752005e-09
-1.0374385e-10
7.1412296e-13
-3.8731815e-10
1.0399187e-12
-5.4272462e-12
-7.3809281e-10
-9.2205629e-12
9.9364478e-12
-3.9065907e-11
3.088991e-11
5.1116931e-11
-9.5604085e-11
5.8316407e-13
9.3534413e-12
2.0989204e-12
2.9374597e-11
5.0104335e-11
3.1106122e-12
1.639544e-12
7.7137996e-12
7.0400934e-12
2.3973603e-11
3.9642012e-11
1.7502446e-11
2.0181999e-12
5.6957399e-12
9.0179918e-12
1.697395e-11
2.7703912e-11
2.0956398e-11
1.4349699e-12
4.26091e-12
5.7819903e-12
1.2627169e-11
1.9944971e-11
1.3541258e-11
8.1668313e-13
3.4443585e-12
3.2342235e-12
1.0209877e-11
1.6111439e-11
7.0681274e-12
3.2507458e-13
3.1194073e-12
1.290332e-12
9.2448691e-12
1.460867e-11
2.7934798e-12
1.8854699e-13
2.9309605e-12
7.7769348e-13
8.6559258e-12
1.3858108e-11
1.528565e-12
1.9795811e-13
2.7330744e-12
7.5818966e-13
8.0958372e-12
1.305175e-11
1.5647681e-12
2.4187073e-13
2.4912531e-12
9.2547814e-13
7.4123226e-12
1.1959389e-11
2.0179767e-12
2.6473061e-13
2.2265555e-12
1.0540338e-12
6.6230799e-12
1.0726529e-11
2.2869757e-12
2.5269647e-13
1.9738815e-12
1.0049648e-12
5.8708517e-12
9.524358e-12
2.2071883e-12
2.2260938e-13
1.7512878e-12
8.8667655e-13
5.2068117e-12
8.448647e-12
1.9624227e-12
1.9426641e-13
1.557032e-12
7.7292523e-13
4.6281702e-12
7.5188828e-12
1.7027085e-12
1.7074721e-13
1.3862915e-12
6.7620891e-13
4.1227168e-12
6.7067122e-12
1.4883864e-12
1.5252718e-13
1.2337681e-12
6.0298249e-13
3.6722638e-12
5.9817175e-12
1.3279756e-12
1.3839523e-13
1.0953746e-12
5.4790986e-13
3.2627472e-12
5.3203513e-12
1.2092686e-12
1.2608196e-13
9.6929294e-13
4.9992047e-13
2.8889038e-12
4.7149704e-12
1.1052901e-12
1.1466724e-13
8.5462494e-13
4.5512758e-13
2.5484367e-12
4.1617701e-12
1.0083141e-12
1.0413807e-13
7.504854e-13
4.1384741e-13
2.2387195e-12
3.6572796e-12
9.1832264e-13
9.4147407e-14
6.5633607e-13
3.7448732e-13
1.958371e-12
3.2001663e-12
8.3158476e-13
8.4608063e-14
5.717258e-13
3.3652987e-13
1.7064403e-12
2.7882382e-12
7.4844206e-13
7.5552966e-14
4.9617051e-13
3.0111781e-13
1.4808667e-12
2.4212697e-12
6.6807074e-13
6.6665091e-14
4.2950309e-13
2.6577996e-13
1.2817433e-12
2.0949209e-12
5.9211387e-13
5.8289484e-14
3.7121133e-13
2.3256365e-13
1.1074611e-12
1.8096814e-12
5.1778916e-13
5.0603585e-14
3.2060559e-13
2.0165811e-13
9.5639908e-13
1.5625289e-12
4.4879767e-13
4.3619182e-14
2.769844e-13
1.7380761e-13
8.2620373e-13
1.3495703e-12
3.8675439e-13
3.725346e-14
2.397291e-13
1.4848559e-13
7.1496531e-13
1.1676244e-12
3.3042079e-13
3.1470698e-14
2.0825674e-13
1.254452e-13
6.2098515e-13
1.0139399e-12
2.7912015e-13
2.6288903e-14
1.8196637e-13
1.0477807e-13
5.4249097e-13
8.8563076e-13
2.330788e-13
2.1722087e-14
1.6024299e-13
8.6572267e-14
4.7763641e-13
7.7968218e-13
1.9251353e-13
1.7740021e-14
1.4250187e-13
7.0724572e-14
4.2464809e-13
6.9319469e-13
1.5720585e-13
1.4263396e-14
1.2823754e-13
5.6918365e-14
3.8198992e-13
6.2367114e-13
1.2643672e-13
1.1280093e-14
1.1695668e-13
4.4906481e-14
3.4836089e-13
5.6911295e-13
9.9460431e-14
8.7983642e-15
1.081577e-13
3.4837464e-14
3.2231966e-13
5.2678447e-13
7.7162557e-14
6.7229022e-15
1.0143432e-13
2.6636926e-14
3.0240398e-13
4.9445847e-13
5.8960325e-14
5.0215606e-15
9.6412411e-14
1.9897636e-14
2.8752668e-13
4.7041264e-13
4.3941558e-14
3.6481465e-15
9.2764029e-14
1.4415944e-14
2.7675801e-13
4.5308183e-13
3.1745474e-14
2.595482e-15
9.0168407e-14
1.0217773e-14
2.6913519e-13
4.4089811e-13
2.2400746e-14
1.8164504e-15
8.8351904e-14
7.1377803e-15
2.638136e-13
4.3245266e-13
1.5582947e-14
1.2668661e-15
8.7085055e-14
5.0412773e-15
2.6003917e-13
4.264794e-13
1.1014626e-14
8.8893229e-16
8.61962e-14
3.5875266e-15
2.5734074e-13
4.2221902e-13
7.8483254e-15
6.8018491e-16
8.5516144e-14
2.7879729e-15
2.5523329e-13
4.1887498e-13
6.1326928e-15
6.2826987e-16
8.4888048e-14
2.4959297e-15
2.533661e-13
4.1594998e-13
5.4218218e-15
6.4916027e-16
8.4239092e-14
2.2945729e-15
2.5172123e-13
4.1344403e-13
4.8015765e-15
3.631124e-16
1.5473785e-15
3.6702386e-15
1.3659646e-07
-9.360114e-09
-8.621739e-09
1.4521194e-07
2.1031098e-08
-1.3794692e-09
-1.3343365e-09
1.3743169e-08
-3.5128391e-09
-4.4169766e-10
-5.312759e-10
-4.3157531e-09
-1.1560823e-09
-2.3654639e-11
-9.2671438e-11
-1.5946225e-09
-1.8377085e-10
6.4522299e-11
5.2198944e-11
-3.2862536e-10
4.4235482e-13
6.7193351e-11
7.6586263e-11
-2.3941311e-11
3.1724506e-11
5.2972152e-11
6.3526074e-11
4.4785291e-11
3.5070429e-11
3.8858322e-11
4.576847e-11
5.2827942e-11
2.5764543e-11
2.6635291e-11
3.2072956e-11
3.9460153e-11
1.2731993e-11
2.0971849e-11
2.5054535e-11
1.9750829e-11
4.6362746e-12
1.9129533e-11
2.280947e-11
6.8818851e-12
2.2433068e-12
1.8415196e-11
2.2043843e-11
3.0094132e-12
2.6194322e-12
1.7360817e-11
2.1057952e-11
3.6056609e-12
3.4140212e-12
1.5964949e-11
1.9411485e-11
5.0606962e-12
3.8885445e-12
1.4363482e-11
1.7463422e-11
5.8367232e-12
3.7795104e-12
1.2791217e-11
1.5609876e-11
5.6331159e-12
3.3727907e-12
1.1380883e-11
1.3933372e-11
5.0493255e-12
2.9333695e-12
1.0150235e-11
1.246704e-11
4.399707e-12
2.5683104e-12
9.0703113e-12
1.1168236e-11
3.867106e-12
2.2972018e-12
8.1010764e-12
9.9917054e-12
3.4737147e-12
2.0965992e-12
7.2137307e-12
8.9116062e-12
3.1766743e-12
1.9187922e-12
6.4002091e-12
7.9123796e-12
2.9179905e-12
1.7560526e-12
5.6524487e-12
6.9940802e-12
2.6743209e-12
1.6027202e-12
4.9680278e-12
6.1430381e-12
2.4537301e-12
1.4502706e-12
4.3493181e-12
5.3799186e-12
2.213358e-12
1.308572e-12
3.7891646e-12
4.6914623e-12
1.996997e-12
1.1660394e-12
3.2911732e-12
4.0756412e-12
1.7818305e-12
1.034456e-12
2.8488096e-12
3.5252746e-12
1.5847943e-12
9.0615988e-13
2.4604188e-12
3.0421605e-12
1.3892478e-12
7.864738e-13
2.1227242e-12
2.6253904e-12
1.2032199e-12
6.7653669e-13
1.8329252e-12
2.264641e-12
1.0372644e-12
5.7797594e-13
1.585355e-12
1.9575385e-12
8.8505905e-13
4.8816363e-13
1.3762981e-12
1.6984687e-12
7.4721634e-13
4.075179e-13
1.2018473e-12
1.4823546e-12
6.2361702e-13
3.3643469e-13
1.0579161e-12
1.3040546e-12
5.1472196e-13
2.7465751e-13
9.4045589e-13
1.1602839e-12
4.1841749e-13
2.2007853e-13
8.4680701e-13
1.04571e-12
3.3464351e-13
1.7295245e-13
7.7330922e-13
9.5527625e-13
2.6337901e-13
1.3420349e-13
7.1626373e-13
8.8562202e-13
2.0385202e-13
1.023385e-13
6.7288207e-13
8.3294266e-13
1.5501355e-13
7.6109075e-14
6.4071205e-13
7.94068e-13
1.1498065e-13
5.4781993e-14
6.1767388e-13
7.6625463e-13
8.2593377e-14
3.8390808e-14
6.0168291e-13
7.4759963e-13
5.7044766e-14
2.6548136e-14
5.9071745e-13
7.3493943e-13
3.92081e-14
1.8688712e-14
5.8304362e-13
7.2622682e-13
2.7401744e-14
1.3272716e-14
5.7761992e-13
7.2012358e-13
1.9376944e-14
1.0428165e-14
5.7332552e-13
7.1523198e-13
1.5321222e-14
9.2520828e-15
5.6949662e-13
7.1075091e-13
1.3734989e-14
8.1729406e-15
5.6612684e-13
7.0679562e-13
1.2130369e-14
6.5576958e-15
1.0295299e-14
2.1020595e-12
-2.1056217e-12
3.0116386e-12
-9.1671411e-13
2.0110949e-12
9.9311909e-13
-2.1585822e-12
4.1661242e-12
-1.0700808e-11
8.541187e-12
-2.2245016e-11
1.1544988e-11
-4.0720843e-11
1.8477876e-11
-6.624082e-11
2.5522904e-11
-9.8682556e-11
3.2445261e-11
-1.3687051e-10
3.8191831e-11
-1.7916084e-10
4.2294387e-11
-2.2402806e-10
4.4871275e-11
-2.7023824e-10
4.6214135e-11
-3.1683915e-10
4.6604626e-11
-3.6303588e-10
4.6200139e-11
-4.0806519e-10
4.5032302e-11
-4.5105642e-10
4.2993777e-11
-4.9110191e-10
4.004752e-11
-5.2739806e-10
3.6297695e-11
-5.5927098e-10
3.187396e-11
-5.8609409e-10
2.682373e-11
-6.0733814e-10
2.1244312e-11
-6.2259116e-10
1.5253073e-11
-6.3153777e-10
8.9465066e-12
2.381735e-12
-3.532803e-11
3.322679e-11
-8.0846518e-11
4.4608565e-11
-1.3784225e-10
5.7996758e-11
-2.0842374e-10
7.4755931e-11
-2.9306467e-10
9.31905e-11
-3.9560015e-10
1.1408867e-10
-5.1574011e-10
1.3862568e-10
-6.5457846e-10
1.6436861e-10
-8.0917249e-10
1.8704605e-10
-9.7648902e-10
2.0551446e-10
-1.1534314e-09
2.192422e-10
-1.3371464e-09
2.2859107e-10
-1.5249857e-09
2.3405752e-10
-1.714856e-09
2.364784e-10
-1.9047668e-09
2.3611384e-10
-2.0936526e-09
2.3392034e-10
-2.2911887e-09
2.4053167e-10
-2.4798979e-09
2.2875784e-10
-2.6516624e-09
2.0806282e-10
-2.8014928e-09
1.8170455e-10
-2.9258694e-09
1.5120002e-10
-3.0221505e-09
1.1752474e-10
-3.0879819e-09
8.1083418e-11
-3.1196181e-09
4.0581511e-11
1.0469348e-11
-1.1362972e-10
1.4686519e-10
-2.5204678e-10
1.8303932e-10
-4.202185e-10
2.2618445e-10
-6.2320784e-10
2.7776174e-10
-8.6477305e-10
3.3477178e-10
-1.1469806e-09
3.9631133e-10
-1.4718513e-09
4.6351014e-10
-1.8996695e-09
5.9219915e-10
-2.3611187e-09
6.4850579e-10
-2.8307203e-09
6.7512504e-10
-3.2942284e-09
6.8275767e-10
-3.7436004e-09
6.7796907e-10
-4.172989e-09
6.6345077e-10
-4.5765969e-09
6.4008973e-10
-4.9485019e-09
6.0802109e-10
-5.2833249e-09
5.6874466e-10
-5.5661326e-09
5.233397e-10
-5.8098133e-09
4.7243802e-10
-6.0190207e-09
4.1726909e-10
-6.1960256e-09
3.5870755e-10
-6.3430619e-09
2.9823377e-10
-6.4610146e-09
2.3547445e-10
-6.5499725e-09
1.7003788e-10
-6.6116615e-09
1.0226671e-10
3.3952266e-11
-3.5336033e-10
5.0024201e-10
-7.6738084e-10
5.9708487e-10
-1.2566002e-09
7.154312e-10
-2.0582944e-09
1.0794808e-09
-2.9270497e-09
1.2035484e-09
-3.7530558e-09
1.2223349e-09
-4.4848383e-09
1.1953064e-09
-5.0299695e-09
1.1373414e-09
-5.4389153e-09
1.0574602e-09
-5.7271659e-09
9.633822e-10
-5.9097583e-09
8.65355e-10
-5.9996221e-09
7.6783652e-10
-6.0071633e-09
6.7099447e-10
-5.9341024e-09
5.6703046e-10
-5.7964761e-09
4.7039566e-10
-5.6115938e-09
3.8386271e-10
-5.3966909e-09
3.0843653e-10
-5.1687792e-09
2.4452571e-10
-4.943599e-09
1.9208793e-10
-4.7356308e-09
1.5073799e-10
-4.5569455e-09
1.1954694e-10
-4.414899e-09
9.3426159e-11
-4.3145906e-09
6.9727512e-11
-4.2594182e-09
4.7092122e-11
2.5139435e-11
-2.198744e-09
2.6990125e-09
-3.950869e-09
2.3492391e-09
-5.4681143e-09
2.2327048e-09
-6.160651e-09
1.7720374e-09
-6.2429174e-09
1.2858308e-09
-5.773896e-09
7.5332648e-10
-5.009563e-09
4.309841e-10
-4.0165315e-09
1.4431896e-10
-2.8606016e-09
-9.8461964e-11
-1.6052126e-09
-2.9200043e-10
-3.6080802e-10
-3.7904537e-10
8.7630587e-10
-4.6927829e-10
2.1806951e-09
-6.3339581e-10
3.595913e-09
-8.4818712e-10
4.979151e-09
-9.1284051e-10
6.2901008e-09
-9.270833e-10
7.5062401e-09
-9.0769727e-10
8.6130173e-09
-8.6224424e-10
9.6001948e-09
-7.9508072e-10
1.0460088e-08
-7.0914428e-10
1.1185455e-08
-6.0580877e-10
1.1766765e-08
-4.8786974e-10
1.2193976e-08
-3.5746856e-10
1.2458093e-08
-2.1700988e-10
-6.4937234e-11
1.0190284e-09
1.68007e-09
4.1978522e-09
-8.2953232e-10
7.9011932e-09
-1.4705646e-09
1.1587642e-08
-1.9143807e-09
1.5322641e-08
-2.4491432e-09
1.8982347e-08
-2.9063511e-09
2.2585103e-08
-3.1717402e-09
2.596895e-08
-3.2394907e-09
2.9042719e-08
-3.1721879e-09
3.1785077e-08
-3.0343122e-09
3.4262239e-08
-2.8561579e-09
3.6437207e-08
-2.6441941e-09
3.8229357e-08
-2.4254916e-09
3.9600071e-08
-2.2188459e-09
4.0691369e-08
-2.0040829e-09
4.15542e-08
-1.7898592e-09
4.2228592e-08
-1.5820334e-09
4.2748031e-08
-1.381628e-09
4.3141744e-08
-1.1887388e-09
4.3435191e-08
-1.0025361e-09
4.3650436e-08
-8.2099906e-10
4.3804535e-08
-6.4191462e-10
4.3909603e-08
-4.6248178e-10
4.3972792e-08
-2.8014617e-10
-8.8978123e-11
1.492304e-07
-2.3371755e-09
1.4787785e-07
5.2394444e-10
1.4533064e-07
1.0774308e-09
1.4186376e-07
1.5531959e-09
1.37302e-07
2.1132241e-09
1.3180631e-07
2.5898691e-09
1.257527e-07
2.8823139e-09
1.1953575e-07
2.9778477e-09
1.1342514e-07
2.9387509e-09
1.0757425e-07
2.8168591e-09
1.0205081e-07
2.6675355e-09
9.6905264e-08
2.5015746e-09
9.2168065e-08
2.3119056e-09
8.7838524e-08
2.1108732e-09
8.392728e-08
1.9073225e-09
8.0431745e-08
1.7058217e-09
7.7340903e-08
1.5089414e-09
7.4641172e-08
1.318226e-09
7.2318542e-08
1.1340047e-09
7.0360371e-08
9.5574039e-10
6.8757231e-08
7.8224041e-10
6.7503818e-08
6.1159136e-10
6.6600536e-08
4.4088892e-10
6.6053021e-08
2.6745282e-10
8.5474886e-11
1.3058502e-08
-1.6523866e-09
1.5381843e-08
-1.7992828e-09
1.8021593e-08
-1.5622057e-09
2.0765718e-08
-1.1908185e-09
2.3600658e-08
-7.2160956e-10
2.6533444e-08
-3.4281607e-10
2.9470458e-08
-5.4607553e-11
3.2251656e-08
1.9673865e-10
3.483687e-08
3.5362518e-10
3.7194173e-08
4.5964361e-10
3.927978e-08
5.8201524e-10
4.0908507e-08
8.7293268e-10
4.2201974e-08
1.0185217e-09
4.3230166e-08
1.0827618e-09
4.4035555e-08
1.102013e-09
4.4654224e-08
1.0872291e-09
4.5119621e-08
1.0436191e-09
4.5461611e-08
9.7630873e-10
4.5706426e-08
8.8925903e-10
4.5876956e-08
7.852789e-10
4.5992735e-08
6.6652657e-10
4.6069697e-08
5.3469292e-10
4.611932e-08
3.9132662e-10
4.6148813e-08
2.3801963e-10
7.2307373e-11
-5.1680968e-09
-8.000543e-10
-5.9034536e-09
-1.0639362e-09
-6.285131e-09
-1.1805388e-09
-6.2412479e-09
-1.2347116e-09
-5.7315961e-09
-1.2312697e-09
-4.8944257e-09
-1.1799924e-09
-3.8456456e-09
-1.1033909e-09
-2.6396468e-09
-1.0092606e-09
-1.3817684e-09
-9.0425105e-10
-1.2303739e-10
-7.990827e-10
1.1523958e-09
-6.9341108e-10
2.6095334e-09
-5.8419564e-10
4.1064704e-09
-4.7840376e-10
5.5706739e-09
-3.8142812e-10
6.9674749e-09
-2.9477246e-10
8.2740729e-09
-2.1935178e-10
9.4874997e-09
-1.6978932e-10
1.0595376e-08
-1.3154822e-10
1.1584851e-08
-1.0019581e-10
1.2445786e-08
-7.5634852e-11
1.3169603e-08
-5.7268515e-11
1.3748342e-08
-4.4024876e-11
1.4174176e-08
-3.4486281e-11
1.4438594e-08
-2.637737e-11
-1.6488758e-11
-2.2225054e-09
-1.7217274e-10
-3.0370454e-09
-2.4939882e-10
-3.8873126e-09
-3.3027694e-10
-4.709472e-09
-4.1255984e-10
-5.4407189e-09
-5.0003219e-10
-5.9820451e-09
-6.3867687e-10
-6.392335e-09
-6.9311232e-10
-6.6808312e-09
-7.2077586e-10
-6.8545526e-09
-7.3054112e-10
-6.9257054e-09
-7.2794106e-10
-6.9040971e-09
-7.1503008e-10
-6.793184e-09
-6.9511879e-10
-6.6040108e-09
-6.6758632e-10
-6.3523238e-09
-6.3312367e-10
-6.0542287e-09
-5.9287535e-10
-5.7256292e-09
-5.4795818e-10
-5.3947031e-09
-5.0072162e-10
-5.0750948e-09
-4.5116201e-10
-4.7762755e-09
-3.9902e-10
-4.5076387e-09
-3.4427599e-10
-4.2779723e-09
-2.8693876e-10
-4.0950006e-09
-2.2700013e-10
-3.9650095e-09
-1.6448063e-10
-3.891804e-09
-9.9585993e-11
-3.3577547e-11
-5.2807316e-10
2.7277783e-11
-7.7344323e-10
-4.0262567e-12
-1.0656379e-09
-3.8080467e-11
-1.4028349e-09
-7.5362003e-11
-1.7857427e-09
-1.1712454e-10
-2.2641925e-09
-1.6022837e-10
-2.7585534e-09
-1.9875386e-10
-3.2507968e-09
-2.2853619e-10
-3.7320606e-09
-2.4928211e-10
-4.1956913e-09
-2.643159e-10
-4.6361301e-09
-2.745977e-10
-5.0488137e-09
-2.8244217e-10
-5.4254704e-09
-2.9093718e-10
-5.7428881e-09
-3.157138e-10
-6.0217194e-09
-3.140522e-10
-6.2666937e-09
-3.0299222e-10
-6.4818359e-09
-2.8558785e-10
-6.6699435e-09
-2.6306295e-10
-6.8329749e-09
-2.3599711e-10
-6.9724284e-09
-2.0483092e-10
-7.0893754e-09
-1.7000022e-10
-7.1843364e-09
-1.3204747e-10
-7.2571329e-09
-9.1692399e-11
-7.3076277e-09
-4.9099384e-11
-1.1188028e-11
-7.6989136e-11
8.0327277e-11
-1.5868199e-10
7.7668307e-11
-2.615298e-10
6.4768925e-11
-3.903419e-10
5.3451411e-11
-5.4529932e-10
3.7833845e-11
-7.2418754e-10
1.8660379e-11
-9.1988593e-10
-3.0554211e-12
-1.1260879e-09
-2.2334629e-11
-1.33956e-09
-3.5810949e-11
-1.5547793e-09
-4.9097922e-11
-1.7707936e-09
-5.8585097e-11
-1.9878847e-09
-6.5353251e-11
-2.209161e-09
-6.9663356e-11
-2.4530412e-09
-7.183652e-11
-2.6952136e-09
-7.1883015e-11
-2.9281702e-09
-7.0039264e-11
-3.1471374e-09
-6.6624501e-11
-3.3483058e-09
-6.1898722e-11
-3.5283457e-09
-5.5961516e-11
-3.6842294e-09
-4.8951676e-11
-3.8132088e-09
-4.1025517e-11
-3.9128959e-09
-3.2364995e-11
-3.9814449e-09
-2.3148082e-11
-4.0170902e-09
-1.3458735e-11
-3.6740002e-12
5.1974709e-11
7.313855e-11
5.2164041e-11
7.7479577e-11
3.7876934e-11
7.905652e-11
1.3928454e-11
7.7400258e-11
-1.9892982e-11
7.1655517e-11
-6.4653877e-11
6.3421381e-11
-1.1921034e-10
5.1501013e-11
-1.8190744e-10
4.0362308e-11
-2.4979229e-10
3.2073608e-11
-3.2172369e-10
2.2833054e-11
-3.9522577e-10
1.491644e-11
-4.6917415e-10
8.594485e-12
-5.4270361e-10
3.8653462e-12
-6.1487527e-10
3.3427582e-13
-6.8471235e-10
-2.0468937e-12
-7.5119297e-10
-3.5597064e-12
-8.1340068e-10
-4.4179216e-12
-8.705024e-10
-4.7982146e-12
-9.21676e-10
-4.7891771e-12
-9.6611012e-10
-4.5188634e-12
-1.0030458e-09
-4.0911581e-12
-1.031843e-09
-3.5691405e-12
-1.0520345e-09
-2.9578261e-12
-1.0635548e-09
-1.9397379e-12
-5.1920789e-13
7.4607759e-11
5.1359219e-11
9.4321063e-11
5.7766693e-11
1.1314197e-10
6.023597e-11
1.2895711e-10
6.1585411e-11
1.3849933e-10
6.2113558e-11
1.4361569e-10
5.8305242e-11
1.4278525e-10
5.2331646e-11
1.3649966e-10
4.6648067e-11
1.2815703e-10
4.0416382e-11
1.18316e-10
3.2674195e-11
1.0804896e-10
2.5183587e-11
9.7527899e-11
1.9115622e-11
8.7562434e-11
1.3830878e-11
7.8374137e-11
9.5226313e-12
7.0761018e-11
5.5662794e-12
6.4886203e-11
2.3151622e-12
6.0533759e-11
-6.5421303e-14
5.7417677e-11
-1.6820704e-12
5.5244748e-11
-2.6161779e-12
5.3751456e-11
-3.0254924e-12
5.2649924e-11
-2.9895368e-12
5.1688503e-11
-2.6076191e-12
5.0787571e-11
-2.0567823e-12
5.0234078e-11
-1.3861203e-12
-7.8224123e-13
5.324592e-11
3.757388e-11
7.0685688e-11
4.0327333e-11
8.8223467e-11
4.269857e-11
1.0554679e-10
4.4262443e-11
1.2240674e-10
4.5253942e-11
1.3644614e-10
4.4266165e-11
1.4670904e-10
4.2069065e-11
1.5464301e-10
3.8714413e-11
1.6110725e-10
3.3952444e-11
1.6528281e-10
2.8498935e-11
1.665761e-10
2.3890584e-11
1.6713393e-10
1.8558083e-11
1.6772103e-10
1.3244067e-11
1.6865057e-10
8.5933807e-12
1.6957472e-10
4.6424209e-12
1.7061166e-10
1.2785078e-12
1.7185807e-10
-1.3115386e-12
1.7332259e-10
-3.1462967e-12
1.7497585e-10
-4.269133e-12
1.7668528e-10
-4.7346207e-12
1.7836066e-10
-4.6646106e-12
1.7982425e-10
-4.0709053e-12
1.8077146e-10
-3.0036917e-12
1.8123067e-10
-1.8450411e-12
-6.428911e-13
2.7762446e-11
2.9562587e-11
3.5778125e-11
3.2311974e-11
4.4697996e-11
3.377901e-11
5.3713315e-11
3.5247423e-11
6.2959648e-11
3.6007897e-11
7.0954984e-11
3.627111e-11
7.7104623e-11
3.5919698e-11
8.1703431e-11
3.4115868e-11
8.3857704e-11
3.1798422e-11
8.4362887e-11
2.7993992e-11
8.3300635e-11
2.4953066e-11
8.0831994e-11
2.1026941e-11
7.706475e-11
1.7011516e-11
7.2579747e-11
1.3078578e-11
6.7768806e-11
9.4535455e-12
6.3006884e-11
6.0406038e-12
5.8355466e-11
3.3400434e-12
5.3994669e-11
1.2146569e-12
5.0130796e-11
-4.0511285e-13
4.6887073e-11
-1.4907584e-12
4.4255303e-11
-2.0327086e-12
4.2363395e-11
-2.1788743e-12
4.1399439e-11
-2.0396212e-12
4.1002524e-11
-1.4480188e-12
-4.4569111e-13
1.0343385e-11
2.6101291e-11
1.3124192e-11
2.9531373e-11
1.6441583e-11
3.0461824e-11
1.903739e-11
3.2651814e-11
2.1420323e-11
3.3625153e-11
2.3325443e-11
3.4366169e-11
2.4577863e-11
3.4667447e-11
2.4753495e-11
3.3940393e-11
2.371528e-11
3.2836782e-11
2.0341855e-11
3.1367546e-11
1.592151e-11
2.9373524e-11
1.0815026e-11
2.6133523e-11
4.7820654e-12
2.3044557e-11
-2.0163305e-12
1.9877039e-11
-9.6960739e-12
1.7133338e-11
-1.7877638e-11
1.4222202e-11
-2.5898338e-11
1.1360764e-11
-3.3619785e-11
8.936111e-12
-4.0643813e-11
6.6189105e-12
-4.6931457e-11
4.7968705e-12
-5.2373903e-11
3.4097134e-12
-5.6913237e-11
2.3604263e-12
-6.0542828e-11
1.5899267e-12
-6.3117094e-11
1.1262017e-12
5.7132234e-13
4.0307178e-12
2.5080094e-11
5.8144634e-12
2.7747742e-11
6.3980889e-12
2.9878313e-11
7.551045e-12
3.149897e-11
8.0404006e-12
3.3135904e-11
7.6392125e-12
3.4767456e-11
7.287419e-12
3.5019329e-11
6.0617385e-12
3.5166152e-11
4.0372263e-12
3.4861361e-11
1.2644341e-12
3.4140393e-11
-2.2433998e-12
3.2881399e-11
-7.1593635e-12
3.1049514e-11
-1.3345601e-11
2.9230808e-11
-1.9837748e-11
2.6369185e-11
-2.6399214e-11
2.3694789e-11
-3.3260262e-11
2.1083223e-11
-4.0284963e-11
1.8385426e-11
-4.7083558e-11
1.5734654e-11
-5.3611506e-11
1.3146797e-11
-5.9554578e-11
1.0739871e-11
-6.4678759e-11
8.5338159e-12
-6.8830969e-11
6.5125512e-12
-7.1854829e-11
4.6136936e-12
-7.348933e-11
2.7606072e-12
9.0815531e-13
4.7088392e-12
2.3976958e-11
6.1710678e-12
2.6285565e-11
7.6146266e-12
2.8434811e-11
8.48086e-12
3.0632795e-11
9.309234e-12
3.2307588e-11
1.0234014e-11
3.3842731e-11
1.0395976e-11
3.4857416e-11
1.0160955e-11
3.5401216e-11
9.4544809e-12
3.5567869e-11
8.1854324e-12
3.5409467e-11
6.3057824e-12
3.4761066e-11
3.6830294e-12
3.3672274e-11
7.3884868e-13
3.2174986e-11
-3.0937358e-12
3.0201756e-11
-7.2972798e-12
2.789831e-11
-1.1796693e-11
2.5582603e-11
-1.6465197e-11
2.3053888e-11
-2.1048656e-11
2.0318062e-11
-2.54855e-11
1.7583583e-11
-2.9579274e-11
1.4833579e-11
-3.3151081e-11
1.210555e-11
-3.605507e-11
9.4164625e-12
-3.819157e-11
6.7501084e-12
-3.9458691e-11
4.0276424e-12
1.3128144e-12
6.8130953e-12
2.2224555e-11
8.8419566e-12
2.4256712e-11
1.081662e-11
2.6460164e-11
1.272827e-11
2.8721167e-11
1.4583889e-11
3.0451993e-11
1.6408926e-11
3.2017719e-11
1.8004991e-11
3.3261375e-11
1.9291197e-11
3.4115032e-11
2.0473228e-11
3.4385857e-11
2.1166452e-11
3.4716256e-11
2.150684e-11
3.4420687e-11
2.1350218e-11
3.3828899e-11
2.076225e-11
3.2762951e-11
1.9637082e-11
3.1326915e-11
1.7993572e-11
2.9541804e-11
1.6093136e-11
2.7483016e-11
1.3980586e-11
2.5166408e-11
1.1673872e-11
2.262474e-11
9.3388149e-12
1.9918598e-11
7.1154921e-12
1.7056854e-11
5.1122546e-12
1.4108736e-11
3.402984e-12
1.1125677e-11
1.8533543e-12
8.299677e-12
8.4608727e-13
5.0348501e-12
1.3369796e-12
7.9080471e-12
2.015319e-11
1.0195473e-11
2.1969257e-11
1.2557377e-11
2.4098242e-11
1.499815e-11
2.6280384e-11
1.744739e-11
2.8002748e-11
2.0138949e-11
2.9326158e-11
2.2702855e-11
3.069747e-11
2.5087495e-11
3.1730392e-11
2.7128573e-11
3.2344779e-11
2.9101973e-11
3.2742855e-11
3.0992583e-11
3.2530073e-11
3.2466394e-11
3.2355082e-11
3.3603479e-11
3.1625857e-11
3.4326295e-11
3.0604087e-11
3.4668741e-11
2.9199342e-11
3.4698241e-11
2.7453496e-11
3.445008e-11
2.5414545e-11
3.3964357e-11
2.3110437e-11
3.3318039e-11
2.0564886e-11
3.2576404e-11
1.7798455e-11
3.1837815e-11
1.4847289e-11
3.121614e-11
1.1747312e-11
3.1209777e-11
8.3059976e-12
3.1198522e-11
5.0460671e-12
1.9685627e-12
7.7600806e-12
1.8026158e-11
9.9147086e-12
1.9814573e-11
1.2198945e-11
2.1813959e-11
1.4846386e-11
2.3632904e-11
1.7533387e-11
2.5315714e-11
2.0170175e-11
2.6689341e-11
2.3095535e-11
2.7772086e-11
2.5905501e-11
2.8920404e-11
2.8579592e-11
2.9670667e-11
3.1219873e-11
3.0102554e-11
3.3530786e-11
3.0219141e-11
3.5801942e-11
3.0083906e-11
3.7874583e-11
2.9553196e-11
3.9702248e-11
2.8776402e-11
4.1212209e-11
2.7689359e-11
4.2419167e-11
2.6246515e-11
4.3351646e-11
2.4482042e-11
4.4037611e-11
2.2424445e-11
4.4512714e-11
2.0089754e-11
4.4799175e-11
1.7511965e-11
4.494325e-11
1.4703184e-11
4.5010379e-11
1.1680151e-11
4.4894416e-11
8.4219288e-12
4.4806976e-11
5.1334806e-12
1.7812296e-12
6.9698535e-12
1.6105548e-11
8.834139e-12
1.7950214e-11
1.0996985e-11
1.9651048e-11
1.3379265e-11
2.1250566e-11
1.5977894e-11
2.2717032e-11
1.8653203e-11
2.4013986e-11
2.1316347e-11
2.5108899e-11
2.4137903e-11
2.6098809e-11
2.6923421e-11
2.6885112e-11
2.9681464e-11
2.7344478e-11
3.2321801e-11
2.7578772e-11
3.4887354e-11
2.7518321e-11
3.7285132e-11
2.7155389e-11
3.9532552e-11
2.6528953e-11
4.1615318e-11
2.5606564e-11
4.3474375e-11
2.4387431e-11
4.5089235e-11
2.2867156e-11
4.6466068e-11
2.1047585e-11
4.7597316e-11
1.8958479e-11
4.8500697e-11
1.6608557e-11
4.9194948e-11
1.4008906e-11
4.9694451e-11
1.1180621e-11
4.9878809e-11
8.2375442e-12
5.0001834e-11
5.0104346e-12
1.5151608e-12
6.026627e-12
1.4478543e-11
7.7601606e-12
1.6216601e-11
9.7712267e-12
1.7639908e-11
1.1922751e-11
1.9098974e-11
1.4204403e-11
2.0435319e-11
1.663247e-11
2.1585861e-11
1.9145834e-11
2.2595482e-11
2.1789388e-11
2.3455206e-11
2.4525666e-11
2.4148789e-11
2.7218319e-11
2.4651782e-11
2.9905003e-11
2.4892049e-11
3.2493456e-11
2.4929831e-11
3.5009233e-11
2.4639576e-11
3.741786e-11
2.4120293e-11
3.9696516e-11
2.3327877e-11
4.1821288e-11
2.2262628e-11
4.3762248e-11
2.0926167e-11
4.549068e-11
1.9319126e-11
4.7003792e-11
1.7445341e-11
4.8294024e-11
1.53183e-11
4.9327453e-11
1.2975453e-11
5.0148786e-11
1.0359264e-11
5.0912243e-11
7.4740639e-12
5.1327696e-11
4.5949636e-12
1.6024493e-12
5.3457246e-12
1.2999843e-11
6.9554943e-12
1.4606753e-11
8.667174e-12
1.5928154e-11
1.0678286e-11
1.7087792e-11
1.2758034e-11
1.8355506e-11
1.4981107e-11
1.9362727e-11
1.7326578e-11
2.0249955e-11
1.9780007e-11
2.1001724e-11
2.2324669e-11
2.1604079e-11
2.4944241e-11
2.2032165e-11
2.7545767e-11
2.2290481e-11
3.012947e-11
2.2346089e-11
3.266171e-11
2.21073e-11
3.5086683e-11
2.1695287e-11
3.7435912e-11
2.0978616e-11
3.9646314e-11
2.0052196e-11
4.1698261e-11
1.8874193e-11
4.3569071e-11
1.744829e-11
4.523482e-11
1.5779568e-11
4.6675033e-11
1.3878065e-11
4.789967e-11
1.1750794e-11
4.8857216e-11
9.4016967e-12
4.9454083e-11
6.8771772e-12
4.9834934e-11
4.2140979e-12
1.4613173e-12
4.8242795e-12
1.1649206e-11
6.3327372e-12
1.3098222e-11
7.9439541e-12
1.4316866e-11
9.739441e-12
1.5292237e-11
1.1684022e-11
1.6410862e-11
1.3752562e-11
1.7294128e-11
1.5936893e-11
1.8065568e-11
1.823038e-11
1.8708186e-11
2.0611676e-11
1.9222735e-11
2.3050398e-11
1.9593398e-11
2.5555928e-11
1.9784909e-11
2.809662e-11
1.9805359e-11
3.0565291e-11
1.9638594e-11
3.3012345e-11
1.92482e-11
3.5348568e-11
1.8642363e-11
3.7556771e-11
1.7843966e-11
3.965163e-11
1.6779308e-11
4.1580207e-11
1.551969e-11
4.3312495e-11
1.4047258e-11
4.482934e-11
1.23612e-11
4.6107552e-11
1.0472564e-11
4.71061e-11
8.4031309e-12
4.7809719e-11
6.1735422e-12
4.8240707e-11
3.7830983e-12
1.2554831e-12
4.4255601e-12
1.0400256e-11
5.8368035e-12
1.1686915e-11
7.3480176e-12
1.2805589e-11
8.9445105e-12
1.3695683e-11
1.0826415e-11
1.4528899e-11
1.2756854e-11
1.5363633e-11
1.481484e-11
1.6007529e-11
1.6966088e-11
1.6556888e-11
1.9211102e-11
1.6977675e-11
2.1534344e-11
1.7270113e-11
2.3894988e-11
1.7424225e-11
2.6282758e-11
1.7417553e-11
2.8677634e-11
1.7243684e-11
3.1031176e-11
1.6894628e-11
3.3307972e-11
1.6365539e-11
3.5511845e-11
1.5640068e-11
3.7574717e-11
1.4716414e-11
3.9479897e-11
1.3614489e-11
4.1196212e-11
1.2330926e-11
4.2710021e-11
1.0847374e-11
4.3994408e-11
9.1881616e-12
4.5022007e-11
7.3755175e-12
4.5785166e-11
5.4103703e-12
4.6258841e-11
3.3094154e-12
1.0952194e-12
4.0796541e-12
9.2385342e-12
5.3858449e-12
1.0380666e-11
6.8150449e-12
1.1376332e-11
8.3049449e-12
1.2205728e-11
1.0026027e-11
1.2807764e-11
1.1864955e-11
1.3524654e-11
1.376919e-11
1.4103246e-11
1.5791891e-11
1.4534142e-11
1.7891106e-11
1.4878418e-11
2.0059884e-11
1.5101297e-11
2.2280432e-11
1.520364e-11
2.4525459e-11
1.5172492e-11
2.6770281e-11
1.4998832e-11
2.8990276e-11
1.4674605e-11
3.1162575e-11
1.4193215e-11
3.3254366e-11
1.3548255e-11
3.5226233e-11
1.2744526e-11
3.7057823e-11
1.1782881e-11
3.8729241e-11
1.0659492e-11
4.0204147e-11
9.3724545e-12
4.1445905e-11
7.946391e-12
4.2439016e-11
6.3823957e-12
4.3151294e-11
4.6980814e-12
4.3586005e-11
2.874699e-12
8.894987e-13
3.7575827e-12
8.155219e-12
4.9580187e-12
9.1801776e-12
6.2914618e-12
1.0042837e-11
7.7198102e-12
1.0777329e-11
9.213248e-12
1.1314278e-11
1.0902885e-11
1.1834971e-11
1.2726488e-11
1.2279599e-11
1.45914e-11
1.2669188e-11
1.6530438e-11
1.2939341e-11
1.8532504e-11
1.3099196e-11
2.0580283e-11
1.3155827e-11
2.2656339e-11
1.3096406e-11
2.4736088e-11
1.2919056e-11
2.679534e-11
1.2615328e-11
2.8808587e-11
1.2179946e-11
3.074767e-11
1.1609153e-11
3.2587394e-11
1.0904785e-11
3.430583e-11
1.0064429e-11
3.5877193e-11
9.0881153e-12
3.7260106e-11
7.9895301e-12
3.8445026e-11
6.7614614e-12
3.9410547e-11
5.416866e-12
4.0150591e-11
3.9580295e-12