/*--------------------------------*- C++ -*----------------------------------*\
| =========                 |                                                 |
| \\      /  F ield         | OpenFOAM: The Open Source CFD Toolbox           |
|  \\    /   O peration     | Version:  4.0                                   |
|   \\  /    A nd           | Web:      www.OpenFOAM.org                      |
|    \\/     M anipulation  |                                                 |
\*---------------------------------------------------------------------------*/
FoamFile
{
    version     2.0;
    format      ascii;
    class       volVectorField;
    location    "0.32";
    object      U;
}
// * * * * * * * * * * * * * * * * * * * * * * * * * * * * * * * * * * * * * //

dimensions      [0 1 -1 0 0 0 0];

internalField   nonuniform List<vector> 
1740
(
(1.4408997 -0.0042239096 5.0228e-06)
(1.565227 -0.011630402 7.8652749e-07)
(1.5776186 -0.0056270686 3.2223043e-08)
(1.4744788 -0.023726725 8.7521985e-06)
(1.6408878 -0.039185242 1.7187483e-06)
(1.5847607 -0.022054355 3.1468572e-07)
(1.5765679 -0.024215595 1.1754678e-05)
(1.5624349 -0.044258487 2.71327e-06)
(1.4942856 -0.022537009 4.6021593e-07)
(1.6671496 0.0053656435 1.3523461e-05)
(1.6077294 -0.01034241 3.4986354e-06)
(1.5047136 -0.012167498 5.8074994e-07)
(1.5827906 0.014392799 1.5557739e-05)
(1.7034783 0.025003555 4.3574892e-06)
(1.5077085 0.0079724734 7.8781163e-07)
(1.5038949 -0.0027945364 1.6491909e-05)
(1.6050012 0.018953573 5.1814518e-06)
(1.5175712 0.0088754617 9.7165955e-07)
(1.5802628 -0.0019288753 1.7201028e-05)
(1.616785 0.010221596 5.731853e-06)
(1.5146792 0.0031557506 1.1454928e-06)
(1.5803938 -0.0092832104 1.7810212e-05)
(1.5962923 0.0080253462 6.5564501e-06)
(1.5801447 0.0067661557 1.3337091e-06)
(1.6006321 -0.0098033896 1.8339541e-05)
(1.4888833 -0.016408106 7.0927487e-06)
(1.5628858 -0.011587312 1.559898e-06)
(1.5916358 0.023349647 1.8902998e-05)
(1.5932581 -0.019829948 7.6406912e-06)
(1.4819767 -0.023153617 1.7423527e-06)
(1.484987 0.0019830813 1.9353537e-05)
(1.7177261 0.0030947567 8.3063869e-06)
(1.5066424 -0.0018250011 1.9329251e-06)
(1.6081242 -0.02060189 1.9855938e-05)
(1.6273335 0.015740892 8.9341809e-06)
(1.5300394 0.018143276 2.1338803e-06)
(1.6133278 0.0038973905 2.0048806e-05)
(1.5267098 0.010475331 9.4581182e-06)
(1.5515584 0.0060166247 2.3351194e-06)
(1.5007319 0.0078706659 2.0272936e-05)
(1.5969003 0.0035518966 9.9090497e-06)
(1.5159735 -0.00046363588 2.5289444e-06)
(1.5799881 -0.024290007 2.0627698e-05)
(1.5767858 -0.0019105412 1.0542605e-05)
(1.5755888 0.0082395013 2.6984639e-06)
(1.706556 -0.01403225 2.0825129e-05)
(1.486952 -0.00012583163 1.0909676e-05)
(1.5895206 0.0031033594 2.9499894e-06)
(1.6046264 0.016133231 2.0790347e-05)
(1.5110939 0.009000056 1.1414529e-05)
(1.5048946 -0.0024389665 3.1291033e-06)
(1.5847851 0.012292405 2.0922319e-05)
(1.5822113 0.010033165 1.1782598e-05)
(1.6030748 0.0038516204 3.2414523e-06)
(1.5763564 -0.00025074153 2.1476374e-05)
(1.5857506 0.0019235565 1.233927e-05)
(1.598684 -0.002460204 3.5105117e-06)
(1.4935867 -0.010892718 2.1943717e-05)
(1.5210385 -0.023792594 1.2743702e-05)
(1.5096828 -0.010419574 3.64836e-06)
(1.5868762 0.00045396962 2.2140249e-05)
(1.6011302 -0.015675286 1.3026559e-05)
(1.4894558 -0.007563327 3.797883e-06)
(1.5437696 0.0099458008 2.2329983e-05)
(1.6633363 0.0077034546 1.3356201e-05)
(1.5418732 -0.00093846385 3.9915692e-06)
(1.5172382 -0.012256298 2.1977892e-05)
(1.6494872 -0.0037219086 1.3680432e-05)
(1.5249288 0.0047548967 4.1522507e-06)
(1.6544529 -0.0099587983 2.1947765e-05)
(1.5582943 0.011927703 1.400447e-05)
(1.5248297 0.010718589 4.2958665e-06)
(1.5901737 0.0121095 2.2261369e-05)
(1.5027764 0.011977848 1.4254236e-05)
(1.5652999 0.0030202956 4.4785603e-06)
(1.5268885 0.0095531037 2.2341016e-05)
(1.5252015 -0.010985807 1.4520367e-05)
(1.5183286 -0.0099568937 4.6070198e-06)
(1.5900414 -0.0032239438 2.260461e-05)
(1.5959569 -0.0082413839 1.4819301e-05)
(1.5197211 -0.0049863183 4.729608e-06)
(1.5535966 -0.0037759779 2.3136028e-05)
(1.5493316 0.013309932 1.5199937e-05)
(1.5106273 0.012668835 4.8853028e-06)
(1.4507541 0.00037420463 2.2936547e-05)
(1.4009057 0.011019186 1.5292654e-05)
(1.5408074 0.0047446245 4.8421373e-06)
(1.3168948 0.039878291 2.4071429e-05)
(1.2711631 0.08950413 1.5821283e-05)
(1.4036786 0.055590259 5.622968e-06)
(0.82460251 0.37192468 1.182114e-05)
(0.79654021 0.92872457 9.9806398e-06)
(0.74147155 1.2483737 5.4519538e-06)
(0.21646432 0.10937654 1.5012629e-06)
(0.18215266 0.36084513 3.0379244e-06)
(0.091753776 0.49523537 6.7265829e-07)
(-0.029643511 -0.014370272 1.2292757e-06)
(-0.02727721 -0.029651203 1.6811205e-06)
(-0.017314398 -0.034178706 5.9070208e-07)
(-0.0057472844 -0.0030422152 4.5949819e-07)
(-0.0054574696 -0.0076942124 7.4682235e-07)
(-0.0043783911 -0.01019502 3.5379267e-07)
(0.00048806539 -0.00025243277 1.2388295e-07)
(0.00048772242 -0.00063545964 2.5487667e-07)
(0.00041173482 -0.0010479328 1.2747985e-07)
(0.00088428011 1.977427e-05 2.778708e-08)
(0.00092084581 6.8860198e-05 6.5653775e-08)
(0.00092798952 8.8377401e-05 1.2062105e-08)
(0.00076723503 4.462062e-05 -1.0022392e-09)
(0.00079598485 0.00012537314 -1.5790113e-09)
(0.00082004239 0.00022314506 -3.351723e-08)
(0.00061234678 5.5171095e-05 -9.936192e-09)
(0.00062054453 0.00015446967 -2.2873423e-08)
(0.00062569418 0.00026170672 -4.5742057e-08)
(0.00048761965 4.0878412e-05 -1.0306804e-08)
(0.00048510365 0.00010403647 -2.4800307e-08)
(0.00046832533 0.00016560605 -4.2069847e-08)
(0.00038667692 2.2926802e-05 -7.7015203e-09)
(0.00038251341 5.8883009e-05 -1.9669159e-08)
(0.00036714343 8.93887e-05 -3.2635815e-08)
(0.00032205137 9.8558674e-06 -4.9552615e-09)
(0.00031803884 2.4021594e-05 -1.3537894e-08)
(0.00030551952 3.6848933e-05 -2.2872625e-08)
(0.00028250417 6.1010079e-06 -3.0065556e-09)
(0.0002789835 1.446663e-05 -8.6841274e-09)
(0.00026889269 2.1394065e-05 -1.5046118e-08)
(0.00025479145 6.8185034e-06 -1.9195595e-09)
(0.00025175274 1.5170703e-05 -5.4827537e-09)
(0.00024324503 2.1140726e-05 -9.5377222e-09)
(0.00023158896 7.2962504e-06 -1.315092e-09)
(0.00022898648 1.8086132e-05 -3.485446e-09)
(0.00022170767 2.7443653e-05 -5.9170343e-09)
(0.00020939154 7.7495244e-06 -9.3207151e-10)
(0.00020716955 1.8785663e-05 -2.2155036e-09)
(0.00020099642 3.0287892e-05 -3.5959309e-09)
(0.00018788447 7.3186311e-06 -6.3935537e-10)
(0.00018598927 1.7764616e-05 -1.3748162e-09)
(0.00018070206 2.8894129e-05 -2.1224677e-09)
(0.00016785249 6.4904586e-06 -4.1516438e-10)
(0.00016624853 1.588385e-05 -8.1641145e-10)
(0.00016171687 2.5432889e-05 -1.2047732e-09)
(0.00014970604 5.6874717e-06 -2.5991951e-10)
(0.00014836567 1.3859539e-05 -4.6159478e-10)
(0.000144511 2.200826e-05 -6.5268366e-10)
(0.00013341485 5.0147255e-06 -1.6290976e-10)
(0.00013230832 1.2162962e-05 -2.5264822e-10)
(0.00012904841 1.9256725e-05 -3.3649042e-10)
(0.00011876539 4.486817e-06 -1.0779276e-10)
(0.00011785503 1.086712e-05 -1.3994542e-10)
(0.0001151019 1.7248844e-05 -1.6784831e-10)
(0.00010552331 4.0736363e-06 -7.9211031e-11)
(0.00010477258 9.8676621e-06 -8.5403676e-11)
(0.00010244394 1.5725141e-05 -8.571688e-11)
(9.3502763e-05 3.7126478e-06 -6.4368592e-11)
(9.2879671e-05 8.9949277e-06 -6.1477908e-11)
(9.0901971e-05 1.4361562e-05 -4.9154746e-11)
(8.2576118e-05 3.3771336e-06 -5.5845785e-11)
(8.2053382e-05 8.1816067e-06 -5.146765e-11)
(8.0361051e-05 1.3080864e-05 -3.4400743e-11)
(7.2659267e-05 3.0663794e-06 -5.055822e-11)
(7.2215298e-05 7.4315683e-06 -4.7185921e-11)
(7.0755114e-05 1.1903891e-05 -2.9110039e-11)
(6.3694412e-05 2.7710119e-06 -4.6706166e-11)
(6.3314457e-05 6.7193887e-06 -4.4576049e-11)
(6.2051604e-05 1.0771522e-05 -2.6987536e-11)
(5.5634596e-05 2.4887684e-06 -4.356068e-11)
(5.5307625e-05 6.0343629e-06 -4.2290298e-11)
(5.4217496e-05 9.678075e-06 -2.591775e-11)
(4.8436909e-05 2.2245362e-06 -4.1296999e-11)
(4.8155856e-05 5.37826e-06 -4.0558842e-11)
(4.7213396e-05 8.6219151e-06 -2.544648e-11)
(4.2052676e-05 1.9564673e-06 -3.8712015e-11)
(4.1808899e-05 4.7582492e-06 -3.8588262e-11)
(4.0991529e-05 7.6312058e-06 -2.4845465e-11)
(3.6432108e-05 1.707289e-06 -3.6436019e-11)
(3.6217577e-05 4.1651472e-06 -3.6196714e-11)
(3.5508159e-05 6.6832236e-06 -2.3700183e-11)
(3.1526537e-05 1.479348e-06 -3.4983321e-11)
(3.1338153e-05 3.6170251e-06 -3.4327558e-11)
(3.0720845e-05 5.8045975e-06 -2.2723716e-11)
(2.7280435e-05 1.2714845e-06 -3.4071717e-11)
(2.7114625e-05 3.1196153e-06 -3.3045845e-11)
(2.6575788e-05 5.0055599e-06 -2.228218e-11)
(2.363724e-05 1.0819649e-06 -3.34579e-11)
(2.3491107e-05 2.6663289e-06 -3.2097797e-11)
(2.3020489e-05 4.2777179e-06 -2.2080453e-11)
(2.0540488e-05 9.1006726e-07 -3.2960959e-11)
(2.0411359e-05 2.2538349e-06 -3.1245655e-11)
(1.9999275e-05 3.6142285e-06 -2.1902362e-11)
(1.7934461e-05 7.5628835e-07 -3.2564519e-11)
(1.7820008e-05 1.8837619e-06 -3.0470905e-11)
(1.7458072e-05 3.0184595e-06 -2.1738944e-11)
(1.576482e-05 6.20966e-07 -3.2283663e-11)
(1.5663082e-05 1.5575774e-06 -2.978334e-11)
(1.5344062e-05 2.4933437e-06 -2.1577776e-11)
(1.3979272e-05 5.0318701e-07 -3.2037094e-11)
(1.3888589e-05 1.2734097e-06 -2.9079791e-11)
(1.3606201e-05 2.0367451e-06 -2.1321324e-11)
(1.2528145e-05 4.0071301e-07 -3.1676281e-11)
(1.2447101e-05 1.0255331e-06 -2.8219082e-11)
(1.2195865e-05 1.6389095e-06 -2.0895333e-11)
(1.1364922e-05 3.1333931e-07 -3.1321839e-11)
(1.1292278e-05 8.1100422e-07 -2.7323544e-11)
(1.1067381e-05 1.2902806e-06 -2.0403622e-11)
(1.0446513e-05 2.4081144e-07 -3.1145238e-11)
(1.0381135e-05 6.3113616e-07 -2.6747779e-11)
(1.0178387e-05 1.0004924e-06 -2.0171564e-11)
(9.73347e-06 1.8045845e-07 -3.1012665e-11)
(9.6743689e-06 4.8322921e-07 -2.6383268e-11)
(9.4901487e-06 7.6416583e-07 -2.0117086e-11)
(9.1903029e-06 1.3134599e-07 -3.0901864e-11)
(9.1366248e-06 3.617616e-07 -2.6071578e-11)
(8.9677956e-06 5.7011472e-07 -2.0094957e-11)
(8.7856112e-06 9.2152742e-08 -3.081467e-11)
(8.7365749e-06 2.6328207e-07 -2.5800519e-11)
(8.5804382e-06 4.1234087e-07 -2.0081166e-11)
(8.4919852e-06 6.2546823e-08 -3.0850402e-11)
(8.446888e-06 1.878084e-07 -2.5688559e-11)
(8.3011294e-06 2.9166315e-07 -2.016352e-11)
(8.2857248e-06 4.1086588e-08 -3.0984518e-11)
(8.2439352e-06 1.3207591e-07 -2.5734111e-11)
(8.1065689e-06 2.0323925e-07 -2.0353093e-11)
(8.1459792e-06 2.6412463e-08 -3.1154338e-11)
(8.1069245e-06 9.3200823e-08 -2.5868263e-11)
(7.9762416e-06 1.4371294e-07 -2.0607568e-11)
(8.0530965e-06 1.6977352e-08 -3.1328926e-11)
(8.0162474e-06 6.63272e-08 -2.5982601e-11)
(7.8907886e-06 1.0244519e-07 -2.0742552e-11)
(7.9898738e-06 1.2630902e-08 -3.1503338e-11)
(7.9547508e-06 5.1372083e-08 -2.5962364e-11)
(7.8332727e-06 7.9848297e-08 -2.0584658e-11)
(7.9277822e-06 1.30179e-08 -3.1571996e-11)
(7.8938917e-06 4.6381824e-08 -2.5476233e-11)
(7.7754185e-06 7.0847444e-08 -1.9722591e-11)
(7.874267e-06 1.5693971e-08 -3.1056776e-11)
(7.8411341e-06 4.43077e-08 -2.3587898e-11)
(7.7246717e-06 6.3585454e-08 -1.731138e-11)
(7.7202666e-06 9.3452679e-09 -2.7874582e-11)
(7.6870254e-06 2.790663e-08 -1.7901963e-11)
(7.5724194e-06 4.6496942e-08 -1.1881418e-11)
(-0.044734471 1.952483 -3.6268789e-07)
(-0.032345068 1.6953191 -3.4578758e-06)
(-0.05998057 0.3414613 -2.7093767e-07)
(-0.042682731 0.15165429 -1.0202353e-06)
(-0.014357393 -0.040725628 -1.899585e-07)
(-0.011278836 -0.042635144 -6.0957751e-07)
(-0.0039675396 -0.012651517 -8.0418217e-08)
(-0.0040145104 -0.014182485 -3.731839e-07)
(5.395002e-05 -0.0017152464 -7.9885766e-08)
(-0.0004205519 -0.0025356418 -2.562674e-07)
(0.00086254799 5.1869231e-05 -9.0279193e-08)
(0.0006559508 -7.5268893e-05 -1.9247226e-07)
(0.00078695676 0.00031995877 -8.9483526e-08)
(0.00070002316 0.0003954036 -1.497721e-07)
(0.00059956182 0.00036014466 -7.9293681e-08)
(0.00054446902 0.00044412095 -1.1618092e-07)
(0.00044301566 0.00025063435 -6.3793661e-08)
(0.0004075532 0.00032975226 -8.7221726e-08)
(0.0003431053 0.00012538716 -4.7323811e-08)
(0.0003130118 0.0001630899 -6.2634801e-08)
(0.0002861112 4.8175938e-05 -3.2877879e-08)
(0.00026374665 5.8669912e-05 -4.2995775e-08)
(0.000254025 2.5134254e-05 -2.1699634e-08)
(0.0002367733 2.7393389e-05 -2.8290167e-08)
(0.00023116523 2.7441569e-05 -1.3761624e-08)
(0.00021723705 3.2446094e-05 -1.7908232e-08)
(0.00021155947 3.5433829e-05 -8.448493e-09)
(0.00019999233 4.3024465e-05 -1.0934909e-08)
(0.00019237919 3.9662421e-05 -5.0305998e-09)
(0.00018249505 4.8685527e-05 -6.4468757e-09)
(0.00017331904 3.9334414e-05 -2.8982893e-09)
(0.00016467373 4.7703859e-05 -3.6659798e-09)
(0.00015539593 3.5238833e-05 -1.6062179e-09)
(0.00014792312 4.3079907e-05 -2.0040801e-09)
(0.00013911786 3.0558613e-05 -8.5083538e-10)
(0.00013273486 3.7585993e-05 -1.0479061e-09)
(0.00012446936 2.6722688e-05 -4.2850569e-10)
(0.00011904151 3.294676e-05 -5.2125655e-10)
(0.00011121658 2.3786476e-05 -2.0525455e-10)
(0.00010658078 2.9458459e-05 -2.4532057e-10)
(9.9139578e-05 2.1538344e-05 -9.5400044e-11)
(9.5155844e-05 2.6841507e-05 -1.0899962e-10)
(8.8080434e-05 1.9626055e-05 -4.5381366e-11)
(8.4646172e-05 2.4618259e-05 -4.5910678e-11)
(7.7932455e-05 1.7881442e-05 -2.4694262e-11)
(7.4959666e-05 2.2579776e-05 -1.9201501e-11)
(6.864182e-05 1.6281587e-05 -1.7104751e-11)
(6.6025285e-05 2.0486585e-05 -9.1036671e-12)
(6.0213722e-05 1.472525e-05 -1.4657219e-11)
(5.7914572e-05 1.8492576e-05 -5.9974242e-12)
(5.2624487e-05 1.323894e-05 -1.4182038e-11)
(5.0655399e-05 1.660991e-05 -5.6175968e-12)
(4.5827168e-05 1.1822493e-05 -1.4359202e-11)
(4.4128723e-05 1.4866597e-05 -6.0868499e-12)
(3.9795784e-05 1.0480874e-05 -1.4453436e-11)
(3.8300346e-05 1.3227231e-05 -6.6284817e-12)
(3.4482655e-05 9.1792375e-06 -1.4176105e-11)
(3.3165026e-05 1.1590279e-05 -6.9551829e-12)
(2.9824228e-05 7.9482145e-06 -1.3919738e-11)
(2.8682602e-05 1.0025264e-05 -7.2649617e-12)
(2.5786117e-05 6.863741e-06 -1.4102268e-11)
(2.4796476e-05 8.6410102e-06 -7.8780061e-12)
(2.2330967e-05 5.8675217e-06 -1.4418444e-11)
(2.1456359e-05 7.3865136e-06 -8.5455894e-12)
(1.9395775e-05 4.9564415e-06 -1.4711226e-11)
(1.8626504e-05 6.2389624e-06 -9.1569182e-12)
(1.6928451e-05 4.137599e-06 -1.4980715e-11)
(1.625162e-05 5.2067775e-06 -9.714177e-12)
(1.4877787e-05 3.4163757e-06 -1.5205281e-11)
(1.4280892e-05 4.2994852e-06 -1.019928e-11)
(1.3194073e-05 2.7904332e-06 -1.5303852e-11)
(1.2665686e-05 3.5002162e-06 -1.0536791e-11)
(1.1829767e-05 2.2386128e-06 -1.5222675e-11)
(1.1359651e-05 2.8006234e-06 -1.0718032e-11)
(1.0740142e-05 1.7581732e-06 -1.5089915e-11)
(1.0319332e-05 2.2016397e-06 -1.0852674e-11)
(9.8837899e-06 1.3641563e-06 -1.5137326e-11)
(9.5044197e-06 1.7060884e-06 -1.1082562e-11)
(9.2228126e-06 1.0410112e-06 -1.5303013e-11)
(8.878056e-06 1.2991155e-06 -1.1397895e-11)
(8.7230705e-06 7.7468252e-07 -1.5485453e-11)
(8.4070215e-06 9.6454427e-07 -1.1726758e-11)
(8.3543145e-06 5.5806456e-07 -1.5663117e-11)
(8.0618728e-06 6.9320834e-07 -1.2045547e-11)
(8.090169e-06 3.9223398e-07 -1.5895739e-11)
(7.8169525e-06 4.8141138e-07 -1.237918e-11)
(7.907832e-06 2.7182799e-07 -1.619174e-11)
(7.6500952e-06 3.3162775e-07 -1.2750163e-11)
(7.787212e-06 1.9170856e-07 -1.6501657e-11)
(7.5417611e-06 2.3252597e-07 -1.3095715e-11)
(7.7093289e-06 1.36298e-07 -1.6635612e-11)
(7.4734491e-06 1.6465163e-07 -1.3249395e-11)
(7.6575726e-06 1.06827e-07 -1.6415256e-11)
(7.4289659e-06 1.2982505e-07 -1.3047843e-11)
(7.6040768e-06 9.4673237e-08 -1.5447589e-11)
(7.3809855e-06 1.1593624e-07 -1.2154574e-11)
(7.5562564e-06 8.3763534e-08 -1.3088039e-11)
(7.3368781e-06 1.0233914e-07 -1.0094077e-11)
(7.4069172e-06 6.6069102e-08 -8.4936221e-12)
(7.1913998e-06 8.5194362e-08 -6.3571322e-12)
(-0.0036081298 2.8410421e-05 -8.951749e-08)
(-0.003529679 5.8175988e-06 -2.1150477e-07)
(-0.0033838374 2.8313233e-05 -2.9759689e-07)
(-0.0032113903 -1.5968712e-06 -3.5037536e-07)
(-0.0030319256 -2.7909545e-05 -3.769978e-07)
(-0.0028449098 -7.2118766e-05 -3.8553911e-07)
(-0.0026467787 -0.00012433122 -3.8227748e-07)
(-0.0024394789 -0.00019504186 -3.7171261e-07)
(-0.0022274967 -0.00027954282 -3.5695499e-07)
(-0.0020164088 -0.00037149217 -3.4012704e-07)
(-0.0018110519 -0.00046628293 -3.2267569e-07)
(-0.0016145023 -0.00055911193 -3.0542912e-07)
(-0.0014286554 -0.00064660874 -2.8875367e-07)
(-0.0012546567 -0.00072681817 -2.7267122e-07)
(-0.0010930629 -0.00079875616 -2.5702644e-07)
(-0.00094395183 -0.00086163385 -2.4158289e-07)
(-0.00080708603 -0.00091601449 -2.2602204e-07)
(-0.00068185246 -0.00096146655 -2.098931e-07)
(-0.00056701038 -0.00099538852 -1.9269634e-07)
(-0.0004614389 -0.0010191835 -1.7383791e-07)
(-0.00036419625 -0.0010331173 -1.5265209e-07)
(-0.00027403888 -0.0010364461 -1.2816021e-07)
(-0.00018982347 -0.0010287806 -9.9482824e-08)
(-0.00011074763 -0.0010172604 -6.6069971e-08)
(-3.5982421e-05 -0.00096675692 -2.754003e-08)
(0.0001845847 -9.4937956e-05 -1.0599832e-07)
(0.00020972713 -0.00042419206 -2.4674754e-07)
(0.0002343453 -0.00062236441 -3.4037907e-07)
(0.0002569005 -0.0009306771 -3.921893e-07)
(0.00029527119 -0.0011925044 -4.1394409e-07)
(0.0003469431 -0.0015002325 -4.1719139e-07)
(0.00039605732 -0.0018040372 -4.0938196e-07)
(0.00043590048 -0.0021337222 -3.9528513e-07)
(0.00045962787 -0.002483422 -3.7780456e-07)
(0.00046866466 -0.0028247601 -3.588216e-07)
(0.00046464211 -0.0031528794 -3.3976303e-07)
(0.00045028362 -0.0034641418 -3.2134586e-07)
(0.00042799342 -0.0037537328 -3.0382712e-07)
(0.00039985495 -0.0040194051 -2.870829e-07)
(0.0003674651 -0.0042599668 -2.7087852e-07)
(0.00033228292 -0.0044768422 -2.5494874e-07)
(0.00029555551 -0.004681187 -2.3901516e-07)
(0.00025815233 -0.0048675027 -2.2250677e-07)
(0.00022037477 -0.0050132839 -2.0495906e-07)
(0.00018260024 -0.0051106874 -1.8572649e-07)
(0.00014552951 -0.0051574067 -1.6434326e-07)
(0.00010967714 -0.0051560597 -1.3932908e-07)
(7.5177603e-05 -0.0051102979 -1.0947172e-07)
(4.218115e-05 -0.0050057599 -7.3336324e-08)
(1.1598637e-05 -0.0047785921 -3.1863498e-08)
(0.00099718364 -0.00028449853 -1.4521384e-07)
(0.0010406853 -0.0014327733 -3.2536931e-07)
(0.0011031273 -0.0019393461 -4.3033456e-07)
(0.0011931726 -0.0028368489 -4.7505878e-07)
(0.0012860786 -0.0035938099 -4.8477182e-07)
(0.0013528204 -0.0044051214 -4.7683775e-07)
(0.0013832486 -0.0052174189 -4.5991043e-07)
(0.0013757867 -0.0061774347 -4.3914247e-07)
(0.0013397453 -0.0072480002 -4.1661364e-07)
(0.0012825766 -0.0082288925 -3.9345486e-07)
(0.0012097928 -0.0090807977 -3.7136564e-07)
(0.0011282052 -0.0098014993 -3.5075393e-07)
(0.001041491 -0.010391411 -3.3173684e-07)
(0.00095083036 -0.01085968 -3.1382467e-07)
(0.00085829468 -0.011213253 -2.9662452e-07)
(0.000765369 -0.01145435 -2.7982208e-07)
(0.00067333708 -0.011575759 -2.6348088e-07)
(0.00058304891 -0.01159475 -2.4643444e-07)
(0.00049476636 -0.011539827 -2.2858903e-07)
(0.00040893846 -0.011427112 -2.0931778e-07)
(0.00032645624 -0.011266856 -1.878345e-07)
(0.00024726466 -0.011068079 -1.6287308e-07)
(0.00017103313 -0.010837455 -1.3263934e-07)
(9.8135922e-05 -0.010545155 -9.4086569e-08)
(3.0191131e-05 -0.010143164 -4.6618432e-08)
(0.0034478786 -0.00097243497 -2.2871813e-07)
(0.0034869583 -0.0045422346 -4.704404e-07)
(0.0035359927 -0.0058647483 -5.7802674e-07)
(0.0034606035 -0.0091400768 -6.0052079e-07)
(0.0033155221 -0.012092993 -5.8770474e-07)
(0.0030941693 -0.01470924 -5.6203344e-07)
(0.0028377466 -0.016557291 -5.3150156e-07)
(0.0025649922 -0.01753222 -5.0257229e-07)
(0.0022968722 -0.017820064 -4.7428324e-07)
(0.0020389931 -0.017680971 -4.4516198e-07)
(0.0017981124 -0.017224268 -4.1896988e-07)
(0.0015792044 -0.01657268 -3.952036e-07)
(0.0013785872 -0.01574658 -3.7428912e-07)
(0.0011830725 -0.014798697 -3.5477826e-07)
(0.0010074811 -0.013781503 -3.3612543e-07)
(0.00085201873 -0.012740686 -3.1811218e-07)
(0.0007151372 -0.011715353 -3.0045194e-07)
(0.00059482695 -0.010739162 -2.8282022e-07)
(0.00048928351 -0.0098351531 -2.6477566e-07)
(0.0003962055 -0.0090235225 -2.4576888e-07)
(0.00031273191 -0.0083169792 -2.2508328e-07)
(0.00023666235 -0.0077193799 -2.0165417e-07)
(0.0001666301 -0.0072307557 -1.738407e-07)
(0.0001008172 -0.0068089115 -1.3884706e-07)
(3.7162481e-05 -0.0065015288 -8.7944735e-08)
(0.011058497 -0.0086567711 -4.174652e-07)
(0.008938189 -0.025557331 -7.1601958e-07)
(0.007950046 -0.028149967 -7.9169112e-07)
(0.0063064751 -0.032519239 -7.7581512e-07)
(0.004922221 -0.030023333 -7.3402516e-07)
(0.003696949 -0.026249567 -6.8501812e-07)
(0.0026637041 -0.021531197 -6.3719545e-07)
(0.0018356571 -0.016550772 -5.9289677e-07)
(0.0011854837 -0.011577525 -5.5398469e-07)
(0.00068117703 -0.0069788504 -5.1839485e-07)
(0.000297309 -0.0028219038 -4.8643559e-07)
(1.0156824e-05 0.00074425642 -4.5677189e-07)
(-0.00019676738 0.0040650804 -4.3324029e-07)
(-0.00032945217 0.0072319877 -4.1098566e-07)
(-0.00041351128 0.010138527 -3.8953706e-07)
(-0.00045657296 0.012660511 -3.6914497e-07)
(-0.00046723011 0.014766446 -3.4956287e-07)
(-0.00045241102 0.016474588 -3.3047848e-07)
(-0.00041771745 0.017813357 -3.1152023e-07)
(-0.00036794605 0.018812607 -2.9226785e-07)
(-0.00030766783 0.019497974 -2.7219068e-07)
(-0.00024042463 0.019894989 -2.5051995e-07)
(-0.0001684009 0.020001421 -2.259705e-07)
(-9.4844001e-05 0.019875551 -2.0223172e-07)
(-2.1480597e-05 0.01917761 -1.7861142e-07)
(0.01356069 0.023208071 -7.8855693e-07)
(0.0033402054 -0.001539673 -1.1113631e-06)
(0.00079456404 0.04809389 -1.1110318e-06)
(-0.0010144855 0.050868564 -1.0360433e-06)
(-0.0026185557 0.065147535 -9.5774437e-07)
(-0.0038132546 0.075484844 -8.7064958e-07)
(-0.0044793893 0.082712554 -7.9240702e-07)
(-0.0046859001 0.088746376 -7.2435797e-07)
(-0.0046082748 0.093194035 -6.6518241e-07)
(-0.004391713 0.09595954 -6.1450314e-07)
(-0.0041038273 0.097535951 -5.7169275e-07)
(-0.003760829 0.098027368 -5.2706869e-07)
(-0.0034137853 0.097764016 -5.0151472e-07)
(-0.0030729799 0.096457652 -4.738001e-07)
(-0.0027290608 0.094302439 -4.4624421e-07)
(-0.0023932566 0.091875984 -4.2140915e-07)
(-0.0020759257 0.089245798 -3.9834551e-07)
(-0.0017779683 0.086496506 -3.7652722e-07)
(-0.0014986162 0.083705359 -3.555346e-07)
(-0.0012360965 0.080930767 -3.3497586e-07)
(-0.00098775635 0.078209895 -3.1444136e-07)
(-0.00075145653 0.07558536 -2.934293e-07)
(-0.00052516178 0.073028491 -2.7140932e-07)
(-0.00030710242 0.070728842 -2.4910284e-07)
(-9.1894072e-05 0.067245536 -2.2744622e-07)
(-0.0023804821 1.1741698 -2.5326124e-06)
(-0.0010697451 0.96176075 -2.0117326e-06)
(-0.0011988713 0.8661823 -1.6276982e-06)
(-0.00081887265 0.77405097 -1.3359659e-06)
(-0.0006690322 0.67807792 -1.1197394e-06)
(-0.00055539748 0.58671712 -9.6078126e-07)
(-0.00045724039 0.50830847 -8.4169116e-07)
(-0.00037641561 0.44455148 -7.5231169e-07)
(-0.0003079051 0.39196449 -6.7972154e-07)
(-0.00025402507 0.34708709 -6.2389803e-07)
(-0.0002045454 0.30835917 -5.8072534e-07)
(-0.00016089449 0.2750315 -5.4315373e-07)
(-0.00012447329 0.24653194 -5.1186505e-07)
(-0.00010417804 0.22213372 -4.8423809e-07)
(-8.5651826e-05 0.20117854 -4.5879118e-07)
(-7.0286728e-05 0.18318534 -4.3496874e-07)
(-5.7709379e-05 0.16772458 -4.1237342e-07)
(-4.7474098e-05 0.15443361 -3.9073684e-07)
(-3.8932855e-05 0.14301003 -3.6982159e-07)
(-3.159021e-05 0.13320459 -3.4937514e-07)
(-2.5018685e-05 0.12480108 -3.2911612e-07)
(-1.8799641e-05 0.11765794 -3.0865455e-07)
(-1.2894592e-05 0.11153187 -2.8779205e-07)
(-7.3221386e-06 0.10670999 -2.6634432e-07)
(-1.9649078e-06 0.10069107 -2.4355063e-07)
(-0.013310706 0.090291499 -1.2261813e-06)
(-0.0029361344 0.098043138 -1.2629528e-06)
(-0.00037963977 0.10389215 -1.2147233e-06)
(0.001437095 0.10565617 -1.1228567e-06)
(0.0030051499 0.10781484 -1.0193252e-06)
(0.0041491061 0.10956661 -9.1853707e-07)
(0.0047688282 0.11124884 -8.2824389e-07)
(0.004932358 0.11279048 -7.5065309e-07)
(0.0048151935 0.11359597 -6.6837608e-07)
(0.0045478081 0.11366422 -6.2352513e-07)
(0.0042345139 0.11295728 -5.8209033e-07)
(0.003899441 0.11128413 -5.3845289e-07)
(0.0035281197 0.10876087 -5.0163639e-07)
(0.0031553882 0.10573978 -4.6975993e-07)
(0.0027938554 0.10246553 -4.4146107e-07)
(0.0024498391 0.099062505 -4.158584e-07)
(0.0021239662 0.095614365 -3.9232665e-07)
(0.0018170348 0.092189476 -3.7035538e-07)
(0.001529223 0.088839323 -3.4949087e-07)
(0.001259176 0.085601776 -3.2930318e-07)
(0.0010048887 0.08249846 -3.0932807e-07)
(0.0007641066 0.079559295 -2.8895811e-07)
(0.00053417242 0.076746176 -2.6856847e-07)
(0.00031286358 0.074253679 -2.4707626e-07)
(9.4325148e-05 0.070555031 -2.2578686e-07)
(-0.009226011 -0.040704998 -8.2786299e-07)
(-0.0079839942 -0.038908717 -8.9104335e-07)
(-0.0065883186 -0.037344412 -8.7725327e-07)
(-0.0051592397 -0.033930507 -8.3094817e-07)
(-0.0038357034 -0.028960741 -7.7270143e-07)
(-0.0026969653 -0.02330623 -7.1143271e-07)
(-0.0017624887 -0.017480095 -6.5483091e-07)
(-0.001031208 -0.011822973 -6.0320754e-07)
(-0.00047665823 -0.006766227 -5.5500693e-07)
(-5.8022611e-05 -0.0022987041 -5.1901421e-07)
(0.00024325557 0.0015386266 -4.8595719e-07)
(0.00045314962 0.0052853358 -4.5504714e-07)
(0.00058979724 0.0088575046 -4.2712515e-07)
(0.00066996693 0.012049291 -4.0190096e-07)
(0.00070523873 0.014795332 -3.7885659e-07)
(0.00070403673 0.017096115 -3.5753171e-07)
(0.00067673354 0.018985889 -3.3757676e-07)
(0.00062955731 0.02050502 -3.1857855e-07)
(0.00056629046 0.021676479 -3.0012125e-07)
(0.0004905899 0.022521451 -2.8174032e-07)
(0.00040567207 0.02306137 -2.6278659e-07)
(0.00031445772 0.023317311 -2.4207697e-07)
(0.00021962071 0.023299615 -2.2229307e-07)
(0.00012438758 0.023052724 -1.9880738e-07)
(3.04552e-05 0.022203238 -1.7604948e-07)
(-0.0042964347 -0.015786898 -5.423847e-07)
(-0.0043157062 -0.018405734 -6.1571191e-07)
(-0.0041742527 -0.021281782 -6.2922098e-07)
(-0.0039105955 -0.023350912 -6.1203019e-07)
(-0.0035692927 -0.024618269 -5.8260455e-07)
(-0.0031915091 -0.025009133 -5.5069987e-07)
(-0.0028279747 -0.024722486 -5.1202548e-07)
(-0.0024847315 -0.023992941 -4.7592141e-07)
(-0.0021663442 -0.022992279 -4.4317646e-07)
(-0.0018852746 -0.021793487 -4.1536649e-07)
(-0.0016316187 -0.020483055 -3.9017421e-07)
(-0.0013982738 -0.019044132 -3.6697944e-07)
(-0.0011884565 -0.017545656 -3.457381e-07)
(-0.0010043305 -0.016039896 -3.2628336e-07)
(-0.00084422058 -0.0145623 -3.0814155e-07)
(-0.00070680944 -0.013146836 -2.9092385e-07)
(-0.00058714438 -0.011828236 -2.7461006e-07)
(-0.00048278279 -0.010635606 -2.5868528e-07)
(-0.00039248388 -0.0095758296 -2.4270976e-07)
(-0.00031434088 -0.0086497205 -2.2616633e-07)
(-0.0002463311 -0.0078574855 -2.0834124e-07)
(-0.00018632819 -0.0071985521 -1.8824263e-07)
(-0.00013226217 -0.0066694208 -1.6486414e-07)
(-8.1778366e-05 -0.006229205 -1.3342063e-07)
(-3.2069758e-05 -0.005928402 -8.5947691e-08)
(-0.00084441107 -0.0035495337 -3.7621614e-07)
(-0.0011502373 -0.0045747764 -4.4203226e-07)
(-0.0014073065 -0.0056436889 -4.6684921e-07)
(-0.0015801808 -0.0066658658 -4.6628829e-07)
(-0.0016731738 -0.0076848689 -4.5182609e-07)
(-0.0016970217 -0.00883026 -4.3037231e-07)
(-0.0016667801 -0.010022826 -4.0450978e-07)
(-0.0015969413 -0.011037343 -3.7860885e-07)
(-0.0015023232 -0.011879179 -3.5444636e-07)
(-0.0014000513 -0.012554897 -3.3267958e-07)
(-0.00129237 -0.013086107 -3.1280944e-07)
(-0.0011840842 -0.013477191 -2.9450299e-07)
(-0.0010763159 -0.013737794 -2.7758422e-07)
(-0.0009704491 -0.013850285 -2.6220275e-07)
(-0.00086751088 -0.013839406 -2.4756872e-07)
(-0.00076703676 -0.013745725 -2.3375032e-07)
(-0.00067136528 -0.013593703 -2.2011609e-07)
(-0.00058015596 -0.01339789 -2.0646152e-07)
(-0.00049244314 -0.013167645 -1.9238951e-07)
(-0.00040783645 -0.012909933 -1.7738471e-07)
(-0.00032609816 -0.012630204 -1.6066926e-07)
(-0.00024712389 -0.012333803 -1.4107769e-07)
(-0.00017100266 -0.012023988 -1.1689241e-07)
(-9.8119298e-05 -0.011662384 -8.4463242e-08)
(-3.0319652e-05 -0.011206932 -4.2967116e-08)
(0.0004366374 -0.00039623985 -2.7172029e-07)
(0.00023969637 -0.00082712853 -3.223531e-07)
(4.9620333e-05 -0.0012883924 -3.4752617e-07)
(-0.00012757315 -0.0017579839 -3.5419499e-07)
(-0.00028448716 -0.002245696 -3.4886641e-07)
(-0.0004120898 -0.0027586783 -3.3633623e-07)
(-0.00049964223 -0.0032757562 -3.1970372e-07)
(-0.00055521137 -0.0037535118 -3.0169549e-07)
(-0.00058221193 -0.004189623 -2.8393217e-07)
(-0.00058412653 -0.0045788559 -2.6717038e-07)
(-0.00057109964 -0.0049217773 -2.5152635e-07)
(-0.00054760419 -0.0052246463 -2.3694968e-07)
(-0.00051664972 -0.005501351 -2.2336457e-07)
(-0.00048071149 -0.0057807966 -2.1070967e-07)
(-0.0004413586 -0.0060576353 -1.9869546e-07)
(-0.00039936745 -0.0062953035 -1.8713635e-07)
(-0.00035596306 -0.0064852306 -1.7569074e-07)
(-0.000311752 -0.0066254895 -1.6406114e-07)
(-0.00026711724 -0.0067158349 -1.5186272e-07)
(-0.0002224192 -0.0067560582 -1.387231e-07)
(-0.00017802081 -0.006747182 -1.2399209e-07)
(-0.00013435382 -0.0066923866 -1.0651127e-07)
(-9.1931789e-05 -0.0065961979 -8.5252718e-08)
(-5.1311057e-05 -0.0064404877 -5.8407762e-08)
(-1.4090061e-05 -0.0061505021 -2.6579388e-08)
(0.00059637702 0.00041373707 -2.008795e-07)
(0.00049226725 0.00037852515 -2.3722142e-07)
(0.00040709046 0.00028570121 -2.5841092e-07)
(0.00032356945 0.00014252651 -2.6704631e-07)
(0.00024026657 -1.3536192e-05 -2.6650636e-07)
(0.00016177026 -0.0001848204 -2.5982068e-07)
(8.8354563e-05 -0.00036675406 -2.4937531e-07)
(2.4028037e-05 -0.00055162895 -2.3709418e-07)
(-3.0408045e-05 -0.00073288099 -2.2428383e-07)
(-6.7278575e-05 -0.00090307485 -2.1168923e-07)
(-9.2170829e-05 -0.0010594746 -1.9963271e-07)
(-0.00010683958 -0.0011996927 -1.8822149e-07)
(-0.00011350667 -0.0013232176 -1.7746219e-07)
(-0.00011456595 -0.0014331014 -1.6729697e-07)
(-0.00011107154 -0.0015290003 -1.5757533e-07)
(-0.00010440236 -0.0016081438 -1.4812068e-07)
(-9.5620804e-05 -0.0016714457 -1.386983e-07)
(-8.5430081e-05 -0.0017195652 -1.2905077e-07)
(-7.4266655e-05 -0.0017529249 -1.1887315e-07)
(-6.2545493e-05 -0.0017717158 -1.078229e-07)
(-5.0596355e-05 -0.0017761841 -9.5474786e-08)
(-3.8688074e-05 -0.001767001 -8.1229216e-08)
(-2.7000025e-05 -0.0017467419 -6.4502332e-08)
(-1.5536358e-05 -0.0017145618 -4.4733465e-08)
(-4.2208796e-06 -0.0016284293 -2.1405701e-08)
(0.00048778478 0.00053086454 -1.491135e-07)
(0.00043080423 0.00059653198 -1.7414745e-07)
(0.00038165544 0.00063463517 -1.9037518e-07)
(0.00033313624 0.00065473394 -1.9845623e-07)
(0.00028436078 0.00064609884 -1.9998085e-07)
(0.00023681086 0.00061648482 -1.9673056e-07)