/*--------------------------------*- C++ -*----------------------------------*\
| =========                 |                                                 |
| \\      /  F ield         | OpenFOAM: The Open Source CFD Toolbox           |
|  \\    /   O peration     | Version:  4.0                                   |
|   \\  /    A nd           | Web:      www.OpenFOAM.org                      |
|    \\/     M anipulation  |                                                 |
\*---------------------------------------------------------------------------*/
FoamFile
{
    version     2.0;
    format      ascii;
    class       volScalarField;
    location    "0.04";
    object      nut;
}
// * * * * * * * * * * * * * * * * * * * * * * * * * * * * * * * * * * * * * //

dimensions      [0 2 -1 0 0 0 0];

internalField   nonuniform List<scalar> 
1740
(
3.3981131e-05
1.429665e-05
1.2117996e-06
1.2142699e-05
8.1180586e-06
1.7956201e-06
1.2074528e-05
6.0575457e-06
2.3253686e-06
9.407324e-06
5.0721823e-06
2.7711912e-06
2.1046628e-05
4.4770971e-06
3.1241893e-06
1.5146768e-05
4.1055199e-06
3.4215433e-06
1.4249566e-05
3.8833468e-06
3.6628395e-06
1.2248517e-05
3.7376045e-06
3.8689572e-06
1.0799827e-05
3.6435641e-06
4.013414e-06
9.748781e-06
3.5947073e-06
4.1605922e-06
8.8647972e-06
3.556168e-06
4.2783329e-06
8.079079e-06
3.5253003e-06
4.3698191e-06
7.3863859e-06
3.516683e-06
4.4436599e-06
6.8209518e-06
3.5246256e-06
4.4974051e-06
6.44842e-06
3.5278322e-06
4.5425712e-06
6.1297201e-06
3.4945602e-06
4.5579863e-06
5.8447275e-06
3.4769639e-06
4.587349e-06
5.6117707e-06
3.4749293e-06
4.6253214e-06
5.3827468e-06
3.4879389e-06
4.6532165e-06
5.1677145e-06
3.4940307e-06
4.6447491e-06
5.0392266e-06
3.493099e-06
4.6626422e-06
4.8921492e-06
3.5019124e-06
4.7002535e-06
4.7432979e-06
3.5111652e-06
4.6849222e-06
4.6414686e-06
3.5242319e-06
4.6956266e-06
4.5391206e-06
3.5371535e-06
4.709628e-06
4.4181624e-06
3.5574996e-06
4.6966933e-06
4.3062662e-06
3.5664541e-06
4.6743393e-06
4.2186456e-06
3.5734028e-06
4.6533741e-06
4.1724192e-06
3.5801237e-06
4.6188153e-06
2.4557807e-06
3.7229591e-06
4.3125751e-06
1.8603952e-06
2.1981484e-06
4.4211324e-06
7.1533888e-06
7.3514418e-06
6.7129443e-06
6.2450596e-06
6.4907456e-06
6.174491e-06
4.4403253e-06
4.4650785e-06
4.2843482e-06
2.7167085e-06
2.7398345e-06
2.6618972e-06
1.1753144e-06
1.1949384e-06
1.1664024e-06
3.3986779e-07
3.4603179e-07
3.3760552e-07
8.5127098e-08
8.6297327e-08
8.4480838e-08
3.1980942e-08
3.2222261e-08
3.2045025e-08
2.3926526e-08
2.4028806e-08
2.4157366e-08
2.4156214e-08
2.4238992e-08
2.4413057e-08
2.572328e-08
2.5801968e-08
2.5976151e-08
2.7496391e-08
2.7571683e-08
2.7738015e-08
2.9317347e-08
2.9388792e-08
2.9545909e-08
3.1169263e-08
3.1236703e-08
3.138461e-08
3.3052227e-08
3.3115725e-08
3.325479e-08
3.4967414e-08
3.5027134e-08
3.5157819e-08
3.6915593e-08
3.6971729e-08
3.7094512e-08
3.8897172e-08
3.8949917e-08
3.9065254e-08
4.091224e-08
4.096178e-08
4.1070094e-08
4.2960551e-08
4.3007058e-08
4.3108735e-08
4.5041475e-08
4.5085108e-08
4.5180502e-08
4.7153948e-08
4.7194854e-08
4.7284291e-08
4.929642e-08
4.9334739e-08
4.9418516e-08
5.1466793e-08
5.1502654e-08
5.1581047e-08
5.366236e-08
5.369588e-08
5.3769148e-08
5.5879753e-08
5.5911042e-08
5.5979425e-08
5.8114895e-08
5.8144055e-08
5.8207777e-08
6.0362945e-08
6.0390071e-08
6.0449341e-08
6.261825e-08
6.2643433e-08
6.2698448e-08
6.487431e-08
6.4897638e-08
6.4948588e-08
6.7123754e-08
6.714531e-08
6.7192379e-08
6.9358327e-08
6.9378192e-08
6.9421556e-08
7.1568895e-08
7.1587149e-08
7.162698e-08
7.3745473e-08
7.3762192e-08
7.3798662e-08
7.587727e-08
7.5892533e-08
7.592581e-08
7.7952765e-08
7.7966649e-08
7.7996903e-08
7.9959807e-08
7.997239e-08
7.9999791e-08
8.1885741e-08
8.1897103e-08
8.1921825e-08
8.3717573e-08
8.3727793e-08
8.3750012e-08
8.5442146e-08
8.5451306e-08
8.54712e-08
8.7046363e-08
8.7054545e-08
8.7072296e-08
8.8517482e-08
8.8524771e-08
8.8540563e-08
8.9843716e-08
8.9850193e-08
8.986421e-08
9.1015973e-08
9.1021722e-08
9.1034148e-08
9.2033042e-08
9.2038145e-08
9.2049164e-08
9.2912743e-08
9.2917286e-08
9.2927091e-08
9.3700523e-08
9.3704603e-08
9.3713415e-08
9.4428222e-08
9.4431956e-08
9.444003e-08
9.4893023e-08
9.4896525e-08
9.4904112e-08
4.1781178e-06
4.5069796e-06
6.715157e-06
8.4107645e-06
5.8154927e-06
5.8428365e-06
4.1056006e-06
4.1010851e-06
2.5291385e-06
2.4336707e-06
1.0820727e-06
9.8684139e-07
3.0794379e-07
2.7084608e-07
7.7923671e-08
6.9442519e-08
3.1098142e-08
2.9836408e-08
2.4249572e-08
2.4369324e-08
2.4665137e-08
2.4999692e-08
2.6239071e-08
2.6587127e-08
2.7989169e-08
2.8320807e-08
2.97826e-08
3.0094728e-08
3.160713e-08
3.1900427e-08
3.3463877e-08
3.3739455e-08
3.5354261e-08
3.5613207e-08
3.7279064e-08
3.7522388e-08
3.9238618e-08
3.9467244e-08
4.1232913e-08
4.1447676e-08
4.3261592e-08
4.3463257e-08
4.5323928e-08
4.5513192e-08
4.7418773e-08
4.7596273e-08
4.95445e-08
4.9710819e-08
5.1698945e-08
5.1854623e-08
5.3879345e-08
5.4024882e-08
5.6082281e-08
5.6218147e-08
5.8303625e-08
5.8430262e-08
6.0538496e-08
6.0656316e-08
6.2781208e-08
6.2890602e-08
6.5025236e-08
6.5126579e-08
6.7263189e-08
6.7356842e-08
6.9486795e-08
6.9573108e-08
7.1686907e-08
7.1766223e-08
7.3853533e-08
7.392619e-08
7.597588e-08
7.6042215e-08
7.8042426e-08
7.8102776e-08
8.0041026e-08
8.0095729e-08
8.1959031e-08
8.2008434e-08
8.3783455e-08
8.3827906e-08
8.550115e-08
8.5541006e-08
8.7099028e-08
8.7134652e-08
8.8564354e-08
8.8596116e-08
8.9885341e-08
8.9913617e-08
9.10529e-08
9.1078068e-08
9.2065824e-08
9.2088273e-08
9.2941962e-08
9.2962103e-08
9.3726838e-08
9.3745126e-08
9.4452392e-08
9.4469322e-08
9.4915775e-08
9.4931809e-08
3.8158214e-10
1.9240002e-09
2.1125003e-08
6.1472361e-08
8.4630222e-08
8.3910462e-08
7.3966878e-08
6.2868181e-08
5.3163111e-08
4.5404812e-08
3.9531403e-08
3.5291349e-08
3.2384604e-08
3.0538693e-08
2.9506324e-08
2.9063112e-08
2.9018161e-08
2.9219827e-08
2.9553537e-08
2.9938868e-08
3.03279e-08
3.0706347e-08
3.1094613e-08
3.1523356e-08
3.1916328e-08
8.0872887e-11
8.4287901e-09
9.1386154e-08
2.5353418e-07
3.4271864e-07
3.3593697e-07
2.9130788e-07
2.3996358e-07
1.9250812e-07
1.5200085e-07
1.1896619e-07
9.2937548e-08
7.3020296e-08
5.832366e-08
4.7939937e-08
4.0938883e-08
3.6463236e-08
3.3787022e-08
3.2321566e-08
3.1625611e-08
3.1393547e-08
3.1434141e-08
3.164846e-08
3.1984869e-08
3.2323968e-08
4.1054501e-10
4.6143848e-08
4.3449282e-07
1.0602425e-06
1.3371408e-06
1.3219567e-06
1.1873657e-06
1.0164952e-06
8.4259945e-07
6.7966639e-07
5.3457086e-07
4.1030132e-07
3.0735393e-07
2.2544778e-07
1.6309509e-07
1.1760858e-07
8.5810445e-08
6.4558536e-08
5.0933056e-08
4.2599969e-08
3.7795682e-08
3.525716e-08
3.413624e-08
3.3924466e-08
3.4415593e-08
2.7821521e-09
2.4117463e-07
1.6281255e-06
2.918339e-06
3.3674279e-06
3.3931412e-06
3.2284081e-06
2.9714132e-06
2.6641187e-06
2.3276712e-06
1.9792234e-06
1.6323059e-06
1.3001444e-06
9.9848584e-07
7.3966697e-07
5.2935737e-07
3.6779951e-07
2.5032529e-07
1.6850225e-07
1.142679e-07
8.019085e-08
6.0093885e-08
4.9214218e-08
4.4409808e-08
4.4562567e-08
2.3348152e-08
1.1111801e-06
3.8310103e-06
5.2423557e-06
5.8370528e-06
6.0320627e-06
6.0078515e-06
5.8531335e-06
5.6016888e-06
5.2627401e-06
4.8463451e-06
4.3525079e-06
3.7923683e-06
3.1937494e-06
2.591027e-06
2.0170051e-06
1.5061943e-06
1.0808587e-06
7.4333884e-07
4.9228283e-07
3.1696795e-07
2.0228328e-07
1.3199763e-07
9.2230877e-08
7.2579667e-08
1.9572352e-07
2.7509368e-06
6.0000727e-06
7.8755003e-06
8.7883445e-06
9.1271922e-06
9.1694004e-06
9.068355e-06
8.8762196e-06
8.5940105e-06
8.2101011e-06
7.718225e-06
7.1192412e-06
6.4214217e-06
5.6419579e-06
4.8084733e-06
3.957739e-06
3.1317324e-06
2.3716922e-06
1.7133932e-06
1.1787516e-06
7.738173e-07
4.8790305e-07
3.0110378e-07
1.924119e-07
4.3469654e-06
4.3240675e-06
4.3706504e-06
4.4848872e-06
4.6646617e-06
4.8948201e-06
5.1562069e-06
5.4319954e-06
5.7039119e-06
5.9468791e-06
6.12892e-06
6.2154938e-06
6.1755465e-06
5.9878741e-06
5.6465807e-06
5.1638506e-06
4.5682882e-06
3.9001538e-06
3.2047854e-06
2.5268354e-06
1.904952e-06
1.3686971e-06
9.3524351e-07
6.0946992e-07
3.9220545e-07
9.0884948e-06
9.4188442e-06
9.8849091e-06
1.0363377e-05
1.0554449e-05
1.0471473e-05
1.0231539e-05
9.9254102e-06
9.5756696e-06
9.1678296e-06
8.6864935e-06
8.1209739e-06
7.4667955e-06
6.7270627e-06
5.9148624e-06
5.0530026e-06
4.1734691e-06
3.3165424e-06
2.5239024e-06
1.8323713e-06
1.2661582e-06
8.3385458e-07
5.2643451e-07
3.2431811e-07
2.0598519e-07
6.1657051e-06
6.5183332e-06
6.8656476e-06
7.1338043e-06
7.2330054e-06
7.1593908e-06
6.9562573e-06
6.6652159e-06
6.3061051e-06
5.8799823e-06
5.3732067e-06
4.7931015e-06
4.1568214e-06
3.4914549e-06
2.8362967e-06
2.2223743e-06
1.6689948e-06
1.1997145e-06
8.2614594e-07
5.4732109e-07
3.5204581e-07
2.2398385e-07
1.4529949e-07
1.0057846e-07
7.8217672e-08
4.225466e-06
4.3509372e-06
4.4349684e-06
4.4361378e-06
4.32089e-06
4.0950082e-06
3.7882307e-06
3.4312843e-06
3.0484998e-06
2.6508121e-06
2.24417e-06
1.8421081e-06
1.4619618e-06
1.1201812e-06
8.3014725e-07
5.9638329e-07
4.1558241e-07
2.8250775e-07
1.8951854e-07
1.2788269e-07
8.9189904e-08
6.6376164e-08
5.3989921e-08
4.8423633e-08
4.8301431e-08
2.3721522e-06
2.3126384e-06
2.2337324e-06
2.1111638e-06
1.9326435e-06
1.7091325e-06
1.4646264e-06
1.221936e-06
9.9696384e-07
7.9630843e-07
6.2130485e-07
4.7296278e-07
3.5182123e-07
2.5673288e-07
1.8520875e-07
1.3350683e-07
9.7334135e-08
7.2969386e-08
5.7271421e-08
4.7648636e-08
4.2083524e-08
3.9120432e-08
3.7781668e-08
3.7479817e-08
3.7967644e-08
8.9541884e-07
8.1138093e-07
7.3151216e-07
6.4762607e-07
5.5640716e-07
4.6273555e-07
3.744881e-07
2.9728198e-07
2.3324016e-07
1.8170909e-07
1.4090377e-07
1.0921294e-07
8.5317489e-08
6.7903784e-08
5.5691178e-08
4.7475821e-08
4.2171831e-08
3.8920161e-08
3.706491e-08
3.6113979e-08
3.572006e-08
3.5666435e-08
3.5845851e-08
3.6217408e-08
3.6718772e-08
2.3456834e-07
2.0297065e-07
1.759994e-07
1.5157888e-07
1.2849513e-07
1.0721486e-07
8.8760436e-08
7.3693749e-08
6.1967417e-08
5.3110981e-08
4.6556134e-08
4.1839365e-08
3.8595916e-08
3.6503675e-08
3.5276857e-08
3.4671048e-08
3.4482399e-08
3.4555322e-08
3.477629e-08
3.506626e-08
3.5379102e-08
3.5706183e-08
3.6081397e-08
3.6560309e-08
3.7082729e-08
6.1260971e-08
5.4468612e-08
4.9135143e-08
4.4818917e-08
4.1161881e-08
3.809586e-08
3.5680872e-08
3.3934522e-08
3.2794634e-08
3.2154029e-08
3.1897494e-08
3.1929674e-08
3.217477e-08
3.2568004e-08
3.3053954e-08
3.3586887e-08
3.4130054e-08
3.4655844e-08
3.5144763e-08
3.5585375e-08
3.597783e-08
3.6342718e-08
3.6728436e-08
3.7182011e-08
3.7605651e-08
2.8696704e-08
2.7920848e-08
2.7533077e-08
2.7436681e-08
2.7538114e-08
2.7791836e-08
2.8179982e-08
2.8686724e-08
2.9287715e-08
2.9958387e-08
3.0673455e-08
3.1411084e-08
3.2152869e-08
3.2882802e-08
3.3587061e-08
3.4254019e-08
3.4874125e-08
3.5439893e-08
3.5946076e-08
3.6390925e-08
3.6780385e-08
3.713622e-08
3.7499205e-08
3.7892729e-08
3.8205575e-08
2.4588705e-08
2.4948728e-08
2.5445075e-08
2.6048617e-08
2.6729279e-08
2.7465523e-08
2.8242363e-08
2.9047346e-08
2.9868518e-08
3.0694075e-08
3.1513795e-08
3.2317904e-08
3.3097448e-08
3.3844271e-08
3.4551044e-08
3.5211279e-08
3.5819359e-08
3.6370616e-08
3.6861707e-08
3.7291997e-08
3.766736e-08
3.8006514e-08
3.8340247e-08
3.8675962e-08
3.8911566e-08
2.5423453e-08
2.5938195e-08
2.6535315e-08
2.7200545e-08
2.7918989e-08
2.8677244e-08
2.9463552e-08
3.0267256e-08
3.1078455e-08
3.1887866e-08
3.2686605e-08
3.3466705e-08
3.4220587e-08
3.4941209e-08
3.562214e-08
3.6257589e-08
3.6842456e-08
3.7372429e-08
3.7844379e-08
3.8257643e-08
3.861739e-08
3.8939906e-08
3.925176e-08
3.956268e-08
3.9788984e-08
2.7016788e-08
2.7523305e-08
2.8098611e-08
2.8732647e-08
2.9414721e-08
3.0134206e-08
3.0880871e-08
3.1644929e-08
3.2417051e-08
3.3188388e-08
3.3950565e-08
3.4695594e-08
3.5416194e-08
3.6105526e-08
3.6757319e-08
3.7365905e-08
3.7926272e-08
3.8434171e-08
3.8886484e-08
3.9282437e-08
3.9626777e-08
3.993521e-08
4.023632e-08
4.0553197e-08
4.0834487e-08
2.8728156e-08
2.9205705e-08
2.9746239e-08
3.0341401e-08
3.0982213e-08
3.1659416e-08
3.2363737e-08
3.3086063e-08
3.3817542e-08
3.4549666e-08
3.5274336e-08
3.5983724e-08
3.6670684e-08
3.7328512e-08
3.7951039e-08
3.8532682e-08
3.9068496e-08
3.9554279e-08
3.9986926e-08
4.036562e-08
4.0695067e-08
4.0991744e-08
4.1289045e-08
4.1625004e-08
4.1978933e-08
3.0477653e-08
3.0926009e-08
3.1433307e-08
3.1992177e-08
3.2594613e-08
3.3232276e-08
3.3896662e-08
3.4579265e-08
3.5271718e-08
3.5965894e-08
3.6653975e-08
3.73285e-08
3.7982387e-08
3.8609122e-08
3.9202677e-08
3.9757582e-08
4.0268977e-08
4.0732726e-08
4.1145767e-08
4.1507323e-08
4.1822364e-08
4.2108905e-08
4.2405998e-08
4.2765236e-08
4.3182418e-08
3.2260172e-08
3.2681315e-08
3.3157938e-08
3.3683368e-08
3.425035e-08
3.4851215e-08
3.5478121e-08
3.6123125e-08
3.677834e-08
3.7436042e-08
3.8088745e-08
3.8729291e-08
3.9350826e-08
3.9947025e-08
4.0512026e-08
4.1040496e-08
4.1527685e-08
4.1969545e-08
4.236309e-08
4.2707661e-08
4.3008697e-08
4.328602e-08
4.3583653e-08
4.3960785e-08
4.4403307e-08
3.4077513e-08
3.4473352e-08
3.4921502e-08
3.541586e-08
3.5949758e-08
3.6516137e-08
3.7107697e-08
3.771701e-08
3.8336655e-08
3.8959309e-08
3.9577835e-08
4.0185363e-08
4.077536e-08
4.1341667e-08
4.1878618e-08
4.238104e-08
4.2844317e-08
4.3264508e-08
4.3638729e-08
4.3966506e-08
4.4253869e-08
4.4522393e-08
4.4819453e-08
4.5204608e-08
4.5643027e-08
3.5930952e-08
3.6303135e-08
3.6724682e-08
3.7189963e-08
3.7692804e-08
3.8226667e-08
3.8784759e-08
3.9360115e-08
3.994575e-08
4.0534731e-08
4.1120276e-08
4.1695822e-08
4.2255109e-08
4.2792242e-08
4.3301727e-08
4.3778574e-08
4.4218313e-08
4.4617128e-08
4.4972258e-08
4.5283453e-08
4.5557359e-08
4.5817073e-08
4.6111963e-08
4.6498734e-08
4.6924645e-08
3.7821056e-08
3.8171025e-08
3.8567598e-08
3.9005521e-08
3.9479085e-08
3.9982194e-08
4.0508505e-08
4.10515e-08
4.1604592e-08
4.2161231e-08
4.2714979e-08
4.3259585e-08
4.3789069e-08
4.4297784e-08
4.4780452e-08
4.5232264e-08
4.564891e-08
4.6026709e-08
4.6363036e-08
4.665787e-08
4.6918406e-08
4.7168882e-08
4.7459513e-08
4.7842831e-08
4.8252467e-08
3.9747955e-08
4.0076999e-08
4.0450021e-08
4.0862126e-08
4.1307993e-08
4.1781942e-08
4.2278027e-08
4.2790141e-08
4.3312083e-08
4.3837665e-08
4.4360779e-08
4.4875489e-08
4.5376093e-08
4.5857191e-08
4.6313743e-08
4.6741116e-08
4.7135169e-08
4.7492364e-08
4.7810222e-08
4.8088932e-08
4.8336145e-08
4.8576889e-08
4.8861563e-08
4.9238839e-08
4.9633393e-08
4.1711447e-08
4.2020734e-08
4.2371489e-08
4.2759156e-08
4.3178759e-08
4.3624997e-08
4.4092296e-08
4.4574918e-08
4.5067029e-08
4.5562786e-08
4.605641e-08
4.6542263e-08
4.7014919e-08
4.7469232e-08
4.790039e-08
4.8303955e-08
4.8675956e-08
4.9013004e-08
4.9312764e-08
4.9575626e-08
4.9809624e-08
5.0040435e-08
5.0318746e-08
5.0691386e-08
5.1080447e-08
4.3711012e-08
4.4001605e-08
4.4331265e-08
4.4695743e-08
4.5090399e-08
4.5510256e-08
4.5950102e-08
4.6404539e-08
4.6868074e-08
4.7335194e-08
4.7800436e-08
4.8258455e-08
4.8704099e-08
4.9132469e-08
4.9538975e-08
4.9919389e-08
5.0269905e-08
5.058729e-08
5.0869357e-08
5.1116687e-08
5.1337668e-08
5.155856e-08
5.1830526e-08
5.2199916e-08
5.2586816e-08
4.5745774e-08
4.6018643e-08
4.6328285e-08
4.667073e-08
4.704164e-08
4.7436362e-08
4.7849995e-08
4.8277475e-08
4.8713626e-08
4.9153249e-08
4.9591183e-08
5.0022371e-08
5.0441926e-08
5.0845193e-08
5.1227806e-08
5.1585737e-08
5.1915354e-08
5.2213581e-08
5.2478379e-08
5.271052e-08
5.2918715e-08
5.3129763e-08
5.3395451e-08
5.3762638e-08
5.4150703e-08
4.7814454e-08
4.8070491e-08
4.8361105e-08
4.8682587e-08
4.9030875e-08
4.9401612e-08
4.9790203e-08
5.0191879e-08
5.0601779e-08
5.1014998e-08
5.1426663e-08
5.1831995e-08
5.2226367e-08
5.2605364e-08
5.2964838e-08
5.3300961e-08
5.3610276e-08
5.3889862e-08
5.413783e-08
5.4355134e-08
5.4550792e-08
5.4752166e-08
5.501199e-08
5.5378573e-08
5.5770782e-08
4.991531e-08
5.0155338e-08
5.0427841e-08
5.072935e-08
5.1056064e-08
5.1403898e-08
5.176854e-08
5.2145512e-08
5.2530236e-08
5.2918096e-08
5.3304496e-08
5.368492e-08
5.4054995e-08
5.4410542e-08
5.4747627e-08
5.5062615e-08
5.535223e-08
5.56137e-08
5.5845285e-08
5.6048119e-08
5.623152e-08
5.642341e-08
5.6677503e-08
5.704329e-08
5.7437246e-08
5.2046077e-08
5.2270858e-08
5.25261e-08
5.2808562e-08
5.3114679e-08
5.3440626e-08
5.3782354e-08
5.4135659e-08
5.4496237e-08
5.4859741e-08
5.5221841e-08
5.5578279e-08
5.5924924e-08
5.6257825e-08
5.6573262e-08
5.6867789e-08
5.7138303e-08
5.7382185e-08
5.7597844e-08
5.7786596e-08
5.7958059e-08
5.8140697e-08
5.8389059e-08
5.8753264e-08
5.9146305e-08
5.420391e-08
5.4414151e-08
5.4652926e-08
5.4917203e-08
5.5203642e-08
5.5508657e-08
5.5828451e-08
5.6159076e-08
5.6496489e-08
5.6836601e-08
5.7175336e-08
5.7508681e-08
5.7832741e-08
5.8143789e-08
5.8438308e-08
5.871304e-08
5.8965051e-08
5.9191876e-08
5.9392074e-08
5.956716e-08
5.9727101e-08
5.9901003e-08
6.0144308e-08
6.0507352e-08
6.0900052e-08
5.6385319e-08
5.658168e-08
5.6804731e-08
5.7051633e-08
5.7319259e-08
5.7604247e-08
5.7903036e-08
5.8211923e-08
5.8527112e-08
5.8844759e-08
5.9161031e-08
5.9472152e-08
5.9774454e-08
6.0064424e-08
6.0338746e-08
6.0594343e-08
6.0828446e-08
6.1038743e-08
6.1223945e-08
6.1385785e-08
6.1534651e-08
6.170047e-08
6.1939792e-08
6.2302928e-08
6.2693412e-08
5.8586113e-08
5.8769217e-08
5.8977242e-08
5.9207534e-08
5.9457166e-08
5.9722985e-08
6.0001655e-08
6.0289705e-08
6.0583572e-08
6.0879649e-08
6.1174333e-08
6.1464075e-08
6.1745427e-08
6.2015082e-08
6.2269916e-08
6.2507031e-08
6.2723817e-08
6.291811e-08
6.3088775e-08
6.3237764e-08
6.3375911e-08
6.3534051e-08
6.3770019e-08
6.4134073e-08
6.4522269e-08
6.0801354e-08
6.097179e-08
6.1165451e-08
6.1379858e-08
6.1612272e-08
6.1859741e-08
6.2119142e-08
6.238722e-08
6.2660636e-08
6.2936007e-08
6.3209952e-08
6.3479141e-08
6.3740334e-08
6.3990421e-08
6.4226466e-08
6.4445745e-08
6.4645802e-08
6.4824615e-08
6.4981198e-08
6.5117714e-08
6.5245418e-08
6.539601e-08
6.5628519e-08
6.5992989e-08
6.6379745e-08
6.3025307e-08
6.3183637e-08
6.3363567e-08
6.3562781e-08
6.3778722e-08
6.4008627e-08
6.4249572e-08
6.4498512e-08
6.4752318e-08
6.5007823e-08
6.5261857e-08
6.5511298e-08
6.5753107e-08
6.5984364e-08
6.6202313e-08
6.6404394e-08
6.6588305e-08
6.6752163e-08
6.6895123e-08
6.7019545e-08
6.7137082e-08
6.7280206e-08
6.7508909e-08
6.7872404e-08
6.8251753e-08
6.525141e-08
6.539817e-08
6.5564976e-08
6.5749667e-08
6.5949852e-08
6.616295e-08
6.6386229e-08
6.6616838e-08
6.6851853e-08
6.708831e-08
6.7323243e-08
6.7553725e-08
6.7776911e-08
6.7990065e-08
6.8190602e-08
6.8376123e-08
6.854447e-08
6.8693896e-08
6.8823693e-08
6.8936415e-08
6.9044094e-08
6.9179964e-08
6.9404946e-08
6.9767283e-08
7.0138163e-08
6.7472241e-08
6.7607949e-08
6.7762217e-08
6.793303e-08
6.8118156e-08
6.8315186e-08
6.8521566e-08
6.8734634e-08
6.8951659e-08
6.916987e-08
6.9386494e-08
6.9598797e-08
6.9804113e-08
6.9999884e-08
7.018369e-08
7.0353284e-08
7.050665e-08
7.0642169e-08
7.0759267e-08
7.0860686e-08
7.0958831e-08
7.1087687e-08
7.1309163e-08
7.1671023e-08
7.2036987e-08
6.9679505e-08
6.9804666e-08
6.9946967e-08
7.0104531e-08
7.0275278e-08
7.045696e-08
7.0647195e-08
7.08435e-08
7.1043323e-08
7.1244079e-08
7.1443181e-08
7.1638073e-08
7.1826267e-08
7.2005372e-08
7.2173126e-08
7.2327428e-08
7.2466397e-08
7.2588539e-08
7.2693409e-08
7.2783932e-08
7.2872871e-08
7.2994915e-08
7.3212802e-08
7.3573501e-08
7.3932666e-08
7.186404e-08
7.1979148e-08
7.2110041e-08
7.2254976e-08
7.2412013e-08
7.2579058e-08
7.2753891e-08
7.2934199e-08
7.3117603e-08
7.3301691e-08
7.3484051e-08
7.3662302e-08
7.3834121e-08
7.3997277e-08
7.4149659e-08
7.4289308e-08
7.4414471e-08
7.4523773e-08
7.4616894e-08
7.4696939e-08
7.4777025e-08
7.4892507e-08
7.5106796e-08
7.5465676e-08
7.5816031e-08
7.4015843e-08
7.4121386e-08
7.4241425e-08
7.4374342e-08
7.4518331e-08
7.4671445e-08
7.4831615e-08
7.4996689e-08
7.5164452e-08
7.5332658e-08
7.549906e-08
7.566144e-08
7.5817633e-08
7.5965563e-08
7.6103261e-08
7.6228903e-08
7.6340857e-08
7.6437865e-08
7.6519726e-08
7.6589724e-08
7.666133e-08
7.6770571e-08
7.6981608e-08
7.7339421e-08
7.7683342e-08
7.6124117e-08
7.6220579e-08
7.6330317e-08
7.6451825e-08
7.6583429e-08
7.6723315e-08
7.6869562e-08
7.7020166e-08
7.7173069e-08
7.7326181e-08
7.7477412e-08
7.7624697e-08
7.7766025e-08
7.7899461e-08
7.8023173e-08
7.8135463e-08
7.8234818e-08
7.8320087e-08
7.8391187e-08
7.8451568e-08
7.8515041e-08
7.8618297e-08
7.8826345e-08
7.9183884e-08
7.9524044e-08
7.8177342e-08
7.8265211e-08
7.8365198e-08
7.8475911e-08
7.8595793e-08
7.872316e-08
7.8856228e-08
7.8993134e-08
7.9131964e-08
7.9270779e-08
7.9407636e-08
7.9540615e-08
7.9667847e-08
7.9787532e-08
7.9897969e-08
7.9997579e-08
8.0084959e-08
8.0159061e-08
8.0219909e-08
8.0271102e-08
8.0326749e-08
8.0424119e-08
8.0628975e-08
8.0985685e-08
8.1321219e-08
8.0163377e-08
8.0243143e-08
8.0333938e-08
8.0434474e-08
8.0543305e-08
8.065887e-08
8.0779511e-08
8.0903499e-08
8.1029058e-08
8.1154386e-08
8.1277679e-08
8.1397155e-08
8.1511076e-08
8.1617772e-08
8.1715662e-08
8.180328e-08
8.1879327e-08
8.194285e-08
8.1993971e-08
8.2036419e-08
8.2084545e-08
8.2176075e-08
8.2377283e-08
8.2731722e-08
8.3058635e-08
8.2069586e-08
8.2141746e-08
8.2223916e-08
8.2314901e-08
8.2413364e-08
8.2517855e-08
8.2626835e-08
8.2738701e-08
8.2851805e-08
8.2964472e-08
8.307503e-08
8.3181823e-08
8.328324e-08
8.3377728e-08
8.346382e-08
8.3540155e-08
8.360553e-08
8.3659084e-08
8.3701027e-08
8.3735206e-08
8.3776175e-08
8.3862019e-08
8.4059301e-08
8.4410419e-08
8.4726879e-08
8.3882994e-08
8.3948055e-08
8.4022175e-08
8.4104249e-08
8.4193038e-08
8.4287198e-08
8.4385301e-08
8.4485859e-08
8.458734e-08
8.4688195e-08
8.4786867e-08
8.4881822e-08
8.4971561e-08
8.5054646e-08
8.5129712e-08
8.5195497e-08
8.5250887e-08
8.5295105e-08
8.5328445e-08
8.5354872e-08
8.538914e-08
8.5469671e-08
8.5663241e-08
8.6010931e-08
8.6312821e-08
8.5590468e-08
8.5648948e-08
8.5715605e-08
8.5789423e-08
8.586925e-08
8.595384e-08
8.6041867e-08
8.613195e-08
8.6222668e-08
8.6312578e-08
8.6400239e-08
8.6484224e-08
8.6563141e-08
8.6635652e-08
8.6700491e-08
8.6756484e-08
8.6802601e-08
8.6838141e-08
8.6863481e-08
8.6882699e-08
8.6910769e-08
8.6986484e-08
8.7176918e-08
8.7522075e-08
8.7814896e-08
8.7178937e-08
8.7231363e-08
8.7291161e-08
8.7357391e-08
8.7428986e-08
8.7504787e-08
8.7583562e-08
8.7664027e-08
8.7744862e-08
8.7824725e-08
8.7902275e-08
8.7976186e-08
8.8045162e-08
8.8107959e-08
8.8163397e-08
8.8210386e-08
8.8247969e-08
8.8275517e-08
8.8293482e-08
8.8306058e-08
8.832844e-08
8.8399828e-08
8.8587664e-08
8.893107e-08
8.9216422e-08
8.8635682e-08
8.8682593e-08
8.8736149e-08
8.8795478e-08
8.8859589e-08
8.8927404e-08
8.8997775e-08
8.9069505e-08
8.9141364e-08
8.9212104e-08
8.9280472e-08
8.9345233e-08
8.9405181e-08
8.9459153e-08
8.950605e-08
8.9544853e-08
8.9574673e-08
8.9594944e-08
8.9606187e-08
8.9612704e-08
8.9629915e-08
8.9697425e-08
8.9883053e-08
9.0225079e-08
9.0503742e-08
8.9948928e-08
8.9990876e-08
9.0038821e-08
9.0091954e-08
9.0149353e-08
9.0210008e-08
9.0272849e-08
9.0336755e-08
9.0400577e-08
9.0463147e-08
9.0523296e-08
9.0579869e-08
9.0631737e-08
9.0677811e-08
9.0717061e-08
9.0748531e-08
9.0771394e-08
9.0785137e-08
9.0790339e-08
9.0791394e-08
9.0803909e-08
9.0867841e-08
9.1051382e-08
9.1392316e-08
9.1666185e-08
9.1109599e-08
9.1147148e-08
9.1190129e-08
9.1237794e-08
9.1289278e-08
9.1343635e-08
9.1399856e-08
9.1456887e-08
9.1513647e-08
9.1569043e-08
9.1621979e-08
9.1671374e-08
9.1716165e-08
9.1755325e-08
9.1787873e-08
9.1812912e-08
9.1829669e-08
9.1837677e-08
9.1837562e-08
9.1833776e-08
9.1842052e-08
9.1902587e-08
9.2083875e-08
9.2423561e-08
9.2693879e-08
9.2116509e-08
9.2150236e-08
9.2188921e-08
9.2231875e-08
9.2278287e-08
9.2327262e-08
9.2377836e-08
9.2429003e-08
9.2479736e-08
9.2529015e-08
9.2575819e-08
9.2619138e-08
9.2657963e-08
9.2691293e-08
9.2718176e-08
9.2737762e-08
9.2749335e-08
9.2752476e-08
9.2747835e-08
9.2739897e-08
9.274444e-08
9.2801721e-08
9.29802e-08
9.3316871e-08
9.3580312e-08
9.2987554e-08
9.3018055e-08
9.3053132e-08
9.3092175e-08
9.3134435e-08
9.3179044e-08
9.3225057e-08
9.3271469e-08
9.3317295e-08
9.3361615e-08
9.3403495e-08
9.3442009e-08
9.3476175e-08
9.3504961e-08
9.3527359e-08
9.3542592e-08
9.3550021e-08
9.3549273e-08
9.3541e-08
9.3529677e-08
9.3531007e-08
9.3584937e-08
9.375916e-08
9.4088984e-08
9.4339084e-08
9.3768337e-08
9.3796232e-08
9.3828412e-08
9.3864405e-08
9.3903573e-08
9.3944966e-08
9.3987642e-08
9.403052e-08
9.4072621e-08
9.4113265e-08
9.415158e-08
9.4186776e-08
9.421786e-08
9.4243656e-08
9.4262886e-08
9.4274989e-08
9.4279446e-08
9.427592e-08
9.4265009e-08
9.42511e-08
9.4249546e-08
9.4299091e-08
9.4464846e-08
9.4778055e-08
9.4999388e-08
9.4490875e-08
9.4516812e-08
9.4546838e-08
9.4580739e-08
9.4618238e-08
9.4657654e-08
9.4698232e-08
9.4738748e-08
9.4778182e-08
9.4816517e-08
9.4852661e-08
9.488607e-08
9.4915736e-08
9.4940238e-08
9.4957384e-08
9.4967525e-08
9.497019e-08
9.4965021e-08
9.4952472e-08
9.4936702e-08
9.4932227e-08
9.4974829e-08
9.5123486e-08
9.5400558e-08
9.5562832e-08
9.4952251e-08
9.4976859e-08
9.5005466e-08
9.5038406e-08
9.5076737e-08
9.5115297e-08
9.51546e-08
9.5193458e-08
9.5230832e-08
9.5268171e-08
9.5303275e-08
9.5335905e-08
9.5365261e-08
9.5389722e-08
9.5404755e-08
9.5413622e-08
9.5415398e-08
9.5409504e-08
9.5396211e-08
9.5379323e-08
9.5371838e-08
9.540428e-08
9.5525026e-08
9.574255e-08
9.5824321e-08
)
;

boundaryField
{
    Walls
    {
        type            nutUWallFunction;
        Cmu             0.09;
        kappa           0.41;
        E               9.8;
        value           uniform 0;
    }
    Inlet
    {
        type            calculated;
        value           nonuniform List<scalar> 3(2.78237e-05 4.1451464e-05 7.7522111e-07);
    }
    Outlet
    {
        type            calculated;
        value           nonuniform List<scalar> 
86
(
0
0
0
0
0
0
0
0
0
0
0
0
0
0
0
0
0
0
0
0
0
0
0
0
0
0
0
0
0
0
3.9220545e-07
2.0598519e-07
7.8217672e-08
0
0
0
0
3.7605651e-08
0
0
0
0
0
0
4.4403307e-08
4.5643027e-08
4.6924645e-08
4.8252467e-08
4.9633393e-08
5.1080447e-08
5.2586816e-08
5.4150703e-08
5.5770782e-08
5.7437246e-08
5.9146305e-08
6.0900052e-08
6.2693412e-08
6.4522269e-08
6.6379745e-08
6.8251753e-08
7.0138163e-08
7.2036987e-08
7.3932666e-08
7.5816031e-08
7.7683342e-08
7.9524044e-08
8.1321219e-08
8.3058635e-08
0
0
0
0
0
0
0
0
0
0
0
9.5824321e-08
0
0
0
0
7.2579667e-08
1.924119e-07
)
;
    }
    Front
    {
        type            wedge;
    }
    Back
    {
        type            wedge;
    }
    defaultFaces
    {
        type            empty;
    }
}


// ************************************************************************* //
