/*--------------------------------*- C++ -*----------------------------------*\
| =========                 |                                                 |
| \\      /  F ield         | OpenFOAM: The Open Source CFD Toolbox           |
|  \\    /   O peration     | Version:  4.0                                   |
|   \\  /    A nd           | Web:      www.OpenFOAM.org                      |
|    \\/     M anipulation  |                                                 |
\*---------------------------------------------------------------------------*/
FoamFile
{
    version     2.0;
    format      ascii;
    class       volScalarField;
    location    "0.04";
    object      p;
}
// * * * * * * * * * * * * * * * * * * * * * * * * * * * * * * * * * * * * * //

dimensions      [0 2 -2 0 0 0 0];

internalField   nonuniform List<scalar> 
1740
(
491.41158
491.44199
491.2717
474.53965
474.56822
474.38484
458.21304
457.97602
458.14757
441.98104
441.56453
441.57037
425.42312
425.32722
424.98452
408.98352
409.00996
408.83512
392.5767
392.34923
392.51042
376.08938
375.91148
376.08747
359.90114
359.96828
359.92447
344.00508
343.99521
344.05983
327.71615
327.70814
327.65653
311.25772
311.45128
311.20886
295.17404
295.32206
295.17353
279.07878
279.09764
278.96856
262.45648
262.49055
262.59997
245.65762
245.68036
245.88657
229.36316
229.16536
229.25447
213.005
212.7838
212.88505
196.57745
196.6595
196.70423
180.5288
180.80072
180.82959
164.2558
164.31713
164.27397
147.3452
147.18041
147.00153
130.23562
130.09926
130.02076
113.18386
113.3141
113.4277
96.559975
96.764465
96.83044
80.458669
80.339757
80.249987
63.927361
63.921954
63.984457
47.292823
47.592798
47.644496
31.413582
31.426299
31.313736
16.445881
16.029693
15.688287
4.1103388
3.416354
1.6098962
-0.63574407
-0.58207737
-0.38169324
-0.13577201
-0.12399545
-0.09207021
-0.0036849627
0.0024802357
0.0097638513
0.0082141378
0.011828964
0.016552704
0.0084892004
0.0098980639
0.012025711
0.0078820413
0.0085596984
0.0095852334
0.0081819675
0.0084872932
0.0089340946
0.0084659082
0.0085731621
0.0087261267
0.0085067056
0.0085345357
0.0085477657
0.0082136096
0.0082056266
0.0081592097
0.0076657563
0.0076400788
0.0075699732
0.0068889547
0.006857305
0.0067810517
0.006054338
0.0060282913
0.0059746463
0.0053034882
0.005282602
0.0052307548
0.0046196463
0.0045963501
0.0045447334
0.0039998427
0.0039755863
0.003924991
0.0034346191
0.0034117338
0.0033633548
0.0029148865
0.0028942012
0.002850166
0.0024396256
0.0024207996
0.0023813357
0.0020076117
0.0019911028
0.0019562192
0.0016188397
0.0016045667
0.0015740386
0.0012733734
0.0012610653
0.0012346285
0.00097063629
0.00096002165
0.0009373832
0.00070746424
0.00069873315
0.00068036676
0.00048296545
0.0004756674
0.00045996486
0.00030239274
0.00029609647
0.00028263012
0.00015681609
0.00015154019
0.00014030342
4.2068469e-05
3.7708581e-05
2.8439975e-05
-4.5643635e-05
-4.9211437e-05
-5.6779044e-05
-0.00010998706
-0.00011287833
-0.00011899143
-0.00015447357
-0.00015679322
-0.00016167805
-0.00018241267
-0.00018425526
-0.00018811636
-0.00019686955
-0.00019831959
-0.00020133879
-0.0002006333
-0.00020176442
-0.00020410072
-0.00019619611
-0.0001970717
-0.00019886165
-0.0001857442
-0.00018641871
-0.00018777783
-0.00017116068
-0.0001716802
-0.00017270444
-0.00015403465
-0.00015443717
-0.00015520436
-0.00013567776
-0.00013598642
-0.00013656085
-0.00011712534
-0.00011735731
-0.0001177907
-9.9152417e-05
-9.9328738e-05
-9.9657893e-05
-8.2309198e-05
-8.2444789e-05
-8.2697088e-05
-6.6948218e-05
-6.7053162e-05
-6.7247866e-05
-5.325697e-05
-5.3337924e-05
-5.3487712e-05
-4.1271977e-05
-4.1333132e-05
-4.1445907e-05
-3.0867611e-05
-3.0911556e-05
-3.0992035e-05
-2.175469e-05
-2.1783246e-05
-2.183427e-05
-1.3313223e-05
-1.332875e-05
-1.3354079e-05
-4.7565177e-06
-4.7613287e-06
-4.7670292e-06
-1.309546
-0.92584054
-0.3107237
-0.24221946
-0.073148014
-0.07325415
0.010777033
0.0042185624
0.018940731
0.018360038
0.013847593
0.014413321
0.010486311
0.010909536
0.0091567793
0.0091655861
0.0087623077
0.0086301924
0.0084711821
0.0082849703
0.0080392334
0.0078503183
0.0074450033
0.0072616648
0.0066649154
0.0065082353
0.0058817398
0.0057519341
0.005145021
0.0050271422
0.0044650499
0.004357716
0.0038499254
0.0037516531
0.0032926757
0.0032037109
0.002785974
0.0027051701
0.0023239924
0.0022518867
0.001905443
0.0018414557
0.001529568
0.001473431
0.0011960661
0.0011472943
0.00090437852
0.00086250166
0.00065311645
0.00061781834
0.00043698456
0.00040934077
0.00026315631
0.0002377863
0.00012394844
0.00010313234
1.4943895e-05
-2.0911053e-06
-6.7772485e-05
-8.1590268e-05
-0.00012784661
-0.00013893154
-0.00016873096
-0.00017751681
-0.00019366963
-0.00020054863
-0.00020566142
-0.00021097976
-0.00020742717
-0.00021148595
-0.00020139338
-0.00020445125
-0.00018968539
-0.0001919613
-0.00017412981
-0.00017580581
-0.0001562634
-0.00015748763
-0.00013734588
-0.00013823601
-0.00011837367
-0.00011902108
-0.00010009425
-0.00010056862
-8.3027712e-05
-8.3380504e-05
-6.7500848e-05
-6.7767008e-05
-5.3680978e-05
-5.3881916e-05
-4.159036e-05
-4.1738786e-05
-3.1094094e-05
-3.1197228e-05
-2.1897776e-05
-2.1959722e-05
-1.338443e-05
-1.3411566e-05
-4.7726834e-06
-4.7757349e-06
0.011625499
0.011329811
0.010841525
0.010341266
0.0098131364
0.0092507305
0.0086304418
0.007964171
0.0072445402
0.0065332339
0.005800217
0.0050384918
0.0043193882
0.0036545298
0.0030527584
0.0025181869
0.0020509897
0.0016479152
0.0013033888
0.0010107264
0.00076277159
0.00055211088
0.0003711617
0.00021244214
6.8687391e-05
0.012076178
0.011746222
0.011260687
0.010696413
0.010093167
0.0094021492
0.0086175186
0.0078345811
0.0070455331
0.006224887
0.0054301614
0.004699624
0.0040095177
0.0033777848
0.0028146047
0.0023196313
0.0018894602
0.0015189306
0.0012022988
0.00093347187
0.00070581634
0.00051226326
0.00034562255
0.00019955852
6.8540839e-05
0.011415146
0.010883266
0.010120143
0.0092648325
0.0082663502
0.0071166382
0.0058893978
0.0046150476
0.0034387551
0.0024188746
0.0016021593
0.00097091379
0.00048663795
0.00012367988
-0.00013501266
-0.00031346446
-0.00042775738
-0.00048909065
-0.00050458754
-0.00048142338
-0.00042726713
-0.00034976054
-0.00025576941
-0.00014872096
-3.2307368e-05
-0.0015234797
-0.0022995131
-0.0037464249
-0.0057738138
-0.0077899911
-0.009404835
-0.010502097
-0.011065998
-0.011192133
-0.010982404
-0.01054374
-0.0099461567
-0.009243283
-0.0084743684
-0.007672234
-0.0068734945
-0.0060883062
-0.0053131763
-0.004545647
-0.0037905362
-0.0030519028
-0.0023320947
-0.0016319491
-0.00094656203
-0.00027724258
-0.057708097
-0.058243181
-0.058813688
-0.057076912
-0.054506092
-0.050942907
-0.046750252
-0.042346387
-0.038025868
-0.033873084
-0.029942856
-0.026263299
-0.02285624
-0.019763867
-0.016999805
-0.014555248
-0.01238597
-0.010397086
-0.0085866254
-0.0069514851
-0.0054669401
-0.0041036028
-0.0028405922
-0.0016504731
-0.00052660518
-0.23366293
-0.19103908
-0.17288393
-0.14223098
-0.11710142
-0.095025409
-0.076327376
-0.061057169
-0.048690211
-0.038717263
-0.030712467
-0.024357167
-0.019308508
-0.015250378
-0.011994104
-0.0093681501
-0.0072615348
-0.0055958624
-0.0042773841
-0.0032174003
-0.002364712
-0.0016706545
-0.001108051
-0.00062905204
-0.00024692494
-0.35386667
-0.15174562
-0.099725729
-0.061491621
-0.02769401
-0.0013359652
0.015277796
0.023360912
0.026106754
0.026123
0.024739861
0.02259836
0.020099401
0.017514264
0.015029963
0.012767438
0.01075954
0.0089967531
0.0074437809
0.006065872
0.0048163155
0.0036662619
0.0025581289
0.0015057002
0.00040855695
-0.20191927
-0.17895978
-0.15479275
-0.13004982
-0.10687708
-0.086350598
-0.069205243
-0.055124
-0.043800199
-0.034768058
-0.027537105
-0.021742567
-0.017135337
-0.013493164
-0.010615488
-0.0083328683
-0.0064965278
-0.0050130232
-0.0038199242
-0.0028608796
-0.0020920024
-0.0014694871
-0.00097111843
-0.00054979585
-0.00022423792
-0.07506564
-0.074695216
-0.072567086
-0.069002348
-0.064367713
-0.058992123
-0.053252636
-0.047764081
-0.042560643
-0.037666857
-0.033108266
-0.028943915
-0.025195834
-0.021801369
-0.018728577
-0.015943151
-0.013444886
-0.011220862
-0.0092388106
-0.007462893
-0.0058587686
-0.0043919388
-0.0030372576
-0.0017653779
-0.00056674501
-0.0023024868
-0.0074991251
-0.011805982
-0.015085051
-0.017324493
-0.01859358
-0.019018252
-0.018826065
-0.018214112
-0.017290021
-0.016161551
-0.014910889
-0.013615777
-0.012308307
-0.011018576
-0.0097591627
-0.0085385677
-0.0073623058
-0.006233085
-0.0051514594
-0.0041168139
-0.0031272276
-0.0021793374
-0.0012632361
-0.00037649034
0.016431319
0.014127781
0.011594889
0.0088296521
0.0059464697
0.0033486553
0.0011430012
-0.00054488202
-0.0017358389
-0.002548647
-0.0030598955
-0.0033380626
-0.0034409369
-0.0034095993
-0.0032771587
-0.0030698861
-0.0028086241
-0.0025098808
-0.0021862405
-0.0018478349
-0.0015025641
-0.0011562137
-0.00081264404
-0.00047103395
-0.00013159525
0.014083123
0.013366735
0.012470759
0.01134548
0.010099825
0.0087099997
0.0073350771
0.0060033821
0.0047828163
0.0037019785
0.0028136219
0.0020909754
0.0015181058
0.0010733386
0.00073415243
0.00048028264
0.00029474791
0.00016331922
7.4046743e-05
1.7634107e-05
-1.3376263e-05
-2.567145e-05
-2.4992551e-05
-1.5081377e-05
1.745891e-06
0.010844802
0.010546765
0.010131817
0.0096117719
0.0089832694
0.0082204547
0.0073999659
0.0065193539
0.0056330583
0.0048028396
0.00403286
0.0033476118
0.0027560801
0.0022520508
0.0018271368
0.0014716107
0.0011759932
0.00093123529
0.00072899175
0.00056171996
0.00042271045
0.00030600791
0.0002062363
0.0001186514
3.9220155e-05
0.00892393
0.0086858687
0.008441758
0.0081851407
0.0078373701
0.0074026334
0.0068904972
0.0063439674
0.0057575826
0.0051565668
0.0045585909
0.0039799247
0.0034367096
0.0029377675
0.0024877053
0.0020868818
0.0017334532
0.0014237232
0.0011529371
0.00091595368
0.00070760618
0.00052292883
0.0003572585
0.00020626342
6.5751085e-05
0.0083660099
0.0080195851
0.0076991928
0.0074160413
0.0071590084
0.0068835514
0.0065685043
0.0062025446
0.005787663
0.0053355859
0.0048565079
0.0043674518
0.0038823778
0.0034136343
0.0029701637
0.0025559642
0.0021742783
0.0018254054
0.0015078804
0.0012192228
0.00095628156
0.00071555922
0.00049341933
0.00028665223
9.1512376e-05
0.0080371293
0.0077344075
0.0074242991
0.0071423842
0.0068825255
0.0066242452
0.0063459143
0.0060398985
0.0057195702
0.00535982
0.0049680144
0.0045567798
0.0041334586
0.0037085963
0.0032906411
0.002885714
0.0024985418
0.0021319948
0.0017870916
0.0014638813
0.001161348
0.00087766535
0.00061051794
0.0003574795
0.00011546059
0.0076031341
0.0073513437
0.0070866333
0.006815907
0.006554355
0.0062988872
0.0060387367
0.0057765852
0.0054950648
0.005197585
0.0048785023
0.0045359026
0.0041714797
0.0037963354
0.0034165802
0.0030376759
0.0026645855
0.0023011348
0.0019493886
0.0016115671
0.0012883803
0.00097945089
0.00068382972
0.00040043962
0.0001284956
0.0070285354
0.0067801089
0.0065338672
0.0062852482
0.0060434118
0.005809155
0.0055795427
0.0053516174
0.0051149944
0.0048661205
0.0045997896
0.0043115595
0.0040070442
0.0036854941
0.0033518425
0.0030109782
0.0026674321
0.0023255525
0.0019857101
0.0016531303
0.001329608
0.0010156157
0.00071142774
0.00041737119
0.00013385904
0.0063222337
0.0061114107
0.0058906808
0.0056659272
0.0054467593
0.0052339671
0.0050283627
0.0048266723
0.0046223363
0.004410367
0.0041867481
0.0039477388
0.0036934766
0.0034226347
0.0031370761
0.0028399962
0.00253478
0.0022240663
0.0019138171
0.0016039952
0.0012970711
0.0009949715
0.00069924631
0.0004113549
0.00013219256
0.0055908451
0.0054065392
0.0052111546
0.0050103794
0.0048112439
0.0046190862
0.0044340754
0.0042533229
0.0040741775
0.0038914035
0.0037029343
0.0035041069
0.0032926027
0.0030671616
0.0028279314
0.0025758424
0.0023131188
0.0020420607
0.0017660495
0.0014871364
0.0012073296
0.00092909521
0.00065432812
0.0003856056
0.00012468577
0.0048828614
0.0047189795
0.0045452586
0.004366895
0.0041899011
0.0040158189
0.0038474002
0.0036839555
0.0035240823
0.0033647108
0.0032027913
0.003034916
0.0028582281
0.0026710196
0.0024719694
0.0022612383
0.0020395154
0.001808613
0.0015705658
0.0013273449
0.0010809319
0.00083359465
0.0005869502
0.00034662285
0.00011448342
0.0042282457
0.0040829848
0.0039277052
0.0037684551
0.0036093662
0.0034526044
0.0032997768
0.0031513181
0.0030067319
0.0028647904
0.0027228251
0.0025781903
0.0024282538
0.0022711242
0.0021052973
0.0019301102
0.0017455187
0.0015523128
0.0013517593
0.0011453268
0.00093481266
0.0007222605
0.00050938199
0.00030210566
0.00010112315
0.0036355174
0.0035062216
0.003367063
0.0032239103
0.0030802549
0.0029383862
0.0027995855
0.0026642913
0.0025327662
0.0024043599
0.0022778639
0.002151266
0.0020224157
0.0018894904
0.0017509042
0.001605655
0.0014532837
0.0012939688
0.0011283723
0.00095753683
0.00078288575
0.00060615529
0.00042900125
0.00025471505
8.4278617e-05
0.0030993484
0.0029830259
0.0028583277
0.0027295911
0.002599857
0.002471204
0.002344959
0.0022216622
0.0021018544
0.001985543
0.0018721419
0.0017604442
0.0016488836
0.0015359295
0.0014201033
0.0013003469
0.0011759797
0.0010468016
0.00091302555
0.00077526585
0.00063451232
0.00049205467
0.00034907426
0.000207196
6.8024165e-05
0.0026116299
0.0025070763
0.0023954585
0.0022800776
0.0021634294
0.0020473323
0.0019330779
0.0018214838
0.0017130943
0.0016082135
0.0015068063
0.0014082768
0.0013115841
0.0012156167
0.0011192463
0.0010214132
0.00092137812
0.00081870085
0.00071325677
0.00060528325
0.00049531703
0.00038413989
0.00027247393
0.00016183928
5.3460436e-05
0.0021678065
0.0020746435
0.0019752986
0.0018724506
0.0017682265
0.0016642776
0.0015618583
0.0014619158
0.0013649436
0.0012714779
0.0011816951
0.001095448
0.0010122852
0.00093139204
0.00085195152
0.00077310862
0.00069412507
0.00061444975
0.00053377412
0.00045199977
0.00036928503
0.00028598307
0.00020251074
0.00012048862
4.0336128e-05
0.0017668793
0.0016844232
0.001596594
0.0015055338
0.0014131488
0.0013209285
0.0012300539
0.0011415264
0.0010560224
0.00097401609
0.00089584153
0.00082153645
0.00075098447
0.0006837802
0.00061936343
0.00055708383
0.00049630333
0.00043645704
0.0003771137
0.00031797726
0.00025892479
0.00019998861
0.00014126184
8.3868389e-05
2.7903371e-05
0.0014079581
0.0013355845
0.0012585216
0.0011785855
0.0010975316
0.0010166685
0.00093704741
0.00085967934
0.00078538358
0.00071464807
0.00064785231
0.00058516015
0.00052656107
0.00047192609
0.00042095107
0.00037318321
0.0003281026
0.00028519248
0.00024397655
0.00020405039
0.00016510329
0.00012691441
8.9267633e-05
5.2811447e-05
1.7452041e-05
0.0010903861
0.0010274558
0.00096051528
0.00089111043
0.0008207899
0.00075075178
0.00068204767
0.00061551878
0.00055198576
0.00049204886
0.0004360979
0.00038445581
0.00033713225
0.00029406783
0.00025513857
0.00022005993
0.00018845221
0.00015985521
0.00013379892
0.00010982788
8.7517921e-05
6.6475225e-05
4.6266734e-05
2.726279e-05
9.1293519e-06
0.00081363501
0.00075955596
0.00070193435
0.00064232808
0.00058209283
0.00052230692
0.00046391684
0.00040771817
0.00035440202
0.00030459994
0.00025881136
0.00021732364
0.00018035839
0.00014784692
0.00011965907
9.5608816e-05
7.544204e-05
5.8776116e-05
4.5170175e-05
3.4157644e-05
2.5254356e-05
1.7987669e-05
1.1856366e-05
6.9010971e-06
2.6393321e-06
0.00057645669
0.00053054817
0.00048154758
0.00043103246
0.00038017187
0.0003298943
0.00028108432
0.00023450696
0.00019080982
0.00015048718
0.00011395842
8.1690326e-05
5.3879148e-05
3.0581942e-05
1.1763818e-05
-2.8277876e-06
-1.339098e-05
-2.0261917e-05
-2.383165e-05
-2.4554944e-05
-2.2943376e-05
-1.9515795e-05
-1.4831365e-05
-8.7529214e-06
-2.0089662e-06
0.00037628106
0.00033847408
0.00029729338
0.00025521403
0.00021301125
0.00017140915
0.0001313447
9.357567e-05
5.8644226e-05
2.7002942e-05
-9.9783905e-07
-2.5080878e-05
-4.4945964e-05
-6.0361146e-05
-7.1404535e-05
-7.8163614e-05
-8.0858393e-05
-7.9849398e-05
-7.5504312e-05
-6.8258305e-05
-5.8618265e-05
-4.7119516e-05
-3.4379923e-05
-2.0487802e-05
-6.2222812e-06
0.00020876897
0.00017745162
0.00014519612
0.00011194561
7.770755e-05
4.4019186e-05
1.1769664e-05
-1.8084605e-05
-4.5143878e-05
-6.902712e-05
-8.9427459e-05
-0.00010616507
-0.00011905341
-0.00012789354
-0.00013259946
-0.00013315118
-0.00012974127
-0.00012267853
-0.00011234511
-9.918031e-05
-8.3680942e-05
-6.6393525e-05
-4.7958407e-05
-2.8535045e-05
-8.8279804e-06
7.8935596e-05
5.2650151e-05
2.5070809e-05
-3.3773261e-06
-3.093213e-05
-5.7167744e-05
-8.1631128e-05
-0.00010411144
-0.00012407367
-0.00014110542
-0.00015486298
-0.00016516739
-0.00017205863
-0.00017529612
-0.00017485904
-0.00017061186
-0.00016264084
-0.00015119085
-0.00013663459
-0.00011940162
-9.9956888e-05
-7.8838716e-05
-5.6655587e-05
-3.3575175e-05
-1.0344448e-05
-2.1836715e-05
-4.3338307e-05
-6.578295e-05
-8.8443912e-05
-0.00011037454
-0.00013098412
-0.00014984981
-0.00016663561
-0.00018098847
-0.00019261316
-0.00020131238
-0.00020684452
-0.00020886009
-0.00020740665
-0.00020240194
-0.00019401488
-0.00018245335
-0.00016784808
-0.00015047455
-0.00013069815
-0.0001089375
-8.5644266e-05
-6.1380529e-05
-3.6228005e-05
-1.0744368e-05
-9.7526209e-05
-0.00011481954
-0.00013273053
-0.00015056162
-0.00016761485
-0.00018334704
-0.00019732632
-0.00020925111
-0.00021882461
-0.00022580996
-0.00023002276
-0.0002312889
-0.00022945566
-0.00022450064
-0.00021643346
-0.00020536682
-0.00019146625
-0.00017489822
-0.00015591064
-0.00013482628
-0.00011200999
-8.7865032e-05
-6.2882928e-05
-3.7095209e-05
-1.1352453e-05
-0.00015164282
-0.0001653433
-0.00017939124
-0.00019316953
-0.00020610914
-0.00021772606
-0.00022764202
-0.0002355599
-0.00024123743
-0.00024448738
-0.00024516531
-0.00024315957
-0.00023839803
-0.00023087487
-0.00022063206
-0.00020777139
-0.00019243625
-0.00017480862
-0.00015512266
-0.00013366404
-0.00011075162
-8.6748634e-05
-6.2107938e-05
-3.6586188e-05
-1.1040448e-05
-0.00018752765
-0.00019821842
-0.00020903738
-0.00021945511
-0.0002289878
-0.00023722251
-0.00024382514
-0.00024852335
-0.00025111949
-0.00025146678
-0.00024946368
-0.00024504596
-0.00023818894
-0.00022891405
-0.00021728367
-0.00020340213
-0.00018740922
-0.00016948243
-0.00014983645
-0.00012872152
-0.00010642022
-8.3248034e-05
-5.9599113e-05
-3.5032289e-05
-1.0437385e-05
-0.00020832478
-0.00021653312
-0.00022470175
-0.00023237709
-0.00023914829
-0.00024466157
-0.00024862673
-0.00025081268
-0.00025105481
-0.00024924117
-0.00024530468
-0.00023921757
-0.00023098775
-0.00022066131
-0.00020831656
-0.00019406343
-0.00017804049
-0.00016041526
-0.0001413819
-0.00012115992
-9.9993113e-05
-7.8146894e-05
-5.5961839e-05
-3.2828008e-05
-9.6490134e-06
-0.00021693226
-0.00022312439
-0.00022915406
-0.00023463496
-0.00023921654
-0.00024259627
-0.00024452827
-0.00024482223
-0.00024334353
-0.0002400087
-0.00023477821
-0.00022765113
-0.00021865798
-0.00020786393
-0.00019535884
-0.00018125676
-0.00016569406
-0.00014882755
-0.00013083201
-0.00011189881
-9.2234009e-05
-7.2054434e-05
-5.165227e-05
-3.0244044e-05
-8.7545231e-06
-0.00021597288
-0.00022055469
-0.00022489053
-0.00022865234
-0.00023154186
-0.00023330245
-0.00023372836
-0.00023266332
-0.000230001
-0.00022568215
-0.00021968848
-0.0002120377
-0.00020278041
-0.00019198939
-0.00017976246
-0.00016621489
-0.00015147979
-0.00013570304
-0.00011904229
-0.00010166459
-8.3743238e-05
-6.5451307e-05
-4.7030622e-05
-2.7502221e-05
-7.7939482e-06
-0.00020778005
-0.0002110993
-0.00021412161
-0.00021656981
-0.00021819189
-0.00021877186
-0.0002181373
-0.00021616082
-0.00021276064
-0.00020789763
-0.00020157025
-0.00019381002
-0.00018467672
-0.00017425066
-0.00016263161
-0.00014993487
-0.00013628649
-0.00012182226
-0.00010668503
-9.1022947e-05
-7.4984689e-05
-5.8708335e-05
-4.2409547e-05
-2.4768367e-05
-6.7832601e-06
-0.00019439198
-0.00019674232
-0.00019877088
-0.00020024485
-0.00020095272
-0.00020071429
-0.00019938494
-0.00019686171
-0.00019308322
-0.0001880259
-0.00018170034
-0.0001741468
-0.00016543009
-0.00015563381
-0.00014485669
-0.00013321002
-0.000120813
-0.00010779134
-9.4275636e-05
-8.0400398e-05
-6.630078e-05
-5.2098362e-05
-3.8042275e-05
-2.2164684e-05
-5.7032268e-06
-0.00017755421
-0.00017917856
-0.00018047705
-0.00018125499
-0.00018133568
-0.00018056901
-0.00017883482
-0.00017605207
-0.00017217475
-0.0001671905
-0.00016111776
-0.00015400161
-0.00014590865
-0.00013692245
-0.00012713694
-0.00011665775
-0.00010559624
-9.4068255e-05
-8.2193806e-05
-7.0098413e-05
-5.7915307e-05
-4.5781821e-05
-3.4129305e-05
-1.9719768e-05
-4.4873802e-06
-0.00015872877
-0.00015982329
-0.00016060319
-0.00016090641
-0.00016058616
-0.00015951829
-0.00015760336
-0.00015477798
-0.00015100875
-0.00014629079
-0.00014064693
-0.00013412404
-0.0001267878
-0.00011872135
-0.00011000631
-0.00010074367
-9.1035807e-05
-8.0987704e-05
-7.0707822e-05
-6.0311274e-05
-4.9927465e-05
-3.969931e-05
-3.063307e-05
-1.7255112e-05
-3.1983827e-06
-0.00013910835
-0.0001398272
-0.00014025333
-0.00014025231
-0.00013970279
-0.00013850719
-0.00013657587
-0.00013386365
-0.00013034665
-0.00012602427
-0.00012092084
-0.00011508352
-0.00010857185
-0.00010148154
-9.3855549e-05
-8.5803986e-05
-7.7416533e-05
-6.8785108e-05
-6.0003334e-05
-5.1168622e-05
-4.23876e-05
-3.3762683e-05
-2.6271251e-05
-1.472075e-05
-2.5204951e-06
-0.00011963158
-0.00012009326
-0.00012029127
-0.00012011486
-0.00011946404
-0.00011825597
-0.00011642529
-0.00011393086
-0.000110756
-0.00010690535
-0.00010240402
-9.7295479e-05
-9.1637131e-05
-8.5499537e-05
-7.8948116e-05
-7.2064332e-05
-6.4927858e-05
-5.761718e-05
-5.0209013e-05
-4.2778107e-05
-3.539705e-05
-2.8128746e-05
-2.1305366e-05
-1.2204261e-05
-2.3429542e-06
-0.00010099809
-0.00010129084
-0.00010135248
-0.0001010919
-0.00010042718
-9.9290277e-05
-9.7630072e-05
-9.5414003e-05
-9.2629976e-05
-8.9284876e-05
-8.5403084e-05
-8.1023761e-05
-7.6198478e-05
-7.0986826e-05
-6.5451594e-05
-5.9660348e-05
-5.3680114e-05
-4.7575431e-05
-4.140617e-05
-3.5225351e-05
-2.9074905e-05
-2.2973826e-05
-1.7050684e-05
-9.8108525e-06
-2.0494838e-06
-8.368792e-05
-8.3874809e-05
-8.3863605e-05
-8.3579959e-05
-8.2957883e-05
-8.1942174e-05
-8.0491937e-05
-7.8582406e-05
-7.6205185e-05
-7.3367823e-05
-7.0092644e-05
-6.6414295e-05
-6.2377629e-05
-5.8034086e-05
-5.3438183e-05
-4.8646583e-05
-4.3714227e-05
-3.8692959e-05
-3.3628071e-05
-2.8555875e-05
-2.3499611e-05
-1.8460592e-05
-1.3514628e-05
-7.7589286e-06
-1.6571924e-06
-6.7991545e-05
-6.8113561e-05
-6.8070311e-05
-6.7801948e-05
-6.725504e-05
-6.6385547e-05
-6.5161091e-05
-6.3562548e-05
-6.1584621e-05
-5.9234698e-05
-5.6532432e-05
-5.350791e-05
-5.0198864e-05
-4.6648731e-05
-4.2903447e-05
-3.9009612e-05
-3.5011849e-05
-3.0950677e-05
-2.6859983e-05
-2.2764831e-05
-1.8678517e-05
-1.4598425e-05
-1.0583555e-05
-6.0457571e-06
-1.275142e-06
-5.4046922e-05
-5.4127812e-05
-5.4074983e-05
-5.3840994e-05
-5.3383215e-05
-5.2666748e-05
-5.1665686e-05
-5.036552e-05
-4.8763017e-05
-4.6865017e-05
-4.4688607e-05
-4.2258784e-05
-3.9606716e-05
-3.6767959e-05
-3.3780071e-05
-3.0680547e-05
-2.7505183e-05
-2.4284877e-05
-2.1045007e-05
-1.7803308e-05
-1.4568152e-05
-1.1337233e-05
-8.1608408e-06
-4.633993e-06
-9.4646791e-07
-4.1857535e-05
-4.1909445e-05
-4.1856301e-05
-4.1661428e-05
-4.1291978e-05
-4.0720909e-05
-3.9928186e-05
-3.8902547e-05
-3.7641331e-05
-3.6151334e-05
-3.4446734e-05
-3.2547547e-05
-3.0478762e-05
-2.8268656e-05
-2.5946863e-05
-2.3542759e-05
-2.1083879e-05
-1.8593782e-05
-1.6091265e-05
-1.3589166e-05
-1.1093508e-05
-8.6032925e-06
-6.162159e-06
-3.4783983e-06
-6.813949e-07
-3.1276548e-05
-3.13045e-05
-3.1252751e-05
-3.1094111e-05
-3.080429e-05
-3.0363356e-05
-2.9756915e-05
-2.8976683e-05
-2.8020499e-05
-2.689382e-05
-2.5607526e-05
-2.4177483e-05
-2.2623107e-05
-2.0965475e-05
-1.9227072e-05
-1.7429933e-05
-1.5594376e-05
-1.3737802e-05
-1.1873829e-05
-1.0011788e-05
-8.1565881e-06
-6.3090941e-06
-4.5073275e-06
-2.5319793e-06
-4.7537212e-07
-2.2003028e-05
-2.2008743e-05
-2.1957377e-05
-2.1830244e-05
-2.1610685e-05
-2.1285167e-05
-2.0844215e-05
-2.0282606e-05
-1.9599259e-05
-1.8797578e-05
-1.7885198e-05
-1.6873571e-05
-1.5776663e-05
-1.4609325e-05
-1.3387322e-05
-1.2126031e-05
-1.0839496e-05
-9.5396752e-06
-8.2358699e-06
-6.9346375e-06
-5.6401837e-06
-4.3554247e-06
-3.1141332e-06
-1.7446888e-06
-3.1528022e-07
-1.3425552e-05
-1.3415347e-05
-1.3369599e-05
-1.3277442e-05
-1.3129223e-05
-1.291718e-05
-1.2635986e-05
-1.2282924e-05
-1.1858047e-05
-1.1363347e-05
-1.0803318e-05
-1.018457e-05
-9.5149911e-06
-8.8044206e-06
-8.0620683e-06
-7.2971958e-06
-6.5180738e-06
-5.7317449e-06
-4.9436805e-06
-4.1578596e-06
-3.37742e-06
-2.6063466e-06
-1.8757147e-06
-1.0517507e-06
-1.7943013e-07
-4.7730013e-06
-4.7609083e-06
-4.7357817e-06
-4.6941183e-06
-4.6328274e-06
-4.54945e-06
-4.4423567e-06
-4.3108385e-06
-4.1551753e-06
-3.9763099e-06
-3.7756378e-06
-3.5553014e-06
-3.3179232e-06
-3.0667732e-06
-2.8054507e-06
-2.5369817e-06
-2.2641265e-06
-1.9892403e-06
-1.7141372e-06
-1.4401135e-06
-1.1682983e-06
-9.0031712e-07
-6.6361762e-07
-3.7652859e-07
-4.9755234e-08
)
;

boundaryField
{
    Walls
    {
        type            zeroGradient;
    }
    Inlet
    {
        type            fixedValue;
        value           uniform 500;
    }
    Outlet
    {
        type            fixedValue;
        value           uniform 0;
    }
    Front
    {
        type            wedge;
    }
    Back
    {
        type            wedge;
    }
    defaultFaces
    {
        type            empty;
    }
}


// ************************************************************************* //
