/*--------------------------------*- C++ -*----------------------------------*\
| =========                 |                                                 |
| \\      /  F ield         | OpenFOAM: The Open Source CFD Toolbox           |
|  \\    /   O peration     | Version:  4.0                                   |
|   \\  /    A nd           | Web:      www.OpenFOAM.org                      |
|    \\/     M anipulation  |                                                 |
\*---------------------------------------------------------------------------*/
FoamFile
{
    version     2.0;
    format      ascii;
    class       volScalarField;
    location    "0.68";
    object      k;
}
// * * * * * * * * * * * * * * * * * * * * * * * * * * * * * * * * * * * * * //

dimensions      [0 2 -2 0 0 0 0];

internalField   nonuniform List<scalar> 
1740
(
0.0087897838
0.0091522442
0.018247174
0.0092578781
0.0099464041
0.027145483
0.0096208934
0.010409931
0.034151265
0.0098165181
0.010679058
0.041268487
0.0099819617
0.011031527
0.047549292
0.010071018
0.011514018
0.051804069
0.01013804
0.011817662
0.055841971
0.010196615
0.012041565
0.059142256
0.01020712
0.012353259
0.062253183
0.010163735
0.0128965
0.064807263
0.010109839
0.013218494
0.066149905
0.010066705
0.013318078
0.067636754
0.0099907479
0.013485881
0.068658011
0.0098583558
0.013584838
0.069696474
0.0097168925
0.013784811
0.070660461
0.0096081713
0.013938505
0.070588168
0.0094793428
0.013911993
0.071312959
0.0093411047
0.01405314
0.072011494
0.00919767
0.014191857
0.071927231
0.0090985299
0.014218691
0.072399881
0.0089937384
0.014288501
0.072772539
0.0089461441
0.01447056
0.073059577
0.008831315
0.014742231
0.072888377
0.0086975936
0.014629577
0.072662005
0.0086008588
0.014638127
0.072923635
0.0084870715
0.014741684
0.072577009
0.0084364272
0.014759003
0.072295889
0.0083635655
0.01491812
0.072180279
0.0083814755
0.015144044
0.071371823
0.0089727769
0.016205053
0.066551968
0.012760636
0.018120642
0.047272936
0.023920068
0.031117753
0.039751507
0.010254297
0.012503377
0.013686088
0.00425374
0.0045856127
0.0046566446
0.0020658001
0.002109064
0.0020865186
0.001136967
0.0011382337
0.0011215369
0.00068978411
0.00068744348
0.00067994405
0.0004508259
0.00044960134
0.00044715141
0.00031194584
0.00031168267
0.00031148768
0.00022533983
0.00022553286
0.00022618928
0.00016788353
0.00016823012
0.00016910966
0.00012764747
0.00012800771
0.00012885506
9.8168928e-05
9.8488231e-05
9.9215255e-05
7.5802227e-05
7.6065064e-05
7.6653804e-05
5.8412803e-05
5.861987e-05
5.907958e-05
4.4702761e-05
4.4860733e-05
4.5209721e-05
3.3846773e-05
3.396399e-05
3.4222175e-05
2.5287281e-05
2.5371937e-05
2.5558055e-05
1.8615795e-05
1.8675275e-05
1.8805888e-05
1.3504742e-05
1.3545376e-05
1.3634528e-05
9.6716027e-06
9.6985925e-06
9.7577613e-06
6.864166e-06
6.8815986e-06
6.9197967e-06
4.8584119e-06
4.8693685e-06
4.893384e-06
3.4626734e-06
3.4694124e-06
3.4841798e-06
2.5176955e-06
2.5217811e-06
2.5307216e-06
1.8953167e-06
1.8977744e-06
1.9031467e-06
1.497459e-06
1.4989454e-06
1.5021919e-06
1.2521157e-06
1.2530373e-06
1.2550489e-06
1.1079961e-06
1.108596e-06
1.1099047e-06
1.0295215e-06
1.0299403e-06
1.0308539e-06
9.9258018e-07
9.9289674e-07
9.9358745e-07
9.811507e-07
9.8140785e-07
9.8196908e-07
9.8474261e-07
9.8496291e-07
9.8544378e-07
9.9653011e-07
9.9672517e-07
9.971509e-07
1.0120312e-06
1.012207e-06
1.0125904e-06
1.0281946e-06
1.0283541e-06
1.0287021e-06
1.042778e-06
1.0429232e-06
1.0432395e-06
1.0539301e-06
1.0540622e-06
1.0543497e-06
1.0599104e-06
1.0600303e-06
1.0602911e-06
1.0589037e-06
1.0590123e-06
1.0592483e-06
1.0489056e-06
1.0490039e-06
1.0492168e-06
1.0276667e-06
1.0277551e-06
1.0279466e-06
9.9270178e-07
9.9278102e-07
9.9295233e-07
9.4136927e-07
9.4143971e-07
9.415917e-07
8.7106065e-07
8.7112229e-07
8.7125499e-07
7.7949916e-07
7.7955131e-07
7.7966319e-07
6.6513067e-07
6.651716e-07
6.6525859e-07
5.2760323e-07
5.276303e-07
5.2768612e-07
3.6842161e-07
3.6843358e-07
3.6845533e-07
1.9205607e-07
1.9205752e-07
1.9205732e-07
0.056187094
0.06085022
0.04609064
0.046552193
0.012449667
0.011325981
0.0043487404
0.0041160343
0.0019977672
0.0019397856
0.0010935171
0.0010794607
0.00067160622
0.00067025958
0.00044570139
0.00044804901
0.00031241617
0.00031556254
0.00022778282
0.00023076776
0.00017072414
0.00017326568
0.00013026939
0.00013233045
0.00010037624
0.0001020029
7.7572348e-05
7.8831744e-05
5.9787588e-05
6.0746165e-05
4.5743194e-05
4.6460044e-05
3.4615082e-05
3.5140611e-05
2.58405e-05
2.621717e-05
1.900372e-05
1.9267006e-05
1.3769367e-05
1.3948527e-05
9.8471463e-06
9.9657498e-06
6.9774522e-06
7.0538647e-06
4.9296142e-06
4.9775805e-06
3.5064391e-06
3.535869e-06
2.5441776e-06
2.5619366e-06
1.9112203e-06
1.9218553e-06
1.5070642e-06
1.5134696e-06
1.2580639e-06
1.2620205e-06
1.1118644e-06
1.114432e-06
1.0322211e-06
1.0340108e-06
9.9462105e-07
9.959731e-07
9.8280892e-07
9.8390702e-07
9.8616323e-07
9.8710334e-07
9.977875e-07
9.9861848e-07
1.0131633e-06
1.0139098e-06
1.0292212e-06
1.0298963e-06
1.0437108e-06
1.0443221e-06
1.0547771e-06
1.0553298e-06
1.0606779e-06
1.0611765e-06
1.0595975e-06
1.0600458e-06
1.0495311e-06
1.0499327e-06
1.0282283e-06
1.0285867e-06
9.932036e-07
9.9352149e-07
9.4181387e-07
9.4209341e-07
8.7144824e-07
8.7169016e-07
7.7982535e-07
7.8002771e-07
6.6538352e-07
6.6553995e-07
5.2776411e-07
5.2786532e-07
3.6848326e-07
3.6853838e-07
1.9206099e-07
1.9214673e-07
5.2627685e-06
2.6977584e-05
0.0001344118
0.00030494222
0.00046212583
0.00057305948
0.00064334805
0.00068698041
0.0007157253
0.0007367096
0.00075397351
0.00077054173
0.00078607004
0.00080031976
0.00081298059
0.00082350311
0.00083090314
0.00083351315
0.00082861268
0.00081191683
0.00077686917
0.00071377732
0.000609146
0.00044595236
0.00020371217
2.5727154e-06
5.4736203e-05
0.00025103085
0.00051587455
0.00072776523
0.00085925376
0.00093517592
0.00097968518
0.001008209
0.0010287768
0.0010456367
0.0010613271
0.0010757173
0.0010885419
0.0010994081
0.0011076935
0.0011122669
0.0011112121
0.0011013265
0.0010774805
0.0010316665
0.0009516123
0.0008190343
0.0006083802
0.0002882654
7.9658433e-06
0.00015983119
0.00061566624
0.0010793241
0.0013622563
0.0015049673
0.0015724453
0.0016040493
0.0016197535
0.0016280213
0.0016332367
0.0016363203
0.0016384815
0.0016390762
0.0016376157
0.0016336302
0.0016260648
0.0016131262
0.0015913927
0.0015552612
0.0014956985
0.0013979769
0.0012373754
0.00097093064
0.00052293632
3.7572089e-05
0.00057866411
0.0016840533
0.002434511
0.0027710654
0.0028849431
0.0028944398
0.0028643781
0.0028245448
0.0027798784
0.0027354283
0.0026930753
0.0026533169
0.0026129978
0.0025715776
0.0025294726
0.0024861897
0.0024403094
0.0023890851
0.0023277383
0.0022483531
0.0021376335
0.0019712342
0.0016961721
0.0011554019
0.00028068207
0.0024425911
0.0049079774
0.0060274384
0.0063730404
0.0063116066
0.0060828921
0.0058204082
0.0055717652
0.0053220006
0.0050826526
0.0048591147
0.0046562333
0.004459727
0.0042687545
0.0040881129
0.0039187375
0.0037600651
0.0036102999
0.0034659566
0.0033213836
0.0031683259
0.0029957514
0.0027952808
0.0025852561
0.0023572613
0.010504087
0.016543913
0.018491653
0.018033461
0.01648089
0.01467019
0.012986613
0.011508758
0.010235467
0.0091464518
0.0082192862
0.0074286096
0.0067505301
0.006167348
0.0056658561
0.0052347547
0.0048637788
0.0045435686
0.0042653245
0.0040202198
0.0037992909
0.0035939378
0.003403447
0.0032432483
0.044953678
0.034079516
0.02656645
0.021392752
0.017731411
0.015026232
0.012941131
0.011290113
0.0099636917
0.0088855312
0.0079979844
0.0072573819
0.006630611
0.006092952
0.0056263146
0.0052181751
0.004859957
0.004545246
0.0042686265
0.0040249211
0.0038085849
0.0036136674
0.0034344535
0.0032722944
0.0031423582
0.037187855
0.030909012
0.027715537
0.025092993
0.022227926
0.019259049
0.016546828
0.014253474
0.012376757
0.010839326
0.009571811
0.0085176347
0.0076333541
0.0068891175
0.0062611859
0.0057301412
0.005279711
0.0048962256
0.0045679786
0.004284471
0.0040356537
0.0038117449
0.0036035857
0.0034103289
0.0032478534
0.010193182
0.0095241103
0.0091871563
0.0088692162
0.0084087577
0.0078456305
0.007290189
0.0067956433
0.0063464047
0.0059498798
0.0056029653
0.005299803
0.0050151781
0.0047520534
0.0045118635
0.0042939145
0.0040960969
0.0039155053
0.003748269
0.003589345
0.0034319983
0.0032672664
0.0030836673
0.0028726412
0.0026527935
0.0039598711
0.0038880832
0.0038666033
0.0038265682
0.0037328414
0.0035985874
0.0034596977
0.0033310896
0.0032152592
0.0031143245
0.0030272894
0.002951035
0.0028799862
0.0028135674
0.0027515834
0.0026931979
0.0026367182
0.0025795278
0.0025178326
0.0024461174
0.002356056
0.0022342258
0.0020562737
0.0017684926
0.0012084562
0.0019229699
0.0019369908
0.0019626288
0.0019779378
0.0019719839
0.0019483306
0.0019179539
0.0018878418
0.0018610417
0.0018388643
0.0018210893
0.0018064575
0.0017932932
0.0017809342
0.0017689832
0.0017562064
0.001740703
0.0017196586
0.0016889923
0.0016427216
0.0015717894
0.0014618165
0.0012886104
0.0010092438
0.00054626253
0.0010846708
0.001103734
0.0011277959
0.0011482685
0.0011606817
0.0011658261
0.0011672767
0.0011680198
0.0011697863
0.001173316
0.0011785575
0.0011849272
0.0011916196
0.0011979328
0.0012030772
0.0012058106
0.0012042835
0.0011958449
0.0011767554
0.0011417247
0.0010831635
0.00098999702
0.00084592615
0.0006275151
0.000303813
0.00067810995
0.00069289771
0.0007106385
0.00072755108
0.00074153542
0.00075256387
0.00076185656
0.00077071431
0.00078002538
0.00079020376
0.0008012399
0.00081281085
0.00082440432
0.00083539506
0.00084495443
0.00085189923
0.00085457758
0.00085073112
0.00083732027
0.00081029677
0.00076432586
0.00069250293
0.00058617251
0.0004346474
0.0002201722
0.0004551031
0.00046590336
0.00047862506
0.00049150836
0.00050349064
0.00051438155
0.00052458146
0.00053463884
0.00054498129
0.00055581439
0.00056711153
0.00057864506
0.00059002455
0.00060070812
0.00060995526
0.00061675102
0.00061973361
0.00061712006
0.00060663854
0.00058549197
0.00055043074
0.00049814423
0.00042653861
0.00033855376
0.00025311731
0.00032130064
0.0003292074
0.00033842882
0.00034810736
0.00035767946
0.00036696563
0.00037607293
0.000385217
0.00039458235
0.00040424714
0.00041415659
0.00042412011
0.00043381579
0.00044278315
0.00045039451
0.00045581576
0.00045796882
0.00045550505
0.0004468065
0.00043005278
0.00040344096
0.00036575407
0.00031770669
0.00026492943
0.00022345025
0.00023529469
0.00024116229
0.00024795926
0.00025525156
0.00026272684
0.00027024918
0.0002778219
0.00028551434
0.00029338735
0.0003014466
0.00030961534
0.00031772233
0.00032549441
0.00033254517
0.00033835755
0.00034226363
0.00034343014
0.00034085821
0.00033341307
0.00031991251
0.00029932641
0.00027118357
0.00023635532
0.00019846944
0.000163072
0.0001767919
0.00018119948
0.00018628001
0.00019180536
0.00019759666
0.00020355509
0.0002096507
0.00021588838
0.00022226973
0.00022876206
0.00023527839
0.00024166417
0.00024768695
0.00025302676
0.00025726509
0.0002598757
0.00026022157
0.0002575643
0.00025109461
0.00023999483
0.0002235423
0.0002012367
0.0001728262
0.00013765672
8.9455429e-05
0.00013505723
0.00013839211
0.00014222363
0.00014642617
0.00015089319
0.00015555394
0.00016037043
0.00016532125
0.00017038073
0.00017549977
0.00018059096
0.00018551726
0.0001900832
0.00019402718
0.0001970148
0.00019863516
0.00019840233
0.00019576503
0.00019012745
0.00018088037
0.00016743048
0.00014918033
0.00012531492
9.4001221e-05
5.0123451e-05
0.00010409785
0.00010662644
0.00010952587
0.00011272326
0.00011615228
0.00011976203
0.00012351604
0.00012738404
0.00013133048
0.00013530209
0.00013921743
0.00014295835
0.00014636307
0.00014922043
0.00015126599
0.00015218075
0.00015159357
0.00014908842
0.00014421619
0.00013650728
0.00012547296
0.00011056642
9.1043869e-05
6.5627178e-05
3.2024392e-05
8.0428565e-05
8.2340467e-05
8.4530232e-05
8.6953408e-05
8.9566951e-05
9.2333776e-05
9.5222099e-05
9.8201098e-05
0.00010123405
0.00010427035
0.00010723835
0.00011003895
0.00011254057
0.00011457523
0.00011593591
0.00011637634
0.00011561323
0.00011333128
0.00010919013
0.00010283074
9.3875932e-05
8.191866e-05
6.6497219e-05
4.7087869e-05
2.3138832e-05
6.1950494e-05
6.3385332e-05
6.5027384e-05
6.6848517e-05
6.8819849e-05
7.0914012e-05
7.3104756e-05
7.5364311e-05
7.7659101e-05
7.9944644e-05
8.2160599e-05
8.4226199e-05
8.6036607e-05
8.7460092e-05
8.8336501e-05
8.8477309e-05
8.7667468e-05
8.5669103e-05
8.2226696e-05
7.7073205e-05
6.9937063e-05
6.0554493e-05
4.8705963e-05
3.4338125e-05
1.7734383e-05
4.7355596e-05
4.8419315e-05
4.9635965e-05
5.0987144e-05
5.2452958e-05
5.4013208e-05
5.564697e-05
5.7330897e-05
5.9036446e-05
6.0726639e-05
6.2352542e-05
6.3850157e-05
6.5137742e-05
6.6113885e-05
6.6656543e-05
6.6623117e-05
6.585207e-05
6.4165951e-05
6.1376161e-05
5.7289935e-05
5.1721555e-05
4.4513728e-05
3.5584215e-05
2.5036003e-05
1.337088e-05
3.5794765e-05
3.6570256e-05
3.7456831e-05
3.844209e-05
3.9512202e-05
4.0652316e-05
4.1846264e-05
4.3075361e-05
4.4316621e-05
4.5540623e-05
4.6709096e-05
4.7772747e-05
4.866942e-05
4.9322667e-05
4.9641147e-05
4.9518766e-05
4.8836019e-05
4.746262e-05
4.5261929e-05
4.2098103e-05
3.7847882e-05
3.242104e-05
2.5796967e-05
1.8093088e-05
9.6691552e-06
2.6684874e-05
2.7238552e-05
2.7871217e-05
2.8574396e-05
2.9338433e-05
3.0152527e-05
3.1004532e-05
3.1880104e-05
3.2761516e-05
3.362627e-05
3.4445452e-05
3.5182233e-05
3.5790563e-05
3.6214206e-05
3.6386265e-05
3.6229369e-05
3.5656759e-05
3.4574505e-05
3.2885398e-05
3.0495329e-05
2.7323483e-05
2.3318405e-05
1.8482467e-05
1.290777e-05
6.8196607e-06
1.9593334e-05
1.997916e-05
2.0419743e-05
2.0909257e-05
2.1440962e-05
2.2007154e-05
2.2598935e-05
2.320568e-05
2.3814241e-05
2.4408019e-05
2.4965891e-05
2.5461172e-05
2.5860697e-05
2.6124148e-05
2.6203708e-05
2.6044223e-05
2.5584025e-05
2.4756718e-05
2.3494336e-05
2.173246e-05
1.9418135e-05
1.652153e-05
1.3052135e-05
9.0789253e-06
4.7524217e-06
1.4170248e-05
1.4432067e-05
1.473076e-05
1.5062343e-05
1.5422156e-05
1.5804787e-05
1.6203894e-05
1.6611846e-05
1.7019222e-05
1.7414182e-05
1.7781771e-05
1.8103218e-05
1.8355303e-05
1.8509877e-05
1.853361e-05
1.8388095e-05
1.8030465e-05
1.7414724e-05
1.6494139e-05
1.5225061e-05
1.3572671e-05
1.1519178e-05
9.0748664e-06
6.290475e-06
3.2919746e-06
1.0112319e-05
1.028516e-05
1.0482079e-05
1.0700395e-05
1.093691e-05
1.1187887e-05
1.1448912e-05
1.1714661e-05
1.1978578e-05
1.2232468e-05
1.2466038e-05
1.2666434e-05
1.2817815e-05
1.2901008e-05
1.2893331e-05
1.2768638e-05
1.249775e-05
1.2049398e-05
1.139195e-05
1.0496124e-05
9.3389861e-06
7.9096218e-06
6.2168814e-06
4.2976012e-06
2.2349596e-06
7.1481655e-06
7.2592026e-06
7.3855042e-06
7.5252622e-06
7.6763341e-06
7.836174e-06
8.0017705e-06
8.1694934e-06
8.3348913e-06
8.4924242e-06
8.6351749e-06
8.7545332e-06
8.8399101e-06
8.878508e-06
8.8551911e-06
8.7525074e-06
8.5509444e-06
8.2295679e-06
7.7672349e-06
7.1444733e-06
6.3462038e-06
5.3656053e-06
4.2095746e-06
2.9045914e-06
1.5063094e-06
5.0366959e-06
5.106193e-06
5.1850953e-06
5.2722039e-06
5.3660949e-06
5.4650741e-06
5.5671214e-06
5.6698123e-06
5.7701809e-06
5.8645514e-06
5.9483446e-06
6.0158738e-06
6.0601321e-06
6.0726426e-06
6.0434107e-06
5.9609499e-06
5.8123806e-06
5.5838161e-06
5.2612154e-06
4.8316922e-06
4.2853436e-06
3.6178527e-06
2.8341985e-06
1.9525039e-06
1.012666e-06
3.5720771e-06
3.6145561e-06
3.6626621e-06
3.7156099e-06
3.7724605e-06
3.8321011e-06
3.8932e-06
3.9541562e-06
4.013019e-06
4.0673822e-06
4.1142593e-06
4.1499454e-06
4.1698742e-06
4.1684651e-06
4.139003e-06
4.0737414e-06
3.9642301e-06
3.8013025e-06
3.5756204e-06
3.2786336e-06
2.9038096e-06
2.4483798e-06
1.9158207e-06
1.3182731e-06
6.8155851e-07
2.5837375e-06
2.6092442e-06
2.6380329e-06
2.6695888e-06
2.7032936e-06
2.7384126e-06
2.7740694e-06
2.8092058e-06
2.8425322e-06
2.8724628e-06
2.8970337e-06
2.9138151e-06
2.9198161e-06
2.9113675e-06
2.8840037e-06
2.8324213e-06
2.7507343e-06
2.6328039e-06
2.4723469e-06
2.2636087e-06
2.0022103e-06
1.6863445e-06
1.3184642e-06
9.0688204e-07
4.6881768e-07
1.9348786e-06
1.9500674e-06
1.9671428e-06
1.9857641e-06
2.0055211e-06
2.025923e-06
2.0463817e-06
2.0661839e-06
2.0844572e-06
2.100123e-06
2.1118439e-06
2.1179606e-06
2.1164253e-06
2.1047355e-06
2.0798782e-06
2.0382473e-06
1.9755934e-06
1.8875332e-06
1.7696774e-06
1.6180156e-06
1.429506e-06
1.202925e-06
9.4004673e-07
6.4669327e-07
3.3462901e-07
1.5212927e-06
1.5303849e-06
1.5405597e-06
1.5515876e-06
1.5631901e-06
1.5750302e-06
1.5866995e-06
1.5976984e-06
1.6074091e-06
1.6150636e-06
1.6197017e-06
1.6201265e-06
1.6148541e-06
1.6020643e-06
1.57956e-06
1.5447454e-06
1.4945532e-06
1.4256461e-06
1.3347539e-06
1.2189096e-06
1.0758708e-06
9.0474914e-07
7.0686441e-07
4.8644184e-07
2.5196723e-07
1.2668399e-06
1.2724209e-06
1.2786348e-06
1.2853215e-06
1.2922838e-06
1.2992794e-06
1.3060092e-06
1.3121014e-06
1.3170906e-06
1.3203907e-06
1.3212632e-06
1.31878e-06
1.3117843e-06
1.2988519e-06
1.2782582e-06
1.2479621e-06
1.2056012e-06
1.1485188e-06
1.0741e-06
9.7998101e-07
8.6437873e-07
7.2658105e-07
5.6757792e-07
3.9049088e-07
2.0175576e-07
1.1175525e-06
1.1211533e-06
1.1251417e-06
1.1293998e-06
1.1337794e-06
1.1380948e-06
1.1421114e-06
1.1455322e-06
1.1479791e-06
1.1489697e-06
1.14789e-06
1.1439627e-06
1.1362141e-06
1.1234406e-06
1.104182e-06
1.0767073e-06
1.0390312e-06
9.8891369e-07
9.2411885e-07
8.4262235e-07
7.428965e-07
6.2431872e-07
4.8766986e-07
3.3543328e-07
1.7296331e-07
1.0361817e-06
1.0386794e-06
1.0414323e-06
1.0443479e-06
1.0473069e-06
1.0501562e-06
1.0526982e-06
1.054678e-06
1.0557657e-06
1.0555352e-06
1.0534394e-06
1.048781e-06
1.0406828e-06
1.0280582e-06
1.0095871e-06
9.8370382e-07
9.4861669e-07
9.02319e-07
8.4278442e-07
7.6817172e-07
6.7708958e-07
5.689596e-07
4.4443403e-07
3.0558812e-07
1.5678043e-07
9.9761112e-07
9.9949113e-07
1.0015542e-06
1.0037224e-06
1.005893e-06
1.0079313e-06
1.0096601e-06
1.0108469e-06
1.011187e-06
1.010283e-06
1.0076209e-06
1.0025424e-06
9.9421688e-07
9.8161379e-07
9.6348041e-07
9.3833144e-07
9.0446798e-07
8.6000193e-07
8.0301364e-07
7.3175334e-07
6.448978e-07
5.4189211e-07
4.2333353e-07
2.9113708e-07
1.4874752e-07
9.8523595e-07
9.8675785e-07
9.8842109e-07
9.9015598e-07
9.9186907e-07
9.9343552e-07
9.9468882e-07
9.954077e-07
9.9529937e-07
9.939793e-07
9.9094734e-07
9.8556118e-07
9.7700843e-07
9.6428009e-07
9.4614955e-07
9.2116319e-07
8.8765926e-07
8.4380131e-07
7.8771627e-07
7.1769329e-07
6.3243756e-07
5.3139962e-07
4.1513101e-07
2.8543466e-07
1.4582825e-07
9.8823956e-07
9.8953756e-07
9.9094981e-07
9.924112e-07
9.9383325e-07
9.9509619e-07
9.9603865e-07
9.9644424e-07
9.9602474e-07
9.9439967e-07
9.9107244e-07
9.854038e-07
9.7658412e-07
9.6360718e-07
9.4524982e-07
9.2006336e-07
8.8639297e-07
8.4241703e-07
7.862758e-07
7.1626881e-07
6.3110857e-07
5.3024182e-07
4.1418122e-07
2.8465837e-07
1.4556231e-07
9.9962093e-07
1.0007625e-06
1.001998e-06
1.0032647e-06
1.0044768e-06
1.0055168e-06
1.0062254e-06
1.0063878e-06
1.0057162e-06
1.0038296e-06
1.0002295e-06
9.9427303e-07
9.8514527e-07
9.7183311e-07
9.531052e-07
9.2750415e-07
8.9336662e-07
8.4886717e-07
7.9214247e-07
7.2148862e-07
6.3561686e-07
5.3397298e-07
4.1706264e-07
2.8660624e-07
1.4654732e-07
1.0148082e-06
1.0158271e-06
1.0169225e-06
1.0180332e-06
1.0190744e-06
1.0199297e-06
1.0204402e-06
1.0203907e-06
1.0194919e-06
1.0173602e-06
1.0134921e-06
1.0072383e-06
9.9777477e-07
9.8407727e-07
9.6490115e-07
9.387745e-07
9.0401903e-07
8.5879752e-07
8.0123642e-07
7.2962363e-07
6.4266752e-07
5.398193e-07
4.2160353e-07
2.8978395e-07
1.4835837e-07
1.030706e-06
1.0316198e-06
1.0325943e-06
1.0335689e-06
1.0344594e-06
1.0351494e-06
1.0354799e-06
1.0352342e-06
1.0341209e-06
1.0317523e-06
1.0276195e-06
1.0210653e-06
1.0112559e-06
9.9715461e-07
9.775025e-07
9.5081221e-07
9.1538975e-07
8.6938502e-07
8.1091413e-07
7.3825788e-07
6.5012369e-07
5.4597139e-07
4.2634544e-07
2.9306376e-07
1.5105621e-07
1.0450523e-06
1.0458714e-06
1.0467363e-06
1.0475868e-06
1.0483388e-06
1.0488759e-06
1.049038e-06
1.0486072e-06
1.0472894e-06
1.0446929e-06
1.0403033e-06
1.033456e-06
1.0233078e-06
1.0088108e-06
9.8869368e-07
9.6145585e-07
9.2539091e-07
8.7863943e-07
8.1931191e-07
7.456873e-07
6.5647649e-07
5.5115047e-07
4.3027265e-07
2.9565385e-07
1.5214555e-07
1.0559871e-06
1.0567189e-06
1.0574826e-06
1.058218e-06
1.0588412e-06
1.0592354e-06
1.0592398e-06
1.0586349e-06
1.0571243e-06
1.0543128e-06
1.0496813e-06
1.042559e-06
1.0320956e-06
1.0172347e-06
9.9669623e-07
9.6897159e-07
9.3234827e-07
8.8496498e-07
8.2493519e-07
7.5054521e-07
6.6051711e-07
5.5433798e-07
4.3259806e-07
2.9715293e-07
1.5288233e-07
1.0617661e-06
1.062417e-06
1.0630867e-06
1.0637154e-06
1.0642189e-06
1.0644804e-06
1.0643383e-06
1.0635722e-06
1.0618837e-06
1.0588755e-06
1.0540251e-06
1.046658e-06
1.0359195e-06
1.0207496e-06
9.9986512e-07
9.7175674e-07
9.3471525e-07
8.8688848e-07
8.2640529e-07
7.515727e-07
6.6113682e-07
5.5461402e-07
4.326423e-07
2.9717262e-07
1.5312976e-07
1.0605727e-06
1.0611487e-06
1.0617315e-06
1.0622615e-06
1.0626548e-06
1.0627944e-06
1.0625187e-06
1.0616069e-06
1.05976e-06
1.0565797e-06
1.0515428e-06
1.0439743e-06
1.0330198e-06
1.0176213e-06
9.9650058e-07
9.6815759e-07
9.3089877e-07
8.8289519e-07
8.2230766e-07
7.474809e-07
6.5720146e-07
5.5102947e-07
4.2965861e-07
2.9510844e-07
1.5223449e-07
1.0504016e-06
1.0509083e-06
1.0514111e-06
1.0518506e-06
1.0521434e-06
1.0521732e-06
1.051779e-06
1.0507404e-06
1.0487597e-06
1.0454401e-06
1.0402606e-06
1.0325504e-06
1.0214612e-06
1.0059451e-06
9.8473886e-07
9.5636568e-07
9.191615e-07
8.7133811e-07
8.1110976e-07
7.3687866e-07
6.4749007e-07
5.425596e-07
4.2283303e-07
2.9037334e-07
1.4993132e-07
1.0290017e-06
1.0294446e-06
1.0298741e-06
1.0302315e-06
1.0304344e-06
1.0303678e-06
1.0298724e-06
1.0287303e-06
1.0266471e-06
1.0232306e-06
1.017967e-06
1.010195e-06
9.9908088e-07
9.835968e-07
9.62508e-07
9.3437494e-07
8.9758167e-07
8.5040471e-07
7.911335e-07
7.1825054e-07
6.3067911e-07
5.2809775e-07
4.1128724e-07
2.8233249e-07
1.4593963e-07
9.9388657e-07
9.9427063e-07
9.9463322e-07
9.9491697e-07
9.9504116e-07
9.9489314e-07
9.9431711e-07
9.9309995e-07
9.9095383e-07
9.8749575e-07
9.8222452e-07
9.7449654e-07
9.6350233e-07
9.4824723e-07
9.2753978e-07
8.9999685e-07
8.6407529e-07
8.1813988e-07
7.6057998e-07
6.899833e-07
6.0537217e-07
5.0649902e-07
3.9416769e-07
2.7041817e-07
1.3921237e-07
9.4241165e-07
9.4274128e-07
9.4304316e-07
9.4326181e-07
9.4331927e-07
9.4310692e-07
9.4247465e-07
9.4121732e-07
9.3905812e-07
9.35629e-07
9.3044904e-07
9.2290203e-07
9.1221528e-07
8.9744253e-07
8.7745537e-07
8.5095052e-07
8.1648242e-07
7.7253045e-07
7.176111e-07
6.5044277e-07
5.7016691e-07
4.7662012e-07
3.7062533e-07
2.5416032e-07
1.3096956e-07
8.7196339e-07
8.7224211e-07
8.7248903e-07
8.7265149e-07
8.726555e-07
8.7239843e-07
8.717388e-07
8.7048358e-07
8.6837271e-07
8.650606e-07
8.6009605e-07
8.5290229e-07
8.4275884e-07
8.2878719e-07
8.0994444e-07
7.8503234e-07
7.527304e-07
7.1166121e-07
6.6049644e-07
5.9810928e-07
5.2377625e-07
4.3742058e-07
3.3986111e-07
2.3292297e-07
1.1995918e-07
7.8025565e-07
7.8048564e-07
7.806832e-07
7.8079993e-07
7.8076692e-07
7.8048924e-07
7.7983712e-07
7.7863457e-07
7.7664563e-07
7.7355681e-07
7.6895829e-07
7.6232684e-07
7.5301224e-07
7.4022574e-07
7.2303609e-07
7.0037766e-07
6.7108383e-07
6.3394975e-07
5.8782994e-07
5.3177296e-07
4.6519998e-07
3.8811559e-07
3.0131196e-07
2.0642998e-07
1.0635721e-07
6.6571929e-07
6.6590075e-07
6.6605444e-07
6.6614082e-07
6.6609611e-07
6.6583278e-07
6.6523321e-07
6.6414397e-07
6.6236294e-07
6.5962167e-07
6.5556615e-07
6.497412e-07
6.4158732e-07
6.3042667e-07
6.1547153e-07
5.9581785e-07
5.7048104e-07
5.3845733e-07
4.9881092e-07
4.5078097e-07
3.9393319e-07
3.2834075e-07
2.5474241e-07
1.745772e-07
9.0235606e-08
5.2799558e-07
5.2812477e-07
5.28235e-07
5.2831361e-07
5.2830112e-07
5.2811138e-07
5.2762698e-07
5.2672443e-07
5.2525053e-07
5.2300401e-07
5.1970111e-07
5.1496263e-07
5.0834877e-07
4.9928932e-07
4.8719111e-07
4.713431e-07
4.5096688e-07
4.252854e-07
3.9359934e-07
3.5534749e-07
3.1021738e-07
2.5833554e-07
2.0035245e-07
1.3746424e-07
7.1553776e-08
3.6867838e-07
3.68752e-07
3.6879897e-07
3.6888557e-07
3.6896099e-07
3.6893035e-07
3.6863815e-07
3.6800454e-07
3.6695511e-07
3.6543131e-07
3.6315474e-07
3.5983201e-07
3.5522578e-07
3.4874589e-07
3.4010791e-07
3.2884122e-07
3.1439259e-07
2.9623022e-07
2.739164e-07
2.4710588e-07
2.1549608e-07
1.7928399e-07
1.3903812e-07
9.563835e-08
5.0430973e-08
1.9255014e-07
1.9261001e-07
1.9257811e-07
1.9264642e-07
1.927915e-07
1.9292603e-07
1.9285078e-07
1.9254495e-07
1.9206958e-07
1.9182524e-07
1.9088915e-07
1.8931088e-07
1.8725631e-07
1.8381052e-07
1.7913675e-07
1.7309025e-07
1.6536893e-07
1.5569133e-07
1.4389163e-07
1.2990565e-07
1.1312715e-07
9.387509e-08
7.2799107e-08
5.033349e-08
2.7540904e-08
)
;

boundaryField
{
    Walls
    {
        type            kqRWallFunction;
        value           nonuniform List<scalar> 
38
(
5.2627685e-06
2.5727154e-06
7.9658433e-06
3.7572089e-05
0.00028068207
0.0023572613
0.056187094
0.06085022
0.018247174
0.027145483
0.034151265
0.041268487
0.047549292
0.051804069
0.055841971
0.059142256
0.062253183
0.064807263
0.066149905
0.067636754
0.068658011
0.069696474
0.070660461
0.070588168
0.071312959
0.072011494
0.071927231
0.072399881
0.072772539
0.073059577
0.072888377
0.072662005
0.072923635
0.072577009
0.072295889
0.072180279
0.071371823
0.066551968
)
;
    }
    Inlet
    {
        type            turbulentIntensityKineticEnergyInlet;
        intensity       0.05;
        value           nonuniform List<scalar> 3(0.008252201 0.0092384162 0.0092005653);
    }
    Outlet
    {
        type            inletOutlet;
        inletValue      uniform 0;
        value           nonuniform List<scalar> 
86
(
1.9205607e-07
1.9205752e-07
1.9205732e-07
1.9206099e-07
1.9214673e-07
1.9255014e-07
1.9261001e-07
1.9257811e-07
1.9264642e-07
1.927915e-07
1.9292603e-07
1.9285078e-07
1.9254495e-07
1.9206958e-07
1.9182524e-07
1.9088915e-07
1.8931088e-07
1.8725631e-07
1.8381052e-07
1.7913675e-07
1.7309025e-07
1.6536893e-07
1.5569133e-07
1.4389163e-07
1.2990565e-07
1.1312715e-07
9.387509e-08
7.2799107e-08
5.033349e-08
2.7540904e-08
0.0031423582
0.0032478534
0.0026527935
0
0
0
0
0.00025311731
0.00022345025
0.000163072
0
0
0
0
1.7734383e-05
1.337088e-05
9.6691552e-06
6.8196607e-06
4.7524217e-06
3.2919746e-06
2.2349596e-06
1.5063094e-06
1.012666e-06
6.8155851e-07
4.6881768e-07
3.3462901e-07
2.5196723e-07
2.0175576e-07
1.7296331e-07
1.5678043e-07
1.4874752e-07
1.4582825e-07
1.4556231e-07
1.4654732e-07
1.4835837e-07
1.5105621e-07
1.5214555e-07
1.5288233e-07
1.5312976e-07
1.5223449e-07
1.4993132e-07
1.4593963e-07
1.3921237e-07
1.3096956e-07
1.1995918e-07
1.0635721e-07
9.0235606e-08
7.1553776e-08
5.0430973e-08
2.7540904e-08
0
0
0
0
0.0025852561
0.0032432483
)
;
    }
    Front
    {
        type            wedge;
    }
    Back
    {
        type            wedge;
    }
    defaultFaces
    {
        type            empty;
    }
}


// ************************************************************************* //
