/*--------------------------------*- C++ -*----------------------------------*\
| =========                 |                                                 |
| \\      /  F ield         | OpenFOAM: The Open Source CFD Toolbox           |
|  \\    /   O peration     | Version:  4.0                                   |
|   \\  /    A nd           | Web:      www.OpenFOAM.org                      |
|    \\/     M anipulation  |                                                 |
\*---------------------------------------------------------------------------*/
FoamFile
{
    version     2.0;
    format      ascii;
    class       volScalarField;
    location    "0.68";
    object      nut;
}
// * * * * * * * * * * * * * * * * * * * * * * * * * * * * * * * * * * * * * //

dimensions      [0 2 -1 0 0 0 0];

internalField   nonuniform List<scalar> 
1740
(
2.0337145e-05
1.3470205e-05
1.223043e-06
1.0152585e-05
6.8870976e-06
1.8063228e-06
1.3010789e-05
5.5514536e-06
2.2597884e-06
2.6095542e-05
4.9082267e-06
2.7153707e-06
2.0242699e-05
4.443879e-06
3.1133291e-06
1.6628598e-05
4.1182202e-06
3.380555e-06
1.420057e-05
3.9121831e-06
3.6325494e-06
1.2234219e-05
3.7710468e-06
3.8373473e-06
1.0786026e-05
3.6747928e-06
4.0301608e-06
9.7296507e-06
3.6200524e-06
4.1874194e-06
8.8610927e-06
3.5787482e-06
4.2693853e-06
8.0633728e-06
3.5387755e-06
4.3603002e-06
7.4437442e-06
3.5164309e-06
4.422763e-06
7.0049393e-06
3.4997035e-06
4.4860608e-06
6.5825118e-06
3.4957303e-06
4.5448901e-06
6.2091107e-06
3.4943047e-06
4.5408105e-06
5.8966476e-06
3.4847387e-06
4.5853116e-06
5.6490965e-06
3.490208e-06
4.6278935e-06
5.4142438e-06
3.4999206e-06
4.6217653e-06
5.2020536e-06
3.503755e-06
4.6501205e-06
5.0304826e-06
3.5079629e-06
4.6735768e-06
4.8543733e-06
3.52527e-06
4.6909513e-06
4.7143772e-06
3.5453698e-06
4.6799689e-06
4.5989645e-06
3.5337839e-06
4.667115e-06
4.4946995e-06
3.5333681e-06
4.6836034e-06
4.4032347e-06
3.5399971e-06
4.6616334e-06
4.3148237e-06
3.5438459e-06
4.6448917e-06
4.2324028e-06
3.555994e-06
4.6375162e-06
4.1654731e-06
3.5779698e-06
4.5880164e-06
3.105155e-06
3.416233e-06
4.2941871e-06
1.9383527e-06
2.1885973e-06
4.4042417e-06
7.1863487e-06
7.3593273e-06
6.711769e-06
6.5242571e-06
6.7266434e-06
6.359234e-06
5.167913e-06
5.1060073e-06
4.864918e-06
4.3292612e-06
4.2579257e-06
4.1256823e-06
3.7934093e-06
3.7512687e-06
3.6932652e-06
3.4370057e-06
3.4202284e-06
3.4067547e-06
3.1872031e-06
3.1861434e-06
3.1970635e-06
2.9980818e-06
3.0053142e-06
3.0281166e-06
2.8377303e-06
2.8486136e-06
2.8759484e-06
2.6830057e-06
2.6949121e-06
2.722697e-06
2.5175957e-06
2.5291404e-06
2.5552427e-06
2.3311613e-06
2.3416691e-06
2.3650706e-06
2.1190175e-06
2.1281999e-06
2.1484958e-06
1.8820681e-06
1.8898409e-06
1.9069553e-06
1.6266034e-06
1.6329902e-06
1.647027e-06
1.3634633e-06
1.3685506e-06
1.3797211e-06
1.1062158e-06
1.1101316e-06
1.1187261e-06
8.6845311e-07
8.7135649e-07
8.7772818e-07
6.6093952e-07
6.6300891e-07
6.6755099e-07
4.8966406e-07
4.9108152e-07
4.9419407e-07
3.5548697e-07
3.5642096e-07
3.5847484e-07
2.5526498e-07
2.5585975e-07
2.5717063e-07
1.8371518e-07
1.8408721e-07
1.8490499e-07
1.3458482e-07
1.3481361e-07
1.3531533e-07
1.0193689e-07
1.0207646e-07
1.0238219e-07
8.0965922e-08
8.1051716e-08
8.1239596e-08
6.8029719e-08
6.8083954e-08
6.8202792e-08
6.0481902e-08
6.0517961e-08
6.0597131e-08
5.6463155e-08
5.6488806e-08
5.6545381e-08
5.4702557e-08
5.4722169e-08
5.4765746e-08
5.4350547e-08
5.4366521e-08
5.4402346e-08
5.4849222e-08
5.4862872e-08
5.4893759e-08
5.5837482e-08
5.5849534e-08
5.5876988e-08
5.7084704e-08
5.7095568e-08
5.7120402e-08
5.8445661e-08
5.8455574e-08
5.8478254e-08
5.9830355e-08
5.9839465e-08
5.9860281e-08
6.1184063e-08
6.1192469e-08
6.1211634e-08
6.2474386e-08
6.2482167e-08
6.2499859e-08
6.3683143e-08
6.3690369e-08
6.3706754e-08
6.4801624e-08
6.4808366e-08
6.4823608e-08
6.5828229e-08
6.5834575e-08
6.5848852e-08
6.6767254e-08
6.6773359e-08
6.6786897e-08
6.7578766e-08
6.7584595e-08
6.759744e-08
6.8257916e-08
6.8263477e-08
6.8275702e-08
6.8801495e-08
6.8806821e-08
6.8818516e-08
6.9200374e-08
6.92055e-08
6.9216749e-08
6.9434715e-08
6.943967e-08
6.9450537e-08
6.9460011e-08
6.9464812e-08
6.9475332e-08
6.9137124e-08
6.9141766e-08
6.9151928e-08
4.1682886e-06
4.4959326e-06
6.7063449e-06
8.4212186e-06
5.9821014e-06
6.0274059e-06
4.72028e-06
4.8256497e-06
4.0809616e-06
4.1914655e-06
3.6981534e-06
3.8017443e-06
3.4378764e-06
3.5333493e-06
3.2409786e-06
3.328562e-06
3.0766783e-06
3.1564462e-06
2.9242899e-06
2.996192e-06
2.7680925e-06
2.8321195e-06
2.5962938e-06
2.6525498e-06
2.4011692e-06
2.4498811e-06
2.1794928e-06
2.2209835e-06
1.9329606e-06
1.967627e-06
1.6683019e-06
1.6966082e-06
1.3966322e-06
1.4191153e-06
1.1317314e-06
1.149019e-06
8.8736838e-07
9.0018342e-07
6.7442313e-07
6.835593e-07
4.9890448e-07
5.0516754e-07
3.6158536e-07
3.6572198e-07
2.5915731e-07
2.6179906e-07
1.8614209e-07
1.8778476e-07
1.3607293e-07
1.370774e-07
1.0284337e-07
1.0345415e-07
8.1522909e-08
8.1897972e-08
6.8382106e-08
6.861965e-08
6.0716851e-08
6.0875804e-08
5.6631299e-08
5.6745835e-08
5.4832342e-08
5.4921603e-08
5.4457492e-08
5.4531832e-08
5.4941619e-08
5.500645e-08
5.5919725e-08
5.5977809e-08
5.7159156e-08
5.7211909e-08
5.8513659e-08
5.8561863e-08
5.9892745e-08
5.9936912e-08
6.1241471e-08
6.1282008e-08
6.2527345e-08
6.2564628e-08
6.3732151e-08
6.3766541e-08
6.4847172e-08
6.4879015e-08
6.5870838e-08
6.5900466e-08
6.6807573e-08
6.6835301e-08
6.761696e-08
6.7643051e-08
6.8294235e-08
6.8318953e-08
6.8836221e-08
6.8859808e-08
6.9233766e-08
6.9256422e-08
6.9466967e-08
6.9488848e-08
6.9491234e-08
6.9512476e-08
6.9167332e-08
6.9188337e-08
4.3644769e-10
1.3202934e-08
1.9301958e-07
8.2648954e-07
1.6435698e-06
2.2300788e-06
2.5749433e-06
2.7832715e-06
2.927361e-06
3.0427916e-06
3.1466749e-06
3.2529134e-06
3.3584378e-06
3.4621369e-06
3.5632156e-06
3.6603209e-06
3.7509959e-06
3.8310985e-06
3.8939241e-06
3.9288768e-06
3.9193275e-06
3.8390256e-06
3.6455295e-06
3.2624307e-06
2.4547907e-06
2.1335936e-10
2.6866771e-08
3.5983768e-07
1.3771936e-06
2.5703807e-06
3.3787148e-06
3.8517302e-06
4.1583544e-06
4.3930287e-06
4.5984747e-06
4.7952378e-06
4.9957474e-06
5.1978676e-06
5.4005627e-06
5.6021745e-06
5.7999614e-06
5.9891776e-06
6.1620374e-06
6.3058148e-06
6.4001819e-06
6.4127539e-06
6.2911174e-06
5.9474636e-06
5.2209774e-06
3.6833132e-06
6.6061743e-10
7.8710851e-08
8.5674733e-07
2.506315e-06
3.7919437e-06
4.5286195e-06
4.9923585e-06
5.3381227e-06
5.6384885e-06
5.9258417e-06
6.2154885e-06
6.5141616e-06
6.8204384e-06
7.1331715e-06
7.450942e-06
7.7706908e-06
8.086205e-06
8.3875242e-06
8.6569485e-06
8.8657168e-06
8.9671109e-06
8.8834116e-06
8.4790528e-06
7.4954495e-06
5.2893497e-06
3.1158112e-09
2.8480115e-07
2.0600599e-06
3.9999595e-06
5.040565e-06
5.6284536e-06
6.0354894e-06
6.3783198e-06
6.7071326e-06
7.04052e-06
7.3892747e-06
7.756497e-06
8.1386572e-06
8.534505e-06
8.9439084e-06
9.3655201e-06
9.7943821e-06
1.0220978e-05
1.0628641e-05
1.0989434e-05
1.1257055e-05
1.1352922e-05
1.1133147e-05
1.0288437e-05
7.8895673e-06
2.3270868e-08
1.1356612e-06
3.9839745e-06
5.5914375e-06
6.4423199e-06
6.9629816e-06
7.3465538e-06
7.692973e-06
8.0430703e-06
8.3984313e-06
8.7722999e-06
9.171682e-06
9.5860558e-06
1.0011013e-05
1.0449078e-05
1.0904995e-05
1.1378091e-05
1.1863786e-05
1.2352179e-05
1.2825048e-05
1.3251248e-05
1.3580504e-05
1.3736019e-05
1.3621848e-05
1.3209655e-05
1.9502085e-07
2.7492943e-06
5.8952623e-06
7.6981534e-06
8.6118703e-06
9.0282415e-06
9.2241725e-06
9.3611967e-06
9.5004284e-06
9.6599812e-06
9.8478462e-06
1.0070259e-05
1.0327588e-05
1.0619782e-05
1.0948003e-05
1.1313325e-05
1.1715953e-05
1.2153955e-05
1.2622337e-05
1.3111302e-05
1.3603192e-05
1.4069146e-05
1.446596e-05
1.4744859e-05
1.4848332e-05
4.3383158e-06
4.313671e-06
4.3597299e-06
4.4719981e-06
4.6483495e-06
4.8780335e-06
5.1511627e-06
5.4650534e-06
5.8215227e-06
6.2222091e-06
6.6669293e-06
7.1531057e-06
7.6750346e-06
8.2250576e-06
8.7957554e-06
9.3819536e-06
9.9810722e-06
1.0591758e-05
1.1212116e-05
1.1837583e-05
1.2457935e-05
1.3054148e-05
1.3595566e-05
1.4045385e-05
1.4335925e-05
9.1051329e-06
9.3583906e-06
9.7586112e-06
1.0178455e-05
1.035505e-05
1.0318508e-05
1.0201314e-05
1.010464e-05
1.0068475e-05
1.0094504e-05
1.017852e-05
1.0315795e-05
1.0504185e-05
1.0743272e-05
1.1032878e-05
1.1372458e-05
1.1760111e-05
1.2191922e-05
1.266085e-05
1.3154676e-05
1.3652864e-05
1.4123368e-05
1.4519825e-05
1.4792087e-05
1.4886306e-05
6.3999321e-06
6.8100139e-06
7.2420133e-06
7.6424278e-06
7.9446663e-06
8.1623239e-06
8.3552114e-06
8.5636314e-06
8.7954736e-06
9.0651844e-06
9.3698067e-06
9.6998345e-06
1.0050594e-05
1.0428276e-05
1.0836765e-05
1.1276674e-05
1.1745039e-05
1.2234594e-05
1.2731829e-05
1.3213951e-05
1.3644327e-05
1.3966589e-05
1.4098176e-05
1.3940227e-05
1.3471847e-05
5.1393286e-06
5.4969199e-06
5.848359e-06
6.1659678e-06
6.4331116e-06
6.6624824e-06
6.8842645e-06
7.1189041e-06
7.3775032e-06
7.666637e-06
7.9843039e-06
8.3277573e-06
8.696891e-06
9.092818e-06
9.5150841e-06
9.9599943e-06
1.0419371e-05
1.0878874e-05
1.1315382e-05
1.1692836e-05
1.1955304e-05
1.2013783e-05
1.1714415e-05
1.0737535e-05
8.1280641e-06
4.435691e-06
4.7268661e-06
5.0187737e-06
5.2911571e-06
5.5383269e-06
5.7684447e-06
5.9959607e-06
6.2336706e-06
6.490115e-06
6.7694493e-06
7.0713563e-06
7.3946164e-06
7.7388787e-06
8.1031073e-06
8.4843682e-06
8.8756405e-06
9.2647268e-06
9.6323569e-06
9.9494606e-06
1.0173061e-05
1.0239719e-05
1.0054008e-05
9.4650486e-06
8.2069222e-06
5.6433516e-06
3.9921836e-06
4.2238119e-06
4.4640104e-06
4.6972207e-06
4.9199225e-06
5.1369102e-06
5.3562961e-06
5.5858235e-06
5.8311877e-06
6.0952203e-06
6.3781219e-06
6.678978e-06
6.9964778e-06
7.3278313e-06
7.6675849e-06
8.0065286e-06
8.3303219e-06
8.6178743e-06
8.8392495e-06
8.9528174e-06
8.9011804e-06
8.6046478e-06
7.9482292e-06
6.7436583e-06
4.505768e-06
3.6867137e-06
3.8736771e-06
4.0732256e-06
4.2739251e-06
4.4725894e-06
4.6714886e-06
4.8752338e-06
5.0886192e-06
5.3153467e-06
5.5573328e-06
5.814733e-06
6.086539e-06
6.370688e-06
6.6633747e-06
6.9580998e-06
7.2447965e-06
7.5088811e-06
7.7301405e-06
7.8815038e-06
7.9277054e-06
7.8238076e-06
7.5131177e-06
6.9216316e-06
5.9310987e-06
4.1666294e-06
3.4562577e-06
3.6108003e-06
3.7791441e-06
3.9532251e-06
4.1301604e-06
4.3107024e-06
4.4973592e-06
4.6929724e-06
4.8997825e-06
5.1188816e-06
5.3500866e-06
5.5920399e-06
5.8421003e-06
6.0958497e-06
6.3464373e-06
6.5839379e-06
6.7947326e-06
6.9609277e-06
7.0599414e-06
7.0644724e-06
6.9432774e-06
6.6637405e-06
6.1991704e-06
5.5532072e-06
4.8596972e-06
3.265311e-06
3.3957916e-06
3.5398499e-06
3.6919212e-06
3.8495385e-06
4.0126152e-06
4.1823494e-06
4.3602719e-06
4.5475645e-06
4.7446029e-06
4.9507684e-06
5.1643273e-06
5.3822566e-06
5.5998721e-06
5.810389e-06
6.0045166e-06
6.170128e-06
6.2920983e-06
6.3524544e-06
6.3311293e-06
6.2079049e-06
5.9669229e-06
5.6075143e-06
5.1720435e-06
4.8095536e-06
3.0902416e-06
3.2020276e-06
3.3265297e-06
3.4599126e-06
3.6001312e-06
3.7466705e-06
3.8999105e-06
4.0605055e-06
4.2288675e-06
4.4048111e-06
4.5873161e-06
4.7743638e-06
4.9627366e-06
5.1477567e-06
5.3230057e-06
5.4800993e-06
5.6085749e-06
5.6959739e-06
5.7282434e-06
5.6906738e-06
5.5697551e-06
5.356747e-06
5.0549385e-06
4.6955944e-06
4.33699e-06
2.9137245e-06
3.0101665e-06
3.1182143e-06
3.235185e-06
3.3594052e-06
3.4901533e-06
3.6273093e-06
3.770943e-06
3.9209379e-06
4.0766954e-06
4.2369166e-06
4.3994252e-06
4.5609949e-06
4.7171671e-06
4.8620834e-06
4.9883862e-06
5.0872279e-06
5.1484467e-06
5.1609675e-06
5.1134888e-06
4.9954471e-06
4.7979397e-06
4.5129757e-06
4.1231755e-06
3.5116469e-06
2.7231791e-06
2.8063838e-06
2.9000051e-06
3.0021192e-06
3.111356e-06
3.2269181e-06
3.3483927e-06
3.4754817e-06
3.6077242e-06
3.7442627e-06
3.883651e-06
4.0236962e-06
4.1613186e-06
4.2924301e-06
4.4118413e-06
4.5132345e-06
4.5892239e-06
4.6315257e-06
4.6312382e-06
4.5791654e-06
4.465917e-06
4.2809016e-06
4.0071819e-06
3.6001402e-06
2.8739393e-06
2.5105354e-06
2.5818962e-06
2.6624697e-06
2.7508398e-06
2.8458824e-06
2.946805e-06
3.0530448e-06
3.1640922e-06
3.2792952e-06
3.397671e-06
3.5177477e-06
3.6374372e-06
3.7539243e-06
3.8635872e-06
3.9619509e-06
4.0436948e-06
4.1027188e-06
4.1322693e-06
4.125085e-06
4.0734477e-06
3.9688221e-06
3.8002424e-06
3.5489313e-06
3.1695672e-06
2.4937954e-06
2.2724319e-06
2.3329597e-06
2.4015052e-06
2.4770064e-06
2.5585437e-06
2.6453798e-06
2.7369016e-06
2.8325083e-06
2.9314712e-06
3.0327906e-06
3.1350721e-06
3.2364223e-06
3.3343702e-06
3.4258136e-06
3.5069966e-06
3.5735278e-06
3.6204352e-06
3.6422419e-06
3.6330148e-06
3.5862748e-06
3.4945206e-06
3.3477988e-06
3.129811e-06
2.8060455e-06
2.262234e-06
2.0105397e-06
2.0610613e-06
2.1184244e-06
2.1818299e-06
2.2505356e-06
2.3238883e-06
2.4012942e-06
2.4821462e-06
2.5657257e-06
2.6510982e-06
2.7370185e-06
2.8218517e-06
2.9035155e-06
2.9794434e-06
3.0465757e-06
3.1013769e-06
3.1398714e-06
3.1576799e-06
3.1500112e-06
3.1115276e-06
3.0359229e-06
2.9148955e-06
2.7357685e-06
2.4753514e-06
2.0667912e-06
1.7316323e-06
1.7729129e-06
1.8198931e-06
1.8719759e-06
1.9285742e-06
1.9891372e-06
2.0531343e-06
2.1200094e-06
2.1891128e-06
2.2596303e-06
2.3305108e-06
2.4004095e-06
2.4676458e-06
2.5301792e-06
2.5856046e-06
2.631162e-06
2.6637578e-06
2.6799731e-06
2.6760309e-06
2.6476626e-06
2.5897835e-06
2.4958015e-06
2.3561445e-06
2.154657e-06
1.8523621e-06
1.4469391e-06
1.4797757e-06
1.5172233e-06
1.5588417e-06
1.604181e-06
1.6527973e-06
1.7042477e-06
1.7580593e-06
1.8136869e-06
1.8704639e-06
1.9275519e-06
1.9839003e-06
2.0382174e-06
2.0889517e-06
2.13429e-06
2.1721608e-06
2.200243e-06
2.2159598e-06
2.2164379e-06
2.1983952e-06
2.1579023e-06
2.0899062e-06
1.9872018e-06
1.8376924e-06
1.610955e-06
1.1704218e-06
1.1957113e-06
1.2246028e-06
1.2567784e-06
1.2919041e-06
1.3296383e-06
1.3696318e-06
1.4115088e-06
1.4548399e-06
1.499112e-06
1.5436942e-06
1.5878101e-06
1.6305177e-06
1.670697e-06
1.7070455e-06
1.7380792e-06
1.7621336e-06
1.7773535e-06
1.7816544e-06
1.7726369e-06
1.7474136e-06
1.702264e-06
1.6318362e-06
1.5267703e-06
1.3616381e-06
9.1605621e-07
9.3482918e-07
9.5630623e-07
9.8026254e-07
1.0064575e-06
1.0346398e-06
1.0645476e-06
1.095899e-06
1.1283759e-06
1.1616057e-06
1.1951409e-06
1.2284409e-06
1.2608574e-06
1.2916253e-06
1.3198577e-06
1.3445443e-06
1.3645507e-06
1.3786096e-06
1.3852934e-06
1.3829516e-06
1.3695882e-06
1.3426085e-06
1.2981986e-06
1.2294034e-06
1.1166157e-06
6.9487923e-07
7.0827626e-07
7.2361755e-07
7.4074806e-07
7.5949934e-07
7.7969304e-07
8.011415e-07
8.2364332e-07
8.4697554e-07
8.7088276e-07
8.9506572e-07
9.1917015e-07
9.4277662e-07
9.6539222e-07
9.8644434e-07
1.0052781e-06
1.0211565e-06
1.0332588e-06
1.0406642e-06
1.0423114e-06
1.0369127e-06
1.022775e-06
9.9734757e-07
9.5581487e-07
8.8525682e-07
5.1292904e-07
5.2211806e-07
5.3264547e-07
5.4440745e-07
5.5728837e-07
5.7116535e-07
5.8590884e-07
6.0138116e-07
6.1743325e-07
6.3389918e-07
6.5059031e-07
6.6728872e-07
6.8374015e-07
6.9964572e-07
7.1465372e-07
7.2835503e-07
7.4028626e-07
7.4993607e-07
7.5674171e-07
7.6006381e-07
7.5912897e-07
7.5290844e-07
7.3981946e-07
7.1680077e-07
6.7541444e-07
3.7084864e-07
3.7691897e-07
3.8387432e-07
3.9164548e-07
4.0015596e-07
4.0932285e-07
4.1905944e-07
4.2927489e-07
4.3987355e-07
4.5075266e-07
4.6180027e-07
4.728915e-07
4.8388355e-07
4.9460713e-07
5.0485514e-07
5.143756e-07
5.2287657e-07
5.300425e-07
5.355412e-07
5.3900869e-07
5.4001004e-07
5.3796131e-07
5.3195063e-07
5.2020813e-07
4.9782078e-07
2.6507206e-07
2.6894647e-07
2.7338427e-07
2.7834061e-07
2.8376593e-07
2.896067e-07
2.9580672e-07
3.0230843e-07
3.0905293e-07
3.1597975e-07
3.2302668e-07
3.3012885e-07
3.3721443e-07
3.4419534e-07
3.5095314e-07
3.5732897e-07
3.6312833e-07
3.681497e-07
3.7219953e-07
3.7508021e-07
3.7656098e-07
3.7632896e-07
3.7389026e-07
3.6829827e-07
3.5701962e-07
1.8981706e-07
1.9221898e-07
1.9496564e-07
1.9802821e-07
2.0137481e-07
2.0497161e-07
2.0878339e-07
2.1277483e-07
2.1691126e-07
2.2115968e-07
2.2549003e-07
2.2987693e-07
2.3429877e-07
2.3872532e-07
2.4308972e-07
2.4727328e-07
2.5112609e-07
2.5450818e-07
2.5730888e-07
2.594272e-07
2.607473e-07
2.6110783e-07
2.6024873e-07
2.5767379e-07
2.5205902e-07
1.3831815e-07
1.3978193e-07
1.4145259e-07
1.4331162e-07
1.4533858e-07
1.4751194e-07
1.4980972e-07
1.5221012e-07
1.5469228e-07
1.5723728e-07
1.5982914e-07
1.6245643e-07
1.6511398e-07
1.6780342e-07
1.705297e-07
1.7324731e-07
1.7578949e-07
1.7802605e-07
1.7989587e-07
1.8135292e-07
1.8234268e-07
1.8278297e-07
1.8253494e-07
1.8133294e-07
1.7848044e-07
1.0420768e-07
1.050954e-07
1.0610701e-07
1.0723074e-07
1.0845368e-07
1.0976227e-07
1.1114283e-07
1.1258204e-07
1.140675e-07
1.155883e-07
1.1713593e-07
1.1870528e-07
1.2029599e-07
1.2191404e-07
1.2357404e-07
1.2529181e-07
1.2697419e-07
1.2845631e-07
1.296953e-07
1.3067328e-07
1.3136624e-07
1.3173197e-07
1.316943e-07
1.3110802e-07
1.2960529e-07
8.2360443e-08
8.2904924e-08
8.3524948e-08
8.4213098e-08
8.4961287e-08
8.5761053e-08
8.6603928e-08
8.7481802e-08
8.8387287e-08
8.9314214e-08
9.025812e-08
9.1217079e-08
9.2192638e-08
9.3191159e-08
9.4225691e-08
9.5317892e-08
9.6448139e-08
9.7453411e-08
9.8292664e-08
9.8959111e-08
9.9442448e-08
9.9720208e-08
9.9749415e-08
9.9449475e-08
9.8618713e-08
6.8912753e-08
6.9258076e-08
6.9651597e-08
7.0088678e-08
7.0564256e-08
7.107304e-08
7.1609756e-08
7.2169402e-08
7.2747525e-08
7.3340538e-08
7.3946131e-08
7.4563805e-08
7.5195658e-08
7.5847504e-08
7.6530411e-08
7.7262743e-08
7.8056644e-08
7.8772919e-08
7.9371592e-08
7.9849507e-08
8.0201848e-08
8.0415437e-08
8.04638e-08
8.029674e-08
7.978033e-08
6.1072408e-08
6.1304647e-08
6.1570033e-08
6.1865659e-08
6.2188315e-08
6.2534632e-08
6.2901235e-08
6.3284927e-08
6.3682886e-08
6.4092887e-08
6.4513618e-08
6.4945107e-08
6.5389391e-08
6.5851516e-08
6.634098e-08
6.6873515e-08
6.7470253e-08
6.8016825e-08
6.8475526e-08
6.8844123e-08
6.9119725e-08
6.9293117e-08
6.9344877e-08
6.9235635e-08
6.8850804e-08
5.6888102e-08
5.7056926e-08
5.7250771e-08
5.7467779e-08
5.7705847e-08
5.7962732e-08
5.8236151e-08
5.8523913e-08
5.8824057e-08
5.9135027e-08
5.9455916e-08
5.9786836e-08
6.0129519e-08
6.0488257e-08
6.087134e-08
6.129302e-08
6.1774541e-08
6.2221971e-08
6.2599495e-08
6.2905116e-08
6.3136356e-08
6.3285429e-08
6.3335625e-08
6.3251391e-08
6.2926118e-08
5.503308e-08
5.516613e-08
5.5319793e-08
5.5492827e-08
5.5683772e-08
5.5891019e-08
5.6112894e-08
5.6347743e-08
5.6594046e-08
5.6850554e-08
5.7116498e-08
5.7391916e-08
5.7678194e-08
5.7978955e-08
5.8301459e-08
5.8658635e-08
5.9070631e-08
5.9457713e-08
5.9786153e-08
6.0053873e-08
6.0258158e-08
6.0391481e-08
6.0437975e-08
6.0363319e-08
6.0061132e-08
5.4625181e-08
5.4737226e-08
5.4867344e-08
5.5014645e-08
5.517803e-08
5.5356243e-08
5.5547941e-08
5.5751766e-08
5.5966433e-08
5.6190848e-08
5.6424295e-08
5.666672e-08
5.6919219e-08
5.7184858e-08
5.7470001e-08
5.7786327e-08
5.8152626e-08
5.8499438e-08
5.8795301e-08
5.9037835e-08
5.9223751e-08
5.9345181e-08
5.9386186e-08
5.9312611e-08
5.9020037e-08
5.5088219e-08
5.5186807e-08
5.530178e-08
5.5432447e-08
5.5577911e-08
5.5737123e-08
5.590894e-08
5.6092188e-08
5.6285741e-08
5.6488623e-08
5.6700172e-08
5.6920285e-08
5.7149847e-08
5.7391472e-08
5.7650735e-08
5.7938104e-08
5.8270824e-08
5.8587462e-08
5.8858965e-08
5.9082491e-08
5.9254009e-08
5.9364976e-08
5.9398812e-08
5.9320514e-08
5.9025326e-08
5.6051281e-08
5.6140119e-08
5.6243998e-08
5.636234e-08
5.6494377e-08
5.6639202e-08
5.6795817e-08
5.6963202e-08
5.7140375e-08
5.7326491e-08
5.7520969e-08
5.7723709e-08
5.7935461e-08
5.8158472e-08
5.8397612e-08
5.8662169e-08
5.8967703e-08
5.9259416e-08
5.9510727e-08
5.9718269e-08
5.9877198e-08
5.9978161e-08
6.0003739e-08
5.9917873e-08
5.9613604e-08
5.7278728e-08
5.7359635e-08
5.745436e-08
5.7562406e-08
5.7683101e-08
5.7815656e-08
5.7959212e-08
5.8112895e-08
5.8275882e-08
5.8447471e-08
5.8627197e-08
5.8815004e-08
5.9011559e-08
5.9218813e-08
5.9441008e-08
5.9686301e-08
5.9968507e-08
6.0238368e-08
6.0471836e-08
6.0665015e-08
6.0812253e-08
6.090334e-08
6.0919931e-08
6.0824744e-08
6.05083e-08
5.862293e-08
5.8696889e-08
5.8783505e-08
5.8882344e-08
5.8992823e-08
5.9114267e-08
5.9245952e-08
5.9387162e-08
5.9537236e-08
5.9695632e-08
5.9862014e-08
6.0036399e-08
6.0219407e-08
6.0412755e-08
6.0620129e-08
6.0848639e-08
6.1110383e-08
6.136052e-08
6.1577692e-08
6.1757532e-08
6.1893618e-08
6.1974878e-08
6.1981952e-08
6.1876083e-08
6.1548065e-08
5.9992827e-08
6.006051e-08
6.0139753e-08
6.0230177e-08
6.0331287e-08
6.0442519e-08
6.0563289e-08
6.0693032e-08
6.0831253e-08
6.0977571e-08
6.1131787e-08
6.1293999e-08
6.1464812e-08
6.1645758e-08
6.1840049e-08
6.2053847e-08
6.2297644e-08
6.2529699e-08
6.2731719e-08
6.289896e-08
6.3024287e-08
6.3095797e-08
6.3093103e-08
6.2975793e-08
6.2629656e-08
6.1333271e-08
6.1395265e-08
6.1467803e-08
6.1550561e-08
6.1643125e-08
6.1745043e-08
6.185586e-08
6.1975161e-08
6.2102608e-08
6.2237973e-08
6.2381188e-08
6.2532439e-08
6.269234e-08
6.2862284e-08
6.3045082e-08
6.3246042e-08
6.3474174e-08
6.368941e-08
6.3877137e-08
6.4032327e-08
6.4147208e-08
6.4209118e-08
6.4196758e-08
6.4068404e-08
6.3706656e-08
6.2611712e-08
6.2668589e-08
6.2735092e-08
6.2810947e-08
6.2895819e-08
6.2989356e-08
6.3091227e-08
6.3201154e-08
6.3318943e-08
6.3444503e-08
6.3577894e-08
6.3719388e-08
6.3869633e-08
6.4029945e-08
6.4202792e-08
6.439263e-08
6.4606812e-08
6.4806057e-08
6.4980069e-08
6.5123591e-08
6.5228271e-08
6.5280781e-08
6.5259091e-08
6.5120509e-08
6.4745089e-08
6.3809907e-08
6.3862229e-08
6.392336e-08
6.3993071e-08
6.4071099e-08
6.4157185e-08
6.4251108e-08
6.4352715e-08
6.4461937e-08
6.4578813e-08
6.4703512e-08
6.4836403e-08
6.4978217e-08
6.513032e-08
6.5294925e-08
6.5475524e-08
6.5675664e-08
6.5859074e-08
6.6019641e-08
6.615173e-08
6.624638e-08
6.6289675e-08
6.6259e-08
6.6110838e-08
6.5722535e-08
6.4919103e-08
6.4967402e-08
6.5023783e-08
6.5088057e-08
6.5160026e-08
6.5239515e-08
6.5326403e-08
6.5420645e-08
6.5522289e-08
6.5631485e-08
6.5748502e-08
6.5873818e-08
6.6008364e-08
6.6153994e-08
6.6312714e-08
6.648855e-08
6.6668371e-08
6.6835077e-08
6.6982218e-08
6.7103019e-08
6.7187768e-08
6.7222018e-08
6.7182744e-08
6.7026097e-08
6.6628893e-08
6.5937679e-08
6.5982429e-08
6.6034595e-08
6.6094029e-08
6.616059e-08
6.6234179e-08
6.6314767e-08
6.640241e-08
6.6497263e-08
6.6599572e-08
6.6709694e-08
6.6828201e-08
6.6956382e-08
6.7098276e-08
6.725242e-08
6.7413083e-08
6.7573161e-08
6.7723823e-08
6.7857964e-08
6.7967734e-08
6.8042725e-08
6.8068064e-08
6.8020579e-08
6.7857266e-08
6.746483e-08
6.6870002e-08
6.6911589e-08
6.695995e-08
6.7014968e-08
6.7076561e-08
6.7144703e-08
6.7219453e-08
6.7300968e-08
6.7389504e-08
6.7485403e-08
6.7589074e-08
6.7700997e-08
6.7821807e-08
6.7952331e-08
6.8091755e-08
6.8236211e-08
6.8380201e-08
6.8516884e-08
6.8639041e-08
6.8738265e-08
6.8803691e-08
6.8820163e-08
6.8764402e-08
6.8593544e-08
6.8192093e-08
6.7675613e-08
6.7714539e-08
6.7759719e-08
6.7811063e-08
6.7868521e-08
6.7932116e-08
6.8001961e-08
6.8078269e-08
6.8161341e-08
6.8251545e-08
6.8349261e-08
6.8454828e-08
6.8568456e-08
6.8690032e-08
6.8818423e-08
6.8950658e-08
6.9082218e-08
6.9207216e-08
6.9318645e-08
6.9407949e-08
6.9464064e-08
6.94717e-08
6.9407526e-08
6.9228638e-08
6.8819023e-08
6.8349746e-08
6.8386499e-08
6.8429105e-08
6.8477487e-08
6.8531619e-08
6.8591553e-08
6.8657435e-08
6.8729507e-08
6.8808091e-08
6.8893551e-08
6.8986228e-08
6.9086343e-08
6.9193869e-08
6.9308307e-08
6.9428297e-08
6.9551175e-08
6.9672905e-08
6.9788093e-08
6.9889964e-08
6.997e-08
7.0017115e-08
7.0016021e-08
6.9943417e-08
6.975622e-08
6.9336787e-08
6.888916e-08
6.892416e-08
6.8964705e-08
6.9010725e-08
6.9062206e-08
6.9119214e-08
6.9181911e-08
6.925055e-08
6.932546e-08
6.9406993e-08
6.9495448e-08
6.9590963e-08
6.9693375e-08
6.9802005e-08
6.991536e-08
7.0030827e-08
7.0144548e-08
7.0251366e-08
7.0344687e-08
7.04161e-08
7.0454609e-08
7.0445055e-08
7.0364326e-08
7.0169529e-08
6.9742704e-08
6.928461e-08
6.9318211e-08
6.9357124e-08
6.9401293e-08
6.94507e-08
6.9505407e-08
6.9565569e-08
6.9631443e-08
6.9703357e-08
6.9781657e-08
6.9866608e-08
6.9958296e-08
7.0056495e-08
7.0160446e-08
7.0268583e-08
7.0378175e-08
7.0485322e-08
7.0584958e-08
7.0670643e-08
7.0734118e-08
7.0764551e-08
7.074704e-08
7.0658873e-08
7.045791e-08
7.0028083e-08
6.9516105e-08
6.9548587e-08
6.9586213e-08
6.9628976e-08
6.9676837e-08
6.9729818e-08
6.9788011e-08
6.9851673e-08
6.9921154e-08
6.9996819e-08
7.0078921e-08
7.0167505e-08
7.0262396e-08
7.0362828e-08
7.046732e-08
7.0572674e-08
7.067465e-08
7.0768236e-08
7.0847227e-08
7.0903587e-08
7.0926677e-08
7.0901998e-08
7.0807492e-08
7.0602381e-08
7.0175221e-08
6.9539145e-08
6.9570704e-08
6.9607245e-08
6.9648979e-08
6.9695831e-08
6.9747705e-08
6.9804454e-08
6.986636e-08
6.9933875e-08
7.0007588e-08
7.0087559e-08
7.0173828e-08
7.0266618e-08
7.0365118e-08
7.0468974e-08
7.0572859e-08
7.0671469e-08
7.0760248e-08
7.0833633e-08
7.0884061e-08
7.0900743e-08
7.0869911e-08
7.0770729e-08
7.0564609e-08
7.0148887e-08
6.9216114e-08
6.9246968e-08
6.928229e-08
6.9323166e-08
6.9369532e-08
6.9421032e-08
6.947678e-08
6.9537195e-08
6.9603295e-08
6.9677615e-08
6.9756809e-08
6.9841992e-08
6.993537e-08
7.0035038e-08
7.0151335e-08
7.0262704e-08
7.0361093e-08
7.0446479e-08
7.0515708e-08
7.0562806e-08
7.0573971e-08
7.0537144e-08
7.0435549e-08
7.0234171e-08
6.9857791e-08
)
;

boundaryField
{
    Walls
    {
        type            nutUWallFunction;
        Cmu             0.09;
        kappa           0.41;
        E               9.8;
        value           uniform 0;
    }
    Inlet
    {
        type            calculated;
        value           nonuniform List<scalar> 3(1.7236301e-05 2.8489447e-05 7.5551219e-07);
    }
    Outlet
    {
        type            calculated;
        value           nonuniform List<scalar> 
86
(
6.9137124e-08
6.9141766e-08
6.9151928e-08
6.9167332e-08
6.9188337e-08
6.9216114e-08
6.9246968e-08
6.928229e-08
6.9323166e-08
6.9369532e-08
6.9421032e-08
6.947678e-08
6.9537195e-08
6.9603295e-08
6.9677615e-08
6.9756809e-08
6.9841992e-08
6.993537e-08
7.0035038e-08
7.0151335e-08
7.0262704e-08
7.0361093e-08
7.0446479e-08
7.0515708e-08
7.0562806e-08
7.0573971e-08
7.0537144e-08
7.0435549e-08
7.0234171e-08
6.9857791e-08
1.4335925e-05
1.4886306e-05
1.3471847e-05
0
0
0
0
4.8596972e-06
4.8095536e-06
4.33699e-06
0
0
0
0
2.0667912e-06
1.8523621e-06
1.610955e-06
1.3616381e-06
1.1166157e-06
8.8525682e-07
6.7541444e-07
4.9782078e-07
3.5701962e-07
2.5205902e-07
1.7848044e-07
1.2960529e-07
9.8618713e-08
7.978033e-08
6.8850804e-08
6.2926118e-08
6.0061132e-08
5.9020037e-08
5.9025326e-08
5.9613604e-08
6.05083e-08
6.1548065e-08
6.2629656e-08
6.3706656e-08
6.4745089e-08
6.5722535e-08
6.6628893e-08
6.746483e-08
6.8192093e-08
6.8819023e-08
6.9336787e-08
6.9742704e-08
7.0028083e-08
7.0175221e-08
7.0148887e-08
6.9857791e-08
0
0
0
0
1.3209655e-05
1.4848332e-05
)
;
    }
    Front
    {
        type            wedge;
    }
    Back
    {
        type            wedge;
    }
    defaultFaces
    {
        type            empty;
    }
}


// ************************************************************************* //
