/*--------------------------------*- C++ -*----------------------------------*\
| =========                 |                                                 |
| \\      /  F ield         | OpenFOAM: The Open Source CFD Toolbox           |
|  \\    /   O peration     | Version:  4.0                                   |
|   \\  /    A nd           | Web:      www.OpenFOAM.org                      |
|    \\/     M anipulation  |                                                 |
\*---------------------------------------------------------------------------*/
FoamFile
{
    version     2.0;
    format      ascii;
    class       volScalarField;
    location    "0.68";
    object      p;
}
// * * * * * * * * * * * * * * * * * * * * * * * * * * * * * * * * * * * * * //

dimensions      [0 2 -2 0 0 0 0];

internalField   nonuniform List<scalar> 
1740
(
491.56448
491.48907
491.62585
474.7806
474.83444
474.95884
458.4584
458.76221
458.54878
442.44091
442.51707
442.29654
426.10453
425.96687
426.00945
409.66988
409.58324
409.57564
392.96284
392.95509
392.7725
375.88069
375.98582
375.73869
358.99612
359.01859
358.98036
342.38761
342.23946
342.54719
325.70575
325.60043
325.88673
308.95725
308.93404
308.92106
292.02453
292.04634
291.99715
274.87408
275.05424
274.95958
257.93624
258.05838
257.77647
241.29909
241.24742
241.01741
224.79501
224.68161
224.59441
207.87538
207.80508
208.03979
191.10529
190.98191
191.3774
175.27572
174.98389
175.01247
159.36487
159.43228
159.30425
143.20127
143.60128
143.43126
127.10327
127.07129
126.72539
110.38748
110.28713
109.98811
93.61768
93.873564
94.038272
77.613799
77.686086
78.204562
61.998993
61.823447
62.322497
46.556664
46.39633
46.565388
31.190027
31.12745
30.833016
16.389179
16.291947
15.669802
4.241159
3.7143426
1.7697851
-0.44028512
-0.36855781
-0.26303458
0.0044615001
0.0072265575
-0.0077714378
0.11285843
0.1032457
0.078405378
0.10326318
0.096232989
0.082385045
0.086251396
0.081588953
0.072755881
0.07118747
0.068051101
0.062028086
0.059255355
0.057116718
0.052913792
0.050139437
0.048649065
0.045652282
0.043247853
0.042188802
0.040014096
0.037868779
0.037098152
0.035500188
0.03344522
0.032871711
0.031673565
0.029671246
0.029234597
0.028314431
0.026401451
0.026062432
0.025343423
0.023559239
0.02329117
0.022720458
0.021083922
0.020868702
0.020408229
0.018919711
0.018744461
0.018367853
0.017017658
0.016873109
0.016561537
0.015337125
0.015216619
0.01495629
0.013845819
0.013744427
0.013524986
0.012518342
0.012432333
0.012245916
0.011334447
0.011260999
0.011101548
0.010277518
0.010214383
0.010077163
0.0093332889
0.0092787151
0.0091599987
0.0084892684
0.0084418724
0.0083386905
0.0077343167
0.0076929727
0.007602922
0.0070580011
0.0070218392
0.0069430354
0.0064510822
0.0064193757
0.0063502293
0.005905936
0.0058779917
0.0058170217
0.0054151332
0.0053904212
0.0053364936
0.0049714373
0.004949555
0.0049017858
0.0045684126
0.0045489924
0.0045065769
0.0042002702
0.0041829992
0.0041452579
0.0038618952
0.0038465036
0.0038128628
0.0035487872
0.0035350526
0.0035050198
0.0032569633
0.0032446947
0.0032178567
0.0029828796
0.0029719193
0.0029479359
0.0027234413
0.0027136599
0.0026922502
0.0024759972
0.0024672868
0.0024482158
0.0022382927
0.0022305631
0.002213635
0.0020084209
0.0020015973
0.0019866508
0.0017847802
0.0017788022
0.0017657058
0.0015660362
0.0015608554
0.0015495031
0.0013510838
0.0013466613
0.0013369682
0.0011390141
0.0011353185
0.0011272171
0.00092909355
0.00092610043
0.00091953838
0.00072076344
0.00071845435
0.00071339169
0.000513662
0.00051202311
0.00050843004
0.00030768312
0.00030670414
0.00030455823
0.00010240715
0.00010208151
0.00010136852
-1.2143701
-0.85724299
-0.2282725
-0.18357065
-0.019890909
-0.03262199
0.056042276
0.038137853
0.067927091
0.055355391
0.062924324
0.053888922
0.054875512
0.047810159
0.047676269
0.042248736
0.041781979
0.037633356
0.037121082
0.033915809
0.033325359
0.030830574
0.030014924
0.028056869
0.027020974
0.025466062
0.024320242
0.023072532
0.02190104
0.020888153
0.019742153
0.01891036
0.017819607
0.017129214
0.016105648
0.015527296
0.014573738
0.014085353
0.013201357
0.012786003
0.011970117
0.011614615
0.010864981
0.010558917
0.0098731113
0.0096082702
0.0089831279
0.0087529337
0.0081847159
0.0079838559
0.007468374
0.0072925056
0.0068251577
0.0066708146
0.0062466517
0.0061108135
0.0057255965
0.0056055332
0.0052555864
0.0051492317
0.0048300735
0.004735707
0.0044428534
0.0043589043
0.0040885155
0.0040136866
0.0037622496
0.0036954419
0.0034598095
0.003400085
0.003177437
0.0031240035
0.0029117997
0.002863998
0.0026599778
0.0026172606
0.0024194571
0.0023813688
0.0021880987
0.0021542609
0.0019640968
0.0019341975
0.0017459382
0.0017197227
0.0015323638
0.0015096263
0.0013223308
0.0013029067
0.0011149815
0.0010987403
0.00090962621
0.00089646654
0.00070574363
0.00069558831
0.00050300168
0.00049579297
0.00030131603
0.00029701016
0.00010029138
9.8860866e-05
0.033148284
0.032337967
0.030940678
0.02920617
0.027318757
0.02539344
0.023482811
0.021602051
0.019754153
0.017945873
0.016190669
0.014505802
0.012905893
0.01139934
0.0099920389
0.0086902691
0.0074785452
0.0063544876
0.0053121257
0.0043437453
0.0034416903
0.0025974753
0.0018030859
0.0010523423
0.0003407488
0.033183223
0.032293007
0.030771292
0.02891203
0.026904016
0.024859661
0.022826775
0.020823399
0.018864505
0.016972607
0.015168832
0.013470667
0.011886079
0.010417052
0.0090607942
0.0078078152
0.0066656273
0.0056265388
0.0046764474
0.0038052861
0.0030041825
0.0022614063
0.0015676122
0.00091795685
0.00030606558
0.029108268
0.027958028
0.026074818
0.023860984
0.021461704
0.018960799
0.016427242
0.013973244
0.011759662
0.0098083715
0.0081109876
0.0066523337
0.005406839
0.0043488219
0.0034623688
0.0027299983
0.0021312912
0.0016449443
0.0012585841
0.00095743729
0.00072453894
0.00054026767
0.00038986295
0.00025914933
0.000123068
0.01351209
0.011710126
0.0088972348
0.0056070175
0.0023604304
-0.00048857632
-0.002801377
-0.0045427253
-0.0058208745
-0.0066960104
-0.007235496
-0.0074949915
-0.0075292918
-0.007367088
-0.0070436524
-0.0065910801
-0.0060348993
-0.0053971444
-0.0046979401
-0.0039572245
-0.00319996
-0.0024412402
-0.0016857304
-0.00094767967
-0.00026661848
-0.037841458
-0.039618633
-0.041885108
-0.041887495
-0.040995515
-0.039051235
-0.036707381
-0.034085403
-0.031294437
-0.028437498
-0.025713732
-0.023100014
-0.020596354
-0.018010952
-0.015615912
-0.013434146
-0.011458426
-0.0096742643
-0.0080610184
-0.0065935552
-0.0052395943
-0.0039757815
-0.0027915633
-0.0016674465
-0.00058657043
-0.1999286
-0.15900579
-0.14215816
-0.11356354
-0.090141661
-0.069799696
-0.052587314
-0.038714043
-0.027744925
-0.019161993
-0.012441368
-0.007327928
-0.0035192665
-0.00087705607
0.0010169409
0.0022698781
0.0030141877
0.003358192
0.0033861316
0.0031668389
0.0027588792
0.0022164704
0.0015802713
0.00089183033
0.0001484871
-0.29822533
-0.10138959
-0.054647953
-0.020678923
0.010309305
0.034577388
0.049419453
0.055883855
0.057162946
0.055827511
0.053100768
0.049521599
0.045455748
0.041167229
0.036840735
0.032589995
0.028480122
0.02454632
0.020795983
0.017220108
0.013800421
0.010516995
0.0073415857
0.0042606248
0.0011851958
-0.15578843
-0.13931184
-0.11921086
-0.097621114
-0.077006874
-0.05881295
-0.0435222
-0.031239128
-0.02160112
-0.014085866
-0.0083532661
-0.0040690991
-0.00094320529
0.0012964225
0.0028227247
0.0037719935
0.0042558528
0.0043839741
0.004229558
0.0038517899
0.0033011208
0.0026235529
0.0018594229
0.0010506343
0.00019190783
-0.042729976
-0.048045669
-0.049927011
-0.049584372
-0.047732747
-0.044858409
-0.04161176
-0.03817533
-0.034662781
-0.031309749
-0.028092285
-0.024905984
-0.021867761
-0.01906858
-0.016516974
-0.014201679
-0.012119862
-0.010206397
-0.0084682624
-0.0068906855
-0.0054529339
-0.004131452
-0.0029039698
-0.0017421795
-0.00062161808
0.02402141
0.013581472
0.0056295166
-0.00038386078
-0.0048795172
-0.0081189621
-0.010370053
-0.01180576
-0.012596754
-0.012915921
-0.012877728
-0.012574025
-0.012047568
-0.011345622
-0.010512961
-0.0095863507
-0.0085813922
-0.0075668497
-0.006530669
-0.0054782492
-0.0044188524
-0.0033632087
-0.0023240056
-0.0013169674
-0.00038274672
0.045373874
0.037272518
0.030506778
0.024731188
0.019669239
0.015286351
0.011661876
0.008706013
0.0063345897
0.0044454222
0.0029484983
0.0017749246
0.00087518037
0.00020656672
-0.00027180108
-0.00058751581
-0.00076421896
-0.00084169099
-0.00083770307
-0.00076756817
-0.00064680907
-0.0004915319
-0.00031842442
-0.00014356764
2.1959056e-06
0.046325136
0.040212587
0.035216643
0.030951488
0.027259396
0.023959497
0.020916848
0.018101873
0.015608611
0.013412145
0.011491348
0.0098231434
0.0083772167
0.0071252071
0.0060441366
0.0051079088
0.0042946233
0.0035805487
0.0029478001
0.0023823158
0.001872042
0.0014062797
0.00097613452
0.00057666656
0.00020212328
0.041846017
0.03688911
0.03283124
0.02933724
0.026328274
0.023689354
0.021302993
0.01912558
0.017096828
0.015223014
0.013501295
0.011925505
0.010491627
0.009190698
0.0080102017
0.0069370837
0.0059588289
0.0050622625
0.0042343451
0.0034647573
0.0027454982
0.0020700001
0.0014333734
0.00083327358
0.00026979747
0.037265014
0.033066016
0.029601157
0.026631834
0.024053316
0.021781465
0.019762786
0.01793626
0.016216804
0.014603079
0.013086484
0.011664645
0.010342629
0.0091189811
0.0079888185
0.0069461825
0.005984062
0.0050936456
0.0042671938
0.0034972041
0.0027765795
0.002099345
0.0014599289
0.00085301999
0.00027549788
0.033665202
0.03012385
0.027036224
0.024421835
0.022139491
0.020134764
0.018351964
0.016732445
0.015214744
0.013793845
0.012462299
0.011210103
0.010026501
0.0089098802
0.0078605464
0.0068764306
0.0059535263
0.0050881997
0.0042768919
0.0035151989
0.002798391
0.0021213961
0.0014793256
0.00086734584
0.00028069083
0.030726677
0.027751179
0.025076357
0.022731951
0.020679263
0.018866321
0.017238153
0.015766321
0.014407266
0.013133752
0.011935431
0.01080133
0.0097232021
0.0086968991
0.0077205572
0.0067934872
0.0059136683
0.0050790304
0.0042876344
0.0035371282
0.0028246055
0.0021467248
0.0014999257
0.00088090462
0.00028556627
0.028248078
0.025746304
0.023424333
0.021327116
0.019455624
0.017789815
0.01629732
0.014937803
0.013693049
0.012525632
0.011423925
0.010384961
0.0093952549
0.0084474106
0.0075383583
0.0066665076
0.0058311458
0.0050305191
0.0042640261
0.0035304859
0.0028282365
0.0021552907
0.0015094424
0.00088859064
0.0002892024
0.025961662
0.023865956
0.021861669
0.020000698
0.018303208
0.016767665
0.015380211
0.014122348
0.012961469
0.011879463
0.01086345
0.0099016945
0.0089844802
0.0081070066
0.0072627614
0.0064486731
0.0056621829
0.0049007334
0.0041667139
0.0034597307
0.0027783084
0.0021212744
0.001487494
0.00087591383
0.00028469543
0.023764893
0.022017534
0.020301459
0.018667966
0.017145221
0.01574378
0.014460795
0.013285716
0.012201499
0.011188376
0.010237946
0.0093411981
0.0084898307
0.0076744987
0.0068890055
0.006129423
0.005393923
0.0046830497
0.0039929393
0.0033229788
0.0026735333
0.0020444072
0.0014351787
0.0008456273
0.00027498734
0.021682403
0.020223755
0.018758716
0.017333157
0.015977608
0.014707175
0.013526074
0.012430423
0.011414916
0.010467397
0.0095803139
0.0087434062
0.0079494063
0.0071897215
0.0064594978
0.0057539434
0.0050703543
0.0044075555
0.0037631006
0.003136009
0.0025261447
0.0019336006
0.0013585615
0.00080148961
0.00026147161
0.019741229
0.018517008
0.017264637
0.016023449
0.014820933
0.013674417
0.012592977
0.01157901
0.0106344
0.0097524389
0.0089229025
0.0081405482
0.0073981105
0.0066893287
0.0060094092
0.0053538947
0.0047196748
0.0041041671
0.0035057377
0.0029232052
0.0023559985
0.0018040334
0.0012672425
0.0007485211
0.00024636142
0.017956017
0.01692247
0.015848878
0.014767905
0.013703794
0.012674174
0.011690328
0.010757654
0.0098795101
0.0090612353
0.0082879124
0.0075557984
0.0068610567
0.0061987299
0.0055645699
0.0049546445
0.0043657176
0.0037951716
0.0032412079
0.0027025049
0.0021782993
0.0016684185
0.0011718302
0.00069216497
0.00022776713
0.016328716
0.015451023
0.014527273
0.01358445
0.012643971
0.011722456
0.010831685
0.0099788526
0.0091681347
0.008403674
0.0076854274
0.0070015531
0.006351141
0.0057318902
0.0051397152
0.0045713801
0.0040240276
0.0034952066
0.0029829716
0.0024859049
0.0020030747
0.0015339387
0.0010777863
0.00063612736
0.00020852714
0.014850741
0.014101275
0.013303523
0.012479684
0.01164845
0.010824948
0.010020661
0.0092435655
0.0084988494
0.0077896149
0.0071180463
0.0064816772
0.0058743217
0.0052951718
0.0047419403
0.0042120873
0.0037030345
0.0032125865
0.0027389135
0.0022805395
0.0018363929
0.0014056558
0.00098751693
0.00058259248
0.00019060977
0.013509673
0.012866347
0.01217492
0.011453629
0.01071853
0.0099831404
0.0092582366
0.0085518806
0.0078697296
0.0072153585
0.0065905192
0.0059968388
0.0054318405
0.004891059
0.0043745173
0.0038804155
0.0034067428
0.0029516136
0.0025133406
0.0020904647
0.0016817887
0.0012863721
0.00090326563
0.00053280943
0.00017441362
0.012293203
0.011738307
0.011136963
0.010504188
0.0098536603
0.0091972713
0.0085448617
0.0079041788
0.0072809926
0.0066792788
0.006101435
0.0055485632
0.0050210998
0.0045192111
0.0040378375
0.0035775465
0.0031368121
0.0027141977
0.0023083077
0.0019177339
0.0015412507
0.001177856
0.00082656977
0.00048741916
0.00015968574
0.011190507
0.010709806
0.010185157
0.0096289864
0.0090528823
0.0084671914
0.0078807217
0.0073007044
0.0067327964
0.0061811246
0.0056484916
0.0051365024
0.0046458212
0.0041765911
0.0037298543
0.0033027034
0.0028928817
0.0025003899
0.0021241736
0.0017628998
0.0014154136
0.0010807718
0.00075796141
0.00044676781
0.00014624737
0.010192133
0.009774106
0.0093151164
0.0088254518
0.0083148813
0.0077923166
0.0072655828
0.006741308
0.0062248546
0.0057203535
0.0052308318
0.0047582496
0.004303773
0.0038679629
0.0034509602
0.0030521635
0.0026719064
0.0023083183
0.0019598438
0.0016252582
0.0013037211
0.00099468667
0.00069704784
0.00041087267
0.00013498387
0.0092896173
0.0089248457
0.0085223026
0.0080904804
0.0076376027
0.0071713104
0.00669852
0.0062251994
0.0057563239
0.0052959302
0.0048471589
0.0044120504
0.0039921684
0.0035884217
0.0032011969
0.0028304285
0.0024758782
0.0021366277
0.0018120777
0.001501616
0.0012042028
0.0009185103
0.00064360351
0.00037935625
0.00012459934
0.0084750315
0.0081557218
0.0078018152
0.0074203476
0.0070182289
0.0066020335
0.0061777905
0.0057508296
0.005325719
0.004906235
0.0044956969
0.0040958431
0.0037086797
0.003335282
0.0029762711
0.0026318853
0.0023020512
0.0019863295
0.0016842095
0.0013950784
0.0011181163
0.00085237968
0.00059691086
0.00035184223
0.00011564546
0.0077406743
0.0074603512
0.0071484522
0.0068108396
0.006453369
0.0060817105
0.0057010391
0.0053161012
0.0049310398
0.0045493765
0.0041740752
0.0038072797
0.0034508019
0.0031058927
0.002773366
0.0024536464
0.0021468485
0.0018527879
0.0015711201
0.0013013394
0.0010427938
0.00079474034
0.00055634568
0.00032799829
0.00010804329
0.0070790612
0.0068323285
0.0065568165
0.0062574751
0.0059392805
0.0056070635
0.0052653931
0.0049183759
0.0045697544
0.004222733
0.0038800463
0.0035438587
0.003215944
0.0028976163
0.0025897905
0.0022930272
0.0020075747
0.0017334555
0.0014704657
0.0012182397
0.00097627946
0.00074400653
0.00052073033
0.00030709905
0.00010134951
0.006483009
0.0062652359
0.00602136
0.0057555103
0.0054718865
0.0051746275
0.0048676898
0.004554752
0.004239118
0.0039236807
0.0036109546
0.0033030013
0.0030015308
0.0027078629
0.0024229674
0.0021474946
0.0018818142
0.0016260687
0.0013801931
0.0011439552
0.00091699313
0.00069886886
0.00048903945
0.00028853347
9.5438658e-05
0.0059451739
0.0057526086
0.0055364131
0.0053000152
0.0050469263
0.0047806446
0.0045046562
0.0042222247
0.003936306
0.0036495287
0.0033641641
0.0030821155
0.0028050233
0.0025341548
0.0022704879
0.0020147399
0.0017673625
0.0015285884
0.0012984583
0.0010768549
0.00086353199
0.0006581781
0.0004603681
0.00027178145
9.0196887e-05
0.0054589929
0.0052884399
0.0050964547
0.0048858971
0.0046597548
0.0044210131
0.0041726967
0.0039176525
0.0036585147
0.0033976579
0.00313716
0.0028788035
0.0026240622
0.0023741821
0.0021301225
0.0018926485
0.0016622356
0.0014391885
0.0012236259
0.0010155219
0.00081471122
0.00062095839
0.00043385436
0.00025640889
8.5671032e-05
0.0050192325
0.0048676403
0.0046966404
0.0045085966
0.0043061255
0.0040918636
0.0038682951
0.0036378536
0.0034028593
0.0031654454
0.0029275154
0.002690719
0.0024564379
0.0022258505
0.0019999194
0.0017793633
0.0015647044
0.0013562918
0.0011542872
0.00095876614
0.00076959687
0.00058655874
0.00040861127
0.00024216362
8.2203848e-05
0.0046201376
0.0044850556
0.004332381
0.0041641616
0.0039825972
0.0037899373
0.0035883249
0.0033798697
0.0031665895
0.0029503693
0.0027329207
0.002515767
0.0023002456
0.0020874474
0.0018782499
0.0016733769
0.0014733721
0.0012786131
0.0010893335
0.00090565259
0.00072753672
0.00055482286
0.00038662415
0.00022935724
7.8213217e-05
0.0042559494
0.0041354171
0.0039989364
0.0038482577
0.0036852198
0.003511709
0.0033296372
0.0031408572
0.0029471329
0.0027501228
0.0025513528
0.0023522034
0.0021539015
0.0019574684
0.0017637434
0.0015734341
0.0013870949
0.0012051358
0.0010278432
0.00085539866
0.000687882
0.00052532155
0.00036763674
0.00021770577
7.3107509e-05
0.0039218035
0.003814074
0.0036918694
0.0035566864
0.003410078
0.0032536728
0.0030891222
0.0029180429
0.0027419884
0.0025624251
0.0023807127
0.0021980877
0.0020156435
0.0018343394
0.0016549965
0.0014782936
0.001304783
0.0011348998
0.00096897178
0.00080723542
0.00064985737
0.00049697136
0.0003486427
0.00020638696
6.8836072e-05
0.0036133147
0.0035168903
0.0034073278
0.0032858949
0.0031539316
0.0030128341
0.0028640265
0.0027089167
0.0025488686
0.0023851779
0.0022190548
0.0020516076
0.0018838309
0.0017166109
0.0015507204
0.001386812
0.0012254307
0.0010670222
0.00091194338
0.00076047594
0.0006128427
0.0004692282
0.00032971675
0.00019519315
6.4901482e-05
0.0033265896
0.0032401904
0.0031418704
0.003032709
0.0029138574
0.0027865152
0.0026519112
0.0025112701
0.0023657867
0.0022166046
0.0020648
0.0019113678
0.0017572133
0.0016031511
0.0014499008
0.0012980844
0.0011482332
0.0010007958
0.00085614584
0.00071459286
0.00057639565
0.00044177741
0.0003108455
0.00018407247
6.1051901e-05
0.003058189
0.0029807304
0.0028924636
0.0027943106
0.0026872612
0.002572344
0.0024506216
0.0023231587
0.0021910007
0.0020551555
0.0019165794
0.0017761651
0.0016347338
0.0014930314
0.0013517255
0.001211404
0.0010725796
0.00093569515
0.00080112972
0.00066920566
0.0005401977
0.0004143403
0.0002917623
0.0001728305
5.7303241e-05
0.0028050701
0.0027356432
0.0026564299
0.0025682188
0.0024718583
0.0023682367
0.002258271
0.0021428863
0.0020229963
0.0018994893
0.0017732138
0.0016449687
0.0015154966
0.0013854783
0.0012555304
0.0011262048
0.00099799045
0.00087131746
0.00074656111
0.0006240465
0.00050405284
0.00038681364
0.00027247605
0.00016146519
5.3588344e-05
0.0025645586
0.0025024064
0.002431412
0.0023522501
0.0022656482
0.0021723732
0.0020732162
0.0019689813
0.0018604673
0.0017484552
0.0016336969
0.0015169059
0.0013987508
0.0012798508
0.0011607729
0.0010420306
0.00092408554
0.00080734984
0.000692189
0.0005789251
0.00046783936
0.00035917081
0.0002530923
0.00015004761
4.9848362e-05
0.0023343431
0.0022788358
0.002215366
0.00214451
0.0020668919
0.001983173
0.0018940347
0.0018001757
0.0017022931
0.0016010725
0.001497178
0.0013912452
0.0012838741
0.001175625
0.0010670158
0.00095852092
0.00085057181
0.00074355859
0.00063783267
0.00053370976
0.0004314728
0.00033137134
0.00023359804
0.00013855064
4.6079888e-05
0.0021124556
0.0020630711
0.0020065496
0.0019433833
0.0018741068
0.0017992875
0.0017195141
0.0016353908
0.0015475241
0.0014565139
0.0013629449
0.0012673809
0.0011703573
0.0010723784
0.00097391416
0.00087539919
0.00077723266
0.00067977955
0.00058337307
0.00048831806
0.00039489527
0.00030336293
0.00021393656
0.00012694367
4.229059e-05
0.0018972371
0.0018535449
0.0018034971
0.0017475127
0.0016860482
0.0016195891
0.0015486419
0.0014737278
0.0013953716
0.0013140958
0.0012304133
0.00114482
0.0010577915
0.00096977801
0.00088120268
0.0007924599
0.00070391502
0.00061590531
0.00052874165
0.00044271163
0.00035808469
0.00027511468
0.00019404327
0.00011521865
3.8521526e-05
0.0016872999
0.0016489483
0.0016049862
0.0015557686
0.0015016832
0.0014431439
0.0013805847
0.0013144502
0.001245193
0.0011732656
0.0010991141
0.0010231719
0.0009458572
0.00086756871
0.0007886835
0.00070955559
0.00063051547
0.00055187069
0.00047390697
0.00039689018
0.00032107026
0.00024668827
0.0001739623
0.00010339358
3.4744528e-05
0.0014814926
0.0014481967
0.0014100058
0.0013672188
0.0013201624
0.0012691869
0.0012146608
0.0011569596
0.0010964708
0.0010335823
0.00096867794
0.00090213299
0.00083431094
0.00076556059
0.00069621381
0.00062658426
0.00055696683
0.00048763782
0.00041885591
0.00035086342
0.00028388851
0.00021815609
0.00015384076
9.1472408e-05
3.0787895e-05
0.0012788636
0.0012503954
0.0012177242
0.0011810989
0.0011407919
0.0010970955
0.001050317
0.0010007741
0.00094879166
0.00089469751
0.00083881728
0.00078147114
0.0007229705
0.00066361557
0.00060369365
0.00054347788
0.00048322671
0.00042318384
0.00036357898
0.000304629
0.00024654046
0.00018951325
0.00013372194
7.9490456e-05
2.6720104e-05
0.0010786305
0.0010548103
0.0010274609
0.00099678586
0.00096300791
0.00092636649
0.00088711353
0.00084551268
0.00080183155
0.00075634125
0.00070931258
0.00066101304
0.0006117036
0.00056163707
0.00051105647
0.00046019411
0.00040927101
0.00035849681
0.00030807034
0.00025818059
0.00020900875
0.00016072537
0.00011349004
6.7431412e-05
2.257864e-05
0.00088016803
0.00086085634
0.00083867549
0.00081378694
0.00078636774
0.00075660846
0.00072471095
0.00069088602
0.00065534863
0.00061831657
0.00058000831
0.00054064043
0.00050042483
0.00045956763
0.00041826771
0.00037671608
0.00033509515
0.00029357886
0.0002523329
0.00021151524
0.00017127649
0.00013175639
9.3067614e-05
5.5286187e-05
1.8462094e-05
0.0006830083
0.000668099
0.00065096971
0.0006317427
0.0006105528
0.00058754509
0.0005628737
0.00053669939
0.00050918711
0.00048050393
0.00045081786
0.00042029567
0.00038910143
0.00035739502
0.00032533131
0.00029305928
0.00026072174
0.00022845522
0.0001963899
0.00016464936
0.00013334976
0.00010259604
7.2471617e-05
4.3054675e-05
1.437563e-05
0.00048686178
0.00047627497
0.00046410881
0.00045044932
0.00043539118
0.00041903648
0.00040149349
0.00038287528
0.00036329835
0.00034288119
0.00032174243
0.00030000018
0.00027777131
0.00025516983
0.00023230639
0.00020928766
0.00018621611
0.00016318962
0.00014030135
0.00011763909
9.5284008e-05
7.330824e-05
5.1767537e-05
3.0766045e-05
1.0296313e-05
0.00029167488
0.00028534951
0.00027807933
0.0002699154
0.00026091383
0.00025113519
0.00024064367
0.00022950641
0.00021779272
0.00020557322
0.00019291866
0.00017989946
0.00016658543
0.00015304499
0.00013934451
0.00012554814
0.0001117175
9.7911442e-05
8.4185766e-05
7.059267e-05
5.7180104e-05
4.3991013e-05
3.105251e-05
1.8463765e-05
6.1948924e-06
9.7088229e-05
9.4986391e-05
9.257037e-05
8.9857054e-05
8.6864987e-05
8.3614193e-05
8.0125907e-05
7.6422352e-05
7.2526477e-05
6.8461691e-05
6.4251554e-05
5.9919376e-05
5.5488342e-05
5.0981223e-05
4.6420147e-05
4.1826527e-05
3.7220932e-05
3.2623008e-05
2.8051306e-05
2.3523125e-05
1.9054531e-05
1.4660128e-05
1.0352627e-05
6.1528067e-06
2.0558782e-06
)
;

boundaryField
{
    Walls
    {
        type            zeroGradient;
    }
    Inlet
    {
        type            fixedValue;
        value           uniform 500;
    }
    Outlet
    {
        type            fixedValue;
        value           uniform 0;
    }
    Front
    {
        type            wedge;
    }
    Back
    {
        type            wedge;
    }
    defaultFaces
    {
        type            empty;
    }
}


// ************************************************************************* //
