/*--------------------------------*- C++ -*----------------------------------*\
| =========                 |                                                 |
| \\      /  F ield         | OpenFOAM: The Open Source CFD Toolbox           |
|  \\    /   O peration     | Version:  4.0                                   |
|   \\  /    A nd           | Web:      www.OpenFOAM.org                      |
|    \\/     M anipulation  |                                                 |
\*---------------------------------------------------------------------------*/
FoamFile
{
    version     2.0;
    format      ascii;
    class       volVectorField;
    location    "0.68";
    object      U;
}
// * * * * * * * * * * * * * * * * * * * * * * * * * * * * * * * * * * * * * //

dimensions      [0 1 -1 0 0 0 0];

internalField   nonuniform List<vector> 
1740
(
(1.4796248 0.0066186132 4.0610482e-06)
(1.5531264 -0.011461474 6.8896676e-07)
(1.5626949 -0.0082086219 3.9976198e-08)
(1.4694312 0.0033282289 7.7385743e-06)
(1.6496191 -0.029805043 1.6387596e-06)
(1.5516334 -0.024761224 3.1982193e-07)
(1.539618 -0.004013035 1.0996843e-05)
(1.6809973 -0.011683436 2.5693615e-06)
(1.46967 -0.0061390098 4.6795012e-07)
(1.5439364 -0.0070845089 1.4263648e-05)
(1.5789764 0.017709381 3.8878305e-06)
(1.5769953 0.0090797261 5.537488e-07)
(1.5659916 -0.0096880126 1.5536903e-05)
(1.5936677 0.0031561273 4.5873902e-06)
(1.5854434 -0.00080950066 8.5264748e-07)
(1.5770692 -0.00060220295 1.708013e-05)
(1.5961246 -0.00055372565 5.5032378e-06)
(1.4969044 -0.0050824708 9.9792241e-07)
(1.5008792 0.004823071 1.7687276e-05)
(1.555204 0.0069969445 6.11343e-06)
(1.5273017 -0.0012866258 1.1502817e-06)
(1.5364808 -0.0047483575 1.8294076e-05)
(1.5747715 0.003840384 6.6734129e-06)
(1.5289498 0.0068155427 1.3437034e-06)
(1.6279633 -0.0089289739 1.866513e-05)
(1.5450066 0.0086959151 7.323944e-06)
(1.6086282 0.0081150586 1.5048669e-06)
(1.5950013 0.0090597246 1.8887173e-05)
(1.5290548 -0.0061717651 7.7853111e-06)
(1.6004261 -0.0083036037 1.7473295e-06)
(1.4873334 0.012750735 1.9127527e-05)
(1.6125635 -0.0067504491 8.2658167e-06)
(1.5125421 -0.012399929 1.9332328e-06)
(1.502683 -0.0047141787 1.9626715e-05)
(1.6261509 0.0012636932 8.9016398e-06)
(1.5254644 -0.0013770153 2.0970458e-06)
(1.5248061 -0.010239861 1.9925311e-05)
(1.5946436 0.0040339789 9.2656116e-06)
(1.5322593 0.0057368479 2.3047984e-06)
(1.5480049 -0.0055717729 2.0206504e-05)
(1.6028062 0.0071951546 9.9295142e-06)
(1.5506878 0.0070497149 2.4646558e-06)
(1.5311161 -0.0052117494 2.0353527e-05)
(1.5321778 0.0060905112 1.0355298e-05)
(1.5708176 0.004611806 2.6978985e-06)
(1.5986794 -0.0028014363 2.0549618e-05)
(1.5098495 0.001209983 1.0824976e-05)
(1.5356165 0.0026781847 2.883012e-06)
(1.6139258 0.0080041264 2.1265794e-05)
(1.5149871 0.0046740922 1.1219485e-05)
(1.6030684 -0.001788951 3.0069681e-06)
(1.5195249 0.0056944316 2.1412744e-05)
(1.5286113 -0.016867651 1.1707432e-05)
(1.6167064 -0.014396061 3.2796323e-06)
(1.566662 0.0015482077 2.1418882e-05)
(1.5850881 -0.017376637 1.1993832e-05)
(1.4914543 -0.01514176 3.4531335e-06)
(1.5368659 0.012859705 2.1698052e-05)
(1.6525631 0.019326515 1.248299e-05)
(1.5069535 0.0057892027 3.594897e-06)
(1.4410779 -0.0068219689 2.1783814e-05)
(1.6400194 0.015697825 1.283414e-05)
(1.6033012 0.015818334 3.780159e-06)
(1.5438542 -0.018235855 2.1806807e-05)
(1.5618326 -0.0077517211 1.3227934e-05)
(1.5765032 0.0018924009 3.9113748e-06)
(1.5769517 0.0057455216 2.2076916e-05)
(1.5005067 0.0063843354 1.3549695e-05)
(1.5097872 0.0026462136 4.0763729e-06)
(1.4999034 0.00052511864 2.2165345e-05)
(1.4924422 0.011102369 1.3855762e-05)
(1.582478 0.0045271522 4.2183546e-06)
(1.5755236 -0.014775398 2.2051541e-05)
(1.4838672 -0.021620675 1.4047499e-05)
(1.6316861 -0.010306039 4.3755489e-06)
(1.6461351 0.0053964886 2.2312542e-05)
(1.5004829 -0.014130955 1.4342785e-05)
(1.5202118 -0.012252543 4.5713484e-06)
(1.5503191 0.026078628 2.2444876e-05)
(1.5574577 0.0099019541 1.4587859e-05)
(1.5481348 -0.0023870542 4.6948025e-06)
(1.4271073 0.012596961 2.2709774e-05)
(1.5965074 0.0069103594 1.4869093e-05)
(1.5255362 -0.0023715699 4.8672553e-06)
(1.348675 -0.0047664149 2.2427465e-05)
(1.5053132 -0.0030910727 1.5036642e-05)
(1.4688651 0.0014341153 4.8532274e-06)
(1.2470191 0.024754496 2.3355482e-05)
(1.3107513 0.091397512 1.5638384e-05)
(1.3918261 0.051609835 5.5065777e-06)
(0.82027247 0.36096528 1.1762695e-05)
(0.80676867 0.921204 9.924975e-06)
(0.73666995 1.2524202 5.3641856e-06)
(0.21695506 0.10811908 1.4849076e-06)
(0.18962677 0.36229405 3.0227425e-06)
(0.089639409 0.49781391 6.7137148e-07)
(-0.028489161 -0.014393499 1.2197394e-06)
(-0.024433859 -0.028575283 1.6543375e-06)
(-0.017778798 -0.032891362 5.5729507e-07)
(-0.0050636584 -0.0029362487 4.4274932e-07)
(-0.0045878085 -0.0073127202 7.1276772e-07)
(-0.0046900809 -0.0097852013 3.082222e-07)
(0.0014410612 -4.2061782e-05 1.1513423e-07)
(0.0011810371 -0.0002875892 2.2846102e-07)
(0.00032436 -0.00069089352 8.4238361e-08)
(0.0017118238 0.00013221849 2.0271874e-08)
(0.0015110509 0.00026721071 4.0491313e-08)
(0.0010921818 0.00030726161 -2.998679e-08)
(0.0014368128 0.00011294162 -8.9780006e-09)
(0.0013085067 0.00025160833 -2.6372602e-08)
(0.0010610219 0.00036292536 -7.4644947e-08)
(0.0011193055 0.00010436502 -1.7939534e-08)
(0.0010365264 0.00023087811 -4.684379e-08)
(0.0008750268 0.00035590067 -8.5357839e-08)
(0.00085140745 8.5421685e-05 -1.8270983e-08)
(0.00079769186 0.00019140447 -4.771867e-08)
(0.00068958844 0.00026086145 -7.973593e-08)
(0.00065290338 5.3658261e-05 -1.5322189e-08)
(0.00061745923 0.00012514281 -4.1250355e-08)
(0.00054302865 0.0001729161 -6.7840699e-08)
(0.00052153238 3.2024592e-05 -1.194053e-08)
(0.00049795955 7.1750448e-05 -3.3267304e-08)
(0.00044605739 0.0001046973 -5.4986352e-08)
(0.0004358785 2.1627865e-05 -9.2475443e-09)
(0.00041999208 4.7900605e-05 -2.6214557e-08)
(0.00038400432 7.0374602e-05 -4.3582856e-08)
(0.0003742707 1.7007828e-05 -7.2884622e-09)
(0.00036340056 3.9788973e-05 -2.0601526e-08)
(0.00033799268 5.8955267e-05 -3.4220648e-08)
(0.00032458577 1.5363935e-05 -5.7946523e-09)
(0.00031699272 3.5260768e-05 -1.6159583e-08)
(0.00029848985 5.3905044e-05 -2.6688203e-08)
(0.00028229794 1.2941799e-05 -4.5742813e-09)
(0.00027688993 3.0579812e-05 -1.2568263e-08)
(0.0002632163 4.7694733e-05 -2.0601678e-08)
(0.00024625273 1.1043714e-05 -3.5391997e-09)
(0.0002423237 2.6313857e-05 -9.6133592e-09)
(0.00023207036 4.0932525e-05 -1.5661091e-08)
(0.00021579798 9.2630956e-06 -2.6650852e-09)
(0.00021290371 2.2136633e-05 -7.1916379e-09)
(0.00020504766 3.4509051e-05 -1.1678985e-08)
(0.00019011338 7.7624661e-06 -1.9586212e-09)
(0.00018794714 1.8559623e-05 -5.2587368e-09)
(0.00018181986 2.901298e-05 -8.5291201e-09)
(0.00016830889 6.5593746e-06 -1.4084094e-09)
(0.00016666009 1.5697419e-05 -3.7632242e-09)
(0.00016181116 2.467649e-05 -6.0984815e-09)
(0.00014957331 5.6412351e-06 -9.9634501e-10)
(0.00014830249 1.3447859e-05 -2.6385811e-09)
(0.00014441715 2.124695e-05 -4.270644e-09)
(0.00013326582 4.9465679e-06 -6.9636469e-10)
(0.00013227414 1.1683964e-05 -1.8170413e-09)
(0.00012912426 1.873793e-05 -2.933398e-09)
(0.00011891923 4.4122146e-06 -4.8433503e-10)
(0.00011813822 1.0511105e-05 -1.2338187e-09)
(0.00011555777 1.6575305e-05 -1.9800743e-09)
(0.00010621473 3.8804185e-06 -3.3499043e-10)
(0.00010559579 9.2908977e-06 -8.2716498e-10)
(0.00010346132 1.4803113e-05 -1.3155594e-09)
(9.4931969e-05 3.4527252e-06 -2.328207e-10)
(9.4436076e-05 8.2829445e-06 -5.4998441e-10)
(9.265401e-05 1.3254127e-05 -8.62036e-10)
(8.490402e-05 3.0910486e-06 -1.6419884e-10)
(8.4503526e-05 7.4058123e-06 -3.6410101e-10)
(8.3003841e-05 1.1856798e-05 -5.5833237e-10)
(7.6020656e-05 2.7394255e-06 -1.1722934e-10)
(7.569311e-05 6.5772718e-06 -2.4023359e-10)
(7.4418438e-05 1.0548083e-05 -3.5814537e-10)
(6.8179583e-05 2.4209678e-06 -8.6236555e-11)
(6.7908104e-05 5.8231449e-06 -1.597596e-10)
(6.6815701e-05 9.3344257e-06 -2.2870664e-10)
(6.123283e-05 2.1081397e-06 -6.5965963e-11)
(6.1011342e-05 5.0871487e-06 -1.0838674e-10)
(6.007972e-05 8.1739878e-06 -1.4664017e-10)
(5.5084149e-05 1.8586405e-06 -5.3846061e-11)
(5.4905126e-05 4.4904066e-06 -7.707806e-11)
(5.4110223e-05 7.2125727e-06 -9.6228587e-11)
(4.9711037e-05 1.6276733e-06 -4.6153177e-11)
(4.9562135e-05 3.9430505e-06 -5.7857393e-11)
(4.8872798e-05 6.3406509e-06 -6.5961377e-11)
(4.5061034e-05 1.4085204e-06 -4.0799163e-11)
(4.4936271e-05 3.4185672e-06 -4.5314565e-11)
(4.4335138e-05 5.4946245e-06 -4.7036857e-11)
(4.1057344e-05 1.2125423e-06 -3.7491653e-11)
(4.0954329e-05 2.950882e-06 -3.772013e-11)
(4.0430758e-05 4.7307229e-06 -3.5789992e-11)
(3.7630008e-05 1.0315885e-06 -3.5270014e-11)
(3.7545675e-05 2.5266282e-06 -3.3092844e-11)
(3.7087594e-05 4.041788e-06 -2.9378414e-11)
(3.4710926e-05 8.5569356e-07 -3.3702174e-11)
(3.4642326e-05 2.082069e-06 -3.012267e-11)
(3.4239982e-05 3.3587238e-06 -2.5694768e-11)
(3.2240245e-05 7.1424492e-07 -3.2653073e-11)
(3.2184827e-05 1.7558915e-06 -2.8159404e-11)
(3.182986e-05 2.8283819e-06 -2.3506444e-11)
(3.0167351e-05 5.9797857e-07 -3.2108453e-11)
(3.0123146e-05 1.4814512e-06 -2.7039427e-11)
(2.9807616e-05 2.3789823e-06 -2.2333228e-11)
(2.8445315e-05 4.934335e-07 -3.1552591e-11)
(2.841035e-05 1.2287222e-06 -2.6093416e-11)
(2.8127378e-05 1.9693761e-06 -2.1533919e-11)
(2.7027068e-05 4.0142155e-07 -3.1062017e-11)
(2.6999811e-05 1.0050308e-06 -2.5331085e-11)
(2.6743924e-05 1.6088906e-06 -2.1018131e-11)
(2.5868329e-05 3.2311024e-07 -3.0752132e-11)
(2.5847643e-05 8.1529609e-07 -2.4886346e-11)
(2.5614415e-05 1.3043297e-06 -2.080779e-11)
(2.492988e-05 2.5859284e-07 -3.062697e-11)
(2.4914801e-05 6.5870557e-07 -2.4676526e-11)
(2.4700399e-05 1.0517137e-06 -2.0800769e-11)
(2.4177318e-05 2.0386206e-07 -3.0347297e-11)
(2.4166936e-05 5.2394487e-07 -2.4304528e-11)
(2.3968004e-05 8.3599836e-07 -2.0761041e-11)
(2.3580493e-05 1.5729529e-07 -2.9992009e-11)
(2.3573962e-05 4.0862466e-07 -2.3926543e-11)
(2.3387611e-05 6.5409847e-07 -2.0767268e-11)
(2.3113266e-05 1.2132696e-07 -3.000442e-11)
(2.3109902e-05 3.1913329e-07 -2.3927372e-11)
(2.2933698e-05 5.0568895e-07 -2.0858998e-11)
(2.2753244e-05 9.2519205e-08 -3.0021476e-11)
(2.2752522e-05 2.4736771e-07 -2.3963387e-11)
(2.2584435e-05 3.9123906e-07 -2.1024928e-11)
(2.2480885e-05 6.9039172e-08 -2.997796e-11)
(2.2482317e-05 1.8759325e-07 -2.3951266e-11)
(2.232064e-05 2.9690626e-07 -2.1137893e-11)
(2.2277758e-05 5.1306559e-08 -3.0008709e-11)
(2.2280887e-05 1.4188641e-07 -2.3993866e-11)
(2.212417e-05 2.2524024e-07 -2.1189762e-11)
(2.2124332e-05 3.8588514e-08 -3.0083123e-11)
(2.2128749e-05 1.0869369e-07 -2.3947893e-11)
(2.1975781e-05 1.7372718e-07 -2.0958171e-11)
(2.1996856e-05 3.0087218e-08 -3.0024585e-11)
(2.2002179e-05 8.4997065e-08 -2.3372178e-11)
(2.1852007e-05 1.3623875e-07 -1.9935588e-11)
(2.1898637e-05 2.5143883e-08 -2.9443157e-11)
(2.1904544e-05 6.675726e-08 -2.1324991e-11)
(2.1756319e-05 1.040067e-07 -1.7225147e-11)
(2.1740355e-05 1.5911942e-08 -2.6770765e-11)
(2.174609e-05 4.0149376e-08 -1.575189e-11)
(2.1599546e-05 6.1647337e-08 -1.1417952e-11)
(-0.045575583 1.9514044 -3.8371953e-07)
(-0.032690701 1.6956643 -3.4661138e-06)
(-0.060965994 0.34131967 -2.7169732e-07)
(-0.042923622 0.15180778 -1.0253539e-06)
(-0.0148305 -0.04049408 -2.3026225e-07)
(-0.011585604 -0.042783921 -6.5128484e-07)
(-0.0045870488 -0.012365158 -1.3558626e-07)
(-0.0046045861 -0.014086966 -4.3382326e-07)
(-0.00034602723 -0.0015415932 -1.3598863e-07)
(-0.00081809086 -0.0025535148 -3.2220851e-07)
(0.00070072006 0.00013706483 -1.4627967e-07)
(0.00040563443 -0.00016665152 -2.5987493e-07)
(0.00081466734 0.00041648016 -1.4475011e-07)
(0.00062091205 0.00039677265 -2.170064e-07)
(0.00069926848 0.00044288351 -1.3285779e-07)
(0.00054291298 0.0004838668 -1.818173e-07)
(0.00056418787 0.00032219258 -1.1487641e-07)
(0.00044518274 0.00037143932 -1.5013848e-07)
(0.00045250984 0.00020640919 -9.5111152e-08)
(0.00036404785 0.00022468222 -1.2169875e-07)
(0.00038025608 0.00012250548 -7.6542317e-08)
(0.00031364028 0.00012583404 -9.7133095e-08)
(0.00033702535 8.2495072e-05 -6.0587717e-08)
(0.0002868541 8.4067536e-05 -7.6652736e-08)
(0.00030412902 7.1784615e-05 -4.748867e-08)
(0.00026623585 7.587233e-05 -5.9966287e-08)
(0.00027324945 6.6714418e-05 -3.6903492e-08)
(0.0002443477 7.3703389e-05 -4.6497122e-08)
(0.00024420968 6.1299965e-05 -2.8366004e-08)
(0.00022204068 7.0342348e-05 -3.5653889e-08)
(0.0002176417 5.4017784e-05 -2.1488184e-08)
(0.00020045709 6.3839076e-05 -2.6954068e-08)
(0.00019386891 4.5969523e-05 -1.5991294e-08)
(0.0001803674 5.5312451e-05 -2.0032524e-08)
(0.00017301124 3.8585284e-05 -1.1666813e-08)
(0.00016225267 4.6891365e-05 -1.4605687e-08)
(0.00015478282 3.2824451e-05 -8.337765e-09)
(0.00014610421 4.0076088e-05 -1.0435231e-08)
(0.00013874622 2.8531778e-05 -5.8368334e-09)
(0.00013167284 3.5025836e-05 -7.3038625e-09)
(0.00012450086 2.5431583e-05 -4.0055123e-09)
(0.00011868453 3.1493684e-05 -5.0101125e-09)
(0.00011174883 2.23999e-05 -2.6973994e-09)
(0.0001069247 2.8115205e-05 -3.3702877e-09)
(0.00010029293 2.0089025e-05 -1.784846e-09)
(9.6256434e-05 2.5165497e-05 -2.2253779e-09)
(8.9996768e-05 1.8027312e-05 -1.161693e-09)
(8.6593249e-05 2.2538386e-05 -1.443421e-09)
(8.0758525e-05 1.6134224e-05 -7.4477638e-10)
(7.7868954e-05 2.0141528e-05 -9.2041963e-10)
(7.2503753e-05 1.4401315e-05 -4.7114213e-10)
(7.0029788e-05 1.7994834e-05 -5.7764718e-10)
(6.5173293e-05 1.275889e-05 -2.9472001e-10)
(6.3044625e-05 1.598591e-05 -3.5719473e-10)
(5.8676855e-05 1.1207012e-05 -1.832992e-10)
(5.6853635e-05 1.4106533e-05 -2.1831011e-10)
(5.2907842e-05 9.8974126e-06 -1.1463325e-10)
(5.1339517e-05 1.2431985e-05 -1.3258981e-10)
(4.782743e-05 8.681626e-06 -7.3396078e-11)
(4.6460768e-05 1.0876616e-05 -8.0952791e-11)
(4.342385e-05 7.5293264e-06 -4.8411104e-11)
(4.2232045e-05 9.4672503e-06 -5.0291114e-11)
(3.9636826e-05 6.4700639e-06 -3.3724657e-11)
(3.8597409e-05 8.1326804e-06 -3.2350927e-11)
(3.6392236e-05 5.5164175e-06 -2.553431e-11)
(3.5480147e-05 6.929337e-06 -2.2384938e-11)
(3.3628264e-05 4.634423e-06 -2.1076714e-11)
(3.2824404e-05 5.8459612e-06 -1.7090707e-11)
(3.1289087e-05 3.9025631e-06 -1.8673259e-11)
(3.0577143e-05 4.9244016e-06 -1.437521e-11)
(2.9326185e-05 3.2616642e-06 -1.7462365e-11)
(2.8691367e-05 4.1011077e-06 -1.3097917e-11)
(2.76951e-05 2.6972522e-06 -1.6826452e-11)
(2.7124405e-05 3.3921203e-06 -1.257998e-11)
(2.635249e-05 2.2053362e-06 -1.6555183e-11)
(2.5835112e-05 2.7735397e-06 -1.2488324e-11)
(2.5257019e-05 1.7870576e-06 -1.6565222e-11)
(2.4783998e-05 2.2435364e-06 -1.267073e-11)
(2.4371221e-05 1.437597e-06 -1.6756533e-11)
(2.3934922e-05 1.7996329e-06 -1.3024604e-11)
(2.3661994e-05 1.1429071e-06 -1.6988046e-11)
(2.3255855e-05 1.4328428e-06 -1.3454322e-11)
(2.3100423e-05 8.975718e-07 -1.7257345e-11)
(2.2718816e-05 1.1280575e-06 -1.3880493e-11)
(2.2661651e-05 6.9020469e-07 -1.7481102e-11)
(2.2299778e-05 8.6804206e-07 -1.423838e-11)
(2.2324463e-05 5.3357556e-07 -1.7759811e-11)
(2.1978318e-05 6.6887895e-07 -1.4596713e-11)
(2.2070184e-05 4.0474979e-07 -1.793801e-11)
(2.1736415e-05 5.060139e-07 -1.4818748e-11)
(2.1881054e-05 3.0743786e-07 -1.7968062e-11)
(2.1556823e-05 3.8461278e-07 -1.4849831e-11)
(2.1738208e-05 2.379689e-07 -1.7617389e-11)
(2.1421183e-05 2.9851972e-07 -1.4476898e-11)
(2.1618594e-05 1.8692895e-07 -1.6428009e-11)
(2.1306989e-05 2.3488807e-07 -1.3323557e-11)
(2.1525814e-05 1.4179058e-07 -1.3711932e-11)
(2.1218007e-05 1.779608e-07 -1.0889048e-11)
(2.137168e-05 8.3792476e-08 -8.6109111e-12)
(2.1067377e-05 1.0518073e-07 -6.6399628e-12)
(-0.0035152007 2.0951371e-05 -1.2027428e-07)
(-0.0034402716 -1.2544497e-05 -2.8539559e-07)
(-0.0032849397 -7.6656319e-07 -4.0418493e-07)
(-0.0030938402 -3.465123e-05 -4.7962095e-07)
(-0.0028866595 -6.1141148e-05 -5.2094105e-07)
(-0.0026753521 -0.00010554433 -5.3864632e-07)
(-0.0024653413 -0.00015489752 -5.4058568e-07)
(-0.0022585104 -0.00021488047 -5.322454e-07)
(-0.0020558691 -0.0002840857 -5.1745494e-07)
(-0.0018589759 -0.00035855771 -4.9887445e-07)
(-0.0016696494 -0.00043672311 -4.7836001e-07)
(-0.0014897134 -0.00051525209 -4.5704772e-07)
(-0.0013203471 -0.00059074735 -4.3550444e-07)
(-0.0011620875 -0.00066132807 -4.1385993e-07)
(-0.0010150899 -0.00072559811 -3.9199291e-07)
(-0.00087917526 -0.00078297539 -3.6963013e-07)
(-0.00075390816 -0.00083433457 -3.4637271e-07)
(-0.00063874824 -0.00087808796 -3.2164416e-07)
(-0.00053263147 -0.00091103687 -2.9480114e-07)
(-0.00043461673 -0.00093507908 -2.6510186e-07)
(-0.00034383041 -0.00095019245 -2.3175186e-07)
(-0.00025920473 -0.00095504563 -1.9354001e-07)
(-0.00017982362 -0.0009504557 -1.4945245e-07)
(-0.00010510857 -0.00094074477 -9.8901936e-08)
(-3.4345414e-05 -0.0008935317 -4.1301233e-08)
(0.00021149849 -9.921216e-05 -1.3617304e-07)
(0.00022973367 -0.00044767188 -3.1884196e-07)
(0.00025550547 -0.0006488306 -4.4339758e-07)
(0.00028071102 -0.0009713761 -5.1588459e-07)
(0.00030746137 -0.0012383406 -5.5080192e-07)
(0.00033752521 -0.0015308112 -5.6214591e-07)
(0.0003701146 -0.0018227847 -5.5877536e-07)
(0.00040014513 -0.0021357697 -5.4638132e-07)
(0.00041931417 -0.0024663393 -5.2857617e-07)
(0.00042680844 -0.0027892554 -5.0772771e-07)
(0.00042376639 -0.003101248 -4.8564241e-07)
(0.00041187985 -0.0033992274 -4.6331802e-07)
(0.00039325938 -0.0036782764 -4.411937e-07)
(0.00036970114 -0.0039362558 -4.1924347e-07)
(0.00034236781 -0.0041723828 -3.9725502e-07)
(0.00031251493 -0.0043881024 -3.7492479e-07)
(0.00028036504 -0.0045945361 -3.519075e-07)
(0.00024691305 -0.0047844422 -3.2749211e-07)
(0.00021250369 -0.0049336818 -3.010772e-07)
(0.0001774971 -0.005034758 -2.7184642e-07)
(0.0001424209 -0.0050851509 -2.393504e-07)
(0.00010784977 -0.005087254 -2.016069e-07)
(7.4109571e-05 -0.0050445606 -1.5729275e-07)
(4.1611153e-05 -0.0049424821 -1.0465902e-07)
(1.1429248e-05 -0.0047183847 -4.5272708e-08)
(0.0010324792 -0.00028031522 -1.7434889e-07)
(0.001082222 -0.0014400165 -3.9372769e-07)
(0.0011497998 -0.0019636464 -5.2588914e-07)
(0.0012238294 -0.0028673516 -5.8775699e-07)
(0.0012877513 -0.0036125524 -6.0821276e-07)
(0.0013292696 -0.0043957455 -6.0663334e-07)
(0.0013435598 -0.0051728073 -5.9285587e-07)
(0.0013295768 -0.0061011137 -5.7292549e-07)
(0.0012937149 -0.0071523817 -5.4969419e-07)
(0.0012402422 -0.0081248829 -5.2462353e-07)
(0.0011737965 -0.008975169 -4.9973639e-07)
(0.0010982121 -0.0096983943 -4.7567762e-07)
(0.0010167917 -0.010292658 -4.5269986e-07)
(0.00093115888 -0.010766327 -4.3039632e-07)
(0.00084301176 -0.01112567 -4.0838133e-07)
(0.00075347484 -0.01137153 -3.8627782e-07)
(0.0006644344 -0.011495954 -3.6415962e-07)
(0.00057658725 -0.011517995 -3.4062149e-07)
(0.000490224 -0.011467079 -3.1550512e-07)
(0.00040587389 -0.011358302 -2.8801727e-07)
(0.00032436438 -0.011201588 -2.5721421e-07)
(0.000245881 -0.011005872 -2.2153804e-07)
(0.00017016139 -0.010777802 -1.7886549e-07)
(9.7610113e-05 -0.010487974 -1.2554175e-07)
(3.0011252e-05 -0.010089697 -6.1534832e-08)
(0.0035160029 -0.0010045507 -2.5672957e-07)
(0.0035537109 -0.0046195656 -5.3284989e-07)
(0.0035697767 -0.0059243498 -6.6176086e-07)
(0.0034490307 -0.0091324176 -6.9667511e-07)
(0.0032741472 -0.012004427 -6.9158575e-07)
(0.0030398508 -0.014565848 -6.6988318e-07)
(0.0027826171 -0.016389407 -6.4075453e-07)
(0.002514245 -0.017363346 -6.112805e-07)
(0.0022528589 -0.017659359 -5.8194101e-07)
(0.0020020148 -0.017532976 -5.5101791e-07)
(0.0017702159 -0.017091806 -5.226569e-07)
(0.0015567096 -0.016456146 -4.9642227e-07)
(0.0013601921 -0.015644396 -4.7276614e-07)
(0.0011692965 -0.014709255 -4.5032295e-07)
(0.00099740858 -0.013703171 -4.2854297e-07)
(0.00084480352 -0.012671547 -4.0714351e-07)
(0.00071003244 -0.011653118 -3.857801e-07)
(0.0005911892 -0.010681544 -3.6390684e-07)
(0.00048660548 -0.0097802192 -3.4099515e-07)
(0.000394149 -0.0089693207 -3.1636011e-07)
(0.0003112641 -0.0082628115 -2.8911429e-07)
(0.00023567971 -0.0076657172 -2.5796206e-07)
(0.00016606431 -0.0071777891 -2.2096863e-07)
(0.00010060553 -0.0067571487 -1.7490101e-07)
(3.7133523e-05 -0.0064527411 -1.0960038e-07)
(0.011188299 -0.0086602186 -4.447868e-07)
(0.0089585608 -0.025554674 -7.6834798e-07)
(0.0079043691 -0.028001382 -8.5742373e-07)
(0.006230387 -0.032307581 -8.46652e-07)
(0.004842212 -0.029767959 -8.0814327e-07)
(0.0036275749 -0.026001346 -7.6043317e-07)
(0.0026053175 -0.021323721 -7.1293969e-07)
(0.0017876277 -0.016386289 -6.6859651e-07)
(0.0011468483 -0.011448014 -6.2895543e-07)
(0.00065211797 -0.0068792857 -5.9251736e-07)
(0.00027244327 -0.0027451621 -5.5968269e-07)
(-8.3933833e-06 0.00080453375 -5.2915661e-07)
(-0.00020913907 0.0040972426 -5.0461391e-07)
(-0.00033859417 0.0072449675 -4.8139223e-07)
(-0.00042048892 0.010146778 -4.5902243e-07)
(-0.00046213106 0.0126677 -4.3764697e-07)
(-0.00047179936 0.014774271 -4.1690166e-07)
(-0.00045632975 0.016483767 -3.9632961e-07)
(-0.00042119522 0.017824042 -3.7543683e-07)
(-0.00037105283 0.01882396 -3.5366685e-07)
(-0.00031025426 0.019509862 -3.3032761e-07)
(-0.00024244551 0.01990791 -3.0444799e-07)
(-0.00016980081 0.020015512 -2.7447096e-07)
(-9.5588446e-05 0.019889755 -2.4509528e-07)
(-2.1685439e-05 0.019191957 -2.1582421e-07)
(0.01363096 0.02352167 -8.0306154e-07)
(0.0032272679 -0.0012693462 -1.137177e-06)
(0.00066287995 0.048388736 -1.1410365e-06)
(-0.001109607 0.051044976 -1.0686914e-06)
(-0.0026783289 0.065273395 -9.9230886e-07)
(-0.0038471698 0.07556829 -9.0610876e-07)
(-0.0044993092 0.082709897 -8.2886537e-07)
(-0.0046996438 0.088680891 -7.6172319e-07)
(-0.0046202639 0.093080042 -7.0343663e-07)
(-0.0044007531 0.095817485 -6.5382567e-07)
(-0.0041155543 0.097380707 -6.1218331e-07)
(-0.0037716903 0.097868366 -5.6890608e-07)
(-0.0034224565 0.097612105 -5.4435913e-07)
(-0.0030811399 0.09633085 -5.1785786e-07)
(-0.002736796 0.094180847 -4.916429e-07)
(-0.0024004818 0.091763075 -4.6827307e-07)
(-0.0020823887 0.089141249 -4.4662359e-07)
(-0.0017836149 0.086399445 -4.2600659e-07)
(-0.0015034831 0.083615007 -4.0587101e-07)
(-0.0012402239 0.080846137 -3.8570211e-07)
(-0.00099122764 0.078130085 -3.6495046e-07)
(-0.00075422497 0.075509379 -3.4294371e-07)
(-0.00052718743 0.072956278 -3.1898531e-07)
(-0.00030835629 0.070657941 -2.9401239e-07)
(-9.2316683e-05 0.067179187 -2.6945993e-07)
(-0.0023203773 1.1742278 -2.5313155e-06)
(-0.0010360285 0.96119697 -2.0094771e-06)
(-0.0012032297 0.86555521 -1.629765e-06)
(-0.00083547703 0.77319005 -1.3404372e-06)
(-0.00068768919 0.67717917 -1.1243639e-06)
(-0.00057482299 0.58591201 -9.6637057e-07)
(-0.00047400717 0.50761725 -8.5047148e-07)
(-0.00039066459 0.4439835 -7.6477182e-07)
(-0.00032093751 0.39150048 -6.9487794e-07)
(-0.00026505887 0.34669763 -6.4119517e-07)
(-0.00021335523 0.30802528 -6.0047572e-07)
(-0.00016999286 0.27473913 -5.6558725e-07)
(-0.00013429829 0.24627003 -5.3680667e-07)
(-0.00011325033 0.2218942 -5.1155114e-07)
(-9.4035093e-05 0.20095506 -4.8860756e-07)
(-7.8172484e-05 0.18297457 -4.6752702e-07)
(-6.4567606e-05 0.16752367 -4.4777663e-07)
(-5.3299974e-05 0.15424057 -4.2887117e-07)
(-4.3791108e-05 0.14282367 -4.103932e-07)
(-3.5535614e-05 0.13302401 -3.9195771e-07)
(-2.8114004e-05 0.12462576 -3.7315588e-07)
(-2.1093518e-05 0.11748703 -3.5343737e-07)
(-1.4456348e-05 0.11136654 -3.3245759e-07)
(-8.2196557e-06 0.10654611 -3.0996606e-07)
(-2.2446958e-06 0.10053688 -2.8547224e-07)
(-0.013267952 0.090544423 -1.2418862e-06)
(-0.0027766853 0.098459587 -1.2822794e-06)
(-0.00024852429 0.1041615 -1.2364617e-06)
(0.0015074891 0.10587072 -1.1456205e-06)
(0.0030288689 0.10792299 -1.0426933e-06)
(0.0041462095 0.1095607 -9.4261288e-07)
(0.0047522908 0.11117312 -8.532372e-07)
(0.0049108913 0.1126591 -7.7611037e-07)
(0.0047945515 0.11343384 -6.9500997e-07)
(0.0045270415 0.11347634 -6.5110446e-07)
(0.0042168538 0.11276938 -6.1097044e-07)
(0.0038833785 0.11110233 -5.6855185e-07)
(0.0035142095 0.10859111 -5.3303324e-07)
(0.0031436535 0.10558009 -5.0269182e-07)
(0.0027840509 0.10231454 -4.761741e-07)
(0.0024407897 0.098919511 -4.5251961e-07)
(0.002117184 0.095478112 -4.3095946e-07)
(0.001811647 0.092058812 -4.108386e-07)
(0.0015249692 0.088713727 -3.9157976e-07)
(0.0012559341 0.085480772 -3.7263251e-07)
(0.0010025212 0.082381769 -3.533851e-07)
(0.0007624706 0.079446514 -3.3303837e-07)
(0.00053314035 0.076637923 -3.1190324e-07)
(0.000312309 0.074147425 -2.8872861e-07)
(9.4146765e-05 0.070455553 -2.6530388e-07)
(-0.0094072097 -0.040757854 -8.7580301e-07)
(-0.0079987301 -0.038783583 -9.4070848e-07)
(-0.0065302741 -0.037092848 -9.2759211e-07)
(-0.0050856058 -0.033611222 -8.8117355e-07)
(-0.0037720957 -0.028643287 -8.2249079e-07)
(-0.0026503406 -0.023029174 -7.6094465e-07)
(-0.0017331667 -0.017268937 -7.0364428e-07)
(-0.0010158153 -0.011663399 -6.5128273e-07)
(-0.00047055849 -0.0066503053 -6.0288448e-07)
(-6.1030144e-05 -0.0022120357 -5.6658284e-07)
(0.00023654532 0.0016015058 -5.333032e-07)
(0.00044443988 0.0053211315 -5.0227504e-07)
(0.00058008322 0.0088754411 -4.7445395e-07)
(0.00066019849 0.012057901 -4.4950635e-07)
(0.00069618982 0.014798779 -4.2684213e-07)
(0.00069712436 0.017096729 -4.0591802e-07)
(0.0006696368 0.018984614 -3.8627658e-07)
(0.00062313854 0.020503264 -3.6740584e-07)
(0.00056083081 0.021675558 -3.4877931e-07)
(0.00048610149 0.02252197 -3.2979325e-07)
(0.00040208081 0.023063615 -3.0960832e-07)
(0.00031171004 0.023321473 -2.8677414e-07)
(0.0002176363 0.023305216 -2.6416369e-07)
(0.00012314853 0.023059138 -2.3668737e-07)
(3.0042015e-05 0.022210698 -2.0964406e-07)
(-0.0046146418 -0.015804544 -6.0867152e-07)
(-0.0044690433 -0.01834429 -6.851508e-07)
(-0.0042125311 -0.021088559 -7.0042098e-07)
(-0.0038895865 -0.023054984 -6.8373211e-07)
(-0.0035241325 -0.024277301 -6.5385037e-07)
(-0.0031450384 -0.024667435 -6.2133533e-07)
(-0.0027878428 -0.024399994 -5.815645e-07)
(-0.0024529985 -0.02369902 -5.4438749e-07)
(-0.0021447443 -0.022730377 -5.1063711e-07)
(-0.0018701178 -0.021563451 -4.8170937e-07)
(-0.001623145 -0.020282878 -4.5539591e-07)
(-0.001394794 -0.0188714 -4.311299e-07)
(-0.001188573 -0.01739647 -4.0887311e-07)
(-0.0010070077 -0.01591079 -3.8842553e-07)
(-0.0008484045 -0.014449974 -3.6924978e-07)
(-0.00071068317 -0.013046485 -3.5091443e-07)
(-0.00059259266 -0.011735765 -3.3326547e-07)
(-0.00048852169 -0.010549005 -3.1571579e-07)
(-0.00039791784 -0.0094939787 -2.9770711e-07)
(-0.0003192097 -0.0085716422 -2.7856526e-07)
(-0.00025049968 -0.0077825811 -2.5736187e-07)
(-0.00018970968 -0.0071264615 -2.328328e-07)
(-0.00013479477 -0.0065999328 -2.0367085e-07)
(-8.3391102e-05 -0.0061625617 -1.6423494e-07)
(-3.2623657e-05 -0.0058658275 -1.0518162e-07)
(-0.0011653948 -0.0036378474 -4.4975446e-07)
(-0.0013937343 -0.0046560485 -5.2084006e-07)
(-0.0015491813 -0.0056765478 -5.4909658e-07)
(-0.0016408233 -0.0066396085 -5.50488e-07)
(-0.0016828354 -0.0075811488 -5.3686374e-07)
(-0.0016796141 -0.0086593851 -5.1553777e-07)
(-0.0016381168 -0.0098146418 -4.8920739e-07)
(-0.001565746 -0.010816016 -4.6241669e-07)
(-0.0014764419 -0.011659219 -4.3704589e-07)
(-0.0013779557 -0.012344192 -4.1380548e-07)
(-0.0012751788 -0.012890137 -3.9228823e-07)
(-0.0011717252 -0.013297991 -3.7221331e-07)
(-0.0010681267 -0.013574092 -3.5341714e-07)
(-0.00096568273 -0.013700169 -3.3607592e-07)
(-0.0008654811 -0.013702115 -3.1927113e-07)
(-0.00076781979 -0.013621328 -3.0306221e-07)
(-0.00067258199 -0.013480888 -2.8678867e-07)
(-0.00058211286 -0.013295141 -2.7011746e-07)
(-0.00049483713 -0.013073867 -2.5252161e-07)
(-0.00041030083 -0.012823958 -2.3333172e-07)
(-0.00032835413 -0.012550965 -2.1152667e-07)
(-0.00024898627 -0.012260289 -1.8562708e-07)
(-0.00017236882 -0.011955272 -1.5344392e-07)
(-9.8954634e-05 -0.011598104 -1.1044758e-07)
(-3.062811e-05 -0.011147722 -5.5911366e-08)
(0.00019118453 -0.00054831469 -3.4819833e-07)
(2.3889725e-05 -0.00097189762 -4.0570326e-07)
(-0.00011942916 -0.0014132345 -4.3580202e-07)
(-0.00023961248 -0.0018574053 -4.4576582e-07)
(-0.00034743888 -0.0023019256 -4.4240668e-07)
(-0.00043902206 -0.0027655939 -4.3080582e-07)
(-0.0005040722 -0.0032426363 -4.1426424e-07)
(-0.00054499764 -0.0036893034 -3.956758e-07)
(-0.00056302479 -0.0041037937 -3.7679224e-07)
(-0.00056385555 -0.0044792824 -3.5848156e-07)
(-0.00055207795 -0.0048158106 -3.4095796e-07)
(-0.00053098726 -0.0051176417 -3.2423674e-07)
(-0.00050297958 -0.0053988549 -3.0827628e-07)
(-0.00046982931 -0.0056871519 -2.9302388e-07)
(-0.00043302751 -0.0059736863 -2.7814841e-07)
(-0.00039334075 -0.0062209298 -2.6342801e-07)
(-0.00035135699 -0.0064200701 -2.4847117e-07)
(-0.00030848447 -0.0065687004 -2.3288654e-07)
(-0.00026496838 -0.0066666403 -2.1617167e-07)
(-0.0002210858 -0.0067134621 -1.9786767e-07)
(-0.00017722198 -0.0067101953 -1.770617e-07)
(-0.00013385657 -0.0066597552 -1.5232438e-07)
(-9.1595309e-05 -0.0065667468 -1.2222493e-07)
(-5.1111561e-05 -0.0064132904 -8.4246615e-08)
(-1.4026605e-05 -0.0061258685 -3.8837031e-08)
(0.00048245367 0.00033284216 -2.7798168e-07)
(0.00037990844 0.00025114287 -3.2214509e-07)
(0.00029812276 0.00014804216 -3.4926859e-07)
(0.00022918631 1.8787655e-05 -3.6217991e-07)
(0.00017020716 -0.00012669911 -3.6448253e-07)
(0.00011595266 -0.00027823133 -3.594318e-07)
(6.2000411e-05 -0.00043767287 -3.4961227e-07)
(9.8867746e-06 -0.00060200803 -3.3711721e-07)
(-3.0854122e-05 -0.00076352114 -3.2339939e-07)
(-6.1523725e-05 -0.00091685775 -3.0933182e-07)
(-8.2810013e-05 -0.0010604935 -2.9534399e-07)
(-9.5803732e-05 -0.0011913462 -2.8162279e-07)
(-0.00010237069 -0.0013088185 -2.6822253e-07)
(-0.00010392058 -0.0014154381 -2.5510384e-07)
(-0.00010140225 -0.0015097516 -2.4210346e-07)
(-9.5873239e-05 -0.0015889301 -2.2901535e-07)
(-8.8118659e-05 -0.0016535143 -2.1555833e-07)
(-7.8925255e-05 -0.0017037868 -2.0140539e-07)
(-6.8826468e-05 -0.0017398443 -1.8616521e-07)
(-5.8166157e-05 -0.001761456 -1.6940436e-07)
(-4.7203016e-05 -0.001768548 -1.5058475e-07)
(-3.6181819e-05 -0.0017615796 -1.2892905e-07)
(-2.5272516e-05 -0.0017430242 -1.0358928e-07)
(-1.4447972e-05 -0.0017119065 -7.3588507e-08)
(-3.8423431e-06 -0.001626194 -3.7095623e-08)
(0.00043573096 0.00051091249 -2.2495512e-07)
(0.00035969903 0.00052306966 -2.5833509e-07)
(0.0003076228 0.0005303367 -2.8111982e-07)
(0.00026062001 0.0005341348 -2.9412503e-07)
(0.00022189774 0.00052829222 -2.991141e-07)
(0.00018823661 0.00050939996 -2.9804914e-07)