/*--------------------------------*- C++ -*----------------------------------*\
| =========                 |                                                 |
| \\      /  F ield         | OpenFOAM: The Open Source CFD Toolbox           |
|  \\    /   O peration     | Version:  4.0                                   |
|   \\  /    A nd           | Web:      www.OpenFOAM.org                      |
|    \\/     M anipulation  |                                                 |
\*---------------------------------------------------------------------------*/
FoamFile
{
    version     2.0;
    format      ascii;
    class       volScalarField;
    location    "0.41";
    object      k;
}
// * * * * * * * * * * * * * * * * * * * * * * * * * * * * * * * * * * * * * //

dimensions      [0 2 -2 0 0 0 0];

internalField   nonuniform List<scalar> 
1740
(
0.0088557843
0.0091326903
0.018268062
0.0092850151
0.009947344
0.027117289
0.0096409751
0.010475048
0.034158931
0.0099136573
0.010695455
0.041085901
0.010100336
0.011039809
0.047360484
0.010185426
0.011525558
0.052327857
0.010266043
0.011962931
0.056603319
0.010314216
0.012244932
0.059750258
0.010373867
0.012598344
0.062510621
0.010322922
0.01325425
0.064859601
0.010205616
0.013494197
0.066151262
0.010071797
0.013423047
0.067413242
0.010027045
0.013540998
0.068020741
0.0099071839
0.013626641
0.069198501
0.0098067241
0.013730323
0.070479266
0.0096652455
0.014049027
0.071229187
0.0095222955
0.014281612
0.071736128
0.0093575153
0.014177248
0.071820951
0.0092401017
0.014067235
0.072422276
0.0091282477
0.01430386
0.07241307
0.0089872897
0.014337279
0.072007836
0.0088533125
0.014166802
0.072385259
0.0087578679
0.014191822
0.073219144
0.0086664755
0.01460238
0.073395168
0.0086602948
0.015198228
0.073274354
0.0085242199
0.01524945
0.072790497
0.0084355781
0.014891597
0.072239981
0.0083406675
0.014824301
0.071811843
0.0083397413
0.014780602
0.071288764
0.0089228168
0.01595488
0.066333396
0.012696168
0.017994213
0.04710184
0.023933091
0.031091561
0.039704835
0.010257367
0.012497436
0.013686701
0.0042652952
0.0045951602
0.0046628654
0.0020732728
0.0021156614
0.0020913638
0.0011404376
0.0011411843
0.0011229504
0.00068780773
0.00068520133
0.00067697303
0.00044414773
0.00044275402
0.00043988929
0.00030103372
0.00030061939
0.00030008447
0.00021042727
0.00021046679
0.00021078857
0.00014937091
0.00014956018
0.00015009748
0.00010625348
0.00010645479
0.00010695642
7.4918401e-05
7.5082034e-05
7.5469702e-05
5.1923599e-05
5.2039575e-05
5.2307461e-05
3.518029e-05
3.5254666e-05
3.5424094e-05
2.3255839e-05
2.3299517e-05
2.3398237e-05
1.5031986e-05
1.5055528e-05
1.5108519e-05
9.5695849e-06
9.5811574e-06
9.6072263e-06
6.0831038e-06
6.0882865e-06
6.1000308e-06
3.9487338e-06
3.9509115e-06
3.9558715e-06
2.6967872e-06
2.6977273e-06
2.6998707e-06
1.9955331e-06
1.99606e-06
1.9972545e-06
1.625312e-06
1.6257664e-06
1.6267826e-06
1.4474295e-06
1.4479188e-06
1.4490028e-06
1.3777779e-06
1.3783131e-06
1.3794936e-06
1.3671701e-06
1.3677318e-06
1.3689678e-06
1.3877821e-06
1.3883474e-06
1.3895897e-06
1.4243511e-06
1.4249026e-06
1.4261134e-06
1.4687329e-06
1.4692597e-06
1.4704155e-06
1.516675e-06
1.5171714e-06
1.5182599e-06
1.5659723e-06
1.566436e-06
1.5674522e-06
1.6154469e-06
1.6158776e-06
1.6168212e-06
1.6643967e-06
1.6647952e-06
1.6656679e-06
1.7122962e-06
1.7126638e-06
1.7134686e-06
1.7586249e-06
1.7589631e-06
1.7597036e-06
1.8027475e-06
1.8030581e-06
1.8037379e-06
1.8438055e-06
1.8440902e-06
1.8447131e-06
1.8805931e-06
1.8808536e-06
1.8814235e-06
1.9114031e-06
1.9116412e-06
1.912162e-06
1.9338364e-06
1.9340537e-06
1.9345292e-06
1.944576e-06
1.9447744e-06
1.9452082e-06
1.9391463e-06
1.9393274e-06
1.9397232e-06
1.9116932e-06
1.9118584e-06
1.9122196e-06
1.8548601e-06
1.8550109e-06
1.8553406e-06
1.7598861e-06
1.7600238e-06
1.7603244e-06
1.6171206e-06
1.6172455e-06
1.6175178e-06
1.4172248e-06
1.4173345e-06
1.4175732e-06
1.1531382e-06
1.1532185e-06
1.1533909e-06
8.2238474e-07
8.2238361e-07
8.2237e-07
4.3081624e-07
4.3067295e-07
4.3033322e-07
0.056123234
0.060809079
0.046007157
0.046485932
0.012448533
0.011327308
0.0043536352
0.0041189877
0.0020002934
0.0019402587
0.0010931992
0.0010776541
0.000667625
0.00066530603
0.00043781964
0.00043947426
0.00030050527
0.00030302939
0.00021188675
0.00021423973
0.00015120388
0.00015308625
0.00010785465
0.00010924014
7.6122127e-05
7.7078995e-05
5.2743923e-05
5.3366269e-05
3.5695123e-05
3.6075234e-05
2.3554495e-05
2.3771498e-05
1.5191941e-05
1.5307181e-05
9.648265e-06
9.7048945e-06
6.1186139e-06
6.144331e-06
3.9637764e-06
3.9747766e-06
2.703307e-06
2.7081158e-06
1.9991579e-06
2.0018097e-06
1.6283689e-06
1.6305406e-06
1.4506677e-06
1.4529134e-06
1.3812921e-06
1.3836984e-06
1.3708433e-06
1.373342e-06
1.3914703e-06
1.3939696e-06
1.4279436e-06
1.4303715e-06
1.4721605e-06
1.4744726e-06
1.5199018e-06
1.522075e-06
1.5689841e-06
1.5710101e-06
1.6182426e-06
1.6201213e-06
1.6669819e-06
1.6687176e-06
1.7146799e-06
1.7162792e-06
1.7608176e-06
1.7622878e-06
1.8047604e-06
1.8061091e-06
1.8456499e-06
1.846885e-06
1.8822803e-06
1.8834097e-06
1.9129447e-06
1.913976e-06
1.9352435e-06
1.9361844e-06
1.9458598e-06
1.9467177e-06
1.9403175e-06
1.9410996e-06
1.9127617e-06
1.9134745e-06
1.855835e-06
1.8564845e-06
1.7607747e-06
1.7613653e-06
1.6179256e-06
1.6184592e-06
1.4179344e-06
1.4184063e-06
1.1536858e-06
1.1540759e-06
8.2254095e-07
8.2280751e-07
4.3031542e-07
4.3042331e-07
5.1890142e-06
2.7002443e-05
0.00013447942
0.0003051201
0.00046243401
0.00057343408
0.00064373635
0.00068733072
0.00071600479
0.00073689857
0.00075405913
0.00077051909
0.00078591559
0.00080001238
0.00081249949
0.0008228288
0.00083002028
0.00083241495
0.00082730615
0.00081042866
0.00077524969
0.00071209997
0.00060749427
0.00044441753
0.00020261299
2.5674185e-06
5.4741131e-05
0.0002510368
0.00051593076
0.0007279151
0.0008594652
0.00093539605
0.0009798679
0.0010083274
0.0010288145
0.0010455792
0.0010611643
0.001075425
0.0010880965
0.0010987836
0.0011068644
0.0011112112
0.001109917
0.0010997939
0.0010757359
0.0010297662
0.00094964939
0.00081714514
0.00060676552
0.0002873003
7.9603861e-06
0.00015982976
0.00061559646
0.001079236
0.0013622015
0.0015049418
0.0015723956
0.001603952
0.0016195991
0.0016278053
0.0016329452
0.0016359299
0.0016379769
0.0016384345
0.0016368066
0.001632621
0.0016248231
0.0016116261
0.0015896244
0.0015532392
0.0014934714
0.0013956397
0.0012350849
0.00096894308
0.00052171245
3.7509538e-05
0.00057869165
0.0016842213
0.0024346868
0.0027712732
0.0028851337
0.0028945347
0.0028643101
0.0028243494
0.0027795816
0.0027350212
0.0026925459
0.0026526575
0.0026122143
0.0025706378
0.0025283423
0.0024848329
0.0024386853
0.002387165
0.0023255151
0.0022458513
0.002134921
0.0019684369
0.0016935055
0.0011533381
0.00028015655
0.0024418517
0.0049075886
0.0060276183
0.0063735749
0.0063123458
0.0060835376
0.0058206565
0.005571837
0.0053217654
0.0050821523
0.0048583391
0.0046552559
0.0044587134
0.004267649
0.0040868734
0.0039173281
0.0037584267
0.0036083806
0.0034637219
0.0033188236
0.0031654662
0.0029926633
0.002792083
0.0025820894
0.0023515855
0.010491403
0.016526163
0.018475576
0.018020263
0.01647141
0.014664191
0.012982854
0.011506173
0.010233656
0.0091450236
0.0082179996
0.0074274249
0.0067494568
0.0061663238
0.0056647984
0.005233579
0.0048624076
0.0045419333
0.0042633691
0.0040179082
0.0037966173
0.0035909337
0.0034001857
0.0032398362
0.044907277
0.034006362
0.026487828
0.021327636
0.017687045
0.015000501
0.012928644
0.011285851
0.0099639946
0.0088879612
0.0080009157
0.0072597892
0.0066320378
0.0060934043
0.0056260177
0.0052173408
0.0048586885
0.0045435632
0.0042665199
0.0040223844
0.0038056282
0.003610324
0.0034307838
0.0032683812
0.0031382998
0.03715545
0.030886824
0.027699483
0.025079356
0.022215623
0.019249242
0.016539807
0.014248453
0.012373077
0.010836363
0.0095691773
0.0085151077
0.0076308189
0.0068865075
0.0062584184
0.0057271307
0.005276378
0.0048925139
0.0045638688
0.0042799818
0.0040308416
0.0038067053
0.0035984442
0.0034052144
0.0032428373
0.010196237
0.0095279001
0.0091906127
0.0088716882
0.0084102929
0.0078463206
0.0072901835
0.0067950074
0.0063449045
0.005947598
0.0056000088
0.0052962742
0.0050111722
0.0047475734
0.0045068858
0.0042884218
0.0040900915
0.0039090335
0.003741409
0.0035822161
0.003424763
0.0032601273
0.0030768515
0.0028663602
0.002647118
0.0039618196
0.0038892563
0.0038667964
0.0038260478
0.0037317478
0.0035969083
0.0034573986
0.0033282243
0.0032117763
0.0031101895
0.0030224811
0.0029455546
0.0028738366
0.0028067399
0.0027440882
0.0026850726
0.0026280391
0.0025704146
0.0025084491
0.0024366737
0.0023468071
0.0022254677
0.00204834
0.0017617892
0.0012037592
0.0019223412
0.0019354197
0.0019604267
0.0019751398
0.0019686248
0.0019444236
0.0019134315
0.0018826301
0.001855079
0.0018321042
0.0018134945
0.0017980116
0.0017840011
0.0017708141
0.0017581005
0.0017446694
0.0017286649
0.0017073192
0.0016765968
0.0016305583
0.0015601873
0.0014511485
0.0012793185
0.0010019386
0.00054204373
0.001081734
0.0010999244
0.0011233808
0.0011432789
0.0011550595
0.0011594655
0.0011601011
0.0011599566
0.001160762
0.0011632664
0.0011674379
0.0011727228
0.0011783525
0.0011836661
0.0011879279
0.0011899536
0.0011879495
0.001179316
0.0011603578
0.00112582
0.0010681419
0.00097628085
0.00083400593
0.00061809775
0.00029834551
0.00067234047
0.00068640711
0.00070345884
0.00071964075
0.0007328123
0.00074293228
0.00075121189
0.00075896078
0.00076707397
0.0007759836
0.00078570933
0.0007959679
0.00080629613
0.00081612593
0.00082469323
0.00083088301
0.0008331069
0.00082916138
0.0008160485
0.00078974479
0.00074492126
0.00067465887
0.00057027767
0.0004211852
0.00021080237
0.00044582384
0.00045589393
0.00046783172
0.00047985413
0.00049087043
0.00050067526
0.00050966534
0.00051839947
0.00052732194
0.00053666417
0.00054643639
0.00055645905
0.0005664019
0.00057579198
0.00058396398
0.00058998006
0.00059254905
0.00058994667
0.00057994119
0.00055975035
0.00052610329
0.00047560341
0.00040592373
0.00031951903
0.0002361619
0.00030805853
0.00031517307
0.00032350802
0.00033218658
0.00034063155
0.00034865764
0.00035637188
0.00036400241
0.00037175461
0.00037973846
0.00038794258
0.00039623349
0.00040435832
0.00041193527
0.00041842162
0.00042306906
0.00042487846
0.00042256643
0.00041455942
0.00039905265
0.00037421754
0.00033874099
0.00029309439
0.00024238163
0.00020201022
0.00021801185
0.00022300815
0.00022881179
0.00023497952
0.00024119046
0.00024730465
0.0002533312
0.00025935343
0.00026545789
0.00027168694
0.0002780131
0.00028432848
0.00029043583
0.00029603584
0.00030070531
0.00030387148
0.00030479042
0.00030254007
0.00029604338
0.0002841501
0.00026582823
0.00024055394
0.00020904842
0.00017460787
0.00014368264
0.00015581145
0.00015928075
0.00016328482
0.0001675906
0.00017201546
0.00017646073
0.00018090411
0.00018536738
0.00018987957
0.00019444796
0.0001990388
0.00020356487
0.00020787528
0.00021174327
0.00021485206
0.00021678031
0.00021699271
0.0002148434
0.00020960108
0.00020050807
0.00018688299
0.00016825481
0.00014440883
0.00011473247
7.3408493e-05
0.00011113922
0.00011349827
0.0001162075
0.00011913993
0.00012218874
0.00012528655
0.00012840499
0.0001315408
0.00013469703
0.00013786541
0.00014101308
0.00014407245
0.00014693203
0.00014942742
0.00015133176
0.0001523475
0.00015210234
0.00015015385
0.00014600566
0.00013913631
0.00012903084
0.00011517549
9.68952e-05
7.2675902e-05
3.8301897e-05
7.8349589e-05
7.9903916e-05
8.1681631e-05
8.3611567e-05
8.5629787e-05
8.7690774e-05
8.97693e-05
9.185385e-05
9.3937276e-05
9.6006291e-05
9.8033166e-05
9.9968277e-05
0.00010173327
0.00010321472
0.00010425804
0.00010466243
0.00010417885
0.0001025123
9.9329048e-05
9.4265961e-05
8.6931642e-05
7.6876134e-05
6.3489445e-05
4.5773989e-05
2.2126424e-05
5.4176787e-05
5.5158246e-05
5.6276628e-05
5.7491107e-05
5.8762953e-05
6.0062012e-05
6.1368266e-05
6.2669333e-05
6.3955554e-05
6.5214137e-05
6.6423978e-05
6.7550772e-05
6.8542529e-05
6.9325326e-05
6.979944e-05
6.9836189e-05
6.9276298e-05
6.7930066e-05
6.5579017e-05
6.1976747e-05
5.6844595e-05
4.9857993e-05
4.0631414e-05
2.8750167e-05
1.3985879e-05
3.6564359e-05
3.7152213e-05
3.781963e-05
3.8542741e-05
3.9298335e-05
4.0066598e-05
4.0833013e-05
4.158714e-05
4.232022e-05
4.302207e-05
4.3677962e-05
4.4265738e-05
4.4752911e-05
4.5094166e-05
4.5228866e-05
4.5078975e-05
4.4547601e-05
4.3517953e-05
4.1852579e-05
3.9391997e-05
3.5952715e-05
3.1329116e-05
2.5317135e-05
1.7805815e-05
8.9844838e-06
2.4048645e-05
2.4379801e-05
2.4754044e-05
2.5157684e-05
2.5576792e-05
2.599888e-05
2.641397e-05
2.6814355e-05
2.7193393e-05
2.7543841e-05
2.7856249e-05
2.8117155e-05
2.8307504e-05
2.8401146e-05
2.8363275e-05
2.8149063e-05
2.7702348e-05
2.6954325e-05
2.5822165e-05
2.420778e-05
2.1998303e-05
1.9073768e-05
1.5335154e-05
1.0776872e-05
5.6271053e-06
1.5453697e-05
1.5627889e-05
1.5823645e-05
1.6033234e-05
1.6248413e-05
1.646163e-05
1.6666442e-05
1.6857634e-05
1.7030671e-05
1.7180895e-05
1.7302604e-05
1.7388115e-05
1.7426871e-05
1.7404528e-05
1.7302083e-05
1.7094874e-05
1.6751552e-05
1.623293e-05
1.5490807e-05
1.4467283e-05
1.3096206e-05
1.1310589e-05
9.0627305e-06
6.364923e-06
3.3475626e-06
9.7767454e-06
9.8618438e-06
9.9568403e-06
1.0057419e-05
1.015891e-05
1.0256857e-05
1.034734e-05
1.0427072e-05
1.0493188e-05
1.0542863e-05
1.057284e-05
1.0578926e-05
1.0555491e-05
1.0494938e-05
1.0387137e-05
1.0218825e-05
9.9727477e-06
9.6268847e-06
9.1535895e-06
8.5193137e-06
7.6861016e-06
6.6169021e-06
5.2876431e-06
3.7080818e-06
1.9472969e-06
6.1769613e-06
6.2154833e-06
6.2581124e-06
6.3025041e-06
6.3460885e-06
6.3863477e-06
6.4210119e-06
6.4481295e-06
6.466002e-06
6.4729956e-06
6.4673055e-06
6.4466867e-06
6.4081672e-06
6.3477161e-06
6.2598608e-06
6.1372225e-06
5.9699437e-06
5.7453312e-06
5.4472992e-06
5.0561356e-06
4.5497672e-06
3.9072128e-06
3.1154466e-06
2.1797626e-06
1.1328301e-06
3.9887527e-06
4.0051848e-06
4.0231467e-06
4.0414044e-06
4.0585682e-06
4.0732701e-06
4.0842393e-06
4.0903621e-06
4.090657e-06
4.0841903e-06
4.0699445e-06
4.0466696e-06
4.0127042e-06
3.9657578e-06
3.902652e-06
3.8189659e-06
3.7087643e-06
3.564016e-06
3.3744844e-06
3.1279501e-06
2.8108517e-06
2.4105529e-06
1.9194046e-06
1.3405654e-06
6.9315718e-07
2.7142373e-06
2.7214093e-06
2.7291579e-06
2.7368421e-06
2.7437253e-06
2.7490607e-06
2.7521505e-06
2.7523547e-06
2.7490935e-06
2.7417986e-06
2.7298385e-06
2.7124192e-06
2.688463e-06
2.6564545e-06
2.6142472e-06
2.558831e-06
2.4861178e-06
2.390522e-06
2.2647801e-06
2.1003556e-06
1.88801e-06
1.6192974e-06
1.2892229e-06
8.999467e-07
4.6399363e-07
2.0051789e-06
2.009131e-06
2.0134206e-06
2.0177107e-06
2.0216068e-06
2.0246956e-06
2.0265759e-06
2.0268669e-06
2.0251956e-06
2.0211718e-06
2.0143343e-06
2.0040772e-06
1.9895556e-06
1.9695622e-06
1.9423716e-06
1.9055576e-06
1.8557943e-06
1.7886627e-06
1.6984819e-06
1.5784431e-06
1.421378e-06
1.2208585e-06
9.7318971e-07
6.8003713e-07
3.5148843e-07
1.6332767e-06
1.6365019e-06
1.6400811e-06
1.6438273e-06
1.6475163e-06
1.650905e-06
1.6537436e-06
1.6557775e-06
1.6567369e-06
1.6563096e-06
1.6541011e-06
1.6495717e-06
1.6419538e-06
1.6301428e-06
1.6125608e-06
1.5869962e-06
1.5504303e-06
1.4988944e-06
1.4273976e-06
1.3299759e-06
1.2003883e-06
1.0331228e-06
8.2508205e-07
5.7767203e-07
3.004491e-07
1.4557202e-06
1.459038e-06
1.4627824e-06
1.466837e-06
1.4710597e-06
1.4752898e-06
1.4793518e-06
1.4830517e-06
1.4861648e-06
1.4884121e-06
1.4894203e-06
1.4886652e-06
1.4853934e-06
1.4785187e-06
1.4664931e-06
1.4471569e-06
1.4175821e-06
1.3739443e-06
1.311481e-06
1.2245852e-06
1.1073843e-06
9.5473682e-07
7.6377101e-07
5.3559185e-07
2.7819105e-07
1.3866909e-06
1.3902292e-06
1.3942509e-06
1.3986719e-06
1.4033887e-06
1.4082794e-06
1.4132039e-06
1.4179966e-06
1.4224533e-06
1.4263065e-06
1.4291872e-06
1.4305686e-06
1.4296884e-06
1.425447e-06
1.4162796e-06
1.4000105e-06
1.3737023e-06
1.3335348e-06
1.2747753e-06
1.1919043e-06
1.0791429e-06
9.3145196e-07
7.4603558e-07
5.2395575e-07
2.7270786e-07
1.3764399e-06
1.3800997e-06
1.3842684e-06
1.3888768e-06
1.3938392e-06
1.3990527e-06
1.4043944e-06
1.4097127e-06
1.4148128e-06
1.4194312e-06
1.4231972e-06
1.4255759e-06
1.4257897e-06
1.4227145e-06
1.4147523e-06
1.3996836e-06
1.3745188e-06
1.3353795e-06
1.2774722e-06
1.1952334e-06
1.0828398e-06
9.3520952e-07
7.4950574e-07
5.2675707e-07
2.7441424e-07
1.3970616e-06
1.4007101e-06
1.4048664e-06
1.4094686e-06
1.4144401e-06
1.4196881e-06
1.425099e-06
1.4305291e-06
1.4357884e-06
1.4406153e-06
1.4446357e-06
1.4473057e-06
1.4478306e-06
1.4450598e-06
1.437356e-06
1.422446e-06
1.3972699e-06
1.3578635e-06
1.2993324e-06
1.2160082e-06
1.1019557e-06
9.5197504e-07
7.6311947e-07
5.3638321e-07
2.8051947e-07
1.4333705e-06
1.436905e-06
1.4409288e-06
1.4453842e-06
1.4502003e-06
1.4552907e-06
1.4605478e-06
1.465833e-06
1.4709602e-06
1.4756679e-06
1.4795791e-06
1.4821406e-06
1.4825412e-06
1.4796032e-06
1.4716483e-06
1.4563459e-06
1.4305592e-06
1.3902256e-06
1.3303335e-06
1.245083e-06
1.1283969e-06
9.7492441e-07
7.8156657e-07
5.4919625e-07
2.8679219e-07
1.4773247e-06
1.4806822e-06
1.4845011e-06
1.4887268e-06
1.4932929e-06
1.4981175e-06
1.5030978e-06
1.5080995e-06
1.5129388e-06
1.5173548e-06
1.520967e-06
1.5232135e-06
1.5232666e-06
1.5199216e-06
1.5114591e-06
1.4954897e-06
1.4687968e-06
1.4272151e-06
1.3656083e-06
1.2780343e-06
1.1582616e-06
1.0007762e-06
8.023216e-07
5.6361884e-07
2.9358973e-07
1.5247531e-06
1.5279025e-06
1.5314812e-06
1.5354378e-06
1.5397092e-06
1.5442177e-06
1.5488647e-06
1.553519e-06
1.5579994e-06
1.5620448e-06
1.5652711e-06
1.5671079e-06
1.5667109e-06
1.5628484e-06
1.5537601e-06
1.5369975e-06
1.5092632e-06
1.4662873e-06
1.4028052e-06
1.312728e-06
1.189662e-06
1.0279226e-06
8.2410427e-07
5.789182e-07
3.0166004e-07
1.5735045e-06
1.5764353e-06
1.5797625e-06
1.5834374e-06
1.5874004e-06
1.5915775e-06
1.5958734e-06
1.6001601e-06
1.604258e-06
1.6079058e-06
1.6107157e-06
1.6121082e-06
1.6112227e-06
1.6068005e-06
1.5970403e-06
1.5794346e-06
1.550605e-06
1.5061764e-06
1.4407548e-06
1.3481014e-06
1.2216581e-06
1.055573e-06
8.4632968e-07
5.9482405e-07
3.0982659e-07
1.6224326e-06
1.625146e-06
1.6282238e-06
1.6316198e-06
1.6352777e-06
1.6391266e-06
1.6430744e-06
1.6469958e-06
1.6507124e-06
1.6539624e-06
1.6563537e-06
1.6572978e-06
1.6559177e-06
1.6509275e-06
1.6404851e-06
1.6220243e-06
1.5920861e-06
1.5461905e-06
1.4788131e-06
1.3835646e-06
1.2537202e-06
1.0832542e-06
8.6849033e-07
6.1026229e-07
3.177309e-07
1.6708516e-06
1.673355e-06
1.6761923e-06
1.6793199e-06
1.6826842e-06
1.6862173e-06
1.6898299e-06
1.6933989e-06
1.6967471e-06
1.6996113e-06
1.7015955e-06
1.7021015e-06
1.7002356e-06
1.6946852e-06
1.6835676e-06
1.6642582e-06
1.6332183e-06
1.5858637e-06
1.5165409e-06
1.4187099e-06
1.2854809e-06
1.1106595e-06
8.9041689e-07
6.2550515e-07
3.2532424e-07
1.7182442e-06
1.7205479e-06
1.7231567e-06
1.7260294e-06
1.7291151e-06
1.7323486e-06
1.735643e-06
1.7388772e-06
1.7418745e-06
1.7443706e-06
1.7459645e-06
1.7460488e-06
1.7437128e-06
1.7376173e-06
1.7258395e-06
1.7056971e-06
1.673573e-06
1.6247807e-06
1.5535396e-06
1.4531614e-06
1.3165949e-06
1.1374843e-06
9.1186907e-07
6.4038762e-07
3.3185295e-07
1.7640932e-06
1.7662084e-06
1.7686018e-06
1.7712344e-06
1.7740577e-06
1.7770091e-06
1.7800038e-06
1.7829221e-06
1.785588e-06
1.7877351e-06
1.7889579e-06
1.7886391e-06
1.7858514e-06
1.7792292e-06
1.7668099e-06
1.7458552e-06
1.7126715e-06
1.6624726e-06
1.5893549e-06
1.4864871e-06
1.3466621e-06
1.1633734e-06
9.3255167e-07
6.5482607e-07
3.3916936e-07
1.8077647e-06
1.809703e-06
1.8118943e-06
1.8143018e-06
1.8168793e-06
1.8195661e-06
1.8222796e-06
1.8249014e-06
1.8272553e-06
1.8290733e-06
1.8299445e-06
1.8292421e-06
1.8260221e-06
1.818893e-06
1.8058538e-06
1.7841116e-06
1.7498991e-06
1.6983352e-06
1.6233998e-06
1.5181269e-06
1.3751653e-06
1.1878751e-06
9.5210295e-07
6.6847714e-07
3.4612003e-07
1.8484004e-06
1.8501733e-06
1.8521759e-06
1.8543733e-06
1.8567212e-06
1.859161e-06
1.8616117e-06
1.8639559e-06
1.8660172e-06
1.8675256e-06
1.8680649e-06
1.8669986e-06
1.8633664e-06
1.8557517e-06
1.8421165e-06
1.8196163e-06
1.7844145e-06
1.7315417e-06
1.654871e-06
1.5473149e-06
1.4013956e-06
1.2103575e-06
9.6996186e-07
6.8075712e-07
3.5318246e-07
1.8847945e-06
1.8864136e-06
1.8882407e-06
1.8902426e-06
1.8923769e-06
1.8945869e-06
1.8967929e-06
1.8988782e-06
1.9006661e-06
1.9018843e-06
1.9021113e-06
1.9007009e-06
1.8966776e-06
1.8886005e-06
1.8743973e-06
1.8511757e-06
1.8150367e-06
1.7609325e-06
1.6826437e-06
1.5729821e-06
1.4243693e-06
1.2299651e-06
9.8547208e-07
6.9133123e-07
3.5787812e-07
1.9152399e-06
1.9167165e-06
1.9183811e-06
1.920202e-06
1.9221386e-06
1.9241355e-06
1.9261145e-06
1.9279593e-06
1.9294928e-06
1.93044e-06
1.9303745e-06
1.9286408e-06
1.9242489e-06
1.9157361e-06
1.9009992e-06
1.8771046e-06
1.8401002e-06
1.7848746e-06
1.7051375e-06
1.593629e-06
1.4427093e-06
1.2455012e-06
9.9770669e-07
6.9977802e-07
3.6208067e-07
1.9373368e-06
1.9386821e-06
1.9401968e-06
1.9418509e-06
1.9436051e-06
1.9454055e-06
1.9471748e-06
1.9487972e-06
1.9500948e-06
1.9507904e-06
1.9504527e-06
1.9484181e-06
1.9436835e-06
1.9347679e-06
1.9195429e-06
1.8950424e-06
1.8572755e-06
1.8010885e-06
1.72015e-06
1.6071696e-06
1.4544989e-06
1.2552842e-06
1.0052844e-06
7.0501011e-07
3.6487576e-07
1.9477679e-06
1.9489927e-06
1.9503699e-06
1.9518707e-06
1.9534572e-06
1.9550768e-06
1.956653e-06
1.9580705e-06
1.9591507e-06
1.9596144e-06
1.9590264e-06
1.9567161e-06
1.951671e-06
1.9423964e-06
1.9267472e-06
1.9017383e-06
1.8633607e-06
1.8064477e-06
1.7246689e-06
1.6107582e-06
1.4571257e-06
1.2570136e-06
1.006297e-06
7.0561175e-07
3.642298e-07
1.9420562e-06
1.9431707e-06
1.9444218e-06
1.945782e-06
1.9472146e-06
1.9486681e-06
1.9500669e-06
1.9512962e-06
1.9521772e-06
1.9524295e-06
1.9516154e-06
1.9490607e-06
1.9437475e-06
1.9341759e-06
1.9181966e-06
1.8928253e-06
1.8540635e-06
1.7967736e-06
1.7146824e-06
1.6006207e-06
1.4471426e-06
1.2476678e-06
9.9821815e-07
6.9935544e-07
3.5999562e-07
1.9143456e-06
1.915359e-06
1.9164945e-06
1.9177255e-06
1.9190164e-06
1.9203168e-06
1.9215524e-06
1.9226092e-06
1.9233091e-06
1.9233721e-06
1.9223609e-06
1.9196023e-06
1.914081e-06
1.9043038e-06
1.8881361e-06
1.8626223e-06
1.8238155e-06
1.7666635e-06
1.6850264e-06
1.571927e-06
1.4201712e-06
1.2234627e-06
9.7805825e-07
6.845804e-07
3.5183263e-07
1.857277e-06
1.8581973e-06
1.8592258e-06
1.8603372e-06
1.8614967e-06
1.8626553e-06
1.8637401e-06
1.8646391e-06
1.8651763e-06
1.8650751e-06
1.8639033e-06
1.8609963e-06
1.8553536e-06
1.845507e-06
1.8293639e-06
1.8040371e-06
1.7656868e-06
1.7094224e-06
1.6293356e-06
1.5187633e-06
1.3708998e-06
1.1798659e-06
9.4225813e-07
6.5886675e-07
3.3886438e-07
1.7620846e-06
1.7629178e-06
1.7638462e-06
1.7648452e-06
1.7658813e-06
1.7669069e-06
1.7678516e-06
1.7686066e-06
1.7690009e-06
1.7687654e-06
1.7674809e-06
1.7645032e-06
1.7588645e-06
1.7491487e-06
1.7333444e-06
1.7086868e-06
1.6715172e-06
1.6172051e-06
1.5401994e-06
1.434299e-06
1.2932475e-06
1.111739e-06
8.8683222e-07
6.1948388e-07
3.1847989e-07
1.6191071e-06
1.6198551e-06
1.6206864e-06
1.6215765e-06
1.622492e-06
1.6233889e-06
1.6242013e-06
1.6248257e-06
1.6250992e-06
1.6247671e-06
1.6234337e-06
1.6204928e-06
1.6150349e-06
1.6057345e-06
1.5907158e-06
1.5674086e-06
1.5324301e-06
1.4815325e-06
1.409673e-06
1.3112839e-06
1.180834e-06
1.0137497e-06
8.0766582e-07
5.6377293e-07
2.9028173e-07
1.4189753e-06
1.4196286e-06
1.4203546e-06
1.4211266e-06
1.4219094e-06
1.4226674e-06
1.4233466e-06
1.4238507e-06
1.4240282e-06
1.4236466e-06
1.4223483e-06
1.4195874e-06
1.4145478e-06
1.4060463e-06
1.3924159e-06
1.3713732e-06
1.3399269e-06
1.2943581e-06
1.2303048e-06
1.1430181e-06
1.0278645e-06
8.8114391e-07
7.0113813e-07
4.8921975e-07
2.5266529e-07
1.1545373e-06
1.1550601e-06
1.1556457e-06
1.1562589e-06
1.1568577e-06
1.1574327e-06
1.157956e-06
1.1583402e-06
1.1584466e-06
1.1580771e-06
1.1569196e-06
1.1545206e-06
1.1501997e-06
1.1429814e-06
1.1314981e-06
1.1138643e-06
1.0876151e-06
1.0497275e-06
9.9670866e-07
9.248163e-07
8.304364e-07
7.1084923e-07
5.6501628e-07
3.944107e-07
2.0484792e-07
8.2310999e-07
8.2343947e-07
8.2381852e-07
8.2419676e-07
8.245235e-07
8.2483986e-07
8.2516177e-07
8.2541291e-07
8.2547794e-07
8.2529614e-07
8.2441403e-07
8.2259575e-07
8.1935356e-07
8.1398966e-07
8.0553178e-07
7.926148e-07
7.7344794e-07
7.4589599e-07
7.075372e-07
6.558201e-07
5.8811889e-07
5.0276068e-07
3.9935395e-07
2.7942225e-07
1.4747133e-07
4.3054317e-07
4.3066026e-07
4.3080468e-07
4.3092626e-07
4.3098236e-07
4.310459e-07
4.3116015e-07
4.312766e-07
4.3142243e-07
4.3264992e-07
4.3227262e-07
4.3127454e-07
4.2949808e-07
4.2658367e-07
4.220271e-07
4.150961e-07
4.0479469e-07
3.90109e-07
3.6985635e-07
3.4281243e-07
3.0719734e-07
2.6237149e-07
2.0842279e-07
1.4671365e-07
8.0983228e-08
)
;

boundaryField
{
    Walls
    {
        type            kqRWallFunction;
        value           nonuniform List<scalar> 
38
(
5.1890142e-06
2.5674185e-06
7.9603861e-06
3.7509538e-05
0.00028015655
0.0023515855
0.056123234
0.060809079
0.018268062
0.027117289
0.034158931
0.041085901
0.047360484
0.052327857
0.056603319
0.059750258
0.062510621
0.064859601
0.066151262
0.067413242
0.068020741
0.069198501
0.070479266
0.071229187
0.071736128
0.071820951
0.072422276
0.07241307
0.072007836
0.072385259
0.073219144
0.073395168
0.073274354
0.072790497
0.072239981
0.071811843
0.071288764
0.066333396
)
;
    }
    Inlet
    {
        type            turbulentIntensityKineticEnergyInlet;
        intensity       0.05;
        value           nonuniform List<scalar> 3(0.0092271834 0.0082278235 0.0095652163);
    }
    Outlet
    {
        type            inletOutlet;
        inletValue      uniform 0;
        value           nonuniform List<scalar> 
86
(
0
0
0
0
0
0
0
0
0
0
0
0
0
0
0
0
0
0
0
0
0
0
0
0
0
0
0
0
0
0
0.0031382998
0.0032428373
0.002647118
0
0
0
0
0.0002361619
0.00020201022
0.00014368264
0
0
0
0
8.9844838e-06
5.6271053e-06
3.3475626e-06
1.9472969e-06
1.1328301e-06
6.9315718e-07
4.6399363e-07
3.5148843e-07
3.004491e-07
2.7819105e-07
2.7270786e-07
2.7441424e-07
2.8051947e-07
2.8679219e-07
2.9358973e-07
3.0166004e-07
0
0
0
0
0
0
0
0
0
0
0
0
0
0
0
0
0
0
0
0
0
0
0
0
0.0025820894
0.0032398362
)
;
    }
    Front
    {
        type            wedge;
    }
    Back
    {
        type            wedge;
    }
    defaultFaces
    {
        type            empty;
    }
}


// ************************************************************************* //
