/*--------------------------------*- C++ -*----------------------------------*\
| =========                 |                                                 |
| \\      /  F ield         | OpenFOAM: The Open Source CFD Toolbox           |
|  \\    /   O peration     | Version:  4.0                                   |
|   \\  /    A nd           | Web:      www.OpenFOAM.org                      |
|    \\/     M anipulation  |                                                 |
\*---------------------------------------------------------------------------*/
FoamFile
{
    version     2.0;
    format      ascii;
    class       volScalarField;
    location    "0.41";
    object      omega;
}
// * * * * * * * * * * * * * * * * * * * * * * * * * * * * * * * * * * * * * //

dimensions      [0 0 -1 0 0 0 0];

internalField   nonuniform List<scalar> 
1740
(
57.718736
644.36286
14918.682
162.33018
1378.4402
15026.686
266.41436
1844.3386
15112.587
355.95353
2124.8854
15195.051
454.63718
2431.6506
15270.161
564.95024
2754.8579
15331.169
695.99554
3024.3754
15382.74
844.88609
3220.3048
15417.332
983.2481
3403.6025
15449.9
1084.5096
3622.6284
15479.992
1160.078
3732.6433
15492.93
1246.9167
3766.4479
15508.492
1348.6014
3824.4933
15515.6
1422.3525
3865.783
15528.464
1482.8121
3906.0073
15545.434
1546.0278
3985.1457
15553.326
1601.179
4047.2191
15558.458
1645.3278
4040.7029
15558.581
1702.0781
4027.6593
15566.083
1753.1701
4078.7206
15568.052
1785.8293
4089.9611
15561.555
1814.8
4057.09
15568.595
1848.0988
4057.7137
15578.755
1883.5015
4133.5835
15578.19
1935.4119
4248.5386
15578.638
1945.9548
4264.1226
15572.139
1962.6348
4198.2772
15567.292
1974.9842
4186.917
15562.333
2000.3606
4169.6484
15552.127
2120.9742
4263.453
15494.384
3196.1195
4551.55
10720.698
3329.0073
4227.9977
5927.1276
1570.1736
1856.3539
2151.061
823.73529
898.4141
957.36515
478.13089
496.16684
506.44383
300.87315
304.5203
304.56308
201.62329
201.9032
200.41015
142.31537
141.973
140.69663
105.07287
104.7337
103.87988
80.748744
80.512617
79.985354
64.367084
64.218752
63.902663
53.100993
53.010953
52.822706
45.285316
45.231019
45.118098
39.896042
39.863026
39.794152
36.261601
36.241243
36.198388
33.903471
33.890852
33.863824
32.455371
32.447764
32.430821
31.628048
31.6239
31.613576
31.181507
31.17885
31.171612
30.884037
30.881359
30.875009
30.652766
30.65046
30.645089
30.455941
30.454092
30.449663
30.275243
30.273916
30.270425
30.10135
30.100602
30.098056
29.932024
29.931815
29.930129
29.770553
29.770718
29.769692
29.622643
29.622985
29.622377
29.492949
29.493316
29.492934
29.383254
29.38357
29.383296
29.292582
29.292823
29.292598
29.218169
29.218338
29.218136
29.156382
29.156492
29.156304
29.103199
29.103264
29.103086
29.054202
29.054236
29.054068
29.004163
29.004174
29.004016
28.946256
28.946252
28.946107
28.870911
28.870899
28.870768
28.764243
28.764228
28.764113
28.606027
28.606012
28.605918
28.367204
28.367195
28.367127
28.007002
28.007004
28.006968
27.469909
27.469928
27.469936
26.683005
26.683048
26.683115
25.554513
25.554589
25.554735
23.9751
23.975218
23.975464
21.827294
21.827469
21.827844
18.993917
18.994136
18.994599
15.383896
15.383995
15.38417
10.957266
10.95659
10.954964
5.7653873
5.763157
5.7579287
13479.01
13533.947
5989.8108
5326.4117
2080.2301
1878.6433
921.53619
853.16317
490.05554
463.13394
296.36518
284.4258
196.04484
190.26941
138.3013
135.33865
102.53969
100.95176
79.223486
78.342707
63.462993
62.959974
52.564744
52.269511
44.963554
44.785056
39.699103
39.587445
36.138252
36.065822
33.824885
33.776372
32.405319
32.372057
31.596765
31.57346
31.159258
31.141515
30.864621
30.849754
30.636296
30.623581
30.442209
30.431172
30.264171
30.254545
30.092927
30.084585
29.926034
29.918915
29.766485
29.760534
29.619884
29.615017
29.490993
29.487088
29.381776
29.378686
29.291397
29.288969
29.217176
29.215269
29.155527
29.154019
29.102449
29.101245
29.053537
29.052563
29.00357
29.002772
28.945729
28.945068
28.870448
28.869899
28.763845
28.763392
28.605701
28.605335
28.366964
28.366682
28.006866
28.006676
27.469908
27.469822
26.683181
26.683223
25.554923
25.555129
23.975811
23.976226
21.828386
21.829055
18.995331
18.996245
15.384903
15.385892
10.955037
10.955678
5.7565789
5.7565354
12058.188
2043.3945
696.54304
369.13164
281.31328
257.08212
249.94093
246.89797
244.55152
242.15655
239.63278
236.88076
234.04128
231.12488
228.09718
224.89389
221.40155
217.42408
212.6286
206.46073
197.99883
185.68895
166.83223
136.39979
82.691708
12058.133
2037.4258
697.7617
374.70854
283.22979
254.37999
242.84132
235.63081
229.52937
223.74048
218.06772
212.44563
206.94241
201.53836
196.21207
190.93518
185.6511
180.25579
174.56193
168.24686
160.75892
151.13033
137.5625
116.35741
78.092314
12058.179
2030.6423
718.65481
430.6855
359.28503
332.35405
314.99164
300.50305
287.2756
274.73724
262.76994
251.18981
240.22222
229.76922
219.76879
210.20692
201.0626
192.28942
183.78645
175.37505
166.7413
157.30328
145.85489
129.43929
98.746408
12058.525
2031.9121
817.51878
608.67799
549.80275
512.61683
479.61783
449.11571
421.15289
394.86282
370.20736
347.21444
326.02112
306.17404
287.52651
270.08566
253.83921
238.75413
224.77508
211.81046
199.71931
188.27504
177.0367
164.81953
146.35586
12061.515
2150.981
1231.7798
1077.8047
989.10912
906.37146
827.95754
756.57311
692.75634
633.71442
579.42859
529.81564
485.74801
445.50601
408.55632
374.91385
344.44302
316.97051
292.31593
270.28561
250.68379
233.33539
218.12674
205.23044
195.72293
12087.152
3823.7845
2806.5153
2401.2898
2092.9142
1824.3751
1589.4936
1386.598
1210.9179
1059.2852
928.62678
816.13447
719.29427
635.68851
563.38401
500.87803
446.87867
400.25842
360.04327
325.39934
295.61881
270.12767
248.52209
230.8985
218.49381
10364.818
7902.1003
6093.647
4782.5056
3812.6363
3078.151
2510.083
2063.99
1710.0746
1427.0368
1199.057
1014.2953
863.84103
740.81375
639.74965
556.30167
487.03483
429.25141
380.83738
340.13329
305.83492
276.93729
252.72575
233.08115
219.2852
4084.9205
3303.6426
2839.7689
2464.3385
2145.361
1865.27
1621.036
1409.8367
1228.7502
1073.483
940.24813
825.65194
726.73296
641.33453
567.6197
504.00041
449.10491
401.75959
360.96438
325.86929
295.75698
270.04816
248.32951
230.67795
218.28428
1592.5342
1398.501
1268.5314
1160.429
1058.335
961.15889
872.54195
793.60273
721.62806
656.42942
598.08395
546.49785
499.12753
455.84115
416.51542
380.95899
348.94103
320.23119
294.5985
271.82616
251.71595
234.09952
218.86583
206.16785
196.96793
770.72068
707.5296
661.30055
620.73161
580.38961
540.26252
502.6863
468.06558
435.97128
406.37792
379.32389
354.54148
331.34545
309.63489
289.39977
270.62791
253.28922
237.34211
222.73551
209.40506
197.25628
186.12197
175.63216
164.71572
148.52394
433.79235
409.98459
391.23336
373.97924
356.22093
337.92959
320.06116
303.04737
286.96766
271.8769
257.78354
244.56464
232.01306
220.08492
208.8088
198.18167
188.19636
178.83171
170.0427
161.73729
153.72158
145.56478
136.23151
122.93363
96.552162
272.0596
261.59701
252.91133
244.72857
236.19471
227.24154
218.23266
209.43079
200.95696
192.8685
185.17373
177.824
170.74687
163.91937
157.35317
151.05224
145.00757
139.18874
133.52859
127.89067
122.00045
115.29349
106.55794
92.998236
67.0665
184.43681
179.34009
174.92098
170.68602
166.2587
161.57329
156.76325
151.97018
147.28227
142.7447
138.36778
134.13274
130.01018
125.98453
122.05078
118.19932
114.40746
110.62954
106.78029
102.70439
98.119309
92.50431
84.872066
73.211814
52.268979
132.37447
129.71347
127.32739
125.01388
122.59871
120.03269
117.36302
114.66035
111.97931
109.35104
106.78489
104.2732
101.8006
99.35284
96.916275
94.470999
91.983657
89.398466
86.623516
83.509061
79.814437
75.164529
69.024655
60.882645
51.742476
99.362651
97.903603
96.562846
95.250152
93.882863
92.429817
90.905613
89.343783
87.774738
86.217667
84.679015
83.154493
81.632932
80.099696
78.536042
76.915309
75.197488
73.322216
71.199273
68.696375
65.627491
61.756636
56.871638
51.109092
45.99977
77.45641
76.62579
75.847472
75.080669
74.284059
73.438334
72.546847
71.62457
70.687337
69.745687
68.802607
67.853762
66.888703
65.891782
64.841154
63.706082
62.442925
60.990073
59.261768
57.141887
54.481613
51.113314
46.914972
42.018022
37.113264
62.449269
61.961318
61.496306
61.035443
60.557859
60.051785
59.516542
58.958262
58.384379
57.799648
57.204107
56.592382
55.953587
55.270945
54.520592
53.669317
52.671419
51.464866
49.966785
48.068705
45.632053
42.482935
38.390378
32.91207
24.218788
51.965868
51.669882
51.382893
51.096281
50.79938
50.485175
50.151881
49.801389
49.436483
49.058309
48.6647
48.249165
47.800067
47.299685
46.722743
46.034304
45.18705
44.118022
42.744605
40.959257
38.620759
35.534021
31.38922
25.542181
16.162118
44.598041
44.411484
44.226745
44.039996
43.845773
43.639903
43.42064
43.187954
42.942145
42.682182
42.404427
42.101471
41.761002
41.36451
40.885605
40.287896
39.522424
38.524621
37.210578
35.471817
33.166153
30.097813
25.968202
20.239317
11.727283
39.467446
39.344185
39.21877
39.089571
38.953817
38.809082
38.65389
38.487435
38.308755
38.115626
37.903484
37.66426
37.385099
37.046823
36.622069
36.073065
35.349099
34.383684
33.091363
31.363805
29.064094
26.01653
21.986421
16.636178
9.3956918
35.985409
35.899725
35.809569
35.714239
35.612399
35.502618
35.383761
35.254758
35.114047
34.958771
34.783819
34.580681
34.336057
34.030182
33.634796
33.110813
32.405824
31.451526
30.161333
28.428475
26.125078
23.102827
19.196505
14.233939
8.0343831
33.720308
33.657938
33.589662
33.515195
33.433878
33.344891
33.247359
33.140164
33.021487
32.888137
32.734676
32.552262
32.327214
32.039222
31.659211
31.14694
30.448572
29.494443
28.197439
26.452894
24.141779
21.139487
17.333292
12.654722
7.1368832
32.331687
32.284487
32.230507
32.169583
32.101368
32.025389
31.940957
31.846965
31.741474
31.621104
31.480172
31.309548
31.095161
30.816139
30.442706
29.93373
29.234397
28.274388
26.966796
25.208875
22.887802
19.894376
16.146864
11.627049
6.4240367
31.543524
31.506583
31.462412
31.410822
31.351592
31.284384
31.208594
31.123102
31.025867
30.913333
30.779576
30.615136
30.405472
30.129069
29.755557
29.243328
28.53697
27.566395
26.246094
24.475006
22.143407
19.149756
15.427592
10.982917
5.9373671
31.117991
31.088168
31.051693
31.00825
30.957489
30.89892
30.831748
30.754621
30.665222
30.559676
30.431693
30.271386
30.063703
29.78652
29.408624
28.888796
28.170181
27.184124
25.849109
24.065992
21.725373
18.728151
15.014397
10.599654
5.6017298
30.829937
30.804693
30.773602
30.736277
30.692295
30.641101
30.581835
30.513075
30.432438
30.33599
30.217387
30.066724
29.868968
29.601916
29.233613
28.719279
27.993467
26.990142
25.639483
23.846906
21.500773
18.501451
14.79135
10.391461
5.4309908
30.606418
30.5843
30.556765
30.523377
30.483671
30.437047
30.382604
30.318879
30.243463
30.152439
30.039574
29.895198
29.704659
29.44624
29.088482
28.586799
27.880268
26.885618
25.526322
23.729951
21.383292
18.385706
14.680547
10.291113
5.3479266
30.415978
30.396071
30.370956
30.340171
30.303234
30.259532
30.208164
30.147693
30.075783
29.988664
29.88035
29.741515
29.557904
29.30817
28.961093
28.472221
27.782449
26.810259
25.456434
23.663828
21.321655
18.329746
14.632665
10.253861
5.3330521
30.24093
30.222718
30.199391
30.170492
30.13556
30.094026
30.045063
29.987354
29.918746
29.835706
29.732528
29.60015
29.424509
29.18434
28.84841
28.37224
27.697013
26.741983
25.405606
23.62206
21.287676
18.304006
14.616852
10.248689
5.3556648
30.072387
30.055678
30.033951
30.006797
29.97383
29.934591
29.888399
29.83412
29.769803
29.692119
29.595517
29.471002
29.304465
29.074514
28.749828
28.286153
27.62332
26.683047
25.364547
23.591929
21.266671
18.292045
14.614578
10.252692
5.3454189
29.908137
29.893029
29.873132
29.848122
29.817731
29.781637
29.739308
29.689762
29.63117
29.560275
29.471512
29.355775
29.198766
28.978876
28.664622
28.211733
27.560043
26.632183
25.329112
23.567571
21.251413
18.285329
14.616837
10.264148
5.3600116
29.751251
29.737995
29.720379
29.698175
29.671219
29.639291
29.601951
29.55827
29.506432
29.44312
29.36264
29.255701
29.107784
28.897074
28.591971
28.148273
27.50627
26.588235
25.297737
23.546544
21.238728
18.279831
14.617561
10.26964
5.3670709
29.607264
29.596054
29.581077
29.562176
29.539244
29.512102
29.480315
29.442928
29.398043
29.342222
29.269604
29.170706
29.030821
28.827981
28.530519
28.094305
27.459917
26.550118
25.269876
23.527954
21.227578
18.274682
14.616497
10.270052
5.3884699
29.480795
29.471637
29.459367
29.443863
29.42503
29.402671
29.376306
29.344894
29.306429
29.257329
29.191577
29.099531
28.966342
28.769946
28.478648
28.048415
27.420104
26.517068
25.245224
23.511447
21.217788
18.270329
14.615317
10.267395
5.3799702
29.373689
29.3664
29.356619
29.344237
29.329137
29.311078
29.289503
29.26328
29.230283
29.186807
29.126704
29.04021
28.912378
28.721088
28.434652
28.009147
27.385725
26.488387
25.22335
23.496662
21.20913
18.266887
14.61521
10.265818
5.3667669
29.285052
29.279342
29.271672
29.26193
29.249969
29.23549
29.217865
29.19587
29.167282
29.128289
29.072645
28.990498
28.866836
28.679507
28.396848
27.975046
27.355497
26.462677
25.20354
23.483056
21.201056
18.263634
14.615294
10.267377
5.3702085
29.212211
29.207765
29.201786
29.194154
29.184691
29.173047
29.15853
29.13984
29.114677
29.079147
29.026931
28.948114
28.827641
28.643345
28.3636
27.944695
27.328245
26.439139
25.185055
23.469984
21.192977
18.260136
14.615855
10.274431
5.3727415
29.151625
29.148155
29.143481
29.137476
29.129934
29.120464
29.108322
29.092151
29.069588
29.036683
28.987061
28.910761
28.792702
28.610716
28.333214
27.916584
27.302643
26.416652
25.16694
23.456567
21.184033
18.255277
14.613721
10.272327
5.3706174
29.099353
29.096622
29.092936
29.08816
29.082066
29.074233
29.063877
29.049599
29.028989
28.998052
28.950375
28.875967
28.759727
28.579495
28.303721
27.88889
27.276997
26.393629
25.14766
23.441493
21.173076
18.248234
14.609534
10.268271
5.3639833
29.05105
29.048874
29.045929
29.042073
29.037064
29.030455
29.021434
29.008569
28.989418
28.959954
28.913732
28.840741
28.72587
28.546969
28.272531
27.85913
27.24893
26.367809
25.12512
23.422774
21.158257
18.237344
14.602049
10.261534
5.3421344
29.001546
28.999789
28.997401
28.994234
28.990037
28.984344
28.976323
28.964516
28.946457
28.918095
28.872963
28.801034
28.687193
28.509305
28.235904
27.823654
27.21488
26.335737
25.096015
23.397274
21.136663
18.219979
14.589008
10.252468
5.3357951
28.944064
28.942627
28.940661
28.938018
28.934434
28.929433
28.922165
28.911156
28.893921
28.866387
28.822074
28.750944
28.637881
28.460767
28.188183
27.776887
27.169366
26.29205
25.055165
23.360072
21.103755
18.192206
14.567293
10.237442
5.3271711
28.86907
28.867884
28.866246
28.864005
28.860893
28.856422
28.849732
28.839333
28.822724
28.795821
28.752129
28.681605
28.569136
28.392628
28.120717
27.710265
27.103941
26.228478
24.994567
23.303566
21.052504
18.147721
14.531071
10.209512
5.3241579
28.762708
28.761725
28.760349
28.758429
28.75569
28.751637
28.745398
28.735475
28.719354
28.692939
28.649728
28.579674
28.467678
28.291679
28.020383
27.610786
27.00578
26.132462
24.902083
23.216262
20.972371
18.077409
14.473514
10.165811
5.2907163
28.604778
28.603968
28.602813
28.601159
28.598725
28.595013
28.589141
28.579601
28.563873
28.537851
28.495029
28.425368
28.31379
28.138287
27.867671
27.459117
26.855824
25.985367
24.75973
23.081167
20.847806
17.96782
14.384349
10.102434
5.2560837
28.366245
28.365594
28.364635
28.363214
28.361045
28.357624
28.352065
28.342852
28.327457
28.301775
28.259303
28.190018
28.078889
27.903994
27.634306
27.227267
26.626511
25.760288
24.541587
22.873818
20.656398
17.799328
14.247405
10.006252
5.2080494
28.006362
28.005866
28.005096
28.003893
28.001969
27.998815
27.993541
27.984626
27.969544
27.944193
27.902089
27.833251
27.722727
27.548742
27.280518
26.875907
26.279184
25.419574
24.211489
22.560162
20.366965
17.544488
14.039827
9.8600913
5.1194891
27.469644
27.469315
27.468741
27.467759
27.46608
27.463189
27.458196
27.449583
27.434831
27.409859
27.368225
27.300027
27.190454
27.017973
26.752201
26.351613
25.761439
24.912337
23.720747
22.094534
19.937897
17.166855
13.731002
9.6361306
4.9899399
26.683206
26.683069
26.682714
26.681976
26.68056
26.677953
26.673266
26.664994
26.65064
26.626169
26.585222
26.518041
26.410054
26.24012
25.97847
25.584514
25.004891
24.172363
23.006386
21.418189
19.316071
16.620607
13.284829
9.3149373
4.8154406
25.555313
25.55541
25.555318
25.554867
25.553762
25.551488
25.547171
25.539327
25.525509
25.501768
25.461893
25.396373
25.29103
25.125342
24.87048
24.487195
23.924178
23.117442
21.990655
20.459067
18.436902
15.850778
12.658339
8.8677239
4.5876089
23.976664
23.977056
23.977296
23.977207
23.976489
23.974639
23.970802
23.963542
23.950495
23.92786
23.889675
23.826831
23.725776
23.566944
23.322952
22.956715
22.419914
21.652423
20.583186
19.133878
17.226329
14.794875
11.803148
8.2612573
4.2725201
21.82979
21.830516
21.831136
21.831456
21.831165
21.829786
21.826519
21.820003
21.808002
21.786951
21.751286
21.692521
21.59806
21.449775
21.222384
20.881758
20.383645
19.67332
18.686703
17.353923
15.606334
13.387687
10.668866
7.4628853
3.865839
18.997243
18.998252
18.999221
18.999911
18.999964
18.999005
18.996375
18.990816
18.980264
18.961495
18.929525
18.876788
18.792075
18.659344
18.456297
18.152841
17.710129
17.080578
16.209096
15.036393
13.50522
11.570258
9.2103921
6.4409741
3.3468969
15.386889
15.387836
15.388835
15.389513
15.389401
15.388445
15.386321
15.381891
15.373278
15.357759
15.331024
15.286829
15.215892
15.105056
14.936108
14.6843
14.317759
13.798071
13.081347
12.120997
10.872433
9.302404
7.3981317
5.1764616
2.7049986
10.956149
10.956384
10.956737
10.95661
10.955398
10.953683
10.951704
10.948463
10.942414
10.932668
10.913146
10.880548
10.828236
10.746807
10.6233
10.439741
10.172888
9.7960403
9.2789112
8.5896697
7.6957364
6.5766473
5.2275892
3.6665555
1.9466
5.7563214
5.7557689
5.7553049
5.7543025
5.7522305
5.750068
5.7483974
5.7465827
5.7449606
5.7573044
5.748242
5.7305994
5.7021708
5.6580774
5.5915204
5.4926232
5.3475954
5.1454966
4.8714628
4.5097695
4.0378554
3.4479051
2.7410835
1.9341391
1.0732263
)
;

boundaryField
{
    Walls
    {
        Cmu             0.09;
        kappa           0.41;
        E               9.8;
        beta1           0.075;
        type            omegaWallFunction;
        value           nonuniform List<scalar> 
38
(
12058.188
12058.133
12058.179
12058.525
12061.515
12087.152
13479.01
13533.947
14918.682
15026.686
15112.587
15195.051
15270.161
15331.169
15382.74
15417.332
15449.9
15479.992
15492.93
15508.492
15515.6
15528.464
15545.434
15553.326
15558.458
15558.581
15566.083
15568.052
15561.555
15568.595
15578.755
15578.19
15578.638
15572.139
15567.292
15562.333
15552.127
15494.384
)
;
    }
    Inlet
    {
        type            turbulentMixingLengthDissipationRateInlet;
        mixingLength    0.03;
        phi             phi;
        k               k;
        value           nonuniform List<scalar> 3(0.003894853 0.0046391217 0.0051782568);
    }
    Outlet
    {
        type            inletOutlet;
        inletValue      uniform 1e-05;
        value           nonuniform List<scalar> 
86
(
1e-05
1e-05
1e-05
1e-05
1e-05
1e-05
1e-05
1e-05
1e-05
1e-05
1e-05
1e-05
1e-05
1e-05
1e-05
1e-05
1e-05
1e-05
1e-05
1e-05
1e-05
1e-05
1e-05
1e-05
1e-05
1e-05
1e-05
1e-05
1e-05
1e-05
219.2852
218.28428
196.96793
1e-05
1e-05
1e-05
1e-05
51.742476
45.99977
37.113264
1e-05
1e-05
1e-05
1e-05
8.0343831
7.1368832
6.4240367
5.9373671
5.6017298
5.4309908
5.3479266
5.3330521
5.3556648
5.3454189
5.3600116
5.3670709
5.3884699
5.3799702
5.3667669
5.3702085
1e-05
1e-05
1e-05
1e-05
1e-05
1e-05
1e-05
1e-05
1e-05
1e-05
1e-05
1e-05
1e-05
1e-05
1e-05
1e-05
1e-05
1e-05
1e-05
1e-05
1e-05
1e-05
1e-05
1e-05
195.72293
218.49381
)
;
    }
    Front
    {
        type            wedge;
    }
    Back
    {
        type            wedge;
    }
    defaultFaces
    {
        type            empty;
    }
}


// ************************************************************************* //
