/*--------------------------------*- C++ -*----------------------------------*\
| =========                 |                                                 |
| \\      /  F ield         | OpenFOAM: The Open Source CFD Toolbox           |
|  \\    /   O peration     | Version:  4.0                                   |
|   \\  /    A nd           | Web:      www.OpenFOAM.org                      |
|    \\/     M anipulation  |                                                 |
\*---------------------------------------------------------------------------*/
FoamFile
{
    version     2.0;
    format      ascii;
    class       volScalarField;
    location    "0.41";
    object      p;
}
// * * * * * * * * * * * * * * * * * * * * * * * * * * * * * * * * * * * * * //

dimensions      [0 2 -2 0 0 0 0];

internalField   nonuniform List<scalar> 
1740
(
491.67441
491.72527
491.72122
475.1687
475.10692
475.1215
458.69765
458.55223
458.52101
442.18168
442.12779
442.12818
425.54795
425.54011
425.78091
408.98407
408.9847
409.12567
392.62421
392.3603
392.13499
376.03126
375.72242
375.54781
359.40325
359.58391
359.5621
342.70742
342.97292
342.95364
325.82603
325.81704
325.8701
308.85022
308.93245
308.94653
291.90524
291.97714
292.00253
275.66761
275.41276
275.50932
259.66886
259.4143
259.35551
243.38194
243.32773
243.15757
226.96597
227.00655
227.0029
210.48666
210.58002
210.78545
194.11383
194.38049
194.44546
177.57486
177.79438
177.76995
160.71891
160.62388
160.84685
143.96798
143.70556
143.92206
127.62966
127.53122
127.45175
111.42069
111.59319
111.54078
94.987254
95.033549
95.028925
78.327973
78.177858
78.198353
61.916477
61.908517
61.653942
46.197253
46.022222
45.408992
30.610053
30.358253
30.168113
15.719701
15.576994
15.5179
3.688416
3.2619636
1.581268
-0.86950627
-0.74215566
-0.46866664
-0.30265355
-0.26336699
-0.19621487
-0.14198436
-0.12567772
-0.095908956
-0.098266636
-0.088532566
-0.071024356
-0.074292463
-0.068364937
-0.057276684
-0.060098582
-0.056421037
-0.04935382
-0.050667967
-0.048263152
-0.043529304
-0.043550937
-0.041892668
-0.038562293
-0.037754363
-0.036567222
-0.034153889
-0.03298551
-0.032113346
-0.030322864
-0.029127771
-0.028471915
-0.027113342
-0.026037657
-0.025533609
-0.024481507
-0.02354741
-0.023152414
-0.022322658
-0.021498417
-0.021183873
-0.020519353
-0.01977011
-0.019515999
-0.01897653
-0.018282253
-0.018074212
-0.017630767
-0.016981978
-0.01680956
-0.016440789
-0.01583167
-0.015687164
-0.015377187
-0.014802361
-0.014679997
-0.014416852
-0.01387088
-0.01376628
-0.013540837
-0.013018614
-0.012928415
-0.01273364
-0.012230736
-0.012152331
-0.011982743
-0.011495523
-0.011426878
-0.011278177
-0.010803797
-0.01074331
-0.010612098
-0.010148472
-0.01009486
-0.0099784217
-0.009524154
-0.0094763873
-0.0093725363
-0.0089268325
-0.0088840805
-0.0087910482
-0.0083535942
-0.0083151841
-0.0082315224
-0.0078023358
-0.0077677264
-0.0076922737
-0.0072715529
-0.0072403013
-0.007172137
-0.0067602056
-0.0067319431
-0.0066702666
-0.0062675725
-0.0062419938
-0.0061861443
-0.0057931451
-0.0057699973
-0.0057194359
-0.0053365179
-0.0053155838
-0.0052698422
-0.0048972798
-0.0048783732
-0.0048370486
-0.0044749576
-0.0044579196
-0.0044206681
-0.0040690048
-0.0040536982
-0.0040202243
-0.0036788078
-0.0036651138
-0.0036351603
-0.0033036676
-0.0032914821
-0.0032648237
-0.0029427681
-0.0029319999
-0.0029084387
-0.0025951682
-0.0025857371
-0.002565099
-0.0022598087
-0.0022516447
-0.0022337775
-0.0019355257
-0.0019285683
-0.0019133408
-0.0016210656
-0.0016152633
-0.001602563
-0.0013150855
-0.0013103948
-0.0013001273
-0.0010161339
-0.0010125198
-0.0010046082
-0.00072261674
-0.0007200523
-0.00071443782
-0.00043286168
-0.00043132905
-0.00042797117
-0.00014448948
-0.00014397942
-0.00014285961
-1.3383012
-0.93997099
-0.35237412
-0.26932004
-0.15510555
-0.12828912
-0.073599492
-0.057126801
-0.053945816
-0.039541972
-0.045309787
-0.034600676
-0.041051399
-0.032930572
-0.037635204
-0.031555207
-0.034270777
-0.029664268
-0.030968031
-0.027430543
-0.02791201
-0.025166596
-0.025254486
-0.023093932
-0.023022901
-0.021298362
-0.021159542
-0.01976409
-0.019578811
-0.018435925
-0.018206573
-0.017260555
-0.016993291
-0.016202541
-0.015907419
-0.015240334
-0.014926508
-0.014358818
-0.014032525
-0.013545435
-0.013210287
-0.012789111
-0.012447084
-0.012080253
-0.011732501
-0.01141084
-0.011058175
-0.010774359
-0.010417507
-0.010165655
-0.0098053724
-0.009580747
-0.0092179026
-0.0090166619
-0.0086522884
-0.008471305
-0.008106591
-0.0079432964
-0.0075794859
-0.0074317745
-0.0070700666
-0.0069362483
-0.0065778097
-0.0064564554
-0.0061023835
-0.0059922767
-0.0056435526
-0.0055436829
-0.005201142
-0.0051106494
-0.0047749452
-0.0046930832
-0.0043646591
-0.0042907818
-0.0039698742
-0.0039034235
-0.0035900892
-0.0035305767
-0.0032246983
-0.0031716935
-0.0028729654
-0.0028260886
-0.0025340195
-0.0024929363
-0.002206866
-0.0021712832
-0.0018904015
-0.0018600642
-0.0015834283
-0.001558118
-0.0012846561
-0.0012641885
-0.00099268561
-0.00097691082
-0.00070597627
-0.00069477965
-0.00042290981
-0.00041621186
-0.00014117112
-0.00013893638
-0.011708482
-0.010917118
-0.009631565
-0.0081411715
-0.0066805151
-0.0053650487
-0.0042223089
-0.0032940863
-0.0025852009
-0.0020760612
-0.0017234984
-0.0014865024
-0.001325944
-0.0012106921
-0.0011185177
-0.0010344679
-0.00094946154
-0.00085928865
-0.00076260589
-0.00065922099
-0.00054975007
-0.00043593748
-0.00031920939
-0.00019941675
-7.1844906e-05
-0.012336523
-0.011392682
-0.0099779935
-0.0084127014
-0.0069602192
-0.0057127441
-0.0047061828
-0.00393491
-0.0033685365
-0.0029580155
-0.0026679392
-0.0024506616
-0.0022767674
-0.0021277074
-0.0019892052
-0.0018504867
-0.0017027324
-0.0015386305
-0.0013599342
-0.0011673792
-0.00096366107
-0.0007543911
-0.00054238046
-0.0003265977
-0.00010444703
-0.016595221
-0.015430212
-0.013988336
-0.012685722
-0.011712066
-0.011088259
-0.010726738
-0.010498086
-0.010238602
-0.0099220654
-0.0095461664
-0.0091082929
-0.0086149178
-0.0080745294
-0.0074868326
-0.0068535342
-0.0061799701
-0.0054750665
-0.0047418031
-0.0039860626
-0.0032201421
-0.0024587309
-0.0017094262
-0.00097998419
-0.00028552982
-0.032152475
-0.031127742
-0.030372918
-0.030190349
-0.030193928
-0.030045415
-0.029530055
-0.028640761
-0.027492164
-0.026139405
-0.02464504
-0.023041973
-0.021367727
-0.01963207
-0.017854469
-0.016052794
-0.014241065
-0.01242951
-0.010626493
-0.0088416385
-0.0070957011
-0.0054036679
-0.0037598348
-0.0021730713
-0.00067087814
-0.083396943
-0.082409712
-0.080681339
-0.077063957
-0.072910678
-0.068106875
-0.062978054
-0.057768602
-0.052596707
-0.04754851
-0.042841781
-0.038404734
-0.034223072
-0.030093971
-0.026269306
-0.022757994
-0.019542187
-0.016598485
-0.013899002
-0.011411991
-0.0090942693
-0.0069092692
-0.004844964
-0.0028762399
-0.00098462818
-0.24969393
-0.20509873
-0.18164992
-0.14883976
-0.12187151
-0.0982786
-0.078283369
-0.061903689
-0.048650757
-0.037999974
-0.029362763
-0.022484421
-0.017041701
-0.012880662
-0.0095763435
-0.0070074007
-0.0050328848
-0.0035375685
-0.0024296253
-0.0016330021
-0.0010788653
-0.00070463032
-0.00046480212
-0.00031305325
-0.0002481901
-0.35379057
-0.14685167
-0.095152507
-0.056304609
-0.021437036
0.0061393071
0.02382514
0.03282169
0.036399485
0.037124019
0.036285433
0.034458642
0.032016251
0.029234802
0.026311755
0.023371679
0.020488202
0.017700371
0.015023788
0.012458163
0.0099944552
0.007620483
0.005313704
0.003065634
0.00079177296
-0.21946835
-0.18973808
-0.16201525
-0.13500715
-0.10977199
-0.087727407
-0.069218944
-0.05417447
-0.04208937
-0.032468681
-0.024854972
-0.018838913
-0.014118132
-0.01040328
-0.0075056983
-0.0052713517
-0.0035798948
-0.0023287829
-0.0014322544
-0.00082024595
-0.00043348082
-0.00021880033
-0.00013083147
-0.0001226207
-0.00019471731
-0.11246884
-0.10273862
-0.095195231
-0.088297134
-0.08137158
-0.074431032
-0.067792776
-0.061466999
-0.055479363
-0.049851437
-0.044706277
-0.039693385
-0.035017129
-0.030724454
-0.026794494
-0.023181322
-0.019868009
-0.016837572
-0.014058803
-0.011502221
-0.0091380853
-0.0069361199
-0.0048677068
-0.0028999481
-0.0010044665
-0.048065511
-0.043566201
-0.041378126
-0.0401669
-0.039228691
-0.038163485
-0.036855131
-0.035260784
-0.033438366
-0.031448893
-0.029379929
-0.027240439
-0.025054464
-0.022841573
-0.020627569
-0.018447695
-0.016303571
-0.01419213
-0.012119561
-0.010088735
-0.0081028711
-0.006166602
-0.0042869836
-0.0024747644
-0.00076292251
-0.0286455
-0.021694731
-0.017711221
-0.015778842
-0.015241374
-0.015201035
-0.015155362
-0.014980604
-0.014661136
-0.01419452
-0.013611885
-0.012934708
-0.012169607
-0.011326422
-0.010423352
-0.0094727839
-0.0084815483
-0.0074604838
-0.0064211834
-0.0053733843
-0.0043266747
-0.0032914235
-0.0022789182
-0.0013003845
-0.00037893011
-0.025861034
-0.019129795
-0.014363583
-0.011042656
-0.0085555636
-0.0070676078
-0.0062628707
-0.005807104
-0.0055275039
-0.0053157304
-0.0051198191
-0.0049360381
-0.0047213788
-0.0044639762
-0.0041618331
-0.0038242201
-0.0034565945
-0.0030656086
-0.0026588406
-0.0022428036
-0.0018232024
-0.001405075
-0.00099213744
-0.00058454052
-0.00018048767
-0.025787224
-0.019918828
-0.015355076
-0.011918624
-0.0093651926
-0.0074023468
-0.0059965638
-0.0050393611
-0.0043667307
-0.0038726566
-0.0034844265
-0.0031606803
-0.0028783843
-0.0026228228
-0.0023833216
-0.0021522114
-0.0019226898
-0.0016919487
-0.0014609164
-0.0012317793
-0.0010056934
-0.00078289101
-0.00056298174
-0.00034357777
-0.00011760279
-0.025883433
-0.020949232
-0.016844998
-0.013522668
-0.010870195
-0.0087468016
-0.0070913375
-0.0058565492
-0.0049495145
-0.0042797325
-0.003767199
-0.0033291686
-0.0029603551
-0.0026450678
-0.0023685229
-0.0021169283
-0.001877778
-0.0016455973
-0.0014178093
-0.0011928218
-0.00097032189
-0.00075034976
-0.0005339495
-0.00032150973
-0.00011071649
-0.02518192
-0.021106782
-0.017559539
-0.014539829
-0.012006293
-0.0099035178
-0.0081855512
-0.00681341
-0.0057272943
-0.0048658182
-0.0041744106
-0.00360665
-0.0031377055
-0.0027465144
-0.0024154263
-0.0021292616
-0.0018657207
-0.0016186442
-0.001383328
-0.0011567468
-0.00093666346
-0.00072133652
-0.00051074305
-0.00030460241
-0.00010379872
-0.023881344
-0.020541036
-0.017528667
-0.014868287
-0.012550379
-0.010558263
-0.0088684806
-0.0074560104
-0.0062849542
-0.0053174587
-0.0045180492
-0.0038526398
-0.0032958914
-0.0028278032
-0.0024293044
-0.0020849288
-0.0017921862
-0.0015280004
-0.0012866259
-0.0010631763
-0.00085357382
-0.0006550443
-0.00046388021
-0.00027797123
-9.5841027e-05
-0.022332242
-0.019585578
-0.017031855
-0.01471545
-0.01264383
-0.010813606
-0.0092147125
-0.0078322585
-0.0066473527
-0.0056400462
-0.004789081
-0.0040680271
-0.0034549536
-0.0029317977
-0.0024830658
-0.0020955133
-0.0017591667
-0.0014710895
-0.001218347
-0.00099231636
-0.00078663655
-0.00059650028
-0.00041789753
-0.00024771247
-8.3890043e-05
-0.020811057
-0.018542848
-0.016376201
-0.014362935
-0.01252924
-0.010874422
-0.0093950022
-0.0080842184
-0.0069323487
-0.0059286689
-0.0050590237
-0.0043076152
-0.0036598645
-0.0031012793
-0.0026186971
-0.0022012832
-0.001839487
-0.0015264272
-0.0012531569
-0.0010115607
-0.00079516536
-0.00059876165
-0.00041797989
-0.00024808424
-8.4227305e-05
-0.019439659
-0.017553625
-0.015714448
-0.013969635
-0.012348146
-0.010858867
-0.0095038345
-0.0082810844
-0.007185399
-0.0062098048
-0.0053457618
-0.0045846156
-0.0039171949
-0.0033331946
-0.002822666
-0.0023769462
-0.0019879249
-0.0016483362
-0.0013504912
-0.0010872365
-0.00085234456
-0.00064039556
-0.00044657644
-0.00026457978
-8.835861e-05
-0.018234486
-0.016653971
-0.015085514
-0.013571766
-0.012137304
-0.010798578
-0.009562086
-0.0084289109
-0.0073972997
-0.0064631734
-0.0056217287
-0.004867607
-0.0041946472
-0.0035961383
-0.0030654077
-0.0025958967
-0.0021810557
-0.0018145347
-0.0014899606
-0.0012011299
-0.00094228699
-0.0007083108
-0.00049538244
-0.00029412809
-9.2357961e-05
-0.017164642
-0.01583053
-0.014485738
-0.013167009
-0.011897319
-0.010695161
-0.0095692381
-0.0085231563
-0.007557713
-0.0066709854
-0.0058605609
-0.0051235411
-0.0044558576
-0.0038532005
-0.0033111216
-0.0028245935
-0.0023887316
-0.0019983953
-0.0016484315
-0.0013336331
-0.001048823
-0.00078903276
-0.00054936213
-0.00032311199
-0.00010554478
-0.016194645
-0.015060557
-0.013900974
-0.012747799
-0.011623167
-0.010544318
-0.0095209494
-0.0085583846
-0.0076588266
-0.006822413
-0.0060483678
-0.0053352167
-0.0046805023
-0.0040816635
-0.0035356344
-0.0030388929
-0.0025877621
-0.002178399
-0.0018065952
-0.001468001
-0.0011582763
-0.00087301423
-0.0006076947
-0.00035662627
-0.0001161968
-0.015301486
-0.014330832
-0.013325633
-0.012313825
-0.011316505
-0.010347844
-0.0094184972
-0.0085346053
-0.0076993113
-0.0069141855
-0.0061794078
-0.0054945366
-0.0048584025
-0.0042695024
-0.0037258258
-0.0032250075
-0.0027643891
-0.0023410467
-0.0019517302
-0.0015929538
-0.0012611528
-0.00095261699
-0.00066354203
-0.00038962776
-0.00012784917
-0.014472658
-0.01363665
-0.012761144
-0.011870257
-0.010983061
-0.010112238
-0.0092682915
-0.0084574251
-0.0076834995
-0.0069487832
-0.0062542906
-0.0056002186
-0.0049862973
-0.0044117764
-0.0038754256
-0.0033757079
-0.0029107876
-0.0024784796
-0.0020763497
-0.001701721
-0.0013517128
-0.0010233669
-0.00071366609
-0.00041945621
-0.00013805389
-0.013699908
-0.01297553
-0.012209398
-0.011421985
-0.010629949
-0.0098456456
-0.00907833
-0.0083342876
-0.0076177302
-0.0069313443
-0.00627667
-0.0056544396
-0.0050649037
-0.0045077658
-0.0039824634
-0.0034880424
-0.0030232934
-0.0025866465
-0.0021763302
-0.0017903513
-0.0014265219
-0.0010825476
-0.00075613947
-0.00044477554
-0.00014618804
-0.012975863
-0.012344488
-0.011670818
-0.010972153
-0.010262993
-0.009554768
-0.0088555253
-0.0081720114
-0.0075083908
-0.0068675576
-0.0062513563
-0.0056608877
-0.0050967203
-0.0045589591
-0.0040474409
-0.0035616718
-0.0031008338
-0.0026639478
-0.0022497658
-0.0018568516
-0.0014836235
-0.0011283543
-0.0007893121
-0.00046452533
-0.00015223873
-0.012293409
-0.011739878
-0.011144597
-0.010522166
-0.0098851417
-0.009243676
-0.0086052844
-0.0079763011
-0.0073612305
-0.0067629
-0.0061833495
-0.0056239041
-0.0050853781
-0.0045681687
-0.0040723735
-0.0035978125
-0.0031440467
-0.0027104839
-0.0022963247
-0.0019006027
-0.001522192
-0.0011598952
-0.00081245949
-0.00047832952
-0.00015630739
-0.011646038
-0.011157997
-0.010629425
-0.010072639
-0.0094984746
-0.0089158632
-0.0083320536
-0.0077523518
-0.0071814762
-0.0066225265
-0.0060775952
-0.0055480968
-0.0050350408
-0.004538996
-0.004060273
-0.0035989287
-0.0031548132
-0.0027276226
-0.0023169041
-0.0019220703
-0.0015424088
-0.0011771441
-0.00082547739
-0.00048636265
-0.00015900995
-0.011028162
-0.010595543
-0.010124016
-0.0096239797
-0.0091047178
-0.0085741976
-0.0080391203
-0.0075044104
-0.0069740043
-0.0064514112
-0.0059388952
-0.0054381516
-0.0049501273
-0.0044755113
-0.0040148048
-0.0035682424
-0.0031358763
-0.0027176427
-0.002313357
-0.0019227294
-0.0015453964
-0.001180946
-0.00082894255
-0.00048872136
-0.00015978526
-0.010435186
-0.010049756
-0.0096272546
-0.0091764507
-0.0087053126
-0.0082210416
-0.0077295445
-0.0072356098
-0.006742835
-0.0062542267
-0.0057722712
-0.0052988731
-0.0048351502
-0.0043820478
-0.0039400246
-0.0035094452
-0.0030905358
-0.002683436
-0.0022881667
-0.0019046758
-0.001532862
-0.0011725981
-0.00082374097
-0.00048588749
-0.00015884404
-0.009863473
-0.0095184725
-0.009138327
-0.0087304743
-0.0083018761
-0.0078587896
-0.007406497
-0.0069494768
-0.0064913401
-0.0060347918
-0.0055821373
-0.0051349943
-0.0046949761
-0.0042631937
-0.0038401806
-0.0034264368
-0.0030223833
-0.0026282321
-0.0022441616
-0.001870306
-0.0015067583
-0.0011535933
-0.00081087245
-0.0004784067
-0.00015627657
-0.0093102557
-0.0090001421
-0.0086568557
-0.0082867674
-0.0078959132
-0.0074896859
-0.0070728795
-0.0066496041
-0.0062232523
-0.0057965769
-0.0053717132
-0.004950314
-0.0045338346
-0.0041232416
-0.003719531
-0.0033233454
-0.0029352039
-0.0025554103
-0.0021842734
-0.001822089
-0.0014691091
-0.0011255101
-0.00079146518
-0.00046695298
-0.00015219231
-0.008773546
-0.0084937833
-0.0081828316
-0.0078461478
-0.007488918
-0.0071159091
-0.0067314053
-0.006339149
-0.0059423132
-0.0055435199
-0.0051449011
-0.0047482431
-0.0043548096
-0.0039656288
-0.0035817317
-0.0032038479
-0.0028325021
-0.0024682412
-0.0021114919
-0.0017626453
-0.0014220538
-0.0010899928
-0.00076675326
-0.0004524258
-0.00014741688
-0.0082520398
-0.0079988957
-0.0077165133
-0.0074095554
-0.007082524
-0.0067396246
-0.006384693
-0.0060211282
-0.0056518716
-0.0052794135
-0.0049058233
-0.0045328165
-0.0041617645
-0.003793841
-0.0034299338
-0.0030708213
-0.0027171291
-0.0023694811
-0.0020283841
-0.0016942611
-0.0013675078
-0.0010485512
-0.00073780411
-0.0004353871
-0.00014182706
-0.0077449829
-0.0075153729
-0.0072584148
-0.0069781125
-0.0066783892
-0.006362961
-0.0060352578
-0.0056983705
-0.0053550141
-0.0050075315
-0.0046579105
-0.0043078249
-0.0039586688
-0.0036116188
-0.0032676185
-0.0029274879
-0.0025919484
-0.0022616007
-0.0019369938
-0.0016186104
-0.0013069088
-0.0010023715
-0.00070545803
-0.00041629983
-0.00013550683
-0.0072520259
-0.0070433862
-0.0068092235
-0.0065529984
-0.0062781377
-0.0059879268
-0.0056854375
-0.0053734727
-0.0050545361
-0.0047308209
-0.0044042243
-0.0040763695
-0.0037486391
-0.0034222045
-0.0030980472
-0.0027770145
-0.0024598506
-0.0021471934
-0.0018396236
-0.0015376835
-0.0012418827
-0.00095269639
-0.00067058876
-0.00039570795
-0.00012870911
-0.0067730855
-0.0065832694
-0.0063696969
-0.0061353698
-0.0058832885
-0.0056163611
-0.005337337
-0.0050487591
-0.0047529287
-0.0044518936
-0.0041474522
-0.0038411674
-0.0035343897
-0.003228279
-0.0029238295
-0.0026219039
-0.0023232603
-0.002028564
-0.0017384192
-0.0014533878
-0.0011739935
-0.00090072227
-0.0006340458
-0.00037412244
-0.00012160993
-0.0063082234
-0.006135434
-0.0059405924
-0.0057263105
-0.0054952213
-0.0052499026
-0.0049928175
-0.0047262682
-0.0044523672
-0.0041730192
-0.0038899195
-0.0036045615
-0.0033182514
-0.0030321265
-0.0027471758
-0.0024642643
-0.0021841543
-0.0019075228
-0.0016349833
-0.0013671019
-0.0011044044
-0.00084738282
-0.0005965117
-0.00035195321
-0.00011434357
-0.0058575875
-0.0057003117
-0.0055226214
-0.005326797
-0.0051151547
-0.0048899827
-0.004653487
-0.0044077519
-0.0041547114
-0.0038961302
-0.003633598
-0.0033685316
-0.0031021842
-0.0028356593
-0.0025699269
-0.0023058415
-0.0020441587
-0.0017855535
-0.0015306363
-0.001279968
-0.0010340698
-0.00079343141
-0.00055852477
-0.00032952544
-0.00010701045
-0.0054213581
-0.0052783041
-0.00511641
-0.0049376701
-0.0047441264
-0.0045378116
-0.0043207021
-0.0040946821
-0.0038615176
-0.0036228377
-0.0033801251
-0.0031347156
-0.0028878026
-0.0026404464
-0.0023935863
-0.0021480543
-0.0019045896
-0.0016638538
-0.0014264444
-0.001192909
-0.00096375663
-0.00073946764
-0.00052051354
-0.00030708364
-9.9683486e-05
-0.0049996798
-0.0048697358
-0.0047224633
-0.0045596101
-0.0043829778
-0.0041943731
-0.0039955655
-0.0037882561
-0.0035740531
-0.0033544538
-0.0031308341
-0.0029044453
-0.0026764151
-0.0024477527
-0.0022193577
-0.001992031
-0.0017664871
-0.0015433659
-0.0013232443
-0.0011066486
-0.0008940653
-0.00068595518
-0.00048279256
-0.00028481239
-9.2430243e-05
-0.0045926001
-0.0044748017
-0.0043411253
-0.0041931052
-0.0040323311
-0.0038604071
-0.0036789169
-0.0034893935
-0.0032932968
-0.0030919969
-0.0028867633
-0.0026787592
-0.0024690402
-0.0022585588
-0.0020481697
-0.0018386371
-0.0016306448
-0.0014248055
-0.0012216703
-0.0010217381
-0.00082546572
-0.00063328324
-0.00044565424
-0.00026288378
-8.529097e-05
-0.0042000279
-0.0040935315
-0.0039725493
-0.003838428
-0.0036925692
-0.0035363955
-0.0033713223
-0.0031987273
-0.0030199311
-0.0028361819
-0.0026486433
-0.0024583879
-0.0022663967
-0.0020735609
-0.0018806851
-0.0016884931
-0.0014976337
-0.0013086885
-0.0011221798
-0.00093857727
-0.00075830695
-0.00058176965
-0.00040938912
-0.0002414698
-7.826293e-05
-0.0038217355
-0.0037257983
-0.0036167097
-0.003495651
-0.0033638566
-0.0032225872
-0.003073102
-0.0029166351
-0.0027543761
-0.0025874555
-0.0024169346
-0.0022437969
-0.0020689472
-0.0018932118
-0.0017173414
-0.0015420136
-0.0013678382
-0.0011953626
-0.0010250788
-0.00085742904
-0.00069280863
-0.00053158769
-0.0003741153
-0.00022060635
-7.1344889e-05
-0.0034573729
-0.0033713382
-0.0032734302
-0.0031646833
-0.0030461836
-0.0029190442
-0.0027843817
-0.0026432962
-0.0024968535
-0.0023460723
-0.0021919133
-0.0020352737
-0.0018769825
-0.0017177994
-0.0015584163
-0.0013994603
-0.001241498
-0.0010850396
-0.00093054454
-0.00077842712
-0.0006290595
-0.00048276492
-0.00033985519
-0.00020029353
-6.4556315e-05
-0.0031064603
-0.0030297453
-0.0029423823
-0.0028452744
-0.002739373
-0.002625657
-0.0025051123
-0.0023787144
-0.0022474127
-0.0021121186
-0.0019736961
-0.0018329559
-0.0016906507
-0.0015474724
-0.0014040524
-0.001260965
-0.0011187304
-0.00097781809
-0.00083865147
-0.00070161255
-0.00056705036
-0.00043524017
-0.00030648611
-0.00018051198
-5.7949372e-05
-0.002768371
-0.0027004585
-0.0026230733
-0.0025370002
-0.0024430683
-0.0023421336
-0.002235061
-0.0021227098
-0.0020059198
-0.0018855002
-0.0017622209
-0.0016368071
-0.0015099339
-0.0013822246
-0.00125425
-0.0011265304
-0.00099953721
-0.00087369647
-0.00074939198
-0.00062696838
-0.0005067317
-0.0003889375
-0.00027383011
-0.00016126417
-5.1737426e-05
-0.0024423326
-0.0023827633
-0.0023148506
-0.0022392715
-0.0021567433
-0.0020680084
-0.0019738198
-0.0018749277
-0.0017720677
-0.0016659511
-0.0015572569
-0.0014466262
-0.0013346575
-0.0012219055
-0.0011088792
-0.00099604344
-0.00088381954
-0.00077258806
-0.00066269076
-0.00055443225
-0.00044807764
-0.00034386601
-0.00024201393
-0.0001425801
-4.5862461e-05
-0.00212744
-0.0020758094
-0.0020169218
-0.0019513557
-0.0018797254
-0.0018026683
-0.0017208324
-0.0016348651
-0.0015454031
-0.0014530638
-0.0013584379
-0.0012620846
-0.0011645274
-0.0010662524
-0.00096770663
-0.00086929868
-0.00077139904
-0.00067434228
-0.00057842804
-0.0004839235
-0.00039106605
-0.00030007435
-0.00021118568
-0.00012444755
-4.0092655e-05
-0.0018226741
-0.0017786285
-0.0017283739
-0.0016723977
-0.0016112185
-0.0015453755
-0.0014754183
-0.0014018969
-0.0013253537
-0.0012463157
-0.0011652884
-0.0010827509
-0.00099915336
-0.000914914
-0.00083041815
-0.00074601819
-0.00066203418
-0.00057875499
-0.00049644035
-0.00041532376
-0.00033561783
-0.00025752415
-0.0001812714
-0.00010682992
-3.442026e-05
-0.0015269164
-0.0014901512
-0.0014481905
-0.0014014369
-0.0013503198
-0.0012952859
-0.0012367916
-0.0011752944
-0.0011112464
-0.0010450874
-0.0009772404
-0.00090810683
-0.00083806431
-0.00076746453
-0.00069663174
-0.00062586292
-0.00055542814
-0.00048557179
-0.00041651434
-0.00034845654
-0.000281584
-0.00021607412
-0.00015212468
-8.9657408e-05
-2.8878692e-05
-0.0012389523
-0.0012092096
-0.0011752556
-0.0011374131
-0.0010960269
-0.0010514564
-0.0010040692
-0.00095423408
-0.00090231611
-0.00084867135
-0.00079364233
-0.00073755488
-0.00068071574
-0.00062341075
-0.00056590425
-0.00050843846
-0.00045123404
-0.00039449129
-0.00033839183
-0.00028310209
-0.0002287771
-0.00017556412
-0.00012362296
-7.2861829e-05
-2.3462364e-05
-0.00095745795
-0.00093452757
-0.00090834541
-0.00087915878
-0.00084723177
-0.00081284015
-0.00077626615
-0.00073779358
-0.00069770338
-0.00065626985
-0.0006137575
-0.00057041833
-0.00052648953
-0.00048219238
-0.00043773174
-0.00039329563
-0.00034905566
-0.00030516801
-0.00026177516
-0.00021900751
-0.00017698686
-0.00013582739
-9.5650134e-05
-5.6375986e-05
-1.8152147e-05
-0.00068097086
-0.00066469146
-0.00064610071
-0.0006253733
-0.0006026959
-0.00057826321
-0.00055227509
-0.00052493293
-0.00049643614
-0.00046697954
-0.00043675091
-0.00040592947
-0.00037468409
-0.0003431724
-0.00031154035
-0.00027992211
-0.00024844035
-0.00021720701
-0.00018632445
-0.00015588642
-0.00012598005
-9.6685922e-05
-6.8085671e-05
-4.013022e-05
-1.2923284e-05
-0.00040795051
-0.00039820979
-0.00038708457
-0.00037467908
-0.00036110469
-0.00034647791
-0.00033091819
-0.00031454593
-0.00029748042
-0.00027983822
-0.00026173175
-0.0002432684
-0.00022454935
-0.00020566914
-0.00018671531
-0.0001677684
-0.00014890216
-0.000130184
-0.00011167559
-9.3433616e-05
-7.5509978e-05
-5.7951933e-05
-4.0805943e-05
-2.4051975e-05
-7.7484019e-06
-0.00013617971
-0.00013292894
-0.0001292158
-0.00012507507
-0.00012054393
-0.00011566141
-0.00011046743
-0.00010500219
-9.9305541e-05
-9.3415966e-05
-8.737145e-05
-8.1207791e-05
-7.4958754e-05
-6.8655894e-05
-6.232845e-05
-5.6003332e-05
-4.9705192e-05
-4.3456564e-05
-3.7278091e-05
-3.1188763e-05
-2.5205631e-05
-1.9343761e-05
-1.3617887e-05
-8.0288311e-06
-2.59166e-06
)
;

boundaryField
{
    Walls
    {
        type            zeroGradient;
    }
    Inlet
    {
        type            fixedValue;
        value           uniform 500;
    }
    Outlet
    {
        type            fixedValue;
        value           uniform 0;
    }
    Front
    {
        type            wedge;
    }
    Back
    {
        type            wedge;
    }
    defaultFaces
    {
        type            empty;
    }
}


// ************************************************************************* //
