/*--------------------------------*- C++ -*----------------------------------*\
| =========                 |                                                 |
| \\      /  F ield         | OpenFOAM: The Open Source CFD Toolbox           |
|  \\    /   O peration     | Version:  4.0                                   |
|   \\  /    A nd           | Web:      www.OpenFOAM.org                      |
|    \\/     M anipulation  |                                                 |
\*---------------------------------------------------------------------------*/
FoamFile
{
    version     2.0;
    format      ascii;
    class       surfaceScalarField;
    location    "0.41";
    object      phi;
}
// * * * * * * * * * * * * * * * * * * * * * * * * * * * * * * * * * * * * * //

dimensions      [0 3 -1 0 0 0 0];

internalField   nonuniform List<scalar> 
3364
(
-1.9914417e-10
1.7307415e-08
-3.7004948e-10
4.8636774e-08
8.6724257e-08
-3.6030964e-10
1.7667714e-08
-1.3445509e-09
4.9621044e-08
8.5379713e-08
-2.5320589e-10
1.7920936e-08
-7.4544389e-10
5.0113346e-08
8.4634269e-08
1.8810052e-10
1.7732815e-08
6.032623e-10
4.969815e-08
8.5237496e-08
3.4637258e-10
1.7386398e-08
-6.8247754e-10
5.0726904e-08
8.455495e-08
2.6121579e-10
1.7125127e-08
-9.4549822e-10
5.1933527e-08
8.3609402e-08
5.4185772e-10
1.6583201e-08
5.6255348e-10
5.1912776e-08
8.4171952e-08
3.9218121e-10
1.6190972e-08
6.4871018e-10
5.1656222e-08
8.4820648e-08
-7.1813569e-10
1.6909106e-08
-1.7070317e-10
5.1108777e-08
8.4649906e-08
-6.825919e-10
1.7591702e-08
-3.724289e-10
5.0798585e-08
8.4277453e-08
2.9793488e-10
1.7293727e-08
-2.3964776e-10
5.1336133e-08
8.4037796e-08
-3.9507316e-11
1.7333188e-08
1.5322771e-10
5.1143384e-08
8.4191007e-08
-3.2079647e-10
1.765394e-08
2.8626787e-10
5.0536279e-08
8.4477234e-08
3.3610987e-10
1.7317799e-08
1.2029699e-10
5.0752037e-08
8.4597479e-08
8.2544414e-10
1.6492322e-08
4.527417e-10
5.1124665e-08
8.5050162e-08
3.8902974e-10
1.6103241e-08
2.7637328e-10
5.1237255e-08
8.53265e-08
-1.2850286e-11
1.6116026e-08
-1.0523538e-10
5.1329632e-08
8.522126e-08
-1.5496692e-11
1.6131472e-08
-8.8001587e-11
5.1402116e-08
8.5133234e-08
-5.2156779e-10
1.6653001e-08
-1.6859728e-10
5.1049086e-08
8.4964595e-08
-6.50294e-10
1.7303269e-08
-4.4632763e-10
5.0845071e-08
8.4518223e-08
-5.7087241e-11
1.7360333e-08
-1.0710905e-09
5.1859056e-08
8.3447099e-08
4.5229556e-10
1.6908024e-08
-3.6085078e-10
5.2672159e-08
8.3086192e-08
4.7430902e-10
1.6433693e-08
9.9887903e-10
5.2147532e-08
8.4084996e-08
-3.7635751e-10
1.6810002e-08
2.2970449e-10
5.1541424e-08
8.4314659e-08
-5.9925382e-10
1.7409199e-08
-1.0245977e-09
5.1966754e-08
8.3290051e-08
1.4341659e-10
1.7265741e-08
-1.1124923e-09
5.3222672e-08
8.217755e-08
3.3641982e-10
1.6929297e-08
9.5897599e-10
5.2600109e-08
8.3136503e-08
2.9097468e-10
1.6638303e-08
2.1358821e-09
5.0755188e-08
8.5272351e-08
2.6315433e-10
1.6375184e-08
2.9659488e-10
5.0721846e-08
8.5568971e-08
1.2714181e-09
1.5103974e-08
4.140032e-09
4.7853359e-08
8.970897e-08
1.1069336e-08
4.0339815e-09
4.8521168e-08
1.0399619e-08
1.0802737e-08
1.2742479e-07
4.6752617e-09
-6.4175254e-10
1.6701502e-08
-1.6281175e-09
-1.5289692e-09
2.9031331e-08
-4.5837872e-10
-1.8334035e-10
-1.6125406e-09
-4.7388644e-10
-5.2256228e-10
-2.6188478e-09
-1.3265261e-10
-5.0673348e-11
-4.7672717e-10
-1.2977717e-10
-1.4443921e-10
-8.5481246e-10
-2.5278523e-11
-2.539332e-11
-9.2693484e-11
-6.2357972e-11
-6.3452605e-11
-1.7367522e-10
-9.6015215e-12
-1.5791683e-11
-3.3285935e-11
-3.8673219e-11
-3.9671503e-11
-5.7067779e-11
-4.7027454e-12
-1.108908e-11
-1.532922e-11
-2.8047161e-11
-3.1698571e-11
-2.3301787e-11
-2.3137493e-12
-8.7752011e-12
-6.7170811e-12
-2.3643673e-11
-2.9820485e-11
-8.5949538e-12
-1.5425514e-12
-7.2325328e-12
-5.0978335e-12
-2.0088229e-11
-2.7982386e-11
-6.9357492e-12
-1.3370323e-12
-5.8953841e-12
-4.7913765e-12
-1.6633686e-11
-2.4097274e-11
-8.6762084e-12
-1.2679891e-12
-4.627283e-12
-4.7104076e-12
-1.3191054e-11
-1.9511764e-11
-9.2955983e-12
-1.0382731e-12
-3.5889189e-12
-3.8884486e-12
-1.0340701e-11
-1.5559063e-11
-7.8408799e-12
-7.2480028e-13
-2.8640546e-12
-2.8136686e-12
-8.2517082e-12
-1.2476452e-11
-5.8960881e-12
-5.0981361e-13
-2.3541978e-12
-1.9703727e-12
-6.7910684e-12
-1.034638e-11
-4.1003207e-12
-3.5917744e-13
-1.9949919e-12
-1.3663172e-12
-5.7838782e-12
-8.8989316e-12
-2.8136901e-12
-2.6287051e-13
-1.7321022e-12
-1.0027617e-12
-5.0439547e-12
-7.8382048e-12
-2.063441e-12
-2.1083025e-13
-1.5212586e-12
-8.0007739e-13
-4.4546858e-12
-6.9828302e-12
-1.655421e-12
-1.7337644e-13
-1.347873e-12
-6.6442361e-13
-3.9636245e-12
-6.2625525e-12
-1.3846817e-12
-1.4298539e-13
-1.2048817e-12
-5.5313336e-13
-3.5534686e-12
-5.6521277e-12
-1.1635475e-12
-1.1692606e-13
-1.0879525e-12
-4.5389444e-13
-3.2164977e-12
-5.1413429e-12
-9.6467633e-13
-9.5036261e-14
-9.9291531e-13
-3.708001e-13
-2.9407363e-12
-4.7255054e-12
-7.8664327e-13
-7.6818679e-14
-9.1609723e-13
-3.0075923e-13
-2.7168019e-12
-4.3863745e-12
-6.3990195e-13
-6.159974e-14
-8.5449918e-13
-2.426021e-13
-2.5358082e-12
-4.1067594e-12
-5.2223285e-13
-5.0776599e-14
-8.0372495e-13
-1.9691066e-13
-2.3896843e-12
-3.8769407e-12
-4.2674741e-13
-4.2538947e-14
-7.6118881e-13
-1.6538282e-13
-2.2668514e-12
-3.6904044e-12
-3.5193841e-13
-3.6040128e-14
-7.2515175e-13
-1.4065843e-13
-2.1622443e-12
-3.5302816e-12
-3.0080082e-13
-3.1308764e-14
-6.9384617e-13
-1.2258879e-13
-2.0709756e-12
-3.3889678e-12
-2.6392205e-13
-2.7911731e-14
-6.6593764e-13
-1.0942413e-13
-1.9894742e-12
-3.262066e-12
-2.3634484e-13
-2.555041e-14
-6.4039037e-13
-1.0024013e-13
-1.9147951e-12
-3.1470889e-12
-2.1523531e-13
-2.3825315e-14
-6.1656809e-13
-9.3659517e-14
-1.844971e-12
-3.0436662e-12
-1.9709935e-13
-2.1502112e-14
-5.9506887e-13
-8.6340374e-14
-1.7801422e-12
-2.93008e-12
-1.9994264e-13
-2.197087e-14
-5.7310069e-13
-8.6917568e-14
-1.7152043e-12
-2.824014e-12
-1.9299827e-13
-2.1513093e-14
-5.5159008e-13
-8.5182131e-14
-1.6515433e-12
-2.7218693e-12
-1.8734036e-13
-2.0737743e-14
-5.3085461e-13
-8.2323874e-14
-1.5899645e-12
-2.6223873e-12
-1.8181823e-13
-2.0162661e-14
-5.1069401e-13
-7.9905642e-14
-1.5302282e-12
-2.5253011e-12
-1.7700295e-13
-1.9619291e-14
-4.9107658e-13
-7.7949592e-14
-1.4719039e-12
-2.4301203e-12
-1.7314026e-13
-1.9000908e-14
-4.7207734e-13
-7.5739131e-14
-1.415171e-12
-2.3372664e-12
-1.6860185e-13
-1.8319527e-14
-4.5375929e-13
-7.3063306e-14
-1.360432e-12
-2.2475044e-12
-1.6283308e-13
-1.7536218e-14
-4.3622437e-13
-6.9949759e-14
-1.3080226e-12
-2.1614158e-12
-1.5604516e-13
-1.6566275e-14
-4.1965922e-13
-6.6099587e-14
-1.2584929e-12
-2.0800309e-12
-1.4749034e-13
-1.5481545e-14
-4.0417866e-13
-6.1796884e-14
-1.2121807e-12
-2.0038981e-12
-1.3793478e-13
-1.4256451e-14
-3.8992304e-13
-5.6918335e-14
-1.1695215e-12
-1.9340257e-12
-1.2679504e-13
-1.2851912e-14
-3.7707185e-13
-5.1377248e-14
-1.1309984e-12
-1.8702343e-12
-1.1517242e-13
-1.1376224e-14
-3.6569622e-13
-4.5489154e-14
-1.0968874e-12
-1.813926e-12
-1.0180058e-13
-9.7788884e-15
-3.5591783e-13
-3.9069773e-14
-1.0675982e-12
-1.7656407e-12
-8.7357741e-14
-8.0582331e-15
-3.4786001e-13
-3.2140452e-14
-1.0435173e-12
-1.7259601e-12
-7.1823243e-14
-6.2273543e-15
-3.4163299e-13
-2.475105e-14
-1.0249948e-12
-1.6954438e-12
-5.5269235e-14
-4.2996852e-15
-3.373336e-13
-1.7053422e-14
-1.0122421e-12
-1.6743858e-12
-3.8113075e-14
-2.3105624e-15
-3.3502333e-13
-9.3710683e-15
-1.0051826e-12
-1.6626732e-12
-2.1085277e-14
-5.2088389e-16
-2.1939191e-15
-4.8563378e-15
1.3688984e-07
-9.4703565e-09
-8.6375952e-09
1.4552115e-07
2.1113305e-08
-1.5535301e-09
-1.3829374e-09
1.3858112e-08
-3.6077544e-09
-5.6449625e-10
-6.0455761e-10
-4.3859927e-09
-1.2603949e-09
-1.5886261e-10
-1.8166002e-10
-1.6832309e-09
-2.7974367e-10
-5.2784516e-11
-3.9599311e-11
-4.2178976e-10
-7.943201e-11
-3.0417442e-11
-9.8476866e-12
-1.0918046e-10
-2.7604799e-11
-2.6113634e-11
-1.3922285e-11
-2.3529901e-11
-6.3459002e-12
-2.8362608e-11
-2.1124996e-11
8.5653242e-13
-5.6695382e-12
-2.9628711e-11
-2.6438377e-11
-3.5621884e-13
-1.1080835e-11
-2.7223783e-11
-2.6243789e-11
-1.1275152e-11
-1.366743e-11
-2.2851558e-11
-2.3152468e-11
-1.6758328e-11
-1.2143159e-11
-1.8548934e-11
-1.9302839e-11
-1.5992392e-11
-9.3966056e-12
-1.5048165e-11
-1.5856831e-11
-1.2842316e-11
-6.4911726e-12
-1.2657151e-11
-1.3617527e-11
-8.7302849e-12
-4.4146905e-12
-1.1056053e-11
-1.2143056e-11
-5.889046e-12
-3.2415435e-12
-9.8778908e-12
-1.1073881e-11
-4.3106499e-12
-2.6121973e-12
-8.9210778e-12
-1.0174248e-11
-3.5117892e-12
-2.2170641e-12
-8.0886736e-12
-9.3536775e-12
-3.037612e-12
-1.88577e-12
-7.3664404e-12
-8.6209041e-12
-2.6185345e-12
-1.572813e-12
-6.7583024e-12
-7.9938201e-12
-2.1998992e-12
-1.2883769e-12
-6.2565791e-12
-7.4710796e-12
-1.8111333e-12
-1.0501728e-12
-5.8463266e-12
-7.041027e-12
-1.4802508e-12
-8.6072226e-13
-5.5078605e-12
-6.6848942e-12
-1.2168862e-12
-7.103167e-13
-5.2243173e-12
-6.3853486e-12
-1.0098967e-12
-5.8936985e-13
-4.9869136e-12
-6.1295251e-12
-8.4522944e-13
-4.9786532e-13
-4.7898773e-12
-5.910217e-12
-7.1721e-13
-4.3878291e-13
-4.6150442e-12
-5.7214164e-12
-6.276195e-13
-3.9464836e-13
-4.4567676e-12
-5.5493583e-12
-5.6674118e-13
-3.6066469e-13
-4.3113638e-12
-5.3742893e-12
-5.3576663e-13
-3.4780982e-13
-4.1606774e-12
-5.2005411e-12
-5.215889e-13
-3.4231067e-13
-4.0183318e-12
-5.0339436e-12
-5.0893676e-13
-3.2997028e-13
-3.8813805e-12
-4.8697056e-12
-4.9423472e-13
-3.2237221e-13
-3.7463675e-12
-4.7088947e-12
-4.8320717e-13
-3.1527838e-13
-3.6129245e-12
-4.5471564e-12
-4.7703834e-13
-3.0807077e-13
-3.481872e-12
-4.3863085e-12
-4.6893803e-13
-3.0228993e-13
-3.352736e-12
-4.2268347e-12
-4.6178087e-13
-2.9508316e-13
-3.2262667e-12
-4.0701379e-12
-4.5179519e-13
-2.8544048e-13
-3.10367e-12
-3.9176396e-12
-4.3795211e-13
-2.7408266e-13
-2.9856417e-12
-3.7704752e-12
-4.2125874e-13
-2.5954954e-13
-2.8735906e-12
-3.6309446e-12
-3.9909029e-13
-2.4190976e-13
-2.7696226e-12
-3.5003083e-12
-3.7255479e-13
-2.231361e-13
-2.6732875e-12
-3.379195e-12
-3.4425694e-13
-2.0246215e-13
-2.5860029e-12
-3.2697548e-12
-3.1190885e-13
-1.7916135e-13
-2.5086464e-12
-3.1726272e-12
-2.7629439e-13
-1.5383844e-13
-2.4421693e-12
-3.0891651e-12
-2.3730505e-13
-1.264562e-13
-2.3875394e-12
-3.0204546e-12
-1.951706e-13
-9.7311808e-14
-2.3454994e-12
-2.9675123e-12
-1.5025734e-13
-6.7157328e-14
-2.3164575e-12
-2.9308941e-12
-1.0377844e-13
-3.7205974e-14
-2.300339e-12
-2.9106703e-12
-5.7432652e-14
-8.4407265e-15
-1.2787809e-14
-7.9984124e-12
7.9931977e-12
-1.5193169e-11
7.1830047e-12
-2.1231372e-11
6.0269229e-12
-2.6568738e-11
5.3301552e-12
-3.2680526e-11
6.1071679e-12
-4.1049867e-11
8.3666478e-12
-5.3789431e-11
1.273837e-11
-7.2125576e-11
1.8336152e-11
-9.6337577e-11
2.4212898e-11
-1.2562843e-10
2.9292389e-11
-1.591676e-10
3.3541103e-11
-1.9562502e-10
3.6459564e-11
-2.3376379e-10
3.8140949e-11
-2.7265244e-10
3.889075e-11
-3.1157446e-10
3.8923903e-11
-3.499239e-10
3.8351058e-11
-3.8705052e-10
3.7127881e-11
-4.2208916e-10
3.5039559e-11
-4.5426565e-10
3.2177071e-11
-4.8280171e-10
2.8536342e-11
-5.069938e-10
2.4192146e-11
-5.2633849e-10
1.9344583e-11
-5.4040954e-10
1.4070848e-11
-5.4872271e-10
8.3129558e-12
2.2068857e-12
-4.5793537e-11
5.3790955e-11
-9.8938623e-11
6.0334759e-11
-1.5977663e-10
6.6872755e-11
-2.2946075e-10
7.5022543e-11
-3.1194787e-10
8.8602656e-11
-4.098168e-10
1.0624381e-10
-5.2384043e-10
1.2676993e-10
-6.5441438e-10
1.489176e-10
-7.9961598e-10
1.6942145e-10
-9.5735826e-10
1.87041e-10
-1.1247232e-09
2.0091174e-10
-1.2993047e-09
2.1104612e-10
-1.4788745e-09
2.1771516e-10
-1.6615823e-09
2.2160233e-10
-1.8455753e-09
2.2292011e-10
-2.0298886e-09
2.2266684e-10
-2.2247387e-09
2.3198004e-10
-2.4113033e-09
2.2160555e-10
-2.5814801e-09
2.0235471e-10
-2.7302255e-09
1.7728197e-10
-2.8538411e-09
1.4780759e-10
-2.9495564e-09
1.1505926e-10
-3.014937e-09
7.9450463e-11
-3.0461499e-09
3.9524594e-11
1.0141275e-11
-1.2608989e-10
1.7988967e-10
-2.7050531e-10
2.0476404e-10
-4.3880122e-10
2.3518486e-10
-6.3824362e-10
2.7448173e-10
-8.7257287e-10
3.2294838e-10
-1.1440711e-09
3.7775769e-10
-1.4555599e-09
4.3827306e-10
-1.8693433e-09
5.6271391e-10
-2.3206908e-09
6.2078022e-10
-2.7823557e-09
6.4871553e-10
-3.2404342e-09
6.5899839e-10
-3.6860423e-09
6.5666078e-10
-4.1128001e-09
6.4447827e-10
-4.5147765e-09
6.2358275e-10
-4.8857699e-09
5.9391639e-10
-5.2200261e-09
5.5692481e-10
-5.5018264e-09
5.1378116e-10
-5.7452437e-09
4.6502273e-10
-5.9544702e-09
4.115803e-10
-6.1316534e-09
3.5446355e-10
-6.2787529e-09
2.9490477e-10
-6.3967265e-09
2.3303004e-10
-6.4856387e-09
1.6835927e-10
-6.5474307e-09
1.0131287e-10
3.3608758e-11
-3.7246457e-10
5.5237121e-10
-7.8725337e-10
6.1957832e-10
-1.2669565e-09
7.1491592e-10
-2.045291e-09
1.0528418e-09
-2.8907822e-09
1.1684617e-09
-3.69972e-09
1.1867138e-09
-4.4210733e-09
1.1596413e-09
-4.9615821e-09
1.1032345e-09
-5.3674063e-09
1.026614e-09
-5.6550125e-09
9.3632925e-10
-5.8392195e-09
8.4321121e-10
-5.931362e-09
7.4880766e-10
-5.9414608e-09
6.5458024e-10
-5.8717285e-09
5.5385273e-10
-5.7376507e-09
4.5984007e-10
-5.5560669e-09
3.7534174e-10
-5.3437253e-09
3.0143977e-10
-5.1174153e-09
2.3871239e-10
-4.8931818e-09
1.873462e-10
-4.6853854e-09
1.4666608e-10
-4.5064216e-09
1.1593956e-10
-4.3641544e-09
9.0761231e-11
-4.2636485e-09
6.785151e-11
-4.2085383e-09
4.6200523e-11
2.4846755e-11
-2.2010707e-09
2.7534693e-09
-3.9355034e-09
2.3540412e-09
-5.4103865e-09
2.1898282e-09
-6.07755e-09
1.7200262e-09
-6.1378999e-09
1.2288286e-09
-5.674239e-09
7.230666e-10
-4.9162503e-09
4.0166389e-10
-3.9309629e-09
1.179567e-10
-2.7828797e-09
-1.2146103e-10
-1.5380119e-09
-3.0853186e-10
-3.0282647e-10
-3.9196974e-10
9.2795436e-10
-4.8197399e-10
2.2177451e-09
-6.3521156e-10
3.6274553e-09
-8.558573e-10
5.0064788e-09
-9.1918166e-10
6.314333e-09
-9.3250879e-10
7.5280685e-09
-9.122903e-10
8.6328711e-09
-8.6608299e-10
9.6185956e-09
-7.9836953e-10
1.0477169e-08
-7.1189702e-10
1.1201442e-08
-6.0832188e-10
1.1782173e-08
-4.8995543e-10
1.2209091e-08
-3.5905162e-10
1.2473283e-08
-2.1797607e-10
-6.5299505e-11
1.0643218e-09
1.6892335e-09
4.2820355e-09
-8.636215e-10
8.0135675e-09
-1.5416343e-09
1.1701742e-08
-1.9681198e-09
1.5410414e-08
-2.479818e-09
1.9053714e-08
-2.9202059e-09
2.2632302e-08
-3.1768924e-09
2.5991187e-08
-3.2408915e-09
2.9042409e-08
-3.1726405e-09
3.1768861e-08
-3.0349379e-09
3.4233108e-08
-2.8561679e-09
3.6396856e-08
-2.645669e-09
3.8190555e-08
-2.4288564e-09
3.9557367e-08
-2.2226153e-09
4.0646373e-08
-2.0081321e-09
4.1508104e-08
-1.7941845e-09
4.2182283e-08
-1.5864136e-09
4.2702148e-08
-1.3858929e-09
4.3096568e-08
-1.1927348e-09
4.339082e-08
-1.0060936e-09
4.3606663e-08
-8.2411065e-10
4.376123e-08
-6.4446815e-10
4.3866618e-08
-4.6438612e-10
4.3930012e-08
-2.8131653e-10
-8.9378722e-11
1.4943852e-07
-2.2269185e-09
1.4794054e-07
6.3528028e-10
1.452561e-07
1.1435919e-09
1.4170108e-07
1.5875927e-09
1.3709239e-07
2.1294817e-09
1.3158199e-07
2.5907183e-09
1.2553235e-07
2.8731934e-09
1.1932859e-07
2.9632539e-09
1.1323825e-07
2.9180299e-09
1.0740514e-07
2.7984543e-09
1.018962e-07
2.6530241e-09
9.6763927e-08
2.4868276e-09
9.2037337e-08
2.2979321e-09
8.7716677e-08
2.098222e-09
8.3812743e-08
1.8959622e-09
8.0323205e-08
1.695499e-09
7.7237209e-08
1.4997159e-09
7.4541302e-08
1.3101369e-09
7.2221581e-08
1.1270993e-09
7.0265559e-08
9.5003359e-10
6.8663871e-08
7.7767682e-10
6.7411371e-08
6.0812506e-10
6.6508581e-08
4.3849181e-10
6.5961274e-08
2.660748e-10
8.504765e-11
1.3200591e-08
-1.5692739e-09
1.5547172e-08
-1.7111868e-09
1.8176872e-08
-1.4859941e-09
2.0895199e-08
-1.1306231e-09
2.3693951e-08
-6.6916386e-10
2.6603147e-08
-3.1837628e-10
2.9513984e-08
-3.7551704e-11
3.2269703e-08
2.0762424e-10
3.4836518e-08
3.5130289e-10
3.7177535e-08
4.5752449e-10
3.9250747e-08
5.7989781e-10
4.0872122e-08
8.6553813e-10
4.2159703e-08
1.0104342e-09
4.318351e-08
1.0744958e-09
4.3985416e-08
1.0941351e-09
4.4601846e-08
1.0791457e-09
4.5065972e-08
1.035664e-09
4.540705e-08
9.6913183e-10
4.5651163e-08
8.8305584e-10
4.5821172e-08
7.8009173e-10
4.5936574e-08
6.6234095e-10
4.6013362e-08
5.3140022e-10
4.6062903e-08
3.8901175e-10
4.6092347e-08
2.3669067e-10
7.1923122e-11
-5.1575207e-09
-7.9775621e-10
-5.8385433e-09
-1.0301735e-09
-6.1863979e-09
-1.1381492e-09
-6.1239261e-09
-1.1931043e-09
-5.6015945e-09
-1.1915031e-09
-4.7738805e-09
-1.1460958e-09
-3.7355995e-09
-1.0758356e-09
-2.5397994e-09
-9.8817588e-10
-1.2981415e-09
-8.9035256e-10
-5.2267784e-11
-7.8834428e-10
1.2164084e-09
-6.8877124e-10
2.6636958e-09
-5.8173984e-10
4.1522177e-09
-4.7807606e-10
5.6092067e-09
-3.8247938e-10
6.9992945e-09
-2.9593714e-10
8.2996876e-09
-2.2123017e-10
9.5100186e-09
-1.7464852e-10
1.0614782e-08
-1.3561235e-10
1.1601663e-08
-1.0380466e-10
1.2460641e-08
-7.8865161e-11
1.318311e-08
-6.0106697e-11
1.3760947e-08
-4.6415365e-11
1.4186317e-08
-3.6336323e-11
1.4450602e-08
-2.7573743e-11
-1.6717419e-11
-2.2673811e-09
-2.136068e-10
-3.0359881e-09
-2.6156865e-10
-3.8442603e-09
-3.298816e-10
-4.6335801e-09
-4.0379144e-10
-5.3472299e-09
-4.7786212e-10
-5.8809113e-09
-6.1242447e-10
-6.2872198e-09
-6.6953774e-10
-6.5754101e-09
-6.9999657e-10
-6.752353e-09
-7.134206e-10
-6.8267538e-09
-7.1395417e-10
-6.8107654e-09
-7.0476995e-10
-6.7052027e-09
-6.8731222e-10
-6.5216906e-09
-6.6159713e-10
-6.2755106e-09
-6.286677e-10
-5.9817252e-09
-5.8972994e-10
-5.6561831e-09
-5.4677902e-10
-5.3298187e-09
-5.010188e-10
-5.0132981e-09
-4.5213824e-10
-4.7167841e-09
-4.0032331e-10
-4.4499502e-09
-3.4570314e-10
-4.2217136e-09
-2.8834704e-10
-4.0398614e-09
-2.2827092e-10
-3.9106922e-09
-1.6550864e-10
-3.8380013e-09
-1.0026774e-10
-3.3796735e-11
-5.9955673e-10
-3.5836936e-11
-8.2254683e-10
-3.8575887e-11
-1.0948941e-09
-5.7532399e-11
-1.4067101e-09
-9.1974273e-11
-1.7635875e-09
-1.2098459e-10
-2.2200632e-09
-1.5594971e-10
-2.7000949e-09
-1.8950814e-10
-3.1829411e-09
-2.1715374e-10
-3.6577651e-09
-2.3860091e-10
-4.1174108e-09
-2.5431371e-10
-4.5563767e-09
-2.6581009e-10
-4.9694115e-09
-2.7428408e-10
-5.3470233e-09
-2.8399255e-10
-5.6655926e-09
-3.1010597e-10
-5.9460341e-09
-3.0929629e-10
-6.193276e-09
-2.9954522e-10
-6.4111657e-09
-2.8313735e-10
-6.6019262e-09
-2.6138597e-10
-6.7673537e-09
-2.3490414e-10
-6.9089047e-09
-2.0416041e-10
-7.0276499e-09
-1.6961012e-10
-7.1241131e-09
-1.3181592e-10
-7.1980869e-09
-9.154298e-11
-7.2493912e-09
-4.8971556e-11
-1.1228098e-11
-1.5552746e-10
1.0511582e-11
-2.2005345e-10
2.5951725e-11
-3.103272e-10
3.2742875e-11
-4.3069641e-10
2.8396244e-11
-5.6904435e-10
1.7364344e-11
-7.3291519e-10
7.9217199e-12
-9.1537439e-10
-7.048801e-12
-1.1106322e-09
-2.1896197e-11
-1.3135009e-09
-3.5733047e-11
-1.5200922e-09
-4.7723519e-11
-1.7280722e-09
-5.7831705e-11
-1.9400571e-09
-6.2301101e-11
-2.1586636e-09
-6.5388419e-11
-2.401627e-09
-6.714535e-11
-2.6436496e-09
-6.7276839e-11
-2.8773271e-09
-6.5871223e-11
-3.0974878e-09
-6.2980397e-11
-3.3001321e-09
-5.874569e-11
-3.4817242e-09
-5.3316288e-11
-3.6390817e-09
-4.6807356e-11
-3.7693451e-09
-3.9351322e-11
-3.8700478e-09
-3.1117786e-11
-3.939309e-09
-2.2286484e-11
-3.975283e-09
-1.3002139e-11
-3.6032424e-12
-1.8337879e-11
5.3199166e-12
-1.5115362e-11
2.2729481e-11
-1.7022351e-11
3.465005e-11
-3.0907904e-11
4.2281895e-11
-5.8471758e-11
4.4928203e-11
-9.4880615e-11
4.4330479e-11
-1.4102147e-10
3.9091849e-11
-1.9605176e-10
3.3133773e-11
-2.578791e-10
2.6093873e-11
-3.2376932e-10
1.816617e-11
-3.91524e-10
9.9223492e-12
-4.6009971e-10
6.2738842e-12
-5.2869495e-10
3.206015e-12
-5.9671275e-10
8.7154254e-13
-6.6326439e-10
-7.2619416e-13
-7.2741926e-10
-1.7174413e-12
-7.8813241e-10
-2.2684198e-12
-8.4443742e-10
-2.441928e-12
-8.9538517e-10
-2.3698298e-12
-9.3996305e-10
-2.2308155e-12
-9.7721137e-10
-2.1043541e-12
-1.0063242e-09
-2.006325e-12
-1.0267603e-09
-1.8516532e-12
-1.0383085e-09
-1.455265e-12
-4.7011686e-13
1.6383951e-11
-1.0207331e-11
3.6309906e-11
2.8036183e-12
5.5991394e-11
1.4968594e-11
7.5556672e-11
2.2716611e-11
9.2404046e-11
2.8080804e-11
1.0442751e-10
3.2306976e-11
1.1020673e-10
3.3312595e-11
1.1168382e-10
3.1656643e-11
1.0997697e-10
2.7800673e-11
1.0618991e-10
2.1953177e-11
9.9576051e-11
1.6536157e-11
9.2973606e-11
1.2876277e-11
8.6882797e-11
9.2967741e-12
8.1541282e-11
6.2130145e-12
7.7258409e-11
3.556645e-12
7.3921924e-11
1.6190216e-12
7.1531887e-11
1.2160874e-13
6.99817e-11
-8.9173545e-13
6.9124099e-11
-1.5122074e-12
6.8640011e-11
-1.7466912e-12
6.8304177e-11
-1.7684689e-12
6.8004501e-11
-1.7065852e-12
6.7630635e-11
-1.4777063e-12
6.7289351e-11
-1.1138801e-12
-5.0306013e-13
9.2334069e-12
-1.9796772e-11
2.2755614e-11
-1.0718439e-11
4.0613787e-11
-2.8894588e-12
5.9369084e-11
3.9614175e-12
7.7876903e-11
9.5730828e-12
9.6228048e-11
1.3955936e-11
1.1274116e-10
1.6799602e-11
1.2700439e-10
1.7393535e-11
1.3869859e-10
1.6106614e-11
1.4637973e-10
1.4272182e-11
1.5208583e-10
1.0830216e-11
1.5725426e-10
7.7080255e-12
1.6215331e-10
4.3979117e-12
1.6686617e-10
1.5003499e-12
1.7131273e-10
-8.8969783e-13
1.7510725e-10
-2.1752664e-12
1.7893572e-10
-3.7066194e-12
1.8279303e-10
-4.7487833e-12
1.8655513e-10
-5.2740398e-12
1.9011946e-10
-5.3107367e-12
1.9325427e-10
-4.9029835e-12
1.9582167e-10
-4.2736869e-12
1.9759408e-10
-3.2498232e-12
1.9843847e-10
-1.9579706e-12
-5.2681392e-13
-8.4226046e-12
-2.2649159e-11
-2.0471738e-12
-1.7093718e-11
6.1829005e-12
-1.1119392e-11
1.516577e-11
-5.0213166e-12
2.5393218e-11
-6.5423231e-13
3.6125136e-11
3.2241512e-12
4.6571897e-11
6.3529771e-12
5.5548588e-11
8.4169836e-12
6.203251e-11
9.6228336e-12
6.686473e-11
9.4401057e-12
6.9336986e-11
8.3581053e-12
7.0450845e-11
6.5943121e-12
7.0117992e-11
4.7309098e-12
6.9155874e-11
2.462614e-12
6.7833457e-11
4.3286444e-13
6.6663801e-11
-1.0054645e-12
6.4791805e-11
-1.8344762e-12
6.3057444e-11
-3.0142756e-12
6.1531155e-11
-3.7476036e-12
6.025974e-11
-4.039175e-12
5.9319248e-11
-3.9623476e-12
5.8641881e-11
-3.5961797e-12
5.832041e-11
-2.9282148e-12
5.8357758e-11
-1.9951841e-12
-8.4407788e-13
-1.84185e-11
-2.098888e-11
-1.8175407e-11
-1.7336707e-11
-1.6523443e-11
-1.2771253e-11
-1.3746011e-11
-7.7986487e-12
-1.0572007e-11
-3.8281386e-12
-7.2840058e-12
-6.3756174e-14
-4.0637303e-12
3.1327919e-12
-1.4181653e-12
5.7715049e-12
5.3307203e-13
7.6716776e-12
1.295475e-12
8.6777779e-12
8.6099995e-13
8.7926483e-12
-1.1639442e-12
8.6193164e-12
-4.2099173e-12
7.7769349e-12
-8.4406005e-12
6.6933409e-12
-1.335327e-11
5.3455697e-12
-1.855435e-11
4.1956437e-12
-2.325106e-11
2.862254e-12
-2.8008416e-11
1.7430955e-12
-3.263922e-11
8.8320973e-13
-3.6909483e-11
2.3109184e-13
-4.0690523e-11
-1.8130734e-13
-4.3920828e-11
-3.6588021e-13
-4.6517222e-11
-3.3182978e-13
-4.8482498e-11
-2.9916635e-14
1.2119791e-13
-1.9537808e-11
-1.7443411e-11
-2.1369498e-11
-1.5504962e-11
-2.2231414e-11
-1.1909282e-11
-2.2013343e-11
-8.0166659e-12
-2.1485451e-11
-4.3559799e-12
-2.0817706e-11
-7.3145631e-13
-2.0647547e-11
2.9626744e-12
-2.0450042e-11
5.5740345e-12
-2.0372744e-11
7.5944086e-12
-2.0938785e-11
9.2438395e-12
-2.2372519e-11
1.0226395e-11
-2.4486662e-11
1.0733465e-11
-2.7410954e-11
1.0701223e-11
-3.1008684e-11
1.029106e-11
-3.5204251e-11
9.5411183e-12
-3.9606144e-11
8.5975098e-12
-4.4292126e-11
7.5482037e-12
-4.8921316e-11
6.3722469e-12
-5.3493329e-11
5.4551795e-12
-5.7615193e-11
4.3529078e-12
-6.1198938e-11
3.4023866e-12
-6.4075668e-11
2.5107944e-12
-6.6169139e-11
1.7615842e-12
-6.7255977e-11
1.0568671e-12
2.8539607e-13
-1.5209343e-11
-1.5076364e-11
-1.7303074e-11
-1.3411205e-11
-1.8487926e-11
-1.0724401e-11
-1.8426505e-11
-8.0780583e-12
-1.8524527e-11
-4.2579303e-12
-1.8307521e-11
-9.4843667e-13
-1.7543046e-11
2.1982219e-12
-1.6861921e-11
4.8929285e-12
-1.6547279e-11
7.2797807e-12
-1.6446905e-11
9.1434734e-12
-1.6779735e-11
1.0559228e-11
-1.7590943e-11
1.154467e-11
-1.888959e-11
1.1999861e-11
-2.0609686e-11
1.201114e-11
-2.2810821e-11
1.1742233e-11
-2.5352327e-11
1.1138991e-11
-2.8114359e-11
1.0310206e-11
-3.1016635e-11
9.274489e-12
-3.3722753e-11
8.1612601e-12
-3.6321061e-11
6.9511755e-12
-3.8627888e-11
5.7091702e-12
-4.0582763e-11
4.4656233e-12
-4.2131553e-11
3.310326e-12
-4.3139704e-11
2.0649733e-12
3.1174909e-13
-1.0449051e-11
-1.3357599e-11
-1.1748249e-11
-1.2111997e-11
-1.23941e-11
-1.0078535e-11
-1.2303237e-11
-8.1689016e-12
-1.1647839e-11
-4.9133061e-12
-1.0666207e-11
-1.9300471e-12
-9.374364e-12
9.064004e-13
-7.9548495e-12
3.4734336e-12
-6.4892043e-12
5.814153e-12
-5.2111226e-12
7.8654063e-12
-4.0248842e-12
9.3730014e-12
-3.2174756e-12
1.073727e-11
-2.666722e-12
1.1449111e-11
-2.4036053e-12
1.1748024e-11
-2.670599e-12
1.2009224e-11
-3.2528297e-12
1.1721216e-11
-4.0632106e-12
1.1120578e-11
-5.0992625e-12
1.0310529e-11
-6.2057469e-12
9.2677298e-12
-7.3344714e-12
8.0798825e-12
-8.3941788e-12
6.7688577e-12
-9.2731729e-12
5.3445947e-12
-9.6941783e-12
3.7313062e-12
-9.7216975e-12
2.0924697e-12
9.6160867e-13
-7.0328935e-12
-1.221377e-11
-7.727693e-12
-1.1417202e-11
-7.8406514e-12
-9.9655723e-12
-7.6780133e-12
-8.3315291e-12
-6.653742e-12
-5.9375624e-12
-5.2624868e-12
-3.3212844e-12
-3.5262517e-12
-8.2981533e-13
-1.6070229e-12
1.5542245e-12
4.4382493e-13
3.7633243e-12
2.6409647e-12
5.6682846e-12
4.6548371e-12
7.3591457e-12
6.5727345e-12
8.8193874e-12
8.2621606e-12
9.7596984e-12
9.5274276e-12
1.0482768e-11
1.0672005e-11
1.0864656e-11
1.1521794e-11
1.0871434e-11
1.2194182e-11
1.0448194e-11
1.2560108e-11
9.9446058e-12
1.2651262e-11
9.1765762e-12
1.2616183e-11
8.1149586e-12
1.2509571e-11
6.875466e-12
1.2362663e-11
5.4914952e-12
1.2064416e-11
4.0295428e-12
1.1739039e-11
2.4178388e-12
6.4921101e-13
-5.1269176e-12
-1.1397539e-11
-5.5530031e-12
-1.099114e-11
-5.5396212e-12
-9.9789667e-12
-5.3173906e-12
-8.5537639e-12
-4.3223758e-12
-6.9325754e-12
-2.9914193e-12
-4.6522346e-12
-1.293765e-12
-2.5274603e-12
7.0754465e-13
-4.4707393e-13
2.9121394e-12
1.5587419e-12
5.1613827e-12
3.4190539e-12
7.4348892e-12
5.0856517e-12
9.7831108e-12
6.4711778e-12
1.1915318e-11
7.6275023e-12
1.389537e-11
8.5027277e-12
1.5718958e-11
9.0410768e-12
1.7325548e-11
9.264853e-12
1.8599869e-11
9.1738796e-12
1.9698811e-11
8.8456689e-12
2.0624187e-11
8.2512044e-12
2.1325179e-11
7.4139681e-12
2.1869329e-11
6.3313153e-12
2.2303764e-11
5.0570572e-12
2.2751806e-11
3.5814955e-12
2.300651e-11
2.163132e-12
9.4658342e-13
-4.2292342e-12
-1.068015e-11
-4.6713901e-12
-1.0549027e-11
-4.7321703e-12
-9.9182182e-12
-4.4571548e-12
-8.8288021e-12
-3.8545125e-12
-7.5352333e-12
-2.7329608e-12
-5.7737966e-12
-1.2674336e-12
-3.9929935e-12
4.7084182e-13
-2.1853523e-12
2.4421995e-12
-4.1261648e-13
4.6047368e-12
1.2565175e-12
6.773717e-12
2.9166733e-12
9.0410897e-12
4.2038075e-12
1.1247951e-11
5.4206439e-12
1.3422826e-11
6.3278551e-12
1.5473043e-11
6.9908629e-12
1.7352308e-11
7.3855906e-12
1.9013279e-11
7.512911e-12
2.0493531e-11
7.3654182e-12
2.1780948e-11
6.9637875e-12
2.2795881e-11
6.3990335e-12
2.3619751e-11
5.5074433e-12
2.4236567e-11
4.4402359e-12
2.4553008e-11
3.2650484e-12
2.4694956e-11
2.0211811e-12
6.9791934e-13
-3.7045798e-12
-1.0013254e-11
-4.1344757e-12
-1.0119191e-11
-4.3436736e-12
-9.7090695e-12
-4.2070648e-12
-8.965451e-12
-3.8256876e-12
-7.9166431e-12
-2.9887024e-12
-6.6108082e-12
-1.8484965e-12
-5.1332208e-12
-4.1533329e-13
-3.618533e-12
1.2533288e-12
-2.0812929e-12
3.0932456e-12
-5.8341095e-13
5.154648e-12
8.5526113e-13
7.2441345e-12
2.1143128e-12
9.2687438e-12
3.3960278e-12
1.1393134e-11
4.2034592e-12
1.3438782e-11
4.9452103e-12
1.5336306e-11
5.4880616e-12
1.7112264e-11
5.7369487e-12
1.8712806e-11
5.7648723e-12
2.0121911e-11
5.554679e-12
2.1369332e-11
5.151607e-12
2.2353483e-11
4.5232871e-12
2.3089853e-11
3.7038588e-12
2.3597797e-11
2.7570956e-12
2.3914959e-11
1.7040158e-12
5.7842896e-13
-3.2509975e-12
-9.3808717e-12
-3.7066061e-12
-9.6636531e-12
-3.9182798e-12
-9.497457e-12
-3.9208752e-12
-8.9629083e-12
-3.6525613e-12
-8.1850022e-12
-2.9964285e-12
-7.2669797e-12
-2.1178446e-12
-6.0118378e-12
-9.8852726e-13
-4.747879e-12
3.9768194e-13
-3.4675269e-12
1.9782456e-12
-2.1639961e-12
3.7440504e-12
-9.1056231e-13
5.5835143e-12
2.7483273e-13
7.6049534e-12
1.3745746e-12
9.5553449e-12
2.2530554e-12
1.1490456e-11
3.0100883e-12
1.3273889e-11
3.704619e-12
1.5063372e-11
3.9474582e-12
1.6706125e-11
4.1221116e-12
1.8160911e-11
4.0998849e-12
1.9426226e-11
3.8862854e-12
2.0478677e-11
3.4708282e-12
2.1282456e-11
2.9000716e-12
2.1870348e-11
2.1691949e-12
2.2231769e-11
1.34259e-12
4.3898112e-13
-2.7632688e-12
-8.8175842e-12
-3.194224e-12
-9.2327725e-12
-3.4165784e-12
-9.2751694e-12
-3.4319727e-12
-8.9475731e-12
-3.2151444e-12
-8.4018827e-12
-2.8219849e-12
-7.6601851e-12
-2.054337e-12
-6.779526e-12
-1.0835848e-12
-5.7186665e-12
6.8770352e-14
-4.6199131e-12
1.4310403e-12
-3.5262935e-12
2.9536342e-12
-2.4331803e-12
4.6073118e-12
-1.3788659e-12
6.3911115e-12
-4.0924339e-13
8.1731647e-12
4.7098627e-13
9.9570418e-12
1.2261975e-12
1.1812293e-11
1.8493564e-12
1.3499959e-11
2.2597813e-12
1.5095214e-11
2.5268477e-12
1.6552865e-11
2.6422255e-12
1.7792793e-11
2.6463495e-12
1.8875159e-11
2.3884549e-12
1.973394e-11
2.0412817e-12
2.0245963e-11
1.6571632e-12
2.06129e-11
9.7564987e-13
1.7085172e-13
-2.2899754e-12
-8.3388211e-12
-2.6695795e-12
-8.8532415e-12
-2.9129359e-12
-9.0318799e-12
-2.920926e-12
-8.9396433e-12
-2.7532831e-12
-8.5695799e-12
-2.38512e-12
-8.0283965e-12
-1.7901342e-12
-7.3745549e-12
-9.5193211e-13
-6.5569068e-12
6.7962936e-14
-5.6398421e-12
1.2533257e-12
-4.7116862e-12
2.5872752e-12
-3.7671562e-12
4.0629363e-12
-2.8545503e-12
5.6331672e-12
-1.9794945e-12
7.2738874e-12
-1.1697514e-12
8.9509e-12
-4.508301e-13
1.0640846e-11
1.593979e-13
1.2250276e-11
6.5034049e-13
1.3767336e-11
1.0097782e-12
1.5174043e-11
1.2355097e-12
1.6479967e-11
1.3404181e-12
1.7577833e-11
1.2905824e-12
1.8506586e-11
1.1125211e-12
1.9398598e-11
7.6514405e-13
1.982517e-11
5.4907535e-13
3.0832918e-13
-1.8775933e-12
-7.941549e-12
-2.1904934e-12
-8.5404101e-12
-2.371358e-12
-8.8510792e-12
-2.4208778e-12
-8.8901821e-12
-2.2784892e-12
-8.7120218e-12
-1.9640848e-12
-8.3428489e-12
-1.4899004e-12
-7.8487825e-12
-7.3811045e-13
-7.3087354e-12
1.528196e-13
-6.5308066e-12
1.19498e-12
-5.7538771e-12
2.3725182e-12
-4.9447215e-12
3.6695381e-12
-4.1515939e-12
5.0647067e-12
-3.3746836e-12
6.5390967e-12
-2.6441591e-12
8.054243e-12
-1.9659915e-12
9.5760701e-12
-1.3624418e-12
1.1066403e-11
-8.4000345e-13
1.2489238e-11
-4.1306557e-13
1.3809694e-11
-8.495391e-14
1.5017283e-11
1.328226e-13
1.6054826e-11
2.5303443e-13