/*--------------------------------*- C++ -*----------------------------------*\
| =========                 |                                                 |
| \\      /  F ield         | OpenFOAM: The Open Source CFD Toolbox           |
|  \\    /   O peration     | Version:  4.0                                   |
|   \\  /    A nd           | Web:      www.OpenFOAM.org                      |
|    \\/     M anipulation  |                                                 |
\*---------------------------------------------------------------------------*/
FoamFile
{
    version     2.0;
    format      ascii;
    class       volVectorField;
    location    "0.41";
    object      U;
}
// * * * * * * * * * * * * * * * * * * * * * * * * * * * * * * * * * * * * * //

dimensions      [0 1 -1 0 0 0 0];

internalField   nonuniform List<vector> 
1740
(
(1.5624151 -0.0066768772 4.2555861e-06)
(1.4843588 -0.0097722756 6.3732173e-07)
(1.5990153 -0.0040622771 4.9236217e-08)
(1.6271451 -0.014200115 7.8576023e-06)
(1.4975003 -0.02903685 1.7146897e-06)
(1.6061676 -0.018771483 3.2113123e-07)
(1.6252018 -0.0098517608 1.0822021e-05)
(1.5312055 -0.019212933 2.3631883e-06)
(1.4876448 -0.0088032196 4.4945079e-07)
(1.6521282 -0.0018848913 1.3638639e-05)
(1.5334497 0.015414228 3.5570455e-06)
(1.5867303 0.0051610367 5.6920098e-07)
(1.5840021 0.010214471 1.4968268e-05)
(1.491039 -0.0013088806 4.3426821e-06)
(1.5991318 -0.0070551737 8.0662597e-07)
(1.609043 0.01462561 1.5967734e-05)
(1.6080445 -0.011922086 5.312616e-06)
(1.5205268 -0.013888057 9.8512705e-07)
(1.5748203 0.018941462 1.7038765e-05)
(1.6130644 0.017868736 6.0209588e-06)
(1.5227776 -0.00062460288 1.1802087e-06)
(1.4813692 0.0059593411 1.8277032e-05)
(1.5850389 0.018133642 6.9964436e-06)
(1.5786785 0.008423117 1.3943542e-06)
(1.4782139 -0.026746471 1.9199615e-05)
(1.5788798 -0.013217682 7.6939628e-06)
(1.5739546 -0.00019616487 1.5602269e-06)
(1.6070309 -0.014957643 1.9307929e-05)
(1.5175473 -0.018690491 8.0716077e-06)
(1.5168203 -0.0088668182 1.7744263e-06)
(1.6288042 0.015547439 1.9679111e-05)
(1.5730372 0.0017217744 8.7717037e-06)
(1.53858 -0.007734629 1.969136e-06)
(1.5223009 0.00028522326 2.0114087e-05)
(1.5676127 0.0020330696 9.237617e-06)
(1.5386293 0.00078477826 2.1458648e-06)
(1.5958284 -0.014129849 2.0369324e-05)
(1.5186123 0.0032606715 9.6668177e-06)
(1.5183668 0.0050646024 2.3704702e-06)
(1.6713989 -0.0018953863 2.0542433e-05)
(1.5751298 0.012166765 1.0041889e-05)
(1.5802834 0.0067550812 2.4911711e-06)
(1.5483953 0.02502961 2.064718e-05)
(1.5518893 0.02091894 1.0573466e-05)
(1.5619991 0.0040331956 2.744941e-06)
(1.4612203 0.018971798 2.0496647e-05)
(1.5691092 0.0095561043 1.0878118e-05)
(1.5628749 -0.0052135563 2.8532652e-06)
(1.4955269 0.0038953482 2.0587233e-05)
(1.5883756 -0.0018448922 1.1309997e-05)
(1.5691441 -0.0040315887 3.0845759e-06)
(1.491792 -0.0023167909 2.103926e-05)
(1.575111 0.00031168729 1.1738956e-05)
(1.571314 0.0015071708 3.2516286e-06)
(1.4750443 -0.016041968 2.1436584e-05)
(1.5833445 -0.0092251578 1.2182926e-05)
(1.5923713 -0.005569462 3.4337184e-06)
(1.5628067 -0.015590682 2.1723443e-05)
(1.5196859 -0.018622279 1.255957e-05)
(1.5108257 -0.0068551693 3.620495e-06)
(1.5677941 -0.0068294702 2.1974003e-05)
(1.5393456 -0.014795269 1.2975319e-05)
(1.530281 -0.0055979051 3.821545e-06)
(1.5901924 0.0026424394 2.2292046e-05)
(1.6018514 0.0066851879 1.3273882e-05)
(1.5059317 0.0028532121 3.9618033e-06)
(1.5625461 0.013350339 2.2348198e-05)
(1.6432863 0.021463201 1.3687302e-05)
(1.5604763 0.01520913 4.1582667e-06)
(1.4540875 -0.0086918628 2.2113901e-05)
(1.5836575 -0.0048369067 1.402824e-05)
(1.57272 0.0014501133 4.2750437e-06)
(1.5882317 -0.016711148 2.2112503e-05)
(1.5424743 -0.026398194 1.4310331e-05)
(1.5031198 -0.014061143 4.4170308e-06)
(1.5909683 0.0090444152 2.2782067e-05)
(1.5751216 -0.016519178 1.4624279e-05)
(1.5010761 -0.014180317 4.5715771e-06)
(1.5406319 0.015646012 2.2861559e-05)
(1.6496922 0.014855943 1.4868237e-05)
(1.4819187 0.0038759014 4.7170786e-06)
(1.5039132 0.010881644 2.3213562e-05)
(1.5219354 0.032918757 1.5169075e-05)
(1.5177596 0.017637969 4.8804899e-06)
(1.3559477 0.0077552885 2.265467e-05)
(1.4168105 0.0063283918 1.5269294e-05)
(1.554627 0.0013923813 4.8820461e-06)
(1.2369612 0.030585301 2.3489741e-05)
(1.2988454 0.080794726 1.5803052e-05)
(1.3799714 0.054246293 5.6186841e-06)
(0.80403923 0.35974718 1.177782e-05)
(0.79157749 0.92914073 9.9803241e-06)
(0.73660832 1.2527728 5.4499236e-06)
(0.20386633 0.10647454 1.4517527e-06)
(0.1790744 0.36061165 3.1057893e-06)
(0.089476046 0.49596336 7.1542703e-07)
(-0.037922496 -0.015643059 1.2210488e-06)
(-0.032331346 -0.031269158 1.6767521e-06)
(-0.019519532 -0.035119744 5.782467e-07)
(-0.010739964 -0.0039092826 4.5044733e-07)
(-0.0092324225 -0.0094822741 7.3277183e-07)
(-0.0065983981 -0.012041503 3.3408573e-07)
(-0.0036021107 -0.0006884675 1.213263e-07)
(-0.0030647783 -0.0016899287 2.445477e-07)
(-0.002062864 -0.0022534951 1.0966363e-07)
(-0.0020390574 -0.00028230149 2.5775539e-08)
(-0.0017251602 -0.0005840235 5.5715393e-08)
(-0.0011672667 -0.00076490866 -4.8545624e-09)
(-0.0012659567 -0.00014737406 -3.7745105e-09)
(-0.0010836693 -0.00027830575 -1.1251594e-08)
(-0.00074434751 -0.00034082511 -4.9658037e-08)
(-0.00088783557 -7.6060237e-05 -1.2772672e-08)
(-0.0007837796 -0.00013036027 -3.1859261e-08)
(-0.00058401759 -0.00014236007 -6.0763906e-08)
(-0.00069234245 -5.0861524e-05 -1.3122917e-08)
(-0.00063017009 -9.5767725e-05 -3.319207e-08)
(-0.00050609835 -0.00011117659 -5.5955737e-08)
(-0.00056580054 -4.2966091e-05 -1.0291213e-08)
(-0.00052612574 -8.7318996e-05 -2.7365724e-08)
(-0.00044383059 -0.0001215967 -4.517736e-08)
(-0.00046176336 -3.9303033e-05 -7.2002893e-09)
(-0.00043524365 -8.4901574e-05 -2.0285091e-08)
(-0.00037888874 -0.00012520592 -3.3830775e-08)
(-0.00037203343 -3.1939706e-05 -4.9455444e-09)
(-0.00035382673 -7.0089164e-05 -1.438995e-08)
(-0.00031437756 -0.00010432155 -2.4273144e-08)
(-0.00029903586 -2.2297592e-05 -3.481801e-09)
(-0.00028623212 -5.0172533e-05 -1.0056709e-08)
(-0.00025797799 -7.739709e-05 -1.6969855e-08)
(-0.00024342104 -1.5847171e-05 -2.4894687e-09)
(-0.00023418648 -3.5170827e-05 -6.9765453e-09)
(-0.00021347875 -5.4183045e-05 -1.1636379e-08)
(-0.00020264957 -1.1187895e-05 -1.7786044e-09)
(-0.00019583963 -2.4421812e-05 -4.7727639e-09)
(-0.00018033212 -3.7402236e-05 -7.8082477e-09)
(-0.00017257269 -8.3552367e-06 -1.2314479e-09)
(-0.00016747653 -1.7981167e-05 -3.1719009e-09)
(-0.00015566847 -2.7670881e-05 -5.0876943e-09)
(-0.00014960641 -6.7134497e-06 -8.0377562e-10)
(-0.00014574562 -1.4462777e-05 -2.0217506e-09)
(-0.00013663004 -2.2146072e-05 -3.1970171e-09)
(-0.00013148585 -5.5026972e-06 -5.0443219e-10)
(-0.00012852726 -1.1924245e-05 -1.2357742e-09)
(-0.00012140116 -1.8477604e-05 -1.9303683e-09)
(-0.00011693338 -4.523724e-06 -3.0730361e-10)
(-0.00011464299 -9.8835624e-06 -7.2741726e-10)
(-0.00010900456 -1.54862e-05 -1.1216365e-09)
(-0.00010517339 -3.6976871e-06 -1.8761491e-10)
(-0.00010338478 -8.1309675e-06 -4.2037778e-10)
(-9.8873513e-05 -1.2761558e-05 -6.330375e-10)
(-9.5649579e-05 -3.0300329e-06 -1.1940597e-10)
(-9.4242942e-05 -6.6053021e-06 -2.4588216e-10)
(-9.0595604e-05 -1.0369347e-05 -3.5260926e-10)
(-8.791465e-05 -2.4623179e-06 -8.3131933e-11)
(-8.6802087e-05 -5.3442598e-06 -1.5135286e-10)
(-8.3823837e-05 -8.4280871e-06 -1.9813848e-10)
(-8.1600139e-05 -1.9889453e-06 -6.4551779e-11)
(-8.0715816e-05 -4.2846881e-06 -1.0199791e-10)
(-7.8260727e-05 -6.8441676e-06 -1.1599593e-10)
(-7.6404448e-05 -1.6534757e-06 -5.0823302e-11)
(-7.569857e-05 -3.4924828e-06 -7.4499417e-11)
(-7.3655517e-05 -5.5634375e-06 -7.3049527e-11)
(-7.2080468e-05 -1.3935175e-06 -4.1870289e-11)
(-7.15158e-05 -2.9473027e-06 -5.7961131e-11)
(-6.9800139e-05 -4.6169246e-06 -5.0293651e-11)
(-6.8426623e-05 -1.1842193e-06 -3.6206982e-11)
(-6.7974828e-05 -2.5037229e-06 -4.7966227e-11)
(-6.6521783e-05 -3.9515201e-06 -3.7616976e-11)
(-6.5279137e-05 -1.0299825e-06 -3.1878342e-11)
(-6.4917684e-05 -2.1756203e-06 -4.1170602e-11)
(-6.3676665e-05 -3.4643373e-06 -3.0245566e-11)
(-6.250605e-05 -9.1891394e-07 -2.8721283e-11)
(-6.2216976e-05 -1.9416822e-06 -3.6622322e-11)
(-6.1148485e-05 -3.099011e-06 -2.6223805e-11)
(-6.0005794e-05 -8.4042638e-07 -2.7069219e-11)
(-5.9774434e-05 -1.7796899e-06 -3.419627e-11)
(-5.8845943e-05 -2.828672e-06 -2.4354356e-11)
(-5.7703206e-05 -7.8187309e-07 -2.6395041e-11)
(-5.7517785e-05 -1.6737672e-06 -3.3019575e-11)
(-5.6701201e-05 -2.599085e-06 -2.3681758e-11)
(-5.5541538e-05 -7.0154155e-07 -2.6974398e-11)
(-5.5393146e-05 -1.5099227e-06 -3.2810198e-11)
(-5.4669014e-05 -2.5679559e-06 -2.3617693e-11)
(-5.3478888e-05 -7.1530039e-07 -2.5999904e-11)
(-5.3360377e-05 -1.5393337e-06 -3.1515466e-11)
(-5.2714568e-05 -2.5130881e-06 -2.3375218e-11)
(-5.1486668e-05 -6.9819369e-07 -2.5753411e-11)
(-5.1391956e-05 -1.5107736e-06 -3.0646959e-11)
(-5.0810512e-05 -2.4409395e-06 -2.3122971e-11)
(-4.9547778e-05 -6.7107396e-07 -2.5861094e-11)
(-4.9472195e-05 -1.4583056e-06 -3.0108232e-11)
(-4.8944719e-05 -2.3627099e-06 -2.3040033e-11)
(-4.7656617e-05 -6.5080896e-07 -2.5564496e-11)
(-4.7596612e-05 -1.4179092e-06 -2.936426e-11)
(-4.7115721e-05 -2.297183e-06 -2.2877275e-11)
(-4.5816285e-05 -6.3125484e-07 -2.5476907e-11)
(-4.5768812e-05 -1.3826454e-06 -2.8624944e-11)
(-4.5327766e-05 -2.2443634e-06 -2.2581675e-11)
(-4.4033505e-05 -6.0932391e-07 -2.5520621e-11)
(-4.3996047e-05 -1.3424319e-06 -2.8016173e-11)
(-4.358905e-05 -2.1834753e-06 -2.2329478e-11)
(-4.2315337e-05 -5.8576538e-07 -2.5555495e-11)
(-4.2285881e-05 -1.2953371e-06 -2.7483811e-11)
(-4.1908249e-05 -2.1077891e-06 -2.2131481e-11)
(-4.0669522e-05 -5.591947e-07 -2.5536075e-11)
(-4.0646466e-05 -1.2407443e-06 -2.6981043e-11)
(-4.0294391e-05 -2.0192346e-06 -2.1956007e-11)
(-3.9106432e-05 -5.2708005e-07 -2.5573107e-11)
(-3.9088516e-05 -1.1729037e-06 -2.6558053e-11)
(-3.87588e-05 -1.908582e-06 -2.1825165e-11)
(-3.7638539e-05 -4.9150072e-07 -2.5606257e-11)
(-3.7624769e-05 -1.0970526e-06 -2.6195574e-11)
(-3.731465e-05 -1.7854696e-06 -2.1728654e-11)
(-3.6278416e-05 -4.5172871e-07 -2.5669554e-11)
(-3.6267988e-05 -1.0111661e-06 -2.5924636e-11)
(-3.5975006e-05 -1.6448156e-06 -2.1700541e-11)
(-3.5037584e-05 -4.0667087e-07 -2.5765078e-11)
(-3.502982e-05 -9.1222323e-07 -2.5757275e-11)
(-3.4751686e-05 -1.4885839e-06 -2.17456e-11)
(-3.3926081e-05 -3.5963072e-07 -2.5920626e-11)
(-3.3920425e-05 -8.0756377e-07 -2.5746447e-11)
(-3.3655027e-05 -1.3161427e-06 -2.1897528e-11)
(-3.2953192e-05 -3.0896303e-07 -2.6111161e-11)
(-3.2949198e-05 -6.9386021e-07 -2.5839928e-11)
(-3.2694597e-05 -1.1295592e-06 -2.2101962e-11)
(-3.2129188e-05 -2.5466021e-07 -2.6345907e-11)
(-3.2126487e-05 -5.7115951e-07 -2.6001756e-11)
(-3.188081e-05 -9.2871355e-07 -2.2270385e-11)
(-3.146715e-05 -1.97102e-07 -2.6578436e-11)
(-3.1465423e-05 -4.4021723e-07 -2.6060695e-11)
(-3.1226803e-05 -7.1474243e-07 -2.2152173e-11)
(-3.0978544e-05 -1.3658798e-07 -2.6614184e-11)
(-3.0977482e-05 -3.0303161e-07 -2.5527771e-11)
(-3.0744031e-05 -4.9270089e-07 -2.119616e-11)
(-3.0704853e-05 -7.417609e-08 -2.5889933e-11)
(-3.0704286e-05 -1.6472982e-07 -2.322903e-11)
(-3.0473923e-05 -2.719531e-07 -1.8366899e-11)
(-3.0633228e-05 -1.7656998e-08 -2.2715725e-11)
(-3.0633048e-05 -3.8101919e-08 -1.6740896e-11)
(-3.0403834e-05 -6.3279445e-08 -1.206402e-11)
(-0.04568357 1.9562316 -3.3769836e-07)
(-0.032534086 1.6993527 -3.4324634e-06)
(-0.060472672 0.34176796 -2.4577037e-07)
(-0.042250907 0.15267417 -1.0096903e-06)
(-0.014553506 -0.041657193 -2.0453244e-07)
(-0.011086232 -0.043419988 -6.2442431e-07)
(-0.0053230816 -0.014021822 -1.0300943e-07)
(-0.0046606143 -0.015159667 -3.9741208e-07)
(-0.0015053433 -0.002834274 -1.023759e-07)
(-0.0011916344 -0.0035148227 -2.8252952e-07)
(-0.0006973862 -0.00085570836 -1.1253253e-07)
(-0.0003599051 -0.00092540871 -2.1906618e-07)
(-0.00041927154 -0.00032529997 -1.1101456e-07)
(-0.00017129098 -0.00025212571 -1.7584958e-07)
(-0.0003693342 -9.9409612e-05 -9.9595657e-08)
(-0.00018122633 -2.9495446e-05 -1.4097365e-07)
(-0.00036116365 -8.3242775e-05 -8.2606024e-08)
(-0.00022502659 -3.3172568e-05 -1.1031932e-07)
(-0.00034320262 -0.00012791517 -6.4304846e-08)
(-0.00024357953 -0.00011313287 -8.3563872e-08)
(-0.00030789031 -0.0001484117 -4.7723886e-08)
(-0.00023419645 -0.00015224008 -6.1353282e-08)
(-0.0002634286 -0.00012855902 -3.4208777e-08)
(-0.00020879007 -0.00014097873 -4.3806633e-08)
(-0.00022075303 -9.8561316e-05 -2.3876555e-08)
(-0.00017980163 -0.00011136209 -3.049857e-08)
(-0.00018576216 -6.8396686e-05 -1.6274183e-08)
(-0.00015462995 -7.6772466e-05 -2.0707315e-08)
(-0.00015930114 -4.67882e-05 -1.0812421e-08)
(-0.00013524827 -5.2243856e-05 -1.3679607e-08)
(-0.00013945944 -3.4499674e-05 -6.9708542e-09)
(-0.00012061613 -3.8169637e-05 -8.7632601e-09)
(-0.00012397818 -2.7618228e-05 -4.3416866e-09)
(-0.00010905355 -3.1010407e-05 -5.4255205e-09)
(-0.00011141279 -2.3306571e-05 -2.6040862e-09)
(-9.9478235e-05 -2.6618636e-05 -3.2394408e-09)
(-0.0001010354 -1.9760072e-05 -1.5047327e-09)
(-9.1405053e-05 -2.2800513e-05 -1.8657023e-09)
(-9.2450564e-05 -1.6418084e-05 -8.4134839e-10)
(-8.4611397e-05 -1.9079704e-05 -1.0386505e-09)
(-8.5368327e-05 -1.3424147e-05 -4.5872547e-10)
(-7.8933549e-05 -1.5671545e-05 -5.6082238e-10)
(-7.9530482e-05 -1.094238e-05 -2.4652312e-10)
(-7.4205405e-05 -1.2788341e-05 -2.9507301e-10)
(-7.4702907e-05 -8.962193e-06 -1.3281154e-10)
(-7.0260645e-05 -1.0506132e-05 -1.5222153e-10)
(-7.0680908e-05 -7.3645732e-06 -7.3687476e-11)
(-6.6945157e-05 -8.7081467e-06 -7.7818756e-11)
(-6.7290963e-05 -6.0777899e-06 -4.3699448e-11)
(-6.4123408e-05 -7.2626133e-06 -4.027076e-11)
(-6.4386928e-05 -5.1576419e-06 -2.8351969e-11)
(-6.167862e-05 -6.1465035e-06 -2.1824953e-11)
(-6.1845165e-05 -4.5535023e-06 -2.0215196e-11)
(-5.9509939e-05 -5.4038604e-06 -1.2794641e-11)
(-5.9562581e-05 -4.0916485e-06 -1.6365193e-11)
(-5.7532361e-05 -4.875009e-06 -8.7861238e-12)
(-5.7459885e-05 -3.7313793e-06 -1.4876758e-11)
(-5.5679973e-05 -4.542044e-06 -7.4486279e-12)
(-5.548164e-05 -3.5309715e-06 -1.4599184e-11)
(-5.390521e-05 -4.4208958e-06 -7.4280403e-12)
(-5.3584981e-05 -3.5265431e-06 -1.489308e-11)
(-5.2175872e-05 -4.3130088e-06 -8.0196876e-12)
(-5.1739078e-05 -3.3890799e-06 -1.5357614e-11)
(-5.0471765e-05 -4.1672298e-06 -8.8488525e-12)
(-4.9928083e-05 -3.3029942e-06 -1.5593624e-11)
(-4.8780183e-05 -4.0771619e-06 -9.5148322e-12)
(-4.8143326e-05 -3.2208323e-06 -1.5915778e-11)
(-4.7095777e-05 -4.0125009e-06 -1.0110303e-11)
(-4.6382921e-05 -3.1377382e-06 -1.6187732e-11)
(-4.5421549e-05 -3.9279709e-06 -1.0674803e-11)
(-4.4653285e-05 -3.0746273e-06 -1.6305805e-11)
(-4.3766573e-05 -3.8631261e-06 -1.1088385e-11)
(-4.2964783e-05 -2.9983631e-06 -1.6414189e-11)
(-4.2142634e-05 -3.7766581e-06 -1.1467469e-11)
(-4.1327603e-05 -2.8982646e-06 -1.6543811e-11)
(-4.0561572e-05 -3.6574801e-06 -1.1836235e-11)
(-3.9751887e-05 -2.7809479e-06 -1.6669165e-11)
(-3.9035097e-05 -3.5155697e-06 -1.2184006e-11)
(-3.8249798e-05 -2.6319364e-06 -1.6805418e-11)
(-3.7576403e-05 -3.3303585e-06 -1.2520938e-11)
(-3.6835112e-05 -2.4569442e-06 -1.6961766e-11)
(-3.6199961e-05 -3.1110782e-06 -1.2855394e-11)
(-3.5521298e-05 -2.2648553e-06 -1.7146595e-11)
(-3.4919737e-05 -2.868912e-06 -1.3192576e-11)
(-3.4320459e-05 -2.0539748e-06 -1.7374565e-11)
(-3.3748213e-05 -2.6000653e-06 -1.3551668e-11)
(-3.3243168e-05 -1.8164367e-06 -1.7651405e-11)
(-3.2696231e-05 -2.3012556e-06 -1.3913117e-11)
(-3.2299175e-05 -1.5586798e-06 -1.7924157e-11)
(-3.1773763e-05 -1.9763506e-06 -1.4226263e-11)
(-3.1499004e-05 -1.2813089e-06 -1.8079653e-11)
(-3.0991444e-05 -1.6252479e-06 -1.4386022e-11)
(-3.0855768e-05 -9.8588235e-07 -1.7863898e-11)
(-3.036234e-05 -1.2507408e-06 -1.4164778e-11)
(-3.0380898e-05 -6.8011343e-07 -1.679047e-11)
(-2.9897839e-05 -8.6333611e-07 -1.3167155e-11)
(-3.0115486e-05 -3.7678e-07 -1.4089286e-11)
(-2.9638575e-05 -4.7851844e-07 -1.0839908e-11)
(-3.0047035e-05 -8.6168589e-08 -8.8222935e-12)
(-2.9572218e-05 -1.0768616e-07 -6.6148367e-12)
(0.0012908676 -1.7322525e-05 -1.0220939e-07)
(0.0012111188 -9.2487211e-05 -2.4191755e-07)
(0.001067227 -0.00010010108 -3.4137113e-07)
(0.00090511003 -0.00013134722 -4.0330833e-07)
(0.00075060779 -0.00013953621 -4.3577173e-07)
(0.00061400356 -0.00016051269 -4.4786504e-07)
(0.00049867106 -0.00018789109 -4.4653835e-07)
(0.00040681956 -0.00022977927 -4.3672033e-07)
(0.00033731261 -0.00028543118 -4.2183441e-07)
(0.00028663293 -0.00035001674 -4.0424066e-07)
(0.00025068644 -0.0004201771 -3.8556e-07)
(0.00022481149 -0.00049196403 -3.6675258e-07)
(0.00020538482 -0.00056168364 -3.4825794e-07)
(0.00018977535 -0.00062699411 -3.3012539e-07)
(0.0001760468 -0.00068646109 -3.1220124e-07)
(0.00016283162 -0.00073917896 -2.9420792e-07)
(0.00014917559 -0.00078595152 -2.7577026e-07)
(0.00013446049 -0.00082615803 -2.5636329e-07)
(0.00011869761 -0.00085748103 -2.354048e-07)
(0.00010190687 -0.00088003882 -2.1222155e-07)
(8.4256032e-05 -0.00089367334 -1.860779e-07)
(6.6128898e-05 -0.00089827799 -1.5589294e-07)
(4.7749052e-05 -0.00089232621 -1.2072838e-07)
(2.9061293e-05 -0.00088382681 -8.0029148e-08)
(9.5661483e-06 -0.00084088156 -3.3368006e-08)
(0.00025747997 -0.00012959368 -1.1840865e-07)
(0.00023809039 -0.00053100903 -2.7634917e-07)
(0.00022949894 -0.00074703874 -3.8260869e-07)
(0.00023901276 -0.0010534522 -4.4276663e-07)
(0.0002642524 -0.0012975029 -4.6974596e-07)
(0.00030030175 -0.00157195 -4.7612844e-07)
(0.00034114757 -0.0018484204 -4.6996544e-07)
(0.00037778911 -0.0021482038 -4.5642487e-07)
(0.00040134445 -0.0024668975 -4.3871789e-07)
(0.00041144693 -0.0027794485 -4.1894071e-07)
(0.0004102237 -0.0030822105 -3.9868027e-07)
(0.0003996768 -0.0033717673 -3.7876875e-07)
(0.00038219927 -0.0036438227 -3.5953091e-07)
(0.00035987452 -0.0038963418 -3.4087031e-07)
(0.00033385739 -0.0041278296 -3.2254438e-07)
(0.0003050259 -0.0043394492 -3.0425161e-07)
(0.00027414022 -0.0045424264 -2.8566345e-07)
(0.00024189245 -0.0047300124 -2.6613444e-07)
(0.00020851139 -0.0048780581 -2.4512318e-07)
(0.00017430143 -0.004978462 -2.2189712e-07)
(0.00013990573 -0.0050286583 -1.9598244e-07)
(0.00010599531 -0.0050310849 -1.6568733e-07)
(7.2868998e-05 -0.0049890225 -1.297619e-07)
(4.0929962e-05 -0.0048881869 -8.6639359e-08)
(1.1215788e-05 -0.0046669363 -3.755226e-08)
(0.001042298 -0.00032729008 -1.5716788e-07)
(0.0010395084 -0.0015369001 -3.5336287e-07)
(0.001073143 -0.0020512884 -4.6939985e-07)
(0.0011442461 -0.0029254567 -5.2102663e-07)
(0.0012193451 -0.0036486886 -5.3499578e-07)
(0.001276171 -0.0044154624 -5.2951465e-07)
(0.0013014558 -0.0051785969 -5.1373894e-07)
(0.0012949688 -0.0060914849 -4.9320362e-07)
(0.0012642401 -0.0071279303 -4.7032202e-07)
(0.0012146548 -0.0080885909 -4.4637129e-07)
(0.0011513583 -0.0089298547 -4.231848e-07)
(0.0010785509 -0.0096469145 -4.0126392e-07)
(0.00099975222 -0.010237327 -3.8077403e-07)
(0.00091646234 -0.010708698 -3.6124872e-07)
(0.00083045213 -0.011067017 -3.4228421e-07)
(0.00074317697 -0.0113136 -3.2352324e-07)
(0.00065594852 -0.011439894 -3.0501226e-07)
(0.00056963848 -0.011463627 -2.8548796e-07)
(0.00048458345 -0.011413974 -2.6480238e-07)
(0.00040125084 -0.011306545 -2.4225167e-07)
(0.00032058251 -0.011151206 -2.1697638e-07)
(0.00024308077 -0.010956835 -1.8758551e-07)
(0.00016827811 -0.010730173 -1.5215272e-07)
(9.6605488e-05 -0.010441861 -1.0738173e-07)
(2.9684082e-05 -0.010045838 -5.2928372e-08)
(0.0035119545 -0.0010413699 -2.401337e-07)
(0.0035260379 -0.0046761297 -4.9587736e-07)
(0.0035057648 -0.0059571912 -6.1211441e-07)
(0.0033788307 -0.0091310813 -6.3961003e-07)
(0.0032092034 -0.011973654 -6.2985176e-07)
(0.0029885046 -0.014513648 -6.0568683e-07)
(0.0027368205 -0.016323696 -5.7562642e-07)
(0.0024731537 -0.017290502 -5.4635557e-07)
(0.0022164032 -0.017582712 -5.1764781e-07)
(0.0019695307 -0.017454365 -4.8777086e-07)
(0.0017424296 -0.017013327 -4.6073897e-07)
(0.0015327346 -0.016379598 -4.3605057e-07)
(0.0013393914 -0.015571418 -4.1413263e-07)
(0.0011513517 -0.014640496 -3.9356252e-07)
(0.00098179418 -0.013639364 -3.7378146e-07)
(0.00083108567 -0.012613123 -3.5453498e-07)
(0.00069800584 -0.011599881 -3.3550572e-07)
(0.00058083049 -0.010633037 -3.162679e-07)
(0.0004780062 -0.0097359812 -2.9633954e-07)
(0.00038752943 -0.0089294104 -2.7510577e-07)
(0.0003065013 -0.0082263818 -2.5177317e-07)
(0.00023221284 -0.0076316972 -2.2517825e-07)
(0.00016363531 -0.0071457879 -1.9355945e-07)
(9.8998855e-05 -0.0067269874 -1.5394176e-07)
(3.6577959e-05 -0.0064247037 -9.7016552e-08)
(0.011414771 -0.0086361768 -4.284591e-07)
(0.0091397814 -0.025501503 -7.3717343e-07)
(0.0079229444 -0.027904235 -8.1835187e-07)
(0.0062073997 -0.032142341 -8.0458034e-07)
(0.0048012799 -0.029571453 -7.6412321e-07)
(0.0035722468 -0.025803109 -7.1560515e-07)
(0.002551746 -0.021146087 -6.6784563e-07)
(0.0017402071 -0.016225242 -6.2342529e-07)
(0.001106681 -0.011301188 -5.8411443e-07)
(0.00062022862 -0.0067496703 -5.4810021e-07)
(0.00024660541 -0.0026331933 -5.1575402e-07)
(-2.9166499e-05 0.00090159234 -4.8576612e-07)
(-0.00022603617 0.0041796709 -4.6190364e-07)
(-0.00035263609 0.0073165995 -4.3936469e-07)
(-0.00043222787 0.010207282 -4.176537e-07)
(-0.00047212109 0.012717942 -3.9696798e-07)
(-0.00048044109 0.014815523 -3.7700654e-07)
(-0.00046376767 0.016517041 -3.5739963e-07)
(-0.00042735422 0.017850705 -3.377277e-07)
(-0.00037568655 0.018845848 -3.1751313e-07)
(-0.00031345186 0.019527751 -2.961546e-07)
(-0.00024473268 0.019922195 -2.7279537e-07)
(-0.00017141023 0.020027107 -2.4603723e-07)
(-9.6720024e-05 0.019899733 -2.1997645e-07)
(-2.2098753e-05 0.019200126 -1.9402784e-07)
(0.014178689 0.023752264 -7.9242523e-07)
(0.0033806083 -0.00079384617 -1.1196e-06)
(0.0007611604 0.048641575 -1.1212783e-06)
(-0.0010809269 0.051456463 -1.0477189e-06)
(-0.0026844832 0.065601097 -9.7092125e-07)
(-0.0038787474 0.075842749 -8.8474233e-07)
(-0.0045348476 0.082950164 -8.0745808e-07)
(-0.0047327595 0.088876364 -7.4009925e-07)
(-0.0046493213 0.093231792 -6.812665e-07)
(-0.0044229914 0.095935052 -6.307281e-07)
(-0.0041328478 0.097470169 -5.8798865e-07)
(-0.0037852914 0.097933417 -5.4356733e-07)
(-0.0034338088 0.097657272 -5.1836299e-07)
(-0.0030903667 0.096359424 -4.9118459e-07)
(-0.0027440193 0.094200349 -4.6428276e-07)
(-0.0024066421 0.091774579 -4.4016629e-07)
(-0.0020877595 0.089147808 -4.1777234e-07)
(-0.0017882029 0.086403039 -3.965032e-07)
(-0.0015073471 0.08361693 -3.7590346e-07)
(-0.001243541 0.080847283 -3.5554755e-07)
(-0.00099407486 0.078130907 -3.3497411e-07)
(-0.00075639139 0.075510104 -3.1360844e-07)
(-0.00052868725 0.072956955 -2.9084547e-07)
(-0.00030917545 0.07065889 -2.6748965e-07)
(-9.2587705e-05 0.067179394 -2.446919e-07)
(-0.0015594985 1.1764446 -2.5078742e-06)
(-0.00079670325 0.9622719 -1.9939273e-06)
(-0.0010224212 0.86617993 -1.617662e-06)
(-0.00072069787 0.77344819 -1.3297352e-06)
(-0.00063129473 0.67716386 -1.1141087e-06)
(-0.0005510357 0.5857578 -9.5660265e-07)
(-0.0004737809 0.50742845 -8.4128607e-07)
(-0.0004042566 0.44378584 -7.5621707e-07)
(-0.00034335526 0.39131054 -6.8681219e-07)
(-0.00028956608 0.34653362 -6.3275741e-07)
(-0.00023602224 0.30788644 -5.9018563e-07)
(-0.00019091544 0.27462419 -5.5273364e-07)
(-0.00015312608 0.24617844 -5.2168033e-07)
(-0.0001297412 0.22182375 -4.9466615e-07)
(-0.00010842437 0.20090268 -4.7022069e-07)
(-9.0891067e-05 0.18293748 -4.4764515e-07)
(-7.6054141e-05 0.16749956 -4.2633805e-07)
(-6.3249661e-05 0.15422717 -4.0588683e-07)
(-5.2165263e-05 0.14281872 -3.8599557e-07)
(-4.2491152e-05 0.13302558 -3.6639209e-07)
(-3.3729276e-05 0.12463219 -3.4676477e-07)
(-2.5382417e-05 0.11749705 -3.2666313e-07)
(-1.7443528e-05 0.11137873 -3.0582026e-07)
(-9.9444062e-06 0.10656016 -2.8401736e-07)
(-2.7931725e-06 0.10055011 -2.6061375e-07)
(-0.012511268 0.091332022 -1.2272455e-06)
(-0.0022838783 0.099250525 -1.2677449e-06)
(5.2036274e-06 0.10482477 -1.2215476e-06)
(0.0016716704 0.10641056 -1.1304483e-06)
(0.0031293304 0.10835416 -1.0276372e-06)
(0.004206354 0.10991777 -9.2777979e-07)
(0.0047833555 0.11147582 -8.3844309e-07)
(0.0049230013 0.11290745 -7.6140555e-07)
(0.0047889686 0.11363026 -6.7907643e-07)
(0.004513876 0.1136402 -6.3525051e-07)
(0.0042096675 0.11289138 -5.9344992e-07)
(0.0038697129 0.11119193 -5.4992069e-07)
(0.0034988114 0.10865871 -5.1349627e-07)
(0.003128981 0.10563058 -4.8225986e-07)
(0.0027707146 0.1023524 -4.547862e-07)
(0.002428128 0.098948421 -4.3008289e-07)
(0.002104249 0.095501759 -4.0742624e-07)
(0.0018002522 0.092079561 -3.8624868e-07)
(0.0015153334 0.088732423 -3.6606897e-07)
(0.001247957 0.085497986 -3.4642908e-07)
(0.00099611475 0.082397854 -3.2681424e-07)
(0.00075760117 0.079461815 -3.0653893e-07)
(0.00052974003 0.076652441 -2.8593638e-07)
(0.00031033621 0.074161621 -2.638574e-07)
(9.3585599e-05 0.070467981 -2.4179637e-07)
(-0.0089673205 -0.04091147 -8.466172e-07)
(-0.0076449144 -0.038636073 -9.1080582e-07)
(-0.0063092499 -0.03685517 -8.9715389e-07)
(-0.0049602414 -0.033346232 -8.5077426e-07)
(-0.0036897034 -0.028366024 -7.9231877e-07)
(-0.0025919119 -0.022758906 -7.3090648e-07)
(-0.001692702 -0.017022794 -6.7394145e-07)
(-0.00098944246 -0.01143769 -6.2192211e-07)
(-0.0004528515 -0.0064551469 -5.7346984e-07)
(-5.3972881e-05 -0.0020437648 -5.3726209e-07)
(0.00023578767 0.0017488158 -5.0402369e-07)
(0.00043828031 0.0054493401 -4.7304899e-07)
(0.00057058769 0.0089882741 -4.4521137e-07)
(0.00064888922 0.012153777 -4.2017057e-07)
(0.00068442029 0.014877916 -3.9735579e-07)
(0.00068712112 0.017160252 -3.7626315e-07)
(0.0006633314 0.019037179 -3.5650002e-07)
(0.00061826982 0.020547706 -3.376215e-07)
(0.00055677793 0.021711785 -3.1917538e-07)
(0.00048268902 0.022551064 -3.0064496e-07)
(0.0003992824 0.023086859 -2.8130405e-07)
(0.00030942532 0.023339996 -2.5984176e-07)
(0.00021604949 0.023320249 -2.3905419e-07)
(0.0001222983 0.023071845 -2.1405547e-07)
(2.9689825e-05 0.022220822 -1.8965304e-07)
(-0.0043955315 -0.01633912 -5.6892884e-07)
(-0.0042470454 -0.018566757 -6.4321757e-07)
(-0.0040593348 -0.021150638 -6.5725626e-07)
(-0.0037970934 -0.02303272 -6.4011349e-07)
(-0.0034583445 -0.024212127 -6.1034291e-07)
(-0.0030978395 -0.024584637 -5.7814249e-07)
(-0.0027557607 -0.024312444 -5.3889234e-07)
(-0.0024335763 -0.023607785 -5.0225625e-07)
(-0.0021366572 -0.022640234 -4.6901529e-07)
(-0.00186619 -0.021475842 -4.4070295e-07)
(-0.001627147 -0.020198989 -4.1504764e-07)
(-0.0013999713 -0.01879277 -3.9144812e-07)
(-0.0011950699 -0.017322941 -3.6984877e-07)
(-0.001014379 -0.015842894 -3.5006103e-07)
(-0.00085584666 -0.014387059 -3.3158329e-07)
(-0.00071635212 -0.012988273 -3.1400901e-07)
(-0.00059479601 -0.011685132 -2.9726405e-07)
(-0.00048966498 -0.010506609 -2.8080431e-07)
(-0.00039870297 -0.009457518 -2.6414126e-07)
(-0.00031985184 -0.0085400121 -2.4669203e-07)
(-0.00025105001 -0.0077549213 -2.2765284e-07)
(-0.00019016667 -0.0071019828 -2.0591713e-07)
(-0.00013510633 -0.0065779247 -1.8034441e-07)
(-8.3520925e-05 -0.0061423084 -1.4580988e-07)
(-3.2733973e-05 -0.0058471259 -9.375631e-08)
(-0.0011686548 -0.00424748 -4.0539473e-07)
(-0.0012829403 -0.0050153215 -4.731051e-07)
(-0.001416488 -0.0058839893 -4.9909129e-07)
(-0.001526313 -0.0067561321 -4.9911481e-07)
(-0.0016072804 -0.0076404276 -4.8479245e-07)
(-0.0016293402 -0.0086853183 -4.632357e-07)
(-0.0016028945 -0.0098189413 -4.3703381e-07)
(-0.0015431828 -0.010805878 -4.1064113e-07)
(-0.0014622201 -0.01163816 -3.8588726e-07)
(-0.0013688913 -0.012314161 -3.63462e-07)
(-0.0012705587 -0.012852883 -3.4290869e-07)
(-0.0011678637 -0.01325634 -3.2391198e-07)
(-0.0010641912 -0.01353128 -3.0628691e-07)
(-0.00096158057 -0.013657632 -2.902124e-07)
(-0.00086142146 -0.013659735 -2.7480539e-07)
(-0.00076477684 -0.013579133 -2.6016634e-07)
(-0.00067167587 -0.013440165 -2.4562419e-07)
(-0.0005815588 -0.013256614 -2.3092269e-07)
(-0.00049436796 -0.013037247 -2.1560832e-07)
(-0.00040991602 -0.012789002 -1.9909905e-07)
(-0.00032806972 -0.012517475 -1.8051319e-07)
(-0.00024879596 -0.012228102 -1.5856042e-07)
(-0.00017224351 -0.011924245 -1.313238e-07)
(-9.886086e-05 -0.011568049 -9.4799412e-08)
(-3.0518115e-05 -0.011119013 -4.8164097e-08)
(-0.00015735135 -0.0010843169 -3.0172783e-07)
(-9.7351502e-05 -0.001321892 -3.5487161e-07)
(-0.00012571593 -0.0016257314 -3.8178186e-07)
(-0.00020332834 -0.0020010406 -3.8953515e-07)
(-0.00030840854 -0.0024032967 -3.8476738e-07)
(-0.00040895014 -0.0028296425 -3.7240278e-07)
(-0.00048011558 -0.0032843459 -3.556249e-07)
(-0.00052098262 -0.0037169191 -3.3722586e-07)
(-0.0005394017 -0.0041191227 -3.188868e-07)
(-0.00054077023 -0.0044827982 -3.0142008e-07)
(-0.00053052251 -0.0048072997 -2.8498728e-07)
(-0.00051194637 -0.0050990072 -2.6956462e-07)
(-0.00048658813 -0.0053727754 -2.5508602e-07)
(-0.00045573355 -0.0056547978 -2.4148995e-07)
(-0.00042090284 -0.0059368221 -2.2846647e-07)
(-0.00038315878 -0.0061809624 -2.1580896e-07)
(-0.00034321798 -0.0063782001 -2.0314501e-07)
(-0.00030180049 -0.0065259042 -1.9013257e-07)
(-0.00025945628 -0.0066234327 -1.7633105e-07)
(-0.00021661894 -0.006670198 -1.6133441e-07)
(-0.00017371774 -0.006667207 -1.4436008e-07)
(-0.0001312525 -0.0066173619 -1.2417016e-07)
(-8.9831234e-05 -0.0065252371 -9.9551007e-08)
(-5.0125202e-05 -0.0063729509 -6.8421373e-08)
(-1.3710919e-05 -0.0060875806 -3.1331571e-08)
(-6.4644056e-06 -0.00016616275 -2.3063035e-07)
(9.0458978e-05 -0.00011226793 -2.6981403e-07)
(0.0001267613 -9.3722488e-05 -2.9310835e-07)
(0.00012778014 -0.00012572343 -3.0318386e-07)
(0.00011997024 -0.00021368305 -3.0352242e-07)
(8.7159442e-05 -0.0003333255 -2.9725155e-07)
(4.2851808e-05 -0.00047054163 -2.8684379e-07)
(2.265552e-06 -0.00061917325 -2.7429656e-07)
(-3.0460039e-05 -0.0007711139 -2.6098322e-07)
(-5.4353191e-05 -0.00091862139 -2.4770734e-07)
(-7.0873324e-05 -0.0010568802 -2.3483968e-07)
(-8.4199418e-05 -0.0011817987 -2.2252176e-07)
(-9.2291505e-05 -0.0012930342 -2.1077737e-07)
(-9.5331916e-05 -0.0013933779 -1.9955134e-07)
(-9.3988921e-05 -0.0014825005 -1.8868215e-07)
(-8.9476037e-05 -0.0015576382 -1.779724e-07)
(-8.2737232e-05 -0.0016192352 -1.6715855e-07)
(-7.4410361e-05 -0.0016673562 -1.5594564e-07)
(-6.5029453e-05 -0.0017019643 -1.4398495e-07)
(-5.501939e-05 -0.0017227676 -1.3088855e-07)
(-4.4698418e-05 -0.0017295731 -1.1617893e-07)