/*--------------------------------*- C++ -*----------------------------------*\
| =========                 |                                                 |
| \\      /  F ield         | OpenFOAM: The Open Source CFD Toolbox           |
|  \\    /   O peration     | Version:  4.0                                   |
|   \\  /    A nd           | Web:      www.OpenFOAM.org                      |
|    \\/     M anipulation  |                                                 |
\*---------------------------------------------------------------------------*/
FoamFile
{
    version     2.0;
    format      ascii;
    class       volScalarField;
    location    "0.1";
    object      k;
}
// * * * * * * * * * * * * * * * * * * * * * * * * * * * * * * * * * * * * * //

dimensions      [0 2 -2 0 0 0 0];

internalField   nonuniform List<scalar> 
1740
(
0.0089013505
0.009235414
0.018350104
0.0091316905
0.0097997302
0.02712261
0.0094654484
0.010364902
0.03498339
0.0096988614
0.010870308
0.041928704
0.0099439503
0.011434832
0.047419704
0.010084876
0.011578285
0.051938671
0.01012349
0.011648878
0.055758958
0.010078679
0.011865458
0.059264501
0.010064237
0.012411936
0.061900042
0.010107183
0.012904159
0.064282472
0.010047012
0.013256143
0.06597333
0.0099520779
0.013194953
0.066975249
0.0098101966
0.013125803
0.06867433
0.009719212
0.013322459
0.070121262
0.0096620861
0.013544095
0.070295588
0.0096124333
0.013787101
0.071142288
0.0095937692
0.014061854
0.072040441
0.0094577865
0.014508699
0.072200789
0.0092749001
0.014563216
0.07241459
0.0091291483
0.014255416
0.072549119
0.0090217991
0.014279592
0.07254248
0.008927031
0.014446393
0.073230547
0.0088601891
0.014685664
0.073435156
0.0087790239
0.014903115
0.072835062
0.0086125089
0.015082469
0.072651009
0.0084917914
0.014994149
0.072537729
0.0084025443
0.014802289
0.072222226
0.0084208221
0.01477326
0.071764284
0.0083886333
0.014693543
0.071117105
0.0089877701
0.015890202
0.066079841
0.012741889
0.017921696
0.046981048
0.023999971
0.031169128
0.039754871
0.010265718
0.012511922
0.013701624
0.0042204246
0.0045479176
0.0046092692
0.0020002424
0.0020427092
0.0020160212
0.0010247747
0.001024479
0.001002459
0.00052687324
0.00052242145
0.00050934457
0.00025515162
0.00025197953
0.00024477262
0.00011216636
0.00011046489
0.00010685888
4.4963929e-05
4.4205338e-05
4.2631958e-05
1.7436648e-05
1.7147917e-05
1.6553601e-05
7.538631e-06
7.4445999e-06
7.2518169e-06
4.4113614e-06
4.3871548e-06
4.3381741e-06
3.6033939e-06
3.6014633e-06
3.5984231e-06
3.5202429e-06
3.5246309e-06
3.5345907e-06
3.646777e-06
3.6526144e-06
3.6655033e-06
3.8307509e-06
3.8366762e-06
3.8496817e-06
4.030773e-06
4.0364414e-06
4.0488585e-06
4.2364897e-06
4.2418297e-06
4.2535184e-06
4.4455253e-06
4.4505342e-06
4.4614944e-06
4.6573592e-06
4.6620502e-06
4.6723132e-06
4.8718293e-06
4.8762186e-06
4.8858208e-06
5.0887964e-06
5.0928999e-06
5.1018767e-06
5.3080753e-06
5.3119081e-06
5.3202927e-06
5.5294218e-06
5.5329979e-06
5.5408213e-06
5.752529e-06
5.7558615e-06
5.7631524e-06
5.9770248e-06
5.9801259e-06
5.9869112e-06
6.2024688e-06
6.2053502e-06
6.2116552e-06
6.4283497e-06
6.4310223e-06
6.4368707e-06
6.6540824e-06
6.6565566e-06
6.661971e-06
6.8790065e-06
6.8812921e-06
6.886294e-06
7.1023859e-06
7.1044924e-06
7.1091026e-06
7.3234097e-06
7.3253461e-06
7.3295845e-06
7.5411937e-06
7.542969e-06
7.5468551e-06
7.7547849e-06
7.7564078e-06
7.7599606e-06
7.9631669e-06
7.9646459e-06
7.9678841e-06
8.1652655e-06
8.1666091e-06
8.1695512e-06
8.3599522e-06
8.3611688e-06
8.3638332e-06
8.5460313e-06
8.5471293e-06
8.5495344e-06
8.7221716e-06
8.7231595e-06
8.7253238e-06
8.8866696e-06
8.8875558e-06
8.8894979e-06
9.0367444e-06
9.0375374e-06
9.039276e-06
9.1666645e-06
9.167373e-06
9.1689266e-06
9.2632581e-06
9.2638902e-06
9.2652772e-06
9.2962991e-06
9.296862e-06
9.2980978e-06
9.200574e-06
9.2010719e-06
9.202166e-06
8.8484171e-06
8.8488524e-06
8.8498156e-06
8.0209292e-06
8.0213243e-06
8.0222539e-06
6.4084744e-06
6.4089386e-06
6.4102572e-06
3.7218584e-06
3.7224778e-06
3.7245241e-06
0.055969449
0.06068667
0.046009574
0.04652903
0.012464155
0.011335144
0.0043146028
0.0040850028
0.0019223223
0.0018565826
0.00096529894
0.00093904172
0.00049165087
0.00047776695
0.00023554977
0.00022735687
0.00010224227
9.7755197e-05
4.0594313e-05
3.8503769e-05
1.5776884e-05
1.4955972e-05
6.9993344e-06
6.7302285e-06
4.2755589e-06
4.2117303e-06
3.5969608e-06
3.6002557e-06
3.5504286e-06
3.5727124e-06
3.6851271e-06
3.7113697e-06
3.8693089e-06
3.8952844e-06
4.0675508e-06
4.0922221e-06
4.2710997e-06
4.2942879e-06
4.4779756e-06
4.4997098e-06
4.6877452e-06
4.708097e-06
4.9002595e-06
4.9193039e-06
5.1153757e-06
5.1331833e-06
5.3329021e-06
5.3495384e-06
5.5525876e-06
5.5681135e-06
5.7741189e-06
5.7885913e-06
5.9971183e-06
6.0105901e-06
6.2211405e-06
6.2336614e-06
6.44567e-06
6.4572868e-06
6.6701181e-06
6.6808753e-06
6.8938214e-06
6.9037614e-06
7.1160412e-06
7.1252051e-06
7.3359644e-06
7.3443916e-06
7.5527054e-06
7.5604343e-06
7.7653099e-06
7.7723783e-06
7.9727606e-06
7.9792054e-06
8.1739827e-06
8.1798408e-06
8.3678474e-06
8.3731554e-06
8.5531591e-06
8.5579534e-06
8.7285866e-06
8.732904e-06
8.8924268e-06
8.8963044e-06
9.0418993e-06
9.0453743e-06
9.1712726e-06
9.1743827e-06
9.2673731e-06
9.2701548e-06
9.2999666e-06
9.3024495e-06
9.20382e-06
9.2060137e-06
8.8512729e-06
8.8531519e-06
8.0237041e-06
8.0252563e-06
6.4125249e-06
6.4139703e-06
3.7282983e-06
3.7299206e-06
3.3818694e-06
2.0980657e-05
0.00010258053
0.00022553329
0.00033095218
0.00039402743
0.00041957361
0.00042121852
0.00040901525
0.00038876509
0.00036346793
0.00033472495
0.00030355942
0.00027079756
0.00023724593
0.00020379078
0.00017139988
0.00014104728
0.00011360107
8.9701368e-05
6.9637229e-05
5.3209563e-05
3.9565668e-05
2.7209008e-05
1.4987651e-05
2.2547988e-06
4.9152313e-05
0.0002217181
0.00044481607
0.00061062209
0.00069747429
0.00073012393
0.00073198864
0.00071675354
0.00069121914
0.00065851185
0.00062016814
0.0005770768
0.00052984137
0.0004790767
0.00042573339
0.00037114226
0.00031693811
0.00026491855
0.00021682631
0.00017402301
0.00013697947
0.00010442252
7.2045361e-05
3.1716511e-05
7.7812453e-06
0.00015694481
0.00059748506
0.0010324369
0.0012817162
0.0013892372
0.0014209719
0.0014139414
0.0013872849
0.0013483065
0.0012999387
0.0012435655
0.0011798128
0.001108533
0.0010293863
0.00094293854
0.00085049607
0.00075402396
0.0006561084
0.00055981523
0.00046825545
0.00038353031
0.00030434023
0.00022125911
0.00011013458
3.7793917e-05
0.0005811939
0.0016841242
0.0024226522
0.002742822
0.0028365526
0.0028216138
0.0027622293
0.0026884921
0.0026046694
0.0025123923
0.0024129961
0.0023072947
0.002193417
0.0020680288
0.0019310192
0.0017831142
0.0016256793
0.0014609389
0.0012921346
0.0011233995
0.00095893612
0.00079976204
0.00063372901
0.00039783607
0.00028142416
0.0024514215
0.0049292611
0.0060574996
0.0064084285
0.0063467602
0.0061095584
0.0058298924
0.0055616907
0.0052916201
0.0050191257
0.0047500131
0.0044908224
0.0042364828
0.0039733075
0.0037036652
0.0034287808
0.0031491173
0.0028654625
0.0025795517
0.0022943523
0.0020146226
0.0017466453
0.001502997
0.0013104157
0.0023515398
0.010492546
0.016585018
0.018582096
0.018158974
0.016630638
0.014828062
0.013146319
0.011665365
0.010379411
0.0092694323
0.0083136592
0.0074892645
0.0067704844
0.0061340971
0.0055635996
0.0050457735
0.0045693582
0.0041252133
0.0037066426
0.0033093526
0.0029322145
0.0025769209
0.0022576325
0.0020088969
0.044859606
0.033982278
0.026490584
0.021350838
0.017724923
0.015050868
0.012989504
0.011354416
0.010037703
0.0089644349
0.008077001
0.0073309513
0.0066922064
0.006134185
0.0056360665
0.0051820885
0.0047605785
0.0043627905
0.0039822691
0.0036146906
0.0032577133
0.0029114951
0.0025787168
0.002272537
0.002030379
0.037216455
0.030965038
0.027798859
0.025207531
0.022369018
0.019416349
0.016711939
0.014416366
0.012528413
0.010973565
0.009683632
0.0086046536
0.0076909816
0.0069069775
0.0062260512
0.0056264748
0.0050901074
0.0046021212
0.0041509369
0.003728198
0.0033284937
0.0029499364
0.0025935179
0.0022729056
0.0020224931
0.010197413
0.0095395531
0.0092136282
0.0089035609
0.0084467034
0.0078785855
0.0073065636
0.0068000855
0.0063339771
0.0059103353
0.0055261322
0.0051784574
0.0048509708
0.004529555
0.0042152594
0.0039066339
0.0036014833
0.0032980403
0.0029954353
0.0026941541
0.0023961659
0.0021053626
0.0018271923
0.0015736541
0.0013713974
0.0039238612
0.0038489658
0.0038230159
0.0037753943
0.0036695994
0.0035173258
0.0033543152
0.0031988745
0.0030499866
0.0029083402
0.0027726226
0.0026402048
0.0025061105
0.0023660486
0.0022188424
0.0020638796
0.00190098
0.0017307318
0.0015547583
0.001375839
0.0011977329
0.0010242854
0.00085602055
0.00067951458
0.0004273705
0.0018310013
0.0018344534
0.0018471617
0.0018463083
0.0018197309
0.0017702291
0.0017088061
0.0016429687
0.0015748426
0.0015051443
0.0014335733
0.0013591435
0.0012803013
0.0011957637
0.0011052759
0.0010092344
0.00090859433
0.00080499911
0.00070079425
0.00059879346
0.00050190943
0.0004119951
0.00032729942
0.00023758656
0.00011794763
0.00093002417
0.00093324493
0.0009395758
0.00093954726
0.00092784934
0.00090465138
0.00087347815
0.00083748027
0.00079821537
0.0007563392
0.00071198874
0.00066502674
0.00061519374
0.00056238904
0.00050697267
0.00044973605
0.00039184126
0.00033477287
0.00028023294
0.00022989371
0.00018505012
0.00014606474
0.00011144668
7.6519565e-05
3.3065229e-05
0.00047072255
0.00046878014
0.00046798103
0.00046421782
0.00045498571
0.00043999019
0.00042045838
0.00039785041
0.00037317274
0.0003470139
0.00031971124
0.00029148735
0.00026253459
0.00023311837
0.0002036678
0.00017476234
0.00014707651
0.00012130906
9.8094278e-05
7.79002e-05
6.0915854e-05
4.6917123e-05
3.5062237e-05
2.3605966e-05
9.8056409e-06
0.00022161103
0.00021783346
0.00021448278
0.00020986148
0.00020287611
0.00019333274
0.00018172176
0.00016874263
0.00015497839
0.00014083438
0.00012658576
0.00011244074
9.8580556e-05
8.5187586e-05
7.2464073e-05
6.0623901e-05
4.9870183e-05
4.0368602e-05
3.2222811e-05
2.545368e-05
1.9981159e-05
1.56047e-05
1.1980152e-05
8.6556773e-06
5.5426535e-06
9.4034446e-05
9.1010792e-05
8.8172023e-05
8.4902107e-05
8.0791113e-05
7.5767357e-05
7.0031784e-05
6.3888623e-05
5.7609672e-05
5.1389652e-05
4.5359201e-05
3.9609598e-05
3.4210431e-05
2.9218679e-05
2.4683455e-05
2.0644785e-05
1.7129422e-05
1.4145822e-05
1.1679885e-05
9.6912169e-06
8.108832e-06
6.8258883e-06
5.7004078e-06
4.6007111e-06
3.6155937e-06
3.6622475e-05
3.4976727e-05
3.3423255e-05
3.1769728e-05
2.988371e-05
2.7745022e-05
2.542596e-05
2.3036634e-05
2.0676256e-05
1.8414574e-05
1.6294735e-05
1.434275e-05
1.2574272e-05
1.0998266e-05
9.6185759e-06
8.434386e-06
7.4399307e-06
6.6236011e-06
5.9664882e-06
5.4394829e-06
4.9976226e-06
4.5711064e-06
4.0563335e-06
3.3178501e-06
2.1568271e-06
1.4188589e-05
1.3499887e-05
1.2857116e-05
1.2207474e-05
1.1512927e-05
1.0767407e-05
9.9926087e-06
9.2214991e-06
8.4837949e-06
7.7993984e-06
7.1791262e-06
6.6278698e-06
6.1468502e-06
5.734991e-06
5.3894434e-06
5.1058646e-06
4.8783661e-06
4.698915e-06
4.5556542e-06
4.4289452e-06
4.2834706e-06
4.0551298e-06
3.6343217e-06
2.8524322e-06
1.4810689e-06
6.4774006e-06
6.2531014e-06
6.0515507e-06
5.8594311e-06
5.6661751e-06
5.4694049e-06
5.2740925e-06
5.0883299e-06
4.91931e-06
4.7713998e-06
4.6462873e-06
4.5438797e-06
4.4630671e-06
4.4021065e-06
4.3588021e-06
4.3305254e-06
4.314006e-06
4.3045589e-06
4.2940339e-06
4.266167e-06
4.1875246e-06
3.9928314e-06
3.5674198e-06
2.7400272e-06
1.3298823e-06
4.1566726e-06
4.1148569e-06
4.085424e-06
4.0648932e-06
4.0499893e-06
4.0392784e-06
4.0331354e-06
4.0327508e-06
4.0391143e-06
4.0525029e-06
4.0725136e-06
4.0982859e-06
4.1287528e-06
4.1627265e-06
4.1989215e-06
4.2358825e-06
4.271679e-06
4.303017e-06
4.3230116e-06
4.3162845e-06
4.249599e-06
4.0571035e-06
3.6240516e-06
2.7862845e-06
1.400552e-06
3.6109064e-06
3.6300653e-06
3.6573438e-06
3.6914558e-06
3.7309834e-06
3.7748498e-06
3.8223856e-06
3.8731301e-06
3.9266007e-06
3.9821757e-06
4.0390993e-06
4.0965373e-06
4.1536371e-06
4.2095599e-06
4.2634476e-06
4.3143152e-06
4.3607116e-06
4.3997894e-06
4.4250304e-06
4.421311e-06
4.3555914e-06
4.1625176e-06
3.7295751e-06
2.9015695e-06
1.5523612e-06
3.6018495e-06
3.6378354e-06
3.6801901e-06
3.7281121e-06
3.780683e-06
3.8370123e-06
3.8962846e-06
3.9577358e-06
4.0206136e-06
4.0841572e-06
4.1476022e-06
4.2101943e-06
4.2712006e-06
4.3299237e-06
4.38566e-06
4.4375799e-06
4.4843789e-06
4.5233352e-06
4.5480324e-06
4.5434377e-06
4.4766434e-06
4.2825876e-06
3.8496531e-06
3.0271761e-06
1.7097706e-06
3.7440419e-06
3.7828025e-06
3.8271267e-06
3.8763483e-06
3.9297218e-06
3.9864725e-06
4.0458243e-06
4.1070082e-06
4.1692654e-06
4.2318505e-06
4.2940369e-06
4.3551235e-06
4.4144392e-06
4.4713397e-06
4.5251758e-06
4.5751694e-06
4.620058e-06
4.6571468e-06
4.6800185e-06
4.6735778e-06
4.6046896e-06
4.407623e-06
3.9690558e-06
3.1347598e-06
1.7890098e-06
3.9272805e-06
3.9648843e-06
4.0075823e-06
4.0547757e-06
4.1058065e-06
4.1599792e-06
4.21658e-06
4.2748875e-06
4.3341834e-06
4.3937616e-06
4.452935e-06
4.5110411e-06
4.5674454e-06
4.6215359e-06
4.6726879e-06
4.7201448e-06
4.7626552e-06
4.7975112e-06
4.8182201e-06
4.8094479e-06
4.737414e-06
4.5348508e-06
4.0853285e-06
3.2296254e-06
1.8504197e-06
4.1225302e-06
4.1580666e-06
4.1983483e-06
4.2428276e-06
4.290906e-06
4.3419481e-06
4.3952956e-06
4.4502777e-06
4.5062214e-06
4.562461e-06
4.6183468e-06
4.6732498e-06
4.7265658e-06
4.7777089e-06
4.8260747e-06
4.8709197e-06
4.910992e-06
4.9435457e-06
4.9619524e-06
4.9505005e-06
4.8744851e-06
4.6646526e-06
4.2009535e-06
3.3191695e-06
1.9125754e-06
4.3227564e-06
4.3561191e-06
4.3939281e-06
4.4356784e-06
4.4808191e-06
4.5287642e-06
4.5789032e-06
4.6306107e-06
4.6832566e-06
4.7362145e-06
4.7888698e-06
4.8406259e-06
4.8909072e-06
4.9391526e-06
4.9847791e-06
5.0270535e-06
5.0647167e-06
5.0949681e-06
5.1110049e-06
5.096664e-06
5.0162192e-06
4.7983754e-06
4.3195546e-06
3.4104259e-06
1.9594622e-06
4.5263918e-06
4.5576616e-06
4.5931039e-06
4.6322519e-06
4.6745953e-06
4.7195906e-06
4.7666696e-06
4.8152483e-06
4.8647358e-06
4.9145426e-06
4.9640886e-06
5.0128084e-06
5.060155e-06
5.105592e-06
5.1485568e-06
5.1883269e-06
5.2236323e-06
5.251608e-06
5.2652579e-06
5.2479476e-06
5.1629436e-06
4.9370105e-06
4.4431179e-06
3.5063382e-06
2.00931e-06
4.7330845e-06
4.7623734e-06
4.7955781e-06
4.8322662e-06
4.8719633e-06
4.9141641e-06
4.9583383e-06
5.0039401e-06
5.0504151e-06
5.0972086e-06
5.1437731e-06
5.1895741e-06
5.2340927e-06
5.2768172e-06
5.3172048e-06
5.3545441e-06
5.3875519e-06
5.4132944e-06
5.4245769e-06
5.4042984e-06
5.3147747e-06
5.0810237e-06
4.5730155e-06
3.6112126e-06
2.0730731e-06
4.9426901e-06
4.9701074e-06
5.0011979e-06
5.0355594e-06
5.0727512e-06
5.1123019e-06
5.1537165e-06
5.1964841e-06
5.2400846e-06
5.2839967e-06
5.3277042e-06
5.370702e-06
5.4124983e-06
5.4526062e-06
5.4905026e-06
5.5254867e-06
5.556262e-06
5.5798246e-06
5.5887797e-06
5.5655613e-06
5.4715468e-06
5.2300354e-06
4.707934e-06
3.7199303e-06
2.1325635e-06
5.1550551e-06
5.180702e-06
5.2097912e-06
5.241949e-06
5.2767645e-06
5.3137981e-06
5.3525873e-06
5.3926536e-06
5.4335097e-06
5.4746652e-06
5.5156344e-06
5.5559405e-06
5.5951182e-06
5.6327044e-06
5.6681955e-06
5.7009009e-06
5.7295115e-06
5.7509537e-06
5.7576314e-06
5.7315052e-06
5.6329769e-06
5.3835413e-06
4.8470144e-06
3.8328661e-06
2.1896186e-06
5.3699755e-06
5.393945e-06
5.4211371e-06
5.4512037e-06
5.4837623e-06
5.5184019e-06
5.5546906e-06
5.5921804e-06
5.6304144e-06
5.6689323e-06
5.7072769e-06
5.7449991e-06
5.7816589e-06
5.8168166e-06
5.8499876e-06
5.8804911e-06
5.9070059e-06
5.9263891e-06
5.9308433e-06
5.9018448e-06
5.798778e-06
5.5412393e-06
4.9898046e-06
3.9484221e-06
2.2570163e-06
5.5871898e-06
5.6095676e-06
5.6349586e-06
5.6630385e-06
5.6934508e-06
5.7258118e-06
5.7597172e-06
5.7947482e-06
5.8304765e-06
5.8664701e-06
5.9022994e-06
5.9375417e-06
5.9717818e-06
6.0046024e-06
6.0355373e-06
6.0639151e-06
6.0884022e-06
6.1057864e-06
6.1080667e-06
6.0762194e-06
5.9685528e-06
5.7026027e-06
5.1353997e-06
4.0656209e-06
2.330722e-06
5.8063756e-06
5.8272415e-06
5.8509209e-06
5.8771115e-06
5.9054809e-06
5.9356712e-06
5.9673042e-06
5.9999879e-06
6.0333214e-06
6.0668994e-06
6.1003189e-06
6.1331822e-06
6.1650982e-06
6.1956711e-06
6.2244523e-06
6.2507795e-06
6.2733052e-06
6.2887474e-06
6.2888958e-06
6.2542087e-06
6.1418442e-06
5.8670341e-06
5.2825443e-06
4.1798676e-06
2.390717e-06
6.0271472e-06
6.0465758e-06
6.0686273e-06
6.0930201e-06
6.1194442e-06
6.1475656e-06
6.177031e-06
6.2074738e-06
6.2385185e-06
6.2697856e-06
6.300897e-06
6.3314793e-06
6.3611643e-06
6.3895771e-06
6.4162859e-06
6.4406361e-06
6.4612653e-06
6.4748184e-06
6.4728706e-06
6.4353463e-06
6.318211e-06
6.0342992e-06
5.4321516e-06
4.2975249e-06
2.4597771e-06
6.2490519e-06
6.2671139e-06
6.2876163e-06
6.3102977e-06
6.3348687e-06
6.3610179e-06
6.3884156e-06
6.416719e-06
6.4455768e-06
6.4746338e-06
6.5035357e-06
6.5319322e-06
6.5594772e-06
6.5858157e-06
6.6105319e-06
6.6329777e-06
6.6517737e-06
6.6634877e-06
6.659474e-06
6.6191134e-06
6.4971766e-06
6.2041467e-06
5.584551e-06
4.4191379e-06
2.5389501e-06
6.471568e-06
6.4883299e-06
6.5073584e-06
6.5284101e-06
6.551216e-06
6.5754854e-06
6.6009108e-06
6.6271722e-06
6.653941e-06
6.6808853e-06
6.7076734e-06
6.733977e-06
6.759471e-06
6.7838195e-06
6.8066216e-06
6.8272345e-06
6.8442594e-06
6.8541827e-06
6.8481298e-06
6.80493e-06
6.6781664e-06
6.3760409e-06
5.7392484e-06
4.5430072e-06
2.6120481e-06
6.6941013e-06
6.7096267e-06
6.7272527e-06
6.7467532e-06
6.7678779e-06
6.7903562e-06
6.8139012e-06
6.8382143e-06
6.8629889e-06
6.8879149e-06
6.9126821e-06
6.9369835e-06
6.9605137e-06
6.982955e-06
7.0039204e-06
7.0227712e-06
7.0380867e-06
7.0462669e-06
7.0382001e-06
6.9921533e-06
6.8605156e-06
6.5492017e-06
5.8949306e-06
4.6658782e-06
2.6734034e-06
6.9159844e-06
6.9303339e-06
6.9466258e-06
6.9646503e-06
6.9841748e-06
7.0049474e-06
7.0267008e-06
7.0491566e-06
7.072029e-06
7.0950285e-06
7.1178657e-06
7.1402534e-06
7.1619054e-06
7.182521e-06
7.2017264e-06
7.2188853e-06
7.2325526e-06
7.2390373e-06
7.228981e-06
7.1800748e-06
7.0435018e-06
6.7229158e-06
6.051357e-06
4.7920164e-06
2.75641e-06
7.136475e-06
7.149707e-06
7.1647308e-06
7.181352e-06
7.1993546e-06
7.2185043e-06
7.2385522e-06
7.2592393e-06
7.2802992e-06
7.3014621e-06
7.3224583e-06
7.3430194e-06
7.3628774e-06
7.3817479e-06
7.3992691e-06
7.414806e-06
7.4268868e-06
7.4317242e-06
7.4197028e-06
7.3679183e-06
7.2263195e-06
6.8962761e-06
6.2071519e-06
4.9172229e-06
2.8208112e-06
7.354757e-06
7.366928e-06
7.3807478e-06
7.3960363e-06
7.4125931e-06
7.4302004e-06
7.4486271e-06
7.4676321e-06
7.4869675e-06
7.5063822e-06
7.5256249e-06
7.5444453e-06
7.5625926e-06
7.5797979e-06
7.5957103e-06
7.609695e-06
7.6202515e-06
7.6234916e-06
7.6095322e-06
7.5548494e-06
7.4081103e-06
7.0683069e-06
6.3608486e-06
5.0383626e-06
2.8999532e-06
7.5699423e-06
7.5811077e-06
7.593786e-06
7.6078107e-06
7.622996e-06
7.63914e-06
7.6560281e-06
7.6734361e-06
7.6911337e-06
7.7088873e-06
7.7264631e-06
7.743628e-06
7.7601474e-06
7.7757667e-06
7.7901457e-06
7.8026484e-06
7.8117442e-06
7.8134404e-06
7.7975776e-06
7.7399908e-06
7.588018e-06
7.2381964e-06
6.5119717e-06
5.1566668e-06
2.9677499e-06
7.781075e-06
7.7912889e-06
7.802887e-06
7.8157156e-06
7.8296028e-06
7.8443614e-06
7.8597923e-06
7.8756874e-06
7.8918329e-06
7.9080118e-06
7.9240067e-06
7.9396007e-06
7.9545746e-06
7.9686876e-06
7.9816086e-06
7.9927003e-06
8.0004009e-06
8.0006122e-06
7.9828954e-06
7.9224378e-06
7.7652325e-06
7.405339e-06
6.6602952e-06
5.2729793e-06
3.0381301e-06
7.9871365e-06
7.9964523e-06
8.0070307e-06
8.0187302e-06
8.0313917e-06
8.0448419e-06
8.0588964e-06
8.0733622e-06
8.0880408e-06
8.1027309e-06
8.1172307e-06
8.1313385e-06
8.1448495e-06
8.1575356e-06
8.1690748e-06
8.1788275e-06
8.1852007e-06
8.1839916e-06
8.1644848e-06
8.1012246e-06
7.9388682e-06
7.569007e-06
6.8053173e-06
5.3865868e-06
3.107796e-06
8.1870513e-06
8.1955219e-06
8.2051409e-06
8.2157776e-06
8.2272855e-06
8.2395041e-06
8.2522627e-06
8.2653824e-06
8.2786793e-06
8.2919666e-06
8.3050572e-06
8.3177636e-06
8.3298946e-06
8.3412342e-06
8.3514683e-06
8.3599549e-06
8.3650703e-06
8.3625089e-06
8.3412837e-06
8.2753101e-06
8.1079438e-06
7.7283862e-06
6.946511e-06
5.4968742e-06
3.1780647e-06
8.3796903e-06
8.3873686e-06
8.3960879e-06
8.4057283e-06
8.4161545e-06
8.4272183e-06
8.4387614e-06
8.4506185e-06
8.4626191e-06
8.4745901e-06
8.4863578e-06
8.4977482e-06
8.5085829e-06
8.5186568e-06
8.5276635e-06
8.5349582e-06
8.5388866e-06
8.5350423e-06
8.5121721e-06
8.4435754e-06
8.2713469e-06
7.8824303e-06
7.0832943e-06
5.6045181e-06
3.229158e-06
8.5638578e-06
8.5707964e-06
8.5786761e-06
8.5873867e-06
8.5968034e-06
8.6067894e-06
8.6171982e-06
8.6278766e-06
8.6386668e-06
8.6494085e-06
8.6599406e-06
8.6701015e-06
8.6797243e-06
8.6886148e-06
8.6964729e-06
8.7026508e-06
8.7054642e-06
8.7004083e-06
8.6759691e-06
8.604843e-06
8.4278906e-06
8.0298488e-06
7.2138205e-06
5.706334e-06
3.2876803e-06
8.738223e-06
8.7444753e-06
8.7515758e-06
8.7594235e-06
8.7679035e-06
8.7768892e-06
8.7862453e-06
8.7958298e-06
8.8054967e-06
8.8150972e-06
8.8244819e-06
8.8335008e-06
8.8419977e-06
8.849788e-06
8.8565778e-06
8.8617157e-06
8.8634886e-06
8.8572964e-06
8.8313751e-06
8.7578424e-06
8.5763734e-06
8.169572e-06
7.3372394e-06
5.8018498e-06
3.3414102e-06
8.9010836e-06
8.906703e-06
8.9130855e-06
8.9201381e-06
8.9277549e-06
8.935819e-06
8.9442051e-06
8.9527817e-06
8.9614134e-06
8.9699623e-06
8.9782894e-06
8.9862552e-06
8.9937137e-06
9.0004886e-06
9.0062919e-06
9.0104686e-06
9.0112778e-06
9.0040306e-06
8.9767293e-06
8.9009546e-06
8.7152879e-06
8.3003852e-06
7.4530876e-06
5.8922712e-06
3.3933585e-06
9.0496599e-06
9.0547011e-06
9.0604277e-06
9.0667545e-06
9.0735833e-06
9.0808059e-06
9.0883061e-06
9.0959624e-06
9.103649e-06
9.1112376e-06
9.1185989e-06
9.1256024e-06
9.1321113e-06
9.1379573e-06
9.1428572e-06
9.146153e-06
9.1460781e-06
9.1378619e-06
9.1092938e-06
9.031468e-06
8.8419834e-06
8.4197753e-06
7.5591896e-06
5.9763194e-06
3.443911e-06
9.1782215e-06
9.1827403e-06
9.1878753e-06
9.193548e-06
9.199667e-06
9.2061311e-06
9.2128325e-06
9.2196585e-06
9.2264927e-06
9.2332152e-06
9.2397048e-06
9.245839e-06
9.2514889e-06
9.2564935e-06
9.2605738e-06
9.2630689e-06
9.2621897e-06
9.2530925e-06
9.2233765e-06
9.1437043e-06
8.9508096e-06
8.5221327e-06
7.6499749e-06
6.0486978e-06
3.489571e-06
9.2735928e-06
9.2776459e-06
9.2822571e-06
9.2873533e-06
9.2928476e-06
9.2986431e-06
9.3046384e-06
9.3107301e-06
9.3168101e-06
9.3227654e-06
9.3284815e-06
9.333842e-06
9.3387249e-06
9.342975e-06
9.3463162e-06
9.3480855e-06
9.3464761e-06
9.3365825e-06
9.3058411e-06
9.2245527e-06
9.0287521e-06
8.5947285e-06
7.713328e-06
6.0979425e-06
3.5195405e-06
9.3055268e-06
9.3091692e-06
9.3133293e-06
9.3179395e-06
9.322911e-06
9.3281449e-06
9.3335434e-06
9.3390127e-06
9.3444522e-06
9.3497513e-06
9.3548001e-06
9.3594871e-06
9.3636966e-06
9.3672755e-06
9.3699462e-06
9.3710464e-06
9.3687609e-06
9.3581428e-06
9.3265101e-06
9.2439221e-06
9.0460353e-06
8.6087671e-06
7.7231474e-06
6.1043331e-06
3.525127e-06
9.2087478e-06
9.2120218e-06
9.215809e-06
9.2200513e-06
9.22464e-06
9.229461e-06
9.2344143e-06
9.2394221e-06
9.2443852e-06
9.2491763e-06
9.2536899e-06
9.257818e-06
9.2614561e-06
9.2644418e-06
9.2664822e-06
9.2669298e-06
9.2639801e-06
9.252689e-06
9.2203523e-06
9.1370416e-06
8.9386977e-06
8.5024465e-06
7.6226793e-06
6.0213298e-06
3.4777882e-06
8.8555084e-06
8.8584156e-06
8.8618968e-06
8.8659514e-06
8.8703712e-06
8.8750205e-06
8.8797724e-06
8.8846006e-06
8.8893911e-06
8.8939341e-06
8.8981283e-06
8.9018684e-06
8.9050909e-06
8.9075662e-06
8.9089623e-06
8.908719e-06
8.9050716e-06
8.8931698e-06
8.8605289e-06
8.7778167e-06
8.582692e-06
8.1567114e-06
7.3038475e-06
5.7625569e-06
3.3284283e-06
8.0271287e-06
8.0295572e-06
8.0326522e-06
8.0368346e-06
8.041441e-06
8.0463975e-06
8.0513267e-06
8.0564292e-06
8.0615863e-06
8.0663512e-06
8.0706286e-06
8.0743244e-06
8.0775331e-06
8.0796252e-06
8.080259e-06
8.0792759e-06
8.0749596e-06
8.0627332e-06
8.0309734e-06
7.9520753e-06
7.7684927e-06
7.3724817e-06
6.589122e-06
5.1916383e-06
3.00974e-06
6.4152241e-06
6.4167163e-06
6.418468e-06
6.4231603e-06
6.4285315e-06
6.434966e-06
6.4404746e-06
6.4461312e-06
6.4520597e-06
6.4574489e-06
6.4622461e-06
6.4664965e-06
6.470777e-06
6.4727335e-06
6.4723545e-06
6.4707336e-06
6.4662261e-06
6.455014e-06
6.4281748e-06
6.3605838e-06
6.205806e-06
5.8775356e-06
5.2393186e-06
4.1233478e-06
2.4152721e-06
3.7304662e-06
3.7301011e-06
3.7279416e-06
3.732218e-06
3.7381331e-06
3.7469825e-06
3.7524854e-06
3.7573887e-06
3.7626178e-06
3.7673951e-06
3.7718197e-06
3.776405e-06
3.7824713e-06
3.7844482e-06
3.7832537e-06
3.7816379e-06
3.7784646e-06
3.7721234e-06
3.7604598e-06
3.7189308e-06
3.6230991e-06
3.4234094e-06
3.0426813e-06
2.3936283e-06
1.4354323e-06
)
;

boundaryField
{
    Walls
    {
        type            kqRWallFunction;
        value           nonuniform List<scalar> 
38
(
3.3818694e-06
2.2547988e-06
7.7812453e-06
3.7793917e-05
0.00028142416
0.0023515398
0.055969449
0.06068667
0.018350104
0.02712261
0.03498339
0.041928704
0.047419704
0.051938671
0.055758958
0.059264501
0.061900042
0.064282472
0.06597333
0.066975249
0.06867433
0.070121262
0.070295588
0.071142288
0.072040441
0.072200789
0.07241459
0.072549119
0.07254248
0.073230547
0.073435156
0.072835062
0.072651009
0.072537729
0.072222226
0.071764284
0.071117105
0.066079841
)
;
    }
    Inlet
    {
        type            turbulentIntensityKineticEnergyInlet;
        intensity       0.05;
        value           nonuniform List<scalar> 3(0.008377059 0.0085438077 0.0098307287);
    }
    Outlet
    {
        type            inletOutlet;
        inletValue      uniform 0;
        value           nonuniform List<scalar> 
86
(
0
0
0
0
0
0
0
0
0
0
0
0
0
0
0
0
0
0
0
0
0
0
0
0
0
0
0
0
0
0
0.002030379
0.0020224931
0.0013713974
0
0
0
0
5.5426535e-06
3.6155937e-06
0
0
0
0
1.5523612e-06
1.7097706e-06
1.7890098e-06
1.8504197e-06
1.9125754e-06
1.9594622e-06
2.00931e-06
2.0730731e-06
2.1325635e-06
0
0
0
0
0
0
0
0
0
0
0
0
0
0
0
0
0
0
0
0
0
0
0
0
0
0
0
0
0
0
0
0
0.0013104157
0.0020088969
)
;
    }
    Front
    {
        type            wedge;
    }
    Back
    {
        type            wedge;
    }
    defaultFaces
    {
        type            empty;
    }
}


// ************************************************************************* //
