/*--------------------------------*- C++ -*----------------------------------*\
| =========                 |                                                 |
| \\      /  F ield         | OpenFOAM: The Open Source CFD Toolbox           |
|  \\    /   O peration     | Version:  4.0                                   |
|   \\  /    A nd           | Web:      www.OpenFOAM.org                      |
|    \\/     M anipulation  |                                                 |
\*---------------------------------------------------------------------------*/
FoamFile
{
    version     2.0;
    format      ascii;
    class       volScalarField;
    location    "0.1";
    object      nut;
}
// * * * * * * * * * * * * * * * * * * * * * * * * * * * * * * * * * * * * * //

dimensions      [0 2 -1 0 0 0 0];

internalField   nonuniform List<scalar> 
1740
(
0.0001618015
1.4977575e-05
1.22996e-06
4.4909095e-05
7.6411681e-06
1.8049376e-06
1.4367663e-05
5.6025349e-06
2.3134898e-06
2.3816525e-05
4.710337e-06
2.757503e-06
1.2317528e-05
4.2112153e-06
3.105307e-06
1.1937416e-05
3.9506573e-06
3.3893211e-06
1.2139864e-05
3.7915924e-06
3.6272801e-06
1.1802145e-05
3.6718282e-06
3.8451438e-06
1.0414009e-05
3.6042619e-06
4.0084406e-06
9.1506136e-06
3.5651332e-06
4.1548478e-06
8.3584948e-06
3.5448163e-06
4.2586062e-06
7.8393407e-06
3.5037284e-06
4.3199728e-06
7.3606263e-06
3.4667345e-06
4.4242955e-06
6.8575721e-06
3.4619051e-06
4.5122904e-06
6.4369641e-06
3.4691643e-06
4.5227163e-06
6.0879753e-06
3.4853639e-06
4.5738976e-06
5.7915956e-06
3.5041709e-06
4.6293824e-06
5.5980141e-06
3.5343692e-06
4.6393334e-06
5.4239928e-06
3.537658e-06
4.6514952e-06
5.2308839e-06
3.5127957e-06
4.6593726e-06
5.0509149e-06
3.5155802e-06
4.6591745e-06
4.8870625e-06
3.5295175e-06
4.7012323e-06
4.7222274e-06
3.5439006e-06
4.7138087e-06
4.5922198e-06
3.5572818e-06
4.677518e-06
4.5115599e-06
3.5737634e-06
4.6658494e-06
4.4255957e-06
3.5666038e-06
4.6590077e-06
4.3188079e-06
3.5467746e-06
4.6395461e-06
4.2167143e-06
3.5423306e-06
4.6121259e-06
4.1648168e-06
3.5409485e-06
4.5733737e-06
2.9123946e-06
3.2904783e-06
4.2653031e-06
1.9217975e-06
2.1546336e-06
4.3769187e-06
7.1905935e-06
7.360948e-06
6.6842486e-06
6.526013e-06
6.7317041e-06
6.3638114e-06
5.1225783e-06
5.0635249e-06
4.8203322e-06
4.1626123e-06
4.0959167e-06
3.9598809e-06
3.33685e-06
3.2945483e-06
3.2196829e-06
2.4706179e-06
2.4447385e-06
2.3970946e-06
1.5718331e-06
1.5540866e-06
1.518779e-06
8.180983e-07
8.0659426e-07
7.8303404e-07
3.5504481e-07
3.4913929e-07
3.3705925e-07
1.4138239e-07
1.3895769e-07
1.3407374e-07
6.1885275e-08
6.1086712e-08
5.9483906e-08
3.6649873e-08
3.6432077e-08
3.6011815e-08
3.0245154e-08
3.0218369e-08
3.0184503e-08
2.9773677e-08
2.980475e-08
2.9884929e-08
3.1010769e-08
3.1057457e-08
3.1166085e-08
3.2702598e-08
3.2752127e-08
3.2864096e-08
3.4514167e-08
3.4562747e-08
3.4671111e-08
3.6367111e-08
3.6413615e-08
3.6516598e-08
3.824709e-08
3.8291197e-08
3.8388456e-08
4.0153239e-08
4.019489e-08
4.0286493e-08
4.2086374e-08
4.2125602e-08
4.2211735e-08
4.4046682e-08
4.408356e-08
4.4164448e-08
4.6033464e-08
4.606808e-08
4.614395e-08
4.8045194e-08
4.8077638e-08
4.8148716e-08
5.0079581e-08
5.0109943e-08
5.0176445e-08
5.2133599e-08
5.216197e-08
5.2224097e-08
5.4203485e-08
5.4229951e-08
5.42879e-08
5.6284724e-08
5.6309367e-08
5.6363322e-08
5.8372021e-08
5.8394922e-08
5.8445059e-08
6.0459287e-08
6.0480522e-08
6.052701e-08
6.2539627e-08
6.255927e-08
6.2602274e-08
6.4605337e-08
6.462346e-08
6.4663138e-08
6.6647915e-08
6.666459e-08
6.6701098e-08
6.8658094e-08
6.8673391e-08
6.8706883e-08
7.0625891e-08
7.0639879e-08
7.0670507e-08
7.2540678e-08
7.2553426e-08
7.2581345e-08
7.4391284e-08
7.4402864e-08
7.4428228e-08
7.6166134e-08
7.6176617e-08
7.6199581e-08
7.7853446e-08
7.7862905e-08
7.7883628e-08
7.944159e-08
7.9450098e-08
7.9468744e-08
8.0919747e-08
8.0927381e-08
8.0944117e-08
8.2279166e-08
8.2286005e-08
8.2301005e-08
8.3515165e-08
8.3521294e-08
8.3534742e-08
8.4629283e-08
8.4634792e-08
8.4646886e-08
8.5629056e-08
8.5634042e-08
8.5644996e-08
8.6520339e-08
8.6524909e-08
8.6534955e-08
8.7285323e-08
8.728959e-08
8.7298993e-08
8.7835649e-08
8.7839747e-08
8.7848855e-08
8.7890164e-08
8.7894269e-08
8.790361e-08
4.1529993e-06
4.4845972e-06
6.6438276e-06
8.3573513e-06
5.9843893e-06
6.0274592e-06
4.6768615e-06
4.7754196e-06
3.8960731e-06
3.9745664e-06
3.1800586e-06
3.2163076e-06
2.3587573e-06
2.354213e-06
1.4801469e-06
1.4524084e-06
7.5400241e-07
7.2683032e-07
3.2161825e-07
3.0594982e-07
1.2779135e-07
1.2123618e-07
5.7418111e-08
5.5245769e-08
3.549326e-08
3.4981015e-08
3.0173646e-08
3.0213436e-08
3.0021501e-08
3.0219877e-08
3.1336718e-08
3.1568705e-08
3.3036151e-08
3.3266118e-08
3.4836071e-08
3.5055154e-08
3.6672615e-08
3.6879223e-08
3.853541e-08
3.8729733e-08
4.0424684e-08
4.0607282e-08
4.2341555e-08
4.2513022e-08
4.4286289e-08
4.4447186e-08
4.6258194e-08
4.6409042e-08
4.8255719e-08
4.8397002e-08
5.0276545e-08
5.0408714e-08
5.2317611e-08
5.2441086e-08
5.4375122e-08
5.4490297e-08
5.6444533e-08
5.6551779e-08
5.8520526e-08
5.8620195e-08
6.059699e-08
6.0689421e-08
6.2667012e-08
6.275253e-08
6.4722876e-08
6.4801797e-08
6.6756069e-08
6.6828703e-08
6.8757319e-08
6.8823972e-08
7.0716639e-08
7.0777615e-08
7.2623404e-08
7.2679007e-08
7.4466445e-08
7.4516983e-08
7.6234191e-08
7.6279975e-08
7.7914873e-08
7.7956219e-08
7.9496867e-08
7.95341e-08
8.0969371e-08
8.1002824e-08
8.2323652e-08
8.2353675e-08
8.3555061e-08
8.3582021e-08
8.4665175e-08
8.4689468e-08
8.5661577e-08
8.5683625e-08
8.6550178e-08
8.6570428e-08
8.7313269e-08
8.7332182e-08
8.7862753e-08
8.7880812e-08
8.7918047e-08
8.793577e-08
2.8046303e-10
1.026854e-08
1.4966405e-07
6.268623e-07
1.2441497e-06
1.6677482e-06
1.8722776e-06
1.9469711e-06
1.9529999e-06
1.9201559e-06
1.861049e-06
1.7805642e-06
1.6806477e-06
1.562574e-06
1.4280569e-06
1.280026e-06
1.1230882e-06
9.6359198e-07
8.0923199e-07
6.6813839e-07
5.4746322e-07
4.5154357e-07
3.7932062e-07
3.1942181e-07
2.4675175e-07
1.8699409e-10
2.4123022e-08
3.1874057e-07
1.1990501e-06
2.2028712e-06
2.8205582e-06
3.121823e-06
3.2589655e-06
3.31133e-06
3.3136076e-06
3.2787325e-06
3.2102521e-06
3.1078877e-06
2.9703271e-06
2.7967133e-06
2.5883382e-06
2.3497713e-06
2.0896357e-06
1.8208969e-06
1.5602301e-06
1.3260184e-06
1.1347768e-06
9.9559798e-07
8.9950751e-07
7.8194105e-07
6.4530861e-10
7.7327263e-08
8.3265924e-07
2.4005463e-06
3.565543e-06
4.1779221e-06
4.5086365e-06
4.7072666e-06
4.8391717e-06
4.9285249e-06
4.9823052e-06
4.9999839e-06
4.9766763e-06
4.906358e-06
4.7825673e-06
4.6009789e-06
4.3606027e-06
4.0654599e-06
3.7266412e-06
3.3641296e-06
3.0071659e-06
2.6911989e-06
2.4476497e-06
2.2757684e-06
2.0267801e-06
3.1342064e-09
2.862308e-07
2.0610625e-06
3.9721201e-06
4.9670888e-06
5.4989906e-06
5.8370706e-06
6.0942601e-06
6.3163836e-06
6.5146655e-06
6.6904505e-06
6.8406452e-06
6.9549988e-06
7.023374e-06
7.0327493e-06
6.9726021e-06
6.8339965e-06
6.6113505e-06
6.3053115e-06
5.9261874e-06
5.4971384e-06
5.0551012e-06
4.6423621e-06
4.2684031e-06
3.7086651e-06
2.3332377e-08
1.1402156e-06
4.0007703e-06
5.6131048e-06
6.4634575e-06
6.9765034e-06
7.3428261e-06
7.659723e-06
7.9689266e-06
8.2663456e-06
8.5512381e-06
8.8261828e-06
9.0760218e-06
9.2891619e-06
9.4445019e-06
9.5304785e-06
9.5331607e-06
9.4383648e-06
9.2349874e-06
8.9186909e-06
8.4958077e-06
7.9880758e-06
7.4349732e-06
6.9035264e-06
6.492153e-06
1.9454875e-07
2.7431594e-06
5.9085967e-06
7.7350302e-06
8.6690804e-06
9.1017981e-06
9.3079082e-06
9.4502012e-06
9.5888106e-06
9.7384252e-06
9.9028929e-06
1.008335e-05
1.0275196e-05
1.0467199e-05
1.0644534e-05
1.079002e-05
1.0884019e-05
1.090494e-05
1.0831573e-05
1.0646492e-05
1.0339588e-05
9.9132188e-06
9.3856617e-06
8.8138264e-06
8.3143282e-06
4.3267026e-06
4.3001267e-06
4.3470504e-06
4.4624901e-06
4.6448181e-06
4.883336e-06
5.1665557e-06
5.4899288e-06
5.8542619e-06
6.2603816e-06
6.7061582e-06
7.1852592e-06
7.6861145e-06
8.1919571e-06
8.6819659e-06
9.1328646e-06
9.5199888e-06
9.8179395e-06
1.0002168e-05
1.0051804e-05
9.9528922e-06
9.7027562e-06
9.3136948e-06
8.8327995e-06
8.3783344e-06
9.1049915e-06
9.3714393e-06
9.7887937e-06
1.0225181e-05
1.0416521e-05
1.0391753e-05
1.028215e-05
1.0187565e-05
1.0146799e-05
1.0159266e-05
1.0217885e-05
1.0314942e-05
1.0439355e-05
1.0578301e-05
1.0716368e-05
1.083512e-05
1.0912856e-05
1.0925893e-05
1.0851068e-05
1.0669126e-05
1.0368252e-05
9.9491661e-06
9.4282059e-06
8.8604679e-06
8.3615148e-06
6.3996434e-06
6.8140082e-06
7.2506459e-06
7.6537761e-06
7.9536948e-06
8.1604337e-06
8.3307566e-06
8.5106076e-06
8.6983752e-06
8.9003835e-06
9.111605e-06
9.3182717e-06
9.5081558e-06
9.6643893e-06
9.7766699e-06
9.8307668e-06
9.8102965e-06
9.6993056e-06
9.4850731e-06
9.1616846e-06
8.7337708e-06
8.2210493e-06
7.6605251e-06
7.1169163e-06
6.6879934e-06
5.0760246e-06
5.4180418e-06
5.75006e-06
6.0410263e-06
6.2696175e-06
6.4445917e-06
6.5941343e-06
6.7368938e-06
6.8766643e-06
7.0136385e-06
7.1412976e-06
7.2500077e-06
7.329224e-06
7.3667219e-06
7.35135e-06
7.2719458e-06
7.1184219e-06
6.8840402e-06
6.5683639e-06
6.1806174e-06
5.7427762e-06
5.2903199e-06
4.8632622e-06
4.4651355e-06
3.8500113e-06
4.1765977e-06
4.41811e-06
4.6524329e-06
4.8543462e-06
5.011515e-06
5.1269653e-06
5.2127382e-06
5.2785251e-06
5.327669e-06
5.3593468e-06
5.3690572e-06
5.3503474e-06
5.2958675e-06
5.1979794e-06
5.0503221e-06
4.8483726e-06
4.5906208e-06
4.2806134e-06
3.9291188e-06
3.5556215e-06
3.1890474e-06
2.8646522e-06
2.6133e-06
2.4306901e-06
2.1503486e-06
3.3224065e-06
3.4589515e-06
3.5935089e-06
3.7045853e-06
3.7810881e-06
3.8221093e-06
3.8331589e-06
3.8198535e-06
3.7848474e-06
3.7281079e-06
3.6475917e-06
3.5402318e-06
3.4026801e-06
3.2320952e-06
3.0274291e-06
2.7901913e-06
2.5251809e-06
2.2412474e-06
1.9516412e-06
1.6732148e-06
1.4244805e-06
1.2223604e-06
1.0776257e-06
9.8721359e-07
9.0558895e-07
2.3853022e-06
2.4357483e-06
2.4861803e-06
2.5205099e-06
2.5289815e-06
2.5091155e-06
2.4637082e-06
2.396978e-06
2.3120136e-06
2.2104583e-06
2.0930007e-06
1.9600097e-06
1.8120177e-06
1.6502814e-06
1.4774176e-06
1.2976048e-06
1.1164755e-06
9.4075191e-07
7.7756737e-07
6.3350422e-07
5.1348001e-07
4.1965936e-07
3.5022581e-07
2.9726389e-07
2.390475e-07
1.4401725e-06
1.4382723e-06
1.4370391e-06
1.4266992e-06
1.4007106e-06
1.3571729e-06
1.2979728e-06
1.2265217e-06
1.1459809e-06
1.0587745e-06
9.6676038e-07
8.7155345e-07
7.7474875e-07
6.7808597e-07
5.8356944e-07
4.934069e-07
4.0982649e-07
3.3484013e-07
2.7000927e-07
2.1624059e-07
1.736184e-07
1.4123622e-07
1.1684736e-07
9.6111814e-08
7.3706793e-08
7.0528946e-07
6.8849254e-07
6.7267691e-07
6.5338584e-07
6.2750386e-07
5.9421486e-07
5.5467486e-07
5.1092455e-07
4.649364e-07
4.1824329e-07
3.7199402e-07
3.2707735e-07
2.8422411e-07
2.4406408e-07
2.0715737e-07
1.7398526e-07
1.4491351e-07
1.2015445e-07
9.9743118e-08
8.3526701e-08
7.1159808e-08
6.2093145e-08
5.5525986e-08
5.0376781e-08
4.6013233e-08
2.9202649e-07
2.8003547e-07
2.6884195e-07
2.5689086e-07
2.4305277e-07
2.2705939e-07
2.0938622e-07
1.9085233e-07
1.722434e-07
1.5414499e-07
1.3696768e-07
1.2099086e-07
1.0640029e-07
9.3318005e-08
8.1806289e-08
7.1882783e-08
6.3533339e-08
5.6699816e-08
5.1283876e-08
4.7152926e-08
4.4144924e-08
4.20693e-08
4.0705337e-08
3.9815449e-08
3.9299309e-08
1.1519557e-07
1.0986654e-07
1.0497049e-07
1.0006201e-07
9.4808994e-08
8.9134037e-08
8.3177278e-08
7.7175365e-08
7.1353076e-08
6.5875885e-08
6.0844468e-08
5.6327465e-08
5.2356243e-08
4.8937303e-08
4.6058234e-08
4.3692852e-08
4.1804064e-08
4.034666e-08
3.9270837e-08
3.8525311e-08
3.805854e-08
3.7816386e-08
3.773662e-08
3.7737026e-08
3.7722287e-08
5.3237984e-08
5.1497799e-08
4.9976568e-08
4.8560047e-08
4.7152134e-08
4.5719645e-08
4.4287963e-08
4.2910975e-08
4.1641794e-08
4.0517142e-08
3.9555913e-08
3.876227e-08
3.8134846e-08
3.7664144e-08
3.7335739e-08
3.7132072e-08
3.7034085e-08
3.7022999e-08
3.7082299e-08
3.719935e-08
3.7365368e-08
3.7571805e-08
3.7801901e-08
3.8008787e-08
3.8082843e-08
3.4559836e-08
3.4270341e-08
3.4105032e-08
3.4031772e-08
3.401759e-08
3.4043085e-08
3.4103793e-08
3.4203778e-08
3.4348215e-08
3.4539001e-08
3.4774359e-08
3.504708e-08
3.5351495e-08
3.5679811e-08
3.6023192e-08
3.6372599e-08
3.6719669e-08
3.7057881e-08
3.738406e-08
3.7699756e-08
3.8011127e-08
3.8325097e-08
3.8639997e-08
3.892274e-08
3.9079797e-08
3.0327224e-08
3.0527445e-08
3.0810337e-08
3.1162551e-08
3.1568284e-08
3.2014024e-08
3.2489998e-08
3.2989215e-08
3.3505847e-08
3.4034102e-08
3.4567893e-08
3.5100676e-08
3.5625301e-08
3.6136224e-08
3.6627585e-08
3.709393e-08
3.7530907e-08
3.7936299e-08
3.8311492e-08
3.8662908e-08
3.9001893e-08
3.9340581e-08
3.9681809e-08
3.9996553e-08
4.0196512e-08
3.0484516e-08
3.0817161e-08
3.1213286e-08
3.1664351e-08
3.2160125e-08
3.2690436e-08
3.3246027e-08
3.381865e-08
3.4400827e-08
3.4985599e-08
3.5566419e-08
3.6137161e-08
3.6690986e-08
3.7222899e-08
3.7728033e-08
3.8202098e-08
3.8642019e-08
3.9046969e-08
3.9419882e-08
3.9768913e-08
4.0107166e-08
4.0448057e-08
4.0794334e-08
4.1115282e-08
4.1318044e-08
3.1861025e-08
3.2211828e-08
3.2616334e-08
3.3067801e-08
3.3558435e-08
3.4080114e-08
3.4624855e-08
3.5185023e-08
3.57534e-08
3.6323173e-08
3.688792e-08
3.7441585e-08
3.7978401e-08
3.8492786e-08
3.8980247e-08
3.94369e-08
3.9860102e-08
4.0249541e-08
4.060877e-08
4.0946627e-08
4.1276727e-08
4.1612306e-08
4.1954478e-08
4.2269147e-08
4.2454101e-08
3.3551523e-08
3.3889439e-08
3.4275288e-08
3.4703326e-08
3.5167083e-08
3.5659712e-08
3.617427e-08
3.6703878e-08
3.7241839e-08
3.7781708e-08
3.8317322e-08
3.8842817e-08
3.935266e-08
3.9841724e-08
4.0305204e-08
4.0739466e-08
4.1142105e-08
4.1513088e-08
4.185632e-08
4.2181e-08
4.2500897e-08
4.2828818e-08
4.3164417e-08
4.3471238e-08
4.3642571e-08
3.5325593e-08
3.5644228e-08
3.6006793e-08
3.6408216e-08
3.6842852e-08
3.7304692e-08
3.7787542e-08
3.8285154e-08
3.8791327e-08
3.9299999e-08
3.9805304e-08
4.0301618e-08
4.078362e-08
4.1246398e-08
4.1685261e-08
4.2096671e-08
4.2478405e-08
4.2830666e-08
4.3157653e-08
4.346888e-08
4.377832e-08
4.4098626e-08
4.4428603e-08
4.4730174e-08
4.4893909e-08
3.7133692e-08
3.743289e-08
3.7772874e-08
3.8149054e-08
3.8556362e-08
3.8989383e-08
3.9442485e-08
3.990992e-08
4.0385929e-08
4.0864814e-08
4.1341015e-08
4.1809165e-08
4.2264158e-08
4.2701233e-08
4.3116099e-08
4.3505149e-08
4.386638e-08
4.420024e-08
4.4511241e-08
4.4809275e-08
4.5108693e-08
4.5422346e-08
4.5748655e-08
4.6048054e-08
4.6205322e-08
3.8968821e-08
3.9249665e-08
3.9568606e-08
3.9921441e-08
4.0303535e-08
4.0709931e-08
4.1135442e-08
4.1574743e-08
4.2022455e-08
4.2473223e-08
4.292179e-08
4.3363053e-08
4.3792141e-08
4.4204499e-08
4.4596062e-08
4.4963395e-08
4.530467e-08
4.5620587e-08
4.5916004e-08
4.620127e-08
4.6491266e-08
4.6799251e-08
4.7123463e-08
4.74229e-08
4.7577059e-08
4.0831827e-08
4.1095467e-08
4.1394795e-08
4.1725934e-08
4.2084599e-08
4.246621e-08
4.2865953e-08
4.327887e-08
4.3699923e-08
4.4124076e-08
4.454636e-08
4.4961938e-08
4.5366179e-08
4.5754742e-08
4.6123742e-08
4.6470061e-08
4.6791958e-08
4.7090424e-08
4.7370694e-08
4.764363e-08
4.7924712e-08
4.822766e-08
4.8550513e-08
4.8850848e-08
4.9002949e-08
4.2723829e-08
4.2971285e-08
4.3252217e-08
4.356302e-08
4.389972e-08
4.4258056e-08
4.4633543e-08
4.5021546e-08
4.541734e-08
4.5816188e-08
4.6213398e-08
4.660439e-08
4.6984771e-08
4.7350419e-08
4.7697656e-08
4.8023586e-08
4.8326675e-08
4.8608185e-08
4.8873745e-08
4.9134749e-08
4.9407273e-08
4.9705404e-08
5.0026705e-08
5.0326725e-08
5.0473017e-08
4.4644984e-08
4.4877151e-08
4.5140723e-08
4.5432345e-08
4.5748313e-08
4.6084651e-08
4.643717e-08
4.6801525e-08
4.7173286e-08
4.7547992e-08
4.7921216e-08
4.8288632e-08
4.8646075e-08
4.8989644e-08
4.9315864e-08
4.9622046e-08
4.9906896e-08
5.0171945e-08
5.042322e-08
5.0672648e-08
5.0936882e-08
5.1230298e-08
5.1549873e-08
5.1849093e-08
5.1989586e-08
4.6594486e-08
4.6812157e-08
4.705928e-08
4.7332725e-08
4.7629035e-08
4.794449e-08
4.8275171e-08
4.8617005e-08
4.896583e-08
4.931745e-08
4.9667692e-08
5.0012468e-08
5.0347843e-08
5.0670127e-08
5.0976047e-08
5.1263105e-08
5.1530294e-08
5.1779373e-08
5.2016774e-08
5.2254954e-08
5.2511118e-08
5.279989e-08
5.3117564e-08
5.3415232e-08
5.3548173e-08
4.8570694e-08
4.8774581e-08
4.9006071e-08
4.9262234e-08
4.9539845e-08
4.983542e-08
5.0145282e-08
5.0465617e-08
5.0792512e-08
5.1122021e-08
5.1450213e-08
5.1773234e-08
5.2087368e-08
5.2389133e-08
5.2675454e-08
5.2944034e-08
5.3194098e-08
5.3427691e-08
5.3651627e-08
5.3878873e-08
5.4127157e-08
5.4411279e-08
5.4726667e-08
5.5021562e-08
5.5144677e-08
5.0571209e-08
5.0761965e-08
5.0978562e-08
5.1218261e-08
5.1478044e-08
5.175465e-08
5.2044632e-08
5.2344409e-08
5.265031e-08
5.2958622e-08
5.3265646e-08
5.3567752e-08
5.3861436e-08
5.414342e-08
5.4410823e-08
5.4661543e-08
5.4895024e-08
5.5113624e-08
5.5324508e-08
5.5541147e-08
5.5781767e-08
5.6061308e-08
5.637424e-08
5.6665746e-08
5.6776962e-08
5.2592902e-08
5.2771133e-08
5.2973523e-08
5.3197511e-08
5.3440271e-08
5.3698752e-08
5.3969725e-08
5.4249827e-08
5.4535612e-08
5.4823591e-08
5.5110287e-08
5.5392282e-08
5.566628e-08
5.5929197e-08
5.6178346e-08
5.6411816e-08
5.662927e-08
5.6833351e-08
5.7031601e-08
5.7237977e-08
5.7471202e-08
5.7746396e-08
5.8057323e-08
5.8346941e-08
5.8451273e-08
5.463192e-08
5.4798194e-08
5.4987014e-08
5.5195993e-08
5.5422484e-08
5.5663632e-08
5.5916412e-08
5.6177671e-08
5.6444173e-08
5.6712645e-08
5.6979817e-08
5.7242477e-08
5.7497528e-08
5.7742076e-08
5.7973618e-08
5.8190436e-08
5.8392405e-08
5.8582447e-08
5.8768484e-08
5.8964954e-08
5.9191074e-08
5.9462194e-08
5.9771512e-08
6.00599e-08
6.0158004e-08
5.6683664e-08
5.6838515e-08
5.7014371e-08
5.7209001e-08
5.7419935e-08
5.76445e-08
5.7879862e-08
5.8123069e-08
5.8371084e-08
5.8620838e-08
5.8869262e-08
5.9113339e-08
5.9350162e-08
5.9577022e-08
5.9791594e-08
5.9992345e-08
6.0179364e-08
6.035584e-08
6.0530088e-08
6.0717007e-08
6.0936306e-08
6.1203549e-08
6.1511302e-08
6.1797912e-08
6.1885444e-08
5.8742774e-08
5.8886709e-08
5.9050173e-08
5.9231086e-08
5.942714e-08
5.9635837e-08
5.9854524e-08
6.0080436e-08
6.0310731e-08
6.0542529e-08
6.0772957e-08
6.0999183e-08
6.1218481e-08
6.142832e-08
6.1626549e-08
6.1811814e-08
6.1984412e-08
6.2147802e-08
6.2310669e-08
6.2488385e-08
6.2701127e-08
6.2964621e-08
6.3270676e-08
6.3554799e-08
6.3629849e-08
6.0803108e-08
6.0936611e-08
6.1088232e-08
6.1256033e-08
6.1437859e-08
6.1631375e-08
6.1834103e-08
6.2043454e-08
6.2256771e-08
6.2471356e-08
6.2684519e-08
6.2893608e-08
6.3096072e-08
6.3289549e-08
6.3472054e-08
6.3642408e-08
6.3801111e-08
6.3951887e-08
6.4103786e-08
6.4272641e-08
6.4479074e-08
6.4738929e-08
6.5043251e-08
6.532509e-08
6.539246e-08
6.2857725e-08
6.2981265e-08
6.3121573e-08
6.3276845e-08
6.3445072e-08
6.3624076e-08
6.381154e-08
6.4005046e-08
6.4202109e-08
6.4400208e-08
6.4596825e-08
6.4789482e-08
6.4975792e-08
6.5153557e-08
6.5320952e-08
6.5476969e-08
6.5622303e-08
6.5760937e-08
6.5902278e-08
6.606262e-08
6.6262987e-08
6.6519276e-08
6.6821618e-08
6.7100124e-08
6.7152084e-08
6.4898888e-08
6.501292e-08
6.514243e-08
6.5285742e-08
6.5440985e-08
6.5606129e-08
6.5779011e-08
6.5957373e-08
6.6138896e-08
6.6321224e-08
6.6502006e-08
6.6678927e-08
6.6849759e-08
6.701246e-08
6.716536e-08
6.7307611e-08
6.7440103e-08
6.7567073e-08
6.7698278e-08
6.7850452e-08
6.8045009e-08
6.8297829e-08
6.8597967e-08
6.8872294e-08
6.8911909e-08
6.6918072e-08
6.7023041e-08
6.714226e-08
6.7274171e-08
6.7417035e-08
6.756896e-08
6.7727931e-08
6.7891843e-08
6.8058532e-08
6.82258e-08
6.8391454e-08
6.8553333e-08
6.8709363e-08
6.8857648e-08
6.8996667e-08
6.912573e-08
6.924591e-08
6.9361697e-08
6.9483192e-08
6.9627562e-08
6.9816605e-08
7.0066171e-08
7.0364233e-08
7.0634548e-08
7.0660583e-08
6.8905993e-08
6.9002342e-08
6.9111769e-08
6.9232832e-08
6.9363916e-08
6.9503259e-08
6.9648987e-08
6.9799139e-08
6.9951697e-08
7.0104615e-08
7.0255847e-08
7.0403381e-08
7.0545287e-08
7.067981e-08
7.080557e-08
7.0922026e-08
7.1030432e-08
7.113552e-08
7.1247732e-08
7.1384665e-08
7.1568501e-08
7.181508e-08
7.2111314e-08
7.2377918e-08
7.2391336e-08
7.0852664e-08
7.0940829e-08
7.1040964e-08
7.1151731e-08
7.1271632e-08
7.139903e-08
7.1532183e-08
7.1669265e-08
7.1808399e-08
7.1947679e-08
7.2085201e-08
7.2219092e-08
7.234756e-08
7.2468982e-08
7.2582112e-08
7.2686553e-08
7.278373e-08
7.2878608e-08
7.2981956e-08
7.3111789e-08
7.3290671e-08
7.3534438e-08
7.3828992e-08
7.4092037e-08
7.4092775e-08
7.2747457e-08
7.282788e-08
7.2919221e-08
7.3020246e-08
7.3129564e-08
7.3245659e-08
7.3366909e-08
7.3491618e-08
7.361804e-08
7.3744403e-08
7.3868935e-08
7.3989896e-08
7.4105622e-08
7.4214615e-08
7.4315758e-08
7.4408787e-08
7.449529e-08
7.458045e-08
7.4675348e-08
7.4798387e-08
7.4972495e-08
7.5213504e-08
7.5506371e-08
7.5765963e-08
7.5755085e-08
7.4579212e-08
7.4652337e-08
7.4735389e-08
7.4827229e-08
7.4926573e-08
7.5032011e-08
7.5142039e-08
7.5255082e-08
7.5369516e-08
7.5483694e-08
7.559597e-08
7.5704727e-08
7.5808422e-08
7.5905676e-08
7.5995489e-08
7.6077724e-08
7.6154122e-08
7.623007e-08
7.6316936e-08
7.6433486e-08
7.6602968e-08
7.6841198e-08
7.7132218e-08
7.7388145e-08
7.736039e-08
7.6336366e-08
7.6402642e-08
7.6477918e-08
7.6561143e-08
7.6651129e-08
7.674657e-08
7.684607e-08
7.6948166e-08
7.705135e-08
7.7154093e-08
7.7254863e-08
7.735216e-08
7.7444553e-08
7.7530775e-08
7.7609936e-08
7.7682017e-08
7.77489e-08
7.7816163e-08
7.7895442e-08
7.8005838e-08
7.8170896e-08
7.8406381e-08
7.8695356e-08
7.8946975e-08
7.8904759e-08
7.8007161e-08
7.8067049e-08
7.813507e-08
7.8210259e-08
7.8291518e-08
7.8377637e-08
7.8467319e-08
7.8559207e-08
7.86519e-08
7.8743975e-08
7.8834012e-08
7.8920615e-08
7.9002459e-08
7.907838e-08
7.914759e-08
7.921018e-08
7.9268163e-08
7.9327297e-08
7.9399468e-08
7.9504097e-08
7.9665013e-08
7.9897942e-08
8.0185023e-08
8.0432578e-08
8.037654e-08
7.9579994e-08
7.9633962e-08
7.9695265e-08
7.9763015e-08
7.9836197e-08
7.9913687e-08
7.9994285e-08
8.0076726e-08
8.015971e-08
8.0241913e-08
8.0322015e-08
8.039872e-08
8.0470797e-08
8.0537177e-08
8.0597166e-08
8.0650957e-08
8.0700685e-08
8.0752274e-08
8.0817844e-08
8.0917119e-08
8.1074197e-08
8.1304787e-08
8.159021e-08
8.1834291e-08
8.176611e-08
8.1044082e-08
8.1092618e-08
8.1147759e-08
8.1208688e-08
8.1274465e-08
8.1344051e-08
8.1416325e-08
8.1490113e-08
8.1564204e-08
8.1637366e-08
8.1708369e-08
8.1776006e-08
8.1839136e-08
8.1896773e-08
8.194831e-08
8.1994029e-08
8.2036179e-08
8.2080834e-08
8.2140327e-08
8.223465e-08
8.2388135e-08
8.2616453e-08
8.2900158e-08
8.3140845e-08
8.3061639e-08
8.2390728e-08
8.2434341e-08
8.2483901e-08
8.2538659e-08
8.2597743e-08
8.2660184e-08
8.2724939e-08
8.2790911e-08
8.2856971e-08
8.292197e-08
8.2984759e-08
8.3044214e-08
8.3099269e-08
8.3149014e-08
8.3192915e-08
8.3231338e-08
8.3266625e-08
8.3304983e-08
8.3358924e-08
8.3448652e-08
8.3598666e-08
8.3824536e-08
8.4106056e-08
8.4342778e-08
8.4252608e-08
8.3615325e-08
8.3654555e-08
8.3699156e-08
8.3748437e-08
8.3801588e-08
8.3857703e-08
8.3915803e-08
8.397486e-08
8.4033815e-08
8.4091595e-08
8.4147126e-08
8.4199353e-08
8.4247278e-08
8.4290051e-08
8.43272e-08
8.4359158e-08
8.4388347e-08
8.4421072e-08
8.4469968e-08
8.4555367e-08
8.470182e-08
8.4924699e-08
8.5203049e-08
8.543457e-08
8.5332308e-08
8.4719512e-08
8.475494e-08
8.4795252e-08
8.4839811e-08
8.4887859e-08
8.4938539e-08
8.4990926e-08
8.5044049e-08
8.5096912e-08
8.5148504e-08
8.5197818e-08
8.524386e-08
8.5285686e-08
8.5322494e-08
8.5353854e-08
8.5380248e-08
8.5404153e-08
8.5431927e-08
8.547624e-08
8.5557407e-08
8.5699834e-08
8.5918529e-08
8.6191814e-08
8.6416042e-08
8.6300762e-08
8.5710932e-08
8.5743184e-08
8.5779932e-08
8.5820591e-08
8.586444e-08
8.591066e-08
8.5958365e-08
8.6006631e-08
8.6054508e-08
8.6101035e-08
8.6145264e-08
8.6186254e-08
8.6223103e-08
8.6255035e-08
8.6281641e-08
8.6303434e-08
8.6322909e-08
8.634641e-08
8.638651e-08
8.6463271e-08
8.6600618e-08
8.6812843e-08
8.7077413e-08
8.7289765e-08
8.7157529e-08
8.6595544e-08
8.6625271e-08
8.6659218e-08
8.6696859e-08
8.6737476e-08
8.6780279e-08
8.6824402e-08
8.6868966e-08
8.6913051e-08
8.6955715e-08
8.6996061e-08
8.7033192e-08
8.7066245e-08
8.7094434e-08
8.7117349e-08
8.7135526e-08
8.7151428e-08
8.7171291e-08
8.7207404e-08
8.7279231e-08
8.74097e-08
8.7611798e-08
8.7861814e-08
8.8054958e-08
8.7900097e-08
8.7355644e-08
8.7383478e-08
8.7415353e-08
8.7450897e-08
8.7489284e-08
8.7529767e-08
8.7571428e-08
8.761347e-08
8.7654993e-08
8.7695021e-08
8.7732701e-08
8.7767173e-08
8.7797634e-08
8.7823179e-08
8.7843392e-08
8.7858888e-08
8.7872024e-08
8.7888802e-08
8.7921028e-08
8.7987079e-08
8.8108225e-08
8.8295347e-08
8.8523139e-08
8.8687961e-08
8.8507074e-08
8.7903094e-08
8.7929524e-08
8.7959811e-08
8.7994194e-08
8.80314e-08
8.8070817e-08
8.8111107e-08
8.8151728e-08
8.8191846e-08
8.8230393e-08
8.8266553e-08
8.829953e-08
8.8328657e-08
8.835254e-08
8.8370833e-08
8.8384434e-08
8.8395506e-08
8.840973e-08
8.8438404e-08
8.8497849e-08
8.8607193e-08
8.8774415e-08
8.8972105e-08
8.9099473e-08
8.8892545e-08
8.7957159e-08
8.7982217e-08
8.8010523e-08
8.8044587e-08
8.8081819e-08
8.8121988e-08
8.8161969e-08
8.8202032e-08
8.8241652e-08
8.8279626e-08
8.8315206e-08
8.8347812e-08
8.8377115e-08
8.8400167e-08
8.8416958e-08
8.8429179e-08
8.8438767e-08
8.8451292e-08
8.8478392e-08
8.8531239e-08
8.8627495e-08
8.8772183e-08
8.8935777e-08
8.9022905e-08
8.8807221e-08
)
;

boundaryField
{
    Walls
    {
        type            nutUWallFunction;
        Cmu             0.09;
        kappa           0.41;
        E               9.8;
        value           uniform 0;
    }
    Inlet
    {
        type            calculated;
        value           nonuniform List<scalar> 3(0.00014155318 1.9860165e-05 8.0358272e-07);
    }
    Outlet
    {
        type            calculated;
        value           nonuniform List<scalar> 
86
(
0
0
0
0
0
0
0
0
0
0
0
0
0
0
0
0
0
0
0
0
0
0
0
0
0
0
0
0
0
0
8.3783344e-06
8.3615148e-06
6.6879934e-06
0
0
0
0
7.3706793e-08
4.6013233e-08
0
0
0
0
4.0196512e-08
4.1318044e-08
4.2454101e-08
4.3642571e-08
4.4893909e-08
4.6205322e-08
4.7577059e-08
4.9002949e-08
5.0473017e-08
0
0
0
0
0
0
0
0
0
0
0
0
0
0
0
0
0
0
0
0
0
0
0
0
0
0
0
0
0
0
0
0
6.492153e-06
8.3143282e-06
)
;
    }
    Front
    {
        type            wedge;
    }
    Back
    {
        type            wedge;
    }
    defaultFaces
    {
        type            empty;
    }
}


// ************************************************************************* //
