/*--------------------------------*- C++ -*----------------------------------*\
| =========                 |                                                 |
| \\      /  F ield         | OpenFOAM: The Open Source CFD Toolbox           |
|  \\    /   O peration     | Version:  4.0                                   |
|   \\  /    A nd           | Web:      www.OpenFOAM.org                      |
|    \\/     M anipulation  |                                                 |
\*---------------------------------------------------------------------------*/
FoamFile
{
    version     2.0;
    format      ascii;
    class       volScalarField;
    location    "0.1";
    object      omega;
}
// * * * * * * * * * * * * * * * * * * * * * * * * * * * * * * * * * * * * * //

dimensions      [0 0 -1 0 0 0 0];

internalField   nonuniform List<scalar> 
1740
(
55.014016
616.61612
14919.269
152.40742
1282.4911
15026.896
286.71636
1850.0379
15121.48
407.23243
2307.7558
15205.316
522.71682
2715.3283
15270.537
637.98055
2930.7236
15324.211
767.06279
3072.2918
15372.112
853.97009
3231.4852
15412.818
966.41331
3443.6832
15442.425
1104.5361
3619.5447
15471.679
1202.0122
3739.5854
15491.766
1269.5045
3765.975
15503.627
1332.7937
3786.2152
15522.094
1417.2964
3848.3028
15540.06
1501.0315
3904.1376
15542.781
1578.9212
3955.7136
15553.975
1656.4985
4012.8903
15561.566
1689.4896
4105.0321
15562.751
1709.9765
4116.6262
15568.024
1745.2401
4058.1396
15570.577
1786.1713
4061.8022
15569.814
1826.666
4093.0221
15576.883
1876.2733
4143.9265
15578.731
1911.7168
4189.4669
15571.306
1908.987
4220.3323
15570.8
1918.7906
4204.0411
15569.352
1945.5703
4173.4507
15566.658
1997.0103
4170.4916
15559.914
2014.1662
4149.6065
15550.25
2135.2638
4250.9175
15492.414
3194.0189
4544.4002
10733.818
3337.6898
4234.3904
5947.5453
1573.0459
1858.656
2153.0531
823.88678
898.17225
956.21402
480.52574
498.71845
509.11156
307.10841
310.96189
311.35335
213.25566
213.69216
212.48414
162.32742
162.13995
161.16408
137.10621
136.95224
136.46773
126.64297
126.61232
126.48209
123.3297
123.40387
123.4664
121.81623
121.86938
121.91225
120.36499
120.42011
120.4653
119.13955
119.18126
119.21425
118.23339
118.25735
118.27335
117.59712
117.60829
117.61193
117.13904
117.14281
117.13944
116.78604
116.7859
116.77902
116.49234
116.49021
116.48178
116.23173
116.22865
116.21969
115.98962
115.98614
115.97716
115.75788
115.75428
115.74555
115.53189
115.52833
115.51999
115.30906
115.30561
115.29773
115.08793
115.08465
115.07724
114.86775
114.86466
114.85773
114.64823
114.64532
114.63886
114.42933
114.42662
114.42062
114.21127
114.20875
114.20318
113.99438
113.99205
113.9869
113.77915
113.777
113.77225
113.56617
113.56418
113.55981
113.35611
113.35429
113.35028
113.14973
113.14806
113.14439
112.94786
112.94634
112.94299
112.75138
112.74999
112.74695
112.5612
112.55994
112.55717
112.37811
112.37698
112.37448
112.20251
112.20148
112.19923
112.03321
112.03229
112.03027
111.8642
111.86337
111.86156
111.67539
111.67466
111.67304
111.4093
111.40865
111.40723
110.91708
110.91651
110.91526
109.84731
109.84681
109.84572
107.44687
107.44643
107.44546
102.26979
102.26942
102.26868
91.893218
91.893252
91.894003
72.959835
72.961715
72.969161
42.3467
42.351769
42.370548
13476.874
13532.246
5993.2027
5327.6722
2082.7781
1880.5841
922.54236
855.42281
493.39995
467.11575
303.54754
291.96266
208.4364
202.94126
159.13945
156.53784
135.59939
134.49521
126.21893
125.84995
123.45815
123.36228
121.90116
121.82342
120.46115
120.40046
119.20869
119.16075
118.26286
118.22392
117.59774
117.56484
117.12348
117.09465
116.76262
116.73668
116.46564
116.44193
116.20418
116.18231
115.96244
115.94218
115.73168
115.71287
115.50698
115.4895
115.28557
115.26931
115.0659
115.05079
114.84717
114.83315
114.62906
114.61605
114.41152
114.39948
114.19476
114.18362
113.97912
113.96883
113.76508
113.7556
113.55322
113.54451
113.34423
113.33623
113.13886
113.13154
112.93794
112.93127
112.74236
112.73628
112.55301
112.5475
112.37071
112.36573
112.19584
112.19135
112.02722
112.02319
111.85883
111.85522
111.67061
111.66739
111.40507
111.40223
110.91337
110.91087
109.84406
109.84187
107.44397
107.44193
102.26753
102.26531
91.895587
91.89346
72.983428
72.984878
42.406519
42.41642
12058.165
2043.1977
685.4053
359.78124
266.00671
236.26314
224.09798
216.34554
209.42923
202.46538
195.30272
187.98814
180.62049
173.30224
166.13199
159.20831
152.6148
146.37657
140.38134
134.25567
127.19983
117.83927
104.30666
85.18206
60.739794
12058.129
2037.5687
695.60679
370.97372
277.19373
247.28236
233.87743
224.60766
216.45488
208.60018
200.84342
193.18363
185.68135
178.37813
171.29989
164.48136
157.94825
151.67146
145.48795
138.97073
131.23726
120.71049
104.88422
80.09423
40.561256
12058.177
2029.618
717.56252
430.08413
359.47294
332.5187
315.16667
300.3742
286.67817
273.57202
260.91108
248.7139
237.06842
225.93805
215.23718
204.94302
195.04094
185.47077
176.05891
166.40715
155.71321
142.51281
124.33978
97.223915
54.339682
12058.528
2030.5079
817.11458
609.91415
552.1991
515.83151
483.39552
453.25097
425.63788
399.81629
375.51915
352.74393
331.74624
312.30246
294.05695
276.94384
260.91822
245.89216
231.69972
218.03808
204.36078
189.69672
172.27481
148.46981
107.27204
12061.53
2149.9632
1232.078
1079.1709
991.48614
909.73369
832.04455
761.11008
697.9222
640.1402
586.94725
538.17298
494.80075
456.06728
420.70058
388.61272
359.66884
333.65073
310.28331
289.22985
270.05699
252.20374
234.92287
217.71438
201.84609
12087.149
3824.9858
2806.9301
2402.3301
2094.6828
1827.1816
1593.0606
1391.1152
1216.5602
1065.8203
936.03277
824.49379
728.86832
646.82868
576.26735
515.6246
463.59471
419.01727
380.8508
348.15624
320.06619
295.78834
274.55932
256.1467
241.61867
10368.082
7902.6224
6093.9214
4784.5122
3816.064
3082.0874
2514.1515
2068.2264
1714.5975
1431.9311
1204.4155
1020.2765
870.68783
748.8058
649.16939
567.41107
500.06135
444.36926
398.1406
359.60615
327.31323
300.06888
276.87367
257.28389
242.33683
4087.4783
3304.1923
2839.8656
2465.2404
2147.4558
1868.4382
1625.3352
1415.0944
1234.7158
1080.1534
947.71396
834.1931
736.72959
652.93829
580.98521
519.28126
466.43219
421.21235
382.53716
349.43799
321.02746
296.50087
275.08075
256.52207
241.88118
1593.4346
1399.9914
1270.7321
1163.29
1061.9849
965.46161
877.05883
799.01293
728.17934
664.05401
606.49383
555.73153
510.19051
468.68507
431.15492
397.38852
367.11258
340.02849
315.80519
294.06755
274.3564
256.09414
238.5205
221.11459
205.05363
773.01854
710.39796
664.86538
624.95909
585.29877
545.77947
508.68166
474.82929
443.52704
414.66924
388.25194
364.16579
341.93394
321.18066
301.82788
283.81393
267.05076
251.41222
236.70404
222.60543
208.5634
193.61503
176.01777
152.1823
111.005
438.39541
415.21226
397.03135
380.3413
363.10994
345.27814
327.81353
311.25526
295.59692
280.84474
267.00653
254.02903
241.75477
230.04395
218.85256
208.15941
197.92406
188.05695
178.35914
168.40754
157.38538
143.82029
125.24372
97.74449
54.850468
279.92486
269.80573
261.46472
253.61739
245.39215
236.68904
227.87423
219.24408
210.89763
202.87482
195.1942
187.84836
180.79682
174.00138
167.4598
161.18467
155.17354
149.36899
143.58835
137.39641
129.90709
119.49401
103.41872
77.510647
36.512403
197.34294
192.45837
188.23294
184.17616
179.90867
175.35669
170.66079
165.98
161.40594
156.9873
152.75257
148.71729
144.88522
141.25977
137.85392
134.68071
131.73286
128.94904
126.15534
122.96714
118.63335
111.79811
100.11323
79.410808
41.019634
153.87812
151.45495
149.25327
147.09581
144.83799
142.45255
140.00429
137.57819
135.23645
133.01641
130.93809
129.01187
127.24197
125.62948
124.17387
122.86796
121.68609
120.56082
119.33965
117.71
115.08665
110.48653
102.52822
90.058412
75.198679
133.32745
132.18849
131.07633
129.94176
128.74998
127.50835
126.25736
125.04512
123.90871
122.87023
121.93529
121.10162
120.36428
119.71724
119.15316
118.65824
118.20445
117.73032
117.09966
116.02538
113.95241
109.92982
102.66198
91.326025
78.577259
125.40806
124.90106
124.32306
123.67014
122.95153
122.1928
121.43091
120.70397
120.04092
119.46268
118.96774
118.54408
118.17893
117.85792
117.57746
117.33527
117.10278
116.81874
116.34238
115.35833
113.20945
108.65658
99.651149
83.330723
54.882061
123.16958
122.87532
122.48315
121.99909
121.43286
120.80017
120.13628
119.4876
118.8988
118.39535
117.99144
117.66675
117.40434
117.19058
117.01368
116.85812
116.69598
116.46354
116.00604
114.96196
112.54952
107.23208
96.307557
75.587095
39.262436
121.66878
121.42463
121.08776
120.66362
120.16795
119.62921
119.08637
118.57875
118.13396
117.7625
117.46126
117.22429
117.03383
116.87791
116.74611
116.62493
116.48745
116.26716
115.7974
114.68391
112.06967
106.27201
94.37144
72.08931
34.920773
120.27466
120.0705
119.78948
119.44407
119.05574
118.65195
118.26061
117.90367
117.59314
117.33121
117.11254
116.93659
116.79146
116.66896
116.56162
116.45806
116.33218
116.11611
115.63783
114.49105
111.79882
105.86023
93.790162
71.585004
35.838261
119.06485
118.91153
118.70509
118.45808
118.18772
117.91238
117.64807
117.40595
117.19151
117.00546
116.8454
116.70822
116.59234
116.49142
116.39991
116.30785
116.18988
115.97835
115.50139
114.35537
111.67641
105.80722
93.987023
72.545487
38.6193
118.15341
118.04577
117.9046
117.73846
117.55809
117.37415
117.19549
117.0282
116.87549
116.73824
116.61568
116.50595
116.41008
116.32419
116.24407
116.16063
116.04929
115.84344
115.37407
114.24596
111.61705
105.8787
94.367348
73.626543
41.380723
117.51166
117.4352
117.33773
117.22425
117.10086
116.97357
116.8474
116.72603
116.61172
116.50553
116.40767
116.31782
116.23552
116.16046
116.08894
116.0124
115.90683
115.70683
115.2465
114.13829
111.55656
105.92114
94.603866
74.161889
42.139858
117.05223
116.99469
116.92337
116.84113
116.75141
116.65768
116.56296
116.46964
116.37941
116.29335
116.21206
116.13578
116.06446
115.99739
115.93262
115.86172
115.7611
115.56623
115.11332
114.0193
111.46621
105.88317
94.645746
74.293384
42.39942
116.70095
116.6547
116.59878
116.53489
116.46509
116.39147
116.316
116.2403
116.16569
116.09316
116.0234
115.95688
115.89373
115.83336
115.77413
115.70796
115.6115
115.4207
114.97271
113.88608
111.34473
105.77773
94.555156
74.204261
42.602113
116.41063
116.37143
116.32496
116.2723
116.21478
116.15378
116.09064
116.02656
115.96258
115.89957
115.83823
115.77906
115.72234
115.66768
115.61294
115.55077
115.45782
115.27015
114.82504
113.74127
111.20294
105.63909
94.41927
74.062323
42.407716
116.15419
116.11976
116.0795
116.03419
115.98475
115.93217
115.87744
115.82148
115.76515
115.7092
115.65428
115.60091
115.54938
115.49938
115.44869
115.39002
115.30009
115.11487
114.67152
113.58882
111.0519
105.49337
94.286743
73.937658
42.232749
115.91655
115.88561
115.84978
115.80966
115.76594
115.71939
115.67078
115.62086
115.57034
115.51989
115.47011
115.4215
115.37433
115.32831
115.2813
115.22567
115.13842
114.95531
114.51335
113.43171
110.89842
105.35497
94.190879
73.923232
42.305069
115.68931
115.66113
115.62871
115.59252
115.55316
115.51122
115.46734
115.42216
115.3763
115.33034
115.28484
115.24026
115.19686
115.15434
115.11053
115.05777
114.97298
114.79187
114.35137
113.27139
110.74375
105.22066
94.108417
73.915606
42.251556
115.46773
115.44186
115.41222
115.37923
115.34337
115.30516
115.26515
115.22389
115.18192
115.13978
115.09796
115.0569
115.01685
114.97745
114.93656
114.88645
114.80401
114.62489
114.18611
113.10846
110.58739
105.08511
94.025729
73.923493
42.116485
115.24916
115.2253
115.19805
115.16776
115.13486
115.09981
115.0631
115.02519
114.9866
114.9478
114.90925
114.87134
114.83429
114.79775
114.75954
114.71196
114.63172
114.45463
114.0179
112.94326
110.42953
104.94793
93.938882
73.919403
42.149268
115.03212
115.01006
114.98491
114.957
114.9267
114.89442
114.8606
114.82567
114.79008
114.75427
114.71866
114.68362
114.64933
114.61542
114.57969
114.53444
114.45635
114.28131
113.84681
112.77555
110.2691
104.80552
93.837247
73.891412
42.265584
114.81584
114.79543
114.77218
114.74641
114.71844
114.68865
114.65744
114.62519
114.59232
114.55924
114.52633
114.49392
114.46219
114.43073
114.39732
114.35425
114.27821
114.10513
113.67288
112.60496
110.10487
104.65389
93.704932
73.763568
42.107167
114.60001
114.58112
114.55963
114.53581
114.50998
114.48247
114.45363
114.42385
114.39348
114.36291
114.3325
114.30255
114.27321
114.24403
114.2128
114.17176
114.09763
113.92639
113.49621
112.43141
109.93699
104.49655
93.565312
73.654674
42.082524
114.38463
114.36716
114.34729
114.32529
114.30142
114.27601
114.24938
114.22188
114.19384
114.16561
114.13753
114.10988
114.08277
114.05575
114.02655
113.98742
113.91505
113.74546
113.3171
112.25504
109.76616
104.33767
93.43165
73.578842
42.204694
114.16989
114.15376
114.13541
114.11509
114.09306
114.06961
114.04503
114.01965
113.99379
113.96776
113.94186
113.91637
113.89137
113.86638
113.83911
113.80176
113.731
113.56287
113.13596
112.07618
109.59257
104.17763
93.303965
73.513926
42.207795
113.95617
113.94128
113.92435
113.90561
113.8853
113.86369
113.84104
113.81765
113.79383
113.76986
113.74602
113.72257
113.69955
113.67648
113.65102
113.61535
113.54607
113.37918
112.95337
111.89525
109.41614
104.01399
93.170026
73.415042
42.014926
113.74393
113.73022
113.71463
113.69738
113.67868
113.65879
113.63795
113.61644
113.59454
113.57251
113.55062
113.52908
113.50794
113.48668
113.46295
113.42885
113.36092
113.19505
112.76995
111.71277
109.23702
103.84657
93.035893
73.356445
42.151801
113.53378
113.52117
113.50685
113.49099
113.47382
113.45555
113.43641
113.41667
113.39657
113.37637
113.35632
113.3366
113.31724
113.2977
113.27558
113.24296
113.17626
113.01123
112.58644
111.52931
109.05514
103.67335
92.891375
73.281876
42.006309
113.32639
113.31483
113.3017
113.28716
113.27142
113.25467
113.23714
113.21906
113.20067
113.1822
113.16388
113.14587
113.1282
113.11028
113.0897
113.05846
112.99288
112.8285
112.40363
111.3456
108.87074
103.49241
92.726489
73.155144
42.082033
113.12254
113.11196
113.09995
113.08665
113.07225
113.05694
113.04093
113.02442
113.00763
112.99079
112.9741
112.95772
112.94163
112.92524
112.90612
112.87618
112.81163
112.64777
112.2225
111.16274
108.68501
103.30515
92.546617
73.004882
42.000076
112.92305
112.9134
112.90244
112.89031
112.87717
112.86322
112.84862
112.83359
112.81832
112.80301
112.78786
112.773
112.75841
112.74348
112.72572
112.69701
112.63342
112.47
112.0442
110.98235
108.5007
103.11677
92.361306
72.853426
41.968145
112.72881
112.72003
112.71005
112.69902
112.68707
112.67439
112.66113
112.64748
112.63363
112.61977
112.60606
112.59264
112.57946
112.56589
112.54942
112.52188
112.45921
112.29621
111.86991
110.806
108.32031
102.93146
92.176761
72.701292
41.944656
112.54072
112.53275
112.5237
112.51369
112.50286
112.49136
112.47936
112.46701
112.45449
112.44198
112.42963
112.41756
112.4057
112.39342
112.37816
112.35172
112.28992
112.12736
111.70063
110.63487
108.14558
102.75264
91.999004
72.550707
41.951834
112.3596
112.35239
112.34421
112.33515
112.32536
112.31497
112.30413
112.293
112.28172
112.27047
112.25939
112.24858
112.23796
112.22688
112.21276
112.18735
112.12639
111.96425
111.53713
110.46958
107.97685
102.58078
91.833147
72.420887
41.741749
112.18582
112.17932
112.17194
112.16377
112.15495
112.14559
112.13583
112.12582
112.11571
112.10563
112.09573
112.08609
112.07663
112.06666
112.0536
112.02916
111.96897
111.80721
111.37968
110.31024
107.81366
102.41321
91.667676
72.280591
41.666438
112.01822
112.01237
112.00573
111.9984
111.99046
111.98206
111.97331
111.96434
111.9553
111.94631
111.9375
111.92894
111.92054
111.9116
111.89953
111.87597
111.8165
111.65509
111.22713
110.15586
107.65546
102.25009
91.503864
72.133083
41.571959
111.85077
111.84553
111.83959
111.83301
111.82591
111.81838
111.81055
111.80254
111.79448
111.7865
111.77869
111.77112
111.7637
111.7557
111.74452
111.72178
111.66297
111.50188
111.0736
110.00088
107.49768
102.08975
91.347817
72.002471
41.500794
111.66343
111.65876
111.65346
111.64759
111.64125
111.63454
111.62757
111.62044
111.61329
111.60622
111.59933
111.59266
111.58612
111.57897
111.56859
111.54657
111.48835
111.3276
110.89917
109.82558
107.32108
101.91403
91.184261
71.88187
41.462112
111.39872
111.3946
111.38992
111.38475
111.37916
111.37322
111.36705
111.36076
111.35445
111.34824
111.34219
111.33634
111.33057
111.32415
111.31445
111.29304
111.23532
111.0749
110.64654
109.57282
107.06881
101.66633
90.956291
71.715658
41.417958
110.90781
110.90425
110.90025
110.89584
110.89107
110.88597
110.88065
110.87521
110.86977
110.86441
110.85918
110.85408
110.84898
110.84315
110.83394
110.81293
110.75553
110.5954
110.16745
109.09482
106.59455
101.20411
90.528779
71.375586
41.24511
109.83924
109.8363
109.83315
109.8298
109.8262
109.82229
109.81812
109.81383
109.80953
109.80523
109.80094
109.79661
109.79212
109.78671
109.77766
109.75661
109.69913
109.53917
109.11231
108.0435
105.55488
100.19686
89.604187
70.638888
40.846997
107.43959
107.43737
107.43549
107.43402
107.4326
107.43092
107.42892
107.42686
107.42476
107.42236
107.4196
107.41641
107.4127
107.40755
107.39808
107.37614
107.31775
107.15777
106.73371
105.67541
103.21748
97.939961
87.539111
68.980937
39.902327
102.26286
102.26133
102.26144
102.26381
102.26688
102.27002
102.27277
102.27589
102.27913
102.28119
102.28197
102.2813
102.27949
102.2748
102.26393
102.2398
102.1793
102.01948
101.60294
100.57165
98.18924
93.100605
83.128804
65.442731
37.866037
91.890213
91.888735
91.890634
91.901111
91.91344
91.927556
91.94011
91.95423
91.969505
91.98186
91.99111
91.997089
92.001717
91.998779
91.984825
91.957411
91.894544
91.737889
91.343033
90.377763
88.169892
83.497964
74.433895
58.538253
34.005644
72.98064
72.975674
72.970462
72.995274
73.025438
73.065815
73.094924
73.125409
73.159368
73.188486
73.212852
73.233645
73.257958
73.260298
73.240846
73.211236
73.151073
73.012484
72.685332
71.87275
70.037271
66.20754
58.887205
46.278027
27.170694
42.412309
42.39608
42.357908
42.39009
42.439327
42.520404
42.563539
42.599797
42.639929
42.675703
42.70861
42.744749
42.799217
42.810419
42.788779
42.764594
42.724076
42.646335
42.501448
42.006989
40.88008
38.563988
34.212118
26.88778
16.163464
)
;

boundaryField
{
    Walls
    {
        Cmu             0.09;
        kappa           0.41;
        E               9.8;
        beta1           0.075;
        type            omegaWallFunction;
        value           nonuniform List<scalar> 
38
(
12058.165
12058.129
12058.177
12058.528
12061.53
12087.149
13476.874
13532.246
14919.269
15026.896
15121.48
15205.316
15270.537
15324.211
15372.112
15412.818
15442.425
15471.679
15491.766
15503.627
15522.094
15540.06
15542.781
15553.975
15561.566
15562.751
15568.024
15570.577
15569.814
15576.883
15578.731
15571.306
15570.8
15569.352
15566.658
15559.914
15550.25
15492.414
)
;
    }
    Inlet
    {
        type            turbulentMixingLengthDissipationRateInlet;
        mixingLength    0.03;
        phi             phi;
        k               k;
        value           nonuniform List<scalar> 3(0.0057652482 0.0047107719 0.0049468106);
    }
    Outlet
    {
        type            inletOutlet;
        inletValue      uniform 1e-05;
        value           nonuniform List<scalar> 
86
(
1e-05
1e-05
1e-05
1e-05
1e-05
1e-05
1e-05
1e-05
1e-05
1e-05
1e-05
1e-05
1e-05
1e-05
1e-05
1e-05
1e-05
1e-05
1e-05
1e-05
1e-05
1e-05
1e-05
1e-05
1e-05
1e-05
1e-05
1e-05
1e-05
1e-05
242.33683
241.88118
205.05363
1e-05
1e-05
1e-05
1e-05
75.198679
78.577259
1e-05
1e-05
1e-05
1e-05
38.6193
41.380723
42.139858
42.39942
42.602113
42.407716
42.232749
42.305069
42.251556
1e-05
1e-05
1e-05
1e-05
1e-05
1e-05
1e-05
1e-05
1e-05
1e-05
1e-05
1e-05
1e-05
1e-05
1e-05
1e-05
1e-05
1e-05
1e-05
1e-05
1e-05
1e-05
1e-05
1e-05
1e-05
1e-05
1e-05
1e-05
1e-05
1e-05
1e-05
1e-05
201.84609
241.61867
)
;
    }
    Front
    {
        type            wedge;
    }
    Back
    {
        type            wedge;
    }
    defaultFaces
    {
        type            empty;
    }
}


// ************************************************************************* //
