/*--------------------------------*- C++ -*----------------------------------*\
| =========                 |                                                 |
| \\      /  F ield         | OpenFOAM: The Open Source CFD Toolbox           |
|  \\    /   O peration     | Version:  4.0                                   |
|   \\  /    A nd           | Web:      www.OpenFOAM.org                      |
|    \\/     M anipulation  |                                                 |
\*---------------------------------------------------------------------------*/
FoamFile
{
    version     2.0;
    format      ascii;
    class       volScalarField;
    location    "0.1";
    object      p;
}
// * * * * * * * * * * * * * * * * * * * * * * * * * * * * * * * * * * * * * //

dimensions      [0 2 -2 0 0 0 0];

internalField   nonuniform List<scalar> 
1740
(
491.53386
491.53331
491.61157
474.62624
474.66945
474.97688
457.96654
458.25321
458.69938
442.08191
442.36152
442.49333
426.31987
426.20276
426.15993
409.97295
410.06127
410.16904
393.57931
393.92066
393.92494
377.33414
377.34645
377.19945
360.8957
360.86047
360.65521
344.09737
344.01493
343.86407
327.20875
326.91524
326.9177
310.40212
310.30076
310.34865
293.95446
294.04679
294.19576
278.00676
277.92352
278.11418
261.74961
261.78579
261.81489
244.91067
245.07615
244.96211
228.0937
228.121
228.0507
211.7345
211.58994
211.67622
195.21087
195.11756
195.13985
178.32759
178.49074
178.40206
161.71756
161.84938
161.79136
144.84391
144.86252
144.90665
127.7142
127.64459
127.69274
110.85211
110.74839
110.80011
94.093203
94.080297
94.211553
77.644994
77.744422
77.674311
61.514787
61.413485
61.093319
45.504148
45.112823
44.83887
30.078606
29.894111
29.757941
15.647373
15.580745
15.346649
3.8059845
3.3187852
1.5637205
-0.8374939
-0.73780456
-0.48532002
-0.31824806
-0.27927081
-0.21005269
-0.14362519
-0.12281905
-0.095125915
-0.092059071
-0.081414631
-0.065266806
-0.067279927
-0.061860517
-0.052850528
-0.052889895
-0.05008086
-0.045043623
-0.043023668
-0.041442054
-0.038519479
-0.035560005
-0.034655859
-0.032912094
-0.029782999
-0.029245958
-0.02817257
-0.02536015
-0.025031844
-0.024355214
-0.021989404
-0.021782344
-0.0213442
-0.019380254
-0.019245316
-0.018953055
-0.017300461
-0.017209431
-0.017008529
-0.015584274
-0.015520834
-0.01537873
-0.014128185
-0.014082758
-0.013979712
-0.012868531
-0.012835012
-0.012758254
-0.011762215
-0.01173668
-0.011677786
-0.010777967
-0.010757914
-0.010711409
-0.0098923344
-0.0098761272
-0.0098384242
-0.0090874173
-0.0090739773
-0.0090426637
-0.0083495124
-0.0083381002
-0.0083115137
-0.0076683988
-0.0076584823
-0.0076354214
-0.0070365525
-0.0070277588
-0.007007361
-0.0064477945
-0.0064398928
-0.0064216059
-0.005896958
-0.0058898075
-0.0058733092
-0.0053806875
-0.0053741859
-0.0053592378
-0.0048970713
-0.0048911379
-0.0048775397
-0.0044445997
-0.0044391759
-0.004426778
-0.0040219483
-0.0040169938
-0.0040056934
-0.0036280193
-0.0036235036
-0.003613225
-0.0032618338
-0.0032577321
-0.0032484132
-0.0029224478
-0.0029187388
-0.0029103255
-0.0026088962
-0.0026055599
-0.0025980025
-0.0023201533
-0.0023171703
-0.0023104199
-0.0020551094
-0.002052459
-0.0020464663
-0.001812562
-0.0018102226
-0.0018049362
-0.0015912196
-0.0015891687
-0.0015845362
-0.001389711
-0.0013879258
-0.0013838947
-0.0012065964
-0.0012050545
-0.0012015735
-0.0010403816
-0.0010390614
-0.0010360808
-0.00088953063
-0.00088841122
-0.00088588375
-0.00075247674
-0.00075153853
-0.00074941984
-0.00062763082
-0.00062685578
-0.00062510524
-0.00051338621
-0.00051275821
-0.00051133947
-0.00040811723
-0.00040762228
-0.00040650386
-0.00031016612
-0.00030979264
-0.00030894849
-0.00021783593
-0.000217575
-0.00021698489
-0.00012929016
-0.00012913589
-0.00012878672
-4.2897815e-05
-4.2847021e-05
-4.2731589e-05
-1.3566087
-0.95163117
-0.37570038
-0.28328075
-0.16173206
-0.13362659
-0.07568115
-0.063528641
-0.051237199
-0.041495112
-0.043994087
-0.036791001
-0.039610602
-0.034524163
-0.035147059
-0.031692134
-0.030748517
-0.028383078
-0.026765297
-0.025145411
-0.023424704
-0.022304244
-0.020717897
-0.019932068
-0.018521757
-0.017962078
-0.016704174
-0.016298244
-0.01515903
-0.014858812
-0.013817509
-0.013591139
-0.012635563
-0.012461399
-0.011582624
-0.011445796
-0.010635745
-0.010526035
-0.0097768443
-0.0096871193
-0.0089914336
-0.0089166266
-0.0082680225
-0.008204512
-0.0075977863
-0.0075429551
-0.0069742058
-0.0069260813
-0.0063920128
-0.0063492218
-0.0058467131
-0.005808455
-0.0053352478
-0.0053009004
-0.0048557991
-0.0048247988
-0.0044070212
-0.0043789646
-0.003987743
-0.0039623525
-0.0035969456
-0.0035740002
-0.0032336922
-0.0032130092
-0.0028970649
-0.002878485
-0.002586113
-0.0025694924
-0.0022998161
-0.0022850206
-0.0020370635
-0.002023963
-0.0017966491
-0.0017851161
-0.0015772789
-0.0015671879
-0.0013775825
-0.0013688114
-0.0011961241
-0.0011885554
-0.0010314154
-0.0010249371
-0.00088192758
-0.00087643434
-0.00074610314
-0.0007414975
-0.00062236437
-0.00061855774
-0.0005091176
-0.00050603111
-0.00040475184
-0.00040231735
-0.00030762569
-0.00030578708
-0.00021605997
-0.00021477414
-0.00012823944
-0.00012747855
-4.2550637e-05
-4.2299005e-05
-0.016929615
-0.016623464
-0.015903028
-0.014774034
-0.013351517
-0.01179597
-0.010255441
-0.0087992285
-0.0075144894
-0.0063843826
-0.0054302849
-0.0046365385
-0.0039803235
-0.0034378218
-0.0029903306
-0.0026044413
-0.0022608447
-0.0019486305
-0.0016585093
-0.001383045
-0.0011175512
-0.00085943801
-0.0006076765
-0.00036243276
-0.00012243339
-0.01690239
-0.016574657
-0.015746549
-0.014483741
-0.012975675
-0.011411046
-0.0099198771
-0.0085586739
-0.0073468447
-0.0063379385
-0.0054987867
-0.0048000254
-0.0042124133
-0.0037093953
-0.0032649173
-0.0028709231
-0.0025147848
-0.0021838939
-0.0018701687
-0.0015677614
-0.0012727384
-0.00098288221
-0.00069621507
-0.00041384465
-0.00013366985
-0.020114718
-0.019636759
-0.018627825
-0.017191032
-0.015664689
-0.014300907
-0.013215937
-0.012400265
-0.011697218
-0.011027007
-0.010352986
-0.0096566541
-0.0089394896
-0.0082068663
-0.0074629857
-0.0067133399
-0.0059617058
-0.0052110756
-0.0044656078
-0.0037295945
-0.0030068139
-0.0023005701
-0.0016140778
-0.00094349507
-0.00028913674
-0.036608439
-0.035706938
-0.034230642
-0.032890373
-0.031889062
-0.030975938
-0.02994418
-0.028707512
-0.027296929
-0.025740641
-0.024067289
-0.022294736
-0.020471466
-0.018624539
-0.016764186
-0.014909397
-0.013078974
-0.011289166
-0.0095528369
-0.0078798024
-0.0062771655
-0.0047490147
-0.0032953918
-0.0019098406
-0.00059284661
-0.090387926
-0.087173247
-0.08365326
-0.078602488
-0.073463533
-0.068116988
-0.062749884
-0.057444785
-0.052260048
-0.047245033
-0.042480261
-0.037952422
-0.033692683
-0.029656312
-0.025824259
-0.022278236
-0.019016306
-0.016022682
-0.013277651
-0.010759538
-0.0084466504
-0.0063174975
-0.0043531634
-0.0025300908
-0.00083540321
-0.25644316
-0.20810979
-0.18262768
-0.14918918
-0.12205051
-0.098668589
-0.078990807
-0.062960707
-0.050027578
-0.039598766
-0.031208336
-0.024555561
-0.019289449
-0.015104983
-0.011813065
-0.0092058847
-0.0071470668
-0.0055238028
-0.0042430906
-0.0032276527
-0.0024147389
-0.0017518101
-0.0012017777
-0.00072293114
-0.00033823788
-0.3559011
-0.14504988
-0.093526519
-0.056623566
-0.022930448
0.0038462317
0.021030578
0.029669469
0.032937098
0.033434909
0.032386202
0.030383468
0.027822474
0.024992063
0.022082401
0.019213619
0.016459717
0.013864094
0.011448326
0.0092220373
0.0071802511
0.0053122823
0.003591419
0.0020180232
0.00047997681
-0.22368012
-0.18988273
-0.16018934
-0.13287268
-0.10843002
-0.087183378
-0.069388802
-0.054925446
-0.04336989
-0.034020909
-0.026597566
-0.020742848
-0.016200224
-0.012592288
-0.0097391511
-0.007500672
-0.0057539421
-0.0043978024
-0.0033511009
-0.0025335473
-0.001889239
-0.0013719337
-0.00094915738
-0.00058176691
-0.00029947552
-0.11814234
-0.10557548
-0.095350252
-0.086844377
-0.079343076
-0.072386259
-0.065875025
-0.059733098
-0.053880285
-0.048525069
-0.043474868
-0.038688016
-0.034115151
-0.029880623
-0.025988808
-0.02242111
-0.019153475
-0.016161317
-0.013430203
-0.010903415
-0.0085727988
-0.0064219992
-0.0044318927
-0.0025800668
-0.0008564627
-0.05530515
-0.048599802
-0.043935178
-0.040876142
-0.038674276
-0.036819376
-0.035058461
-0.033265809
-0.031370766
-0.02941537
-0.027379085
-0.025287293
-0.023161058
-0.021016539
-0.018873327
-0.01675219
-0.014671919
-0.012646991
-0.01067736
-0.0088027092
-0.0070136792
-0.0053080523
-0.0036842103
-0.0021355752
-0.00066416791
-0.03399786
-0.028167184
-0.023418023
-0.01992263
-0.017644565
-0.0163609
-0.015383306
-0.014684556
-0.014052851
-0.013418736
-0.012735181
-0.011991416
-0.011190923
-0.010340178
-0.009447723
-0.0085236221
-0.0075803189
-0.0066337294
-0.0056839672
-0.0047476107
-0.0038292124
-0.0029312132
-0.002055469
-0.0011995856
-0.00036575673
-0.030661698
-0.025303499
-0.02080191
-0.017064754
-0.01405721
-0.011598759
-0.0098530509
-0.0085677116
-0.0076115748
-0.00689501
-0.0063216723
-0.0058287012
-0.0053788623
-0.0049498059
-0.0045283057
-0.0041060403
-0.0036817407
-0.003246674
-0.0028054465
-0.0023650676
-0.0019262667
-0.0014880086
-0.0010530577
-0.00062280238
-0.00019677142
-0.029731408
-0.025317493
-0.021390574
-0.017951497
-0.015056008
-0.012671649
-0.010772984
-0.009198459
-0.0079442714
-0.0069383356
-0.0061222638
-0.0054441035
-0.0048647412
-0.0043527846
-0.0038868058
-0.0034551587
-0.0030478959
-0.002657198
-0.0022757971
-0.0019006198
-0.0015320037
-0.0011739155
-0.00082652321
-0.00048970607
-0.00016190873
-0.028225798
-0.024829861
-0.021622526
-0.018661557
-0.016016281
-0.013719449
-0.01177394
-0.010120132
-0.008732244
-0.0075770868
-0.0066176728
-0.0058160662
-0.005134633
-0.0045441827
-0.0040219718
-0.0035491976
-0.0031076843
-0.002687569
-0.0022863536
-0.0019008561
-0.0015289324
-0.0011695287
-0.00082222949
-0.00048659233
-0.00016188648
-0.026006256
-0.023532575
-0.02101651
-0.018574266
-0.016287286
-0.014204581
-0.012353109
-0.010728034
-0.009319275
-0.0081067374
-0.0070680608
-0.0061776161
-0.0054106517
-0.0047438269
-0.0041562993
-0.0036300896
-0.0031498843
-0.0027047713
-0.0022878488
-0.0018930938
-0.0015163201
-0.001156271
-0.0008112358
-0.00047940133
-0.00015904482
-0.023370228
-0.021552468
-0.019677631
-0.017768253
-0.015897403
-0.014119023
-0.01246948
-0.010968312
-0.0096217063
-0.0084260353
-0.0073711221
-0.0064440058
-0.0056288283
-0.0049099207
-0.0042718918
-0.0036997114
-0.003180825
-0.0027055037
-0.0022665183
-0.0018596657
-0.0014810655
-0.0011247693
-0.00078676369
-0.00046298506
-0.0001516232
-0.021030941
-0.019640812
-0.018194378
-0.016708866
-0.015200569
-0.013713763
-0.012287789
-0.010947588
-0.009708302
-0.0085760741
-0.0075510446
-0.0066290538
-0.0058025988
-0.0050623952
-0.0043983418
-0.0037994416
-0.0032561942
-0.0027604748
-0.0023054527
-0.0018858542
-0.0014968216
-0.0011333113
-0.00079089869
-0.00046521211
-0.00015242617
-0.01900799
-0.017967959
-0.016842963
-0.015657064
-0.014427397
-0.013185343
-0.011963809
-0.010784549
-0.0096668823
-0.008621506
-0.0076537655
-0.0067648638
-0.0059525308
-0.0052122752
-0.0045389259
-0.0039258752
-0.0033664727
-0.0028543599
-0.0023835785
-0.0019491639
-0.001546222
-0.0011699469
-0.00081597929
-0.00047965506
-0.00015671717
-0.017282745
-0.016493999
-0.015607977
-0.014657563
-0.013650982
-0.012613166
-0.011569365
-0.010540739
-0.0095448711
-0.008593879
-0.0076957326
-0.0068547157
-0.0060724045
-0.0053479167
-0.0046788194
-0.0040619753
-0.0034933623
-0.0029687108
-0.0024835602
-0.0020335846
-0.0016145333
-0.0012220866
-0.00085215734
-0.00050031199
-0.00016316152
-0.01579166
-0.015188088
-0.014499091
-0.013723899
-0.012894531
-0.012024721
-0.011133479
-0.010238839
-0.0093563553
-0.0084982507
-0.0076733742
-0.006887677
-0.0061448036
-0.0054462619
-0.0047918958
-0.0041806306
-0.0036106828
-0.0030795073
-0.0025841051
-0.0021210979
-0.0016870503
-0.0012784922
-0.00089188099
-0.00052349716
-0.00017051147
-0.014475068
-0.014007174
-0.013458527
-0.012835888
-0.01215143
-0.011421388
-0.010660573
-0.0098839276
-0.0091049281
-0.0083349282
-0.0075828614
-0.0068555002
-0.0061574986
-0.0054918156
-0.0048599373
-0.004262311
-0.0036985402
-0.0031674561
-0.0026673107
-0.0021958666
-0.0017506154
-0.0013289143
-0.00092800938
-0.00054502535
-0.00017746422
-0.013296135
-0.012930261
-0.012488838
-0.011985164
-0.011419228
-0.01080562
-0.010156029
-0.009482656
-0.0087968988
-0.0081088752
-0.0074270769
-0.0067583425
-0.0061078727
-0.0054794223
-0.0048755155
-0.0042976321
-0.0037463782
-0.0032216406
-0.0027226943
-0.0022483146
-0.0017969055
-0.0013666269
-0.00095556858
-0.00056161352
-0.00018281728
-0.01223061
-0.011939274
-0.011584552
-0.011170896
-0.010702059
-0.010184876
-0.0096295847
-0.0090457568
-0.0084429163
-0.0078298124
-0.0072141574
-0.0066024797
-0.0060001041
-0.0054111703
-0.0048387471
-0.0042849645
-0.0037512355
-0.0032382366
-0.0027460355
-0.0022742345
-0.001822041
-0.0013883953
-0.0009720971
-0.00057169142
-0.00018582946
-0.01126217
-0.011027397
-0.010738786
-0.010396716
-0.010004864
-0.0095676065
-0.0090916895
-0.0085847961
-0.0080547701
-0.0075090767
-0.006954472
-0.0063969607
-0.0058416944
-0.0052928784
-0.0047538737
-0.0042272331
-0.0037148196
-0.0032179017
-0.0027372099
-0.0022729999
-0.0018251506
-0.0013932661
-0.00097678379
-0.00057478836
-0.00018652895
-0.010377444
-0.010185685
-0.0099478323
-0.0096626735
-0.0093327279
-0.0089606233
-0.008551158
-0.0081099623
-0.0076431077
-0.0071574278
-0.0066583503
-0.0061513507
-0.0056411786
-0.0051319652
-0.0046271303
-0.0041294299
-0.0036410628
-0.003163673
-0.0026984339
-0.0022461199
-0.0018071889
-0.0013817851
-0.00096988661
-0.00057109387
-0.00018526401
-0.0095648489
-0.0094059569
-0.0092074575
-0.0089674669
-0.0086873394
-0.0083685365
-0.0080143771
-0.0076291354
-0.007217637
-0.0067843641
-0.0063351931
-0.0058746983
-0.0054070413
-0.004936233
-0.0044654594
-0.0039976013
-0.0035350719
-0.0030797452
-0.0026331039
-0.0021963082
-0.0017702122
-0.0013554327
-0.00095239828
-0.00056110262
-0.00018187882
-0.0088143283
-0.0086808006
-0.0085130713
-0.0083090795
-0.0080691592
-0.0077941006
-0.0074860728
-0.0071481843
-0.006784169
-0.0063980616
-0.0059937733
-0.0055753924
-0.0051472341
-0.004713259
-0.0042758689
-0.0038380682
-0.0034024859
-0.0029710053
-0.0025453275
-0.0021268828
-0.001716842
-0.00131616
-0.00092562375
-0.00054555829
-0.00017670871
-0.0081175648
-0.0080037946
-0.0078603797
-0.007685431
-0.0074779995
-0.0072390776
-0.0069696961
-0.0066720788
-0.0063490732
-0.0060039209
-0.0056400582
-0.0052611162
-0.0048703406
-0.0044705072
-0.0040651742
-0.0036569318
-0.003248962
-0.0028424853
-0.0024394456
-0.0020414912
-0.0016500102
-0.0012661994
-0.00089112553
-0.00052539953
-0.00017005104
-0.007467934
-0.0073697755
-0.0072458791
-0.007094368
-0.0069135373
-0.0067046881
-0.0064678927
-0.0062047037
-0.0059172822
-0.0056082113
-0.0052803436
-0.0049366697
-0.0045801063
-0.0042134614
-0.0038397832
-0.0034616042
-0.0030804341
-0.0026992135
-0.0023197794
-0.0019437688
-0.001572678
-0.0012078449
-0.00085052614
-0.00050160272
-0.00016224477
-0.0068604125
-0.0067746657
-0.006666503
-0.0065340375
-0.006375736
-0.0061918681
-0.0059827415
-0.005749167
-0.0054927787
-0.00521562
-0.0049200257
-0.0046085024
-0.0042836082
-0.0039479026
-0.0036039511
-0.0032540854
-0.0029003539
-0.0025450441
-0.0021900578
-0.0018371423
-0.0014878755
-0.0011436913
-0.00080591435
-0.00047538416
-0.00015362348
-0.0062910959
-0.0062154326
-0.0061201218
-0.0060033842
-0.0058639643
-0.0057013884
-0.0055158768
-0.0053079627
-0.0050788179
-0.004830031
-0.0045634972
-0.0042813184
-0.0039857106
-0.0036789408
-0.0033632738
-0.0030408848
-0.0027138377
-0.0023841733
-0.0020537718
-0.0017243699
-0.0013975797
-0.001074891
-0.00075772472
-0.00044703957
-0.00014436803
-0.0057566949
-0.0056894776
-0.005604915
-0.0055014375
-0.0053778595
-0.0052336126
-0.0050685712
-0.0048831059
-0.0046780579
-0.0044546295
-0.0042143612
-0.0039590063
-0.003690481
-0.00341078
-0.003121926
-0.0028259208
-0.0025247148
-0.0022202064
-0.0019142005
-0.0016083992
-0.0013044054
-0.0010037201
-0.00070780541
-0.00041764219
-0.00013477285
-0.0052545766
-0.0051945804
-0.0051192556
-0.0050271806
-0.0049172918
-0.0047889335
-0.0046418403
-0.0044762079
-0.0042926155
-0.0040919764
-0.0038755367
-0.0036447592
-0.003401295
-0.0031468939
-0.0028833617
-0.0026125227
-0.0023361843
-0.002056118
-0.0017740361
-0.0014915784
-0.0012103092
-0.00093171079
-0.00065724012
-0.00038784811
-0.00012505168
-0.0047831523
-0.0047294068
-0.0046621272
-0.0045800335
-0.0044821183
-0.0043677188
-0.0042365107
-0.0040885173
-0.0039241338
-0.0037440626
-0.0035493134
-0.0033411108
-0.0031208562
-0.0028900811
-0.0026503918
-0.002403441
-0.0021508873
-0.001894375
-0.0016355129
-0.0013758614
-0.0011169255
-0.00086014444
-0.00060695972
-0.00035819734
-0.00011537818
-0.0043414383
-0.004293192
-0.004232983
-0.0041596668
-0.0040723257
-0.0039702903
-0.0038531862
-0.003720955
-0.0035738527
-0.0034124222
-0.0032374666
-0.0030500096
-0.0028512434
-0.0026424982
-0.0024252011
-0.0022008316
-0.0019709011
-0.0017369244
-0.0015004015
-0.0012627997
-0.0010255496
-0.0007900297
-0.00055767837
-0.00032915439
-0.00010590692
-0.0039285291
-0.0038851949
-0.0038312717
-0.0037657589
-0.0036878121
-0.0035967896
-0.0034922994
-0.0033742285
-0.0032427328
-0.0030982232
-0.0029413463
-0.0027729478
-0.0025940451
-0.0024057935
-0.0022094426
-0.0020063169
-0.0017977817
-0.001585222
-0.0013700211
-0.0011535458
-0.00093714001
-0.000722103
-0.00050992816
-0.00030104067
-9.6763686e-05
-0.0035435442
-0.0035046507
-0.0034563852
-0.0033978742
-0.0033283476
-0.0032472082
-0.0031540706
-0.0030487819
-0.0029314238
-0.0028023032
-0.0026619387
-0.0025110331
-0.0023504526
-0.002181194
-0.0020043551
-0.0018211123
-0.0016326907
-0.0014403486
-0.001245351
-0.0010489546
-0.0008524125
-0.00065689884
-0.00046422999
-0.00027414412
-8.7908293e-05
-0.0031856439
-0.0031508009
-0.0031076752
-0.0030554925
-0.0029935646
-0.0029213469
-0.0028384696
-0.0027447564
-0.0026402336
-0.0025251264
-0.0023998482
-0.0022649836
-0.0021212675
-0.0019695609
-0.0018108253
-0.0016461011
-0.0014764836
-0.0013031059
-0.0011271192
-0.00094967831
-0.00077193247
-0.00059497152
-0.00042056308
-0.00024847763
-7.9480738e-05
-0.0028539735
-0.0028228482
-0.0027844107
-0.0027379773
-0.0026829391
-0.0026188038
-0.0025452226
-0.0024620093
-0.0023691504
-0.0022668072
-0.0021553082
-0.0020351372
-0.0019069164
-0.001771387
-0.0016293891
-0.00148184
-0.0013297157
-0.0011740333
-0.0010158352
-0.00085617646
-0.00069611461
-0.00053669922
-0.00037921703
-0.00022387147
-7.1670861e-05
-0.0025476207
-0.0025199132
-0.0024857618
-0.0024445661
-0.0023957895
-0.0023389891
-0.0022738409
-0.002200157
-0.002117897
-0.0020271726
-0.0019282435
-0.0018215087
-0.0017074939
-0.0015868351
-0.001460263
-0.0013285844
-0.0011926656
-0.001053416
-0.00091177343
-0.00076869243
-0.00062513455
-0.00048206115
-0.00034053059
-0.00020093906
-6.4256917e-05
-0.0022655897
-0.0022410215
-0.0022107891
-0.0021743692
-0.0021312876
-0.002081147
-0.00202365
-0.0019586122
-0.0018859761
-0.0018058151
-0.001718333
-0.0016238582
-0.0015228334
-0.0014158035
-0.0013034019
-0.0011863354
-0.0010653691
-0.00094131182
-0.00081500264
-0.00068729845
-0.00055906328
-0.00043116004
-0.00030450966
-0.00017960375
-5.7369194e-05
-0.0020067852
-0.0019850972
-0.0019584439
-0.001926375
-0.0018884705
-0.0018443748
-0.0017938147
-0.0017366143
-0.0016727054
-0.0016021326
-0.0015250546
-0.0014417404
-0.0013525622
-0.0012579853
-0.001158557
-0.0010548939
-0.00094766885
-0.00083759796
-0.00072542792
-0.00061192368
-0.0004978568
-0.00038399583
-0.00027115336
-0.00015984948
-5.0946026e-05
-0.0017700119
-0.001750963
-0.0017275758
-0.0016994625
-0.0016662568
-0.0016276398
-0.001583361
-0.001533255
-0.0014772475
-0.0014153616
-0.0013477198
-0.0012745417
-0.0011961387
-0.001112907
-0.0010253177
-0.00093390662
-0.00083926289
-0.0007420174
-0.00064283161
-0.00054238611
-0.00044136824
-0.00034046062
-0.00024037954
-0.0001416092
-4.4981233e-05
-0.0015539846
-0.0015373478
-0.0015169371
-0.0014924148
-0.0014634625
-0.0014297994
-0.0013911982
-0.0013475032
-0.0012986369
-0.0012446067
-0.0011855057
-0.0011215121
-0.0010528859
-0.00097996287
-0.00090314705
-0.00082290183
-0.00073974052
-0.00065421624
-0.00056691211
-0.00047843097
-0.00038938489
-0.00030038372
-0.0002120668
-0.0001248772
-3.9585785e-05
-0.0013573431
-0.0013429023
-0.0013251948
-0.001303926
-0.001278818
-0.0012496237
-0.001216143
-0.0011782302
-0.0011358068
-0.0010888682
-0.0010374833
-0.00098179617
-0.00092202283
-0.00085844658
-0.00079141235
-0.00072131907
-0.00064861172
-0.00057377281
-0.00049731374
-0.00041976604
-0.00034167252
-0.0002635798
-0.00018607127
-0.00010957302
-3.4747409e-05
-0.001178664
-0.001166214
-0.0011509517
-0.0011326215
-0.0011109814
-0.0010858147
-0.0010569434
-0.0010242353
-0.00098761543
-0.00094706877
-0.00090264478
-0.00085445934
-0.00080269063
-0.0007475763
-0.00068940953
-0.00062853213
-0.00056532795
-0.00050021589
-0.00043364238
-0.00036607439
-0.00029799229
-0.00022988626
-0.00016228096
-9.5582778e-05
-3.0339729e-05
-0.0010164727
-0.0010058207
-0.00099276346
-0.00097708059
-0.00095856259
-0.00093702001
-0.00091229437
-0.00088426743
-0.00085286812
-0.00081807574
-0.00077992619
-0.00073850992
-0.00069397319
-0.00064651435
-0.00059638133
-0.00054386523
-0.00048929526
-0.0004330334
-0.00037546775
-0.00031700668
-0.0002580736
-0.00019910425
-0.00014056312
-8.2796112e-05
-2.628379e-05
-0.00086925722
-0.00086022498
-0.00084915215
-0.00083585023
-0.00082013852
-0.00080185264
-0.00078085339
-0.00075703528
-0.0007303319
-0.00070072052
-0.00066822518
-0.00063291694
-0.00059491473
-0.00055438394
-0.00051153168
-0.00046660452
-0.00041988301
-0.00037167791
-0.00032232408
-0.00027217605
-0.00022160316
-0.00017098599
-0.00012072551
-7.1108566e-05
-2.2561576e-05
-0.00073547939
-0.00072790436
-0.00071861571
-0.00070745345
-0.00069426321
-0.00067890385
-0.00066125482
-0.00064122305
-0.00061874807
-0.0005938062
-0.00056641274
-0.00053662333
-0.00050453428
-0.00047028147
-0.00043403727
-0.00039600842
-0.00035643257
-0.00031557304
-0.00027371572
-0.00023116444
-0.00018823621
-0.00014525658
-0.00010256555
-6.0408452e-05
-1.9154572e-05
-0.0006135826
-0.00060731857
-0.00059963477
-0.00059039704
-0.00057947529
-0.00056675016
-0.00055211883
-0.00053550073
-0.00051684215
-0.00049611977
-0.00047334279
-0.00044855435
-0.00042183161
-0.00039328493
-0.00036305629
-0.00033131714
-0.00029826552
-0.00026412198
-0.00022912661
-0.00019353516
-0.0001576143
-0.00012163709
-8.5888733e-05
-5.0581863e-05
-1.6029653e-05
-0.00050199606
-0.00049691391
-0.00049067734
-0.00048317595
-0.00047430227
-0.00046395736
-0.00045205537
-0.00043852824
-0.00042332967
-0.000406438
-0.00038785828
-0.0003676234
-0.0003457943
-0.00032245944
-0.00029773371
-0.00027175665
-0.00024469004
-0.00021671505
-0.00018802918
-0.00015884282
-0.00012937512
-9.9850086e-05
-7.0503134e-05
-4.1516381e-05
-1.315041e-05
-0.00039913373
-0.00039512259
-0.0003901984
-0.00038427297
-0.00037726012
-0.00036908018
-0.00035966366
-0.00034895505
-0.00033691589
-0.00032352729
-0.00030879156
-0.00029273324
-0.00027539937
-0.0002568592
-0.00023720332
-0.00021654212
-0.00019500414
-0.00017273381
-0.00014988884
-0.00012663724
-0.00010315381
-7.9617114e-05
-5.6216e-05
-3.3099788e-05
-1.0480018e-05
-0.000303382
-0.00030035085
-0.0002966285
-0.00029214775
-0.00028684275
-0.00028065226
-0.00027352273
-0.00026541108
-0.00025628714
-0.00024613552
-0.00023495696
-0.00022276914
-0.00020960697
-0.00019552241
-0.00018058387
-0.00016487502
-0.00014849348
-0.00013154924
-0.00011416258
-9.646174e-05
-7.8580198e-05
-6.0654307e-05
-4.2828408e-05
-2.5215858e-05
-7.9792181e-06
-0.0002130918
-0.00021097104
-0.00020836607
-0.00020522963
-0.00020151534
-0.00019718
-0.0001921856
-0.0001865015
-0.00018010602
-0.00017298787
-0.00016514706
-0.00015659551
-0.00014735727
-0.00013746848
-0.00012697691
-0.00011594123
-0.00010443002
-9.2520598e-05
-8.0297676e-05
-6.7851749e-05
-5.527716e-05
-4.2670442e-05
-3.0132941e-05
-1.7741019e-05
-5.6093914e-06
-0.00012648294
-0.00012522767
-0.00012368546
-0.00012182815
-0.00011962816
-0.00011705973
-0.00011410032
-0.00011073161
-0.00010694058
-0.00010272031
-9.8070556e-05
-9.2998185e-05
-8.75173e-05
-8.1649203e-05
-7.5422135e-05
-6.8870866e-05
-6.2036102e-05
-5.4963786e-05
-4.77043e-05
-4.0311589e-05
-3.2842102e-05
-2.5353666e-05
-1.7907122e-05
-1.0543261e-05
-3.3309266e-06
-4.1969703e-05
-4.1554436e-05
-4.1044093e-05
-4.0429199e-05
-3.9700512e-05
-3.8849556e-05
-3.7868821e-05
-3.6752264e-05
-3.5495537e-05
-3.4096273e-05
-3.2554321e-05
-3.0871891e-05
-2.9053641e-05
-2.7106625e-05
-2.5040202e-05
-2.2865894e-05
-2.0597209e-05
-1.82494e-05
-1.5839205e-05
-1.33846e-05
-1.0904508e-05
-8.4184003e-06
-5.9477389e-06
-3.5029275e-06
-1.10584e-06
)
;

boundaryField
{
    Walls
    {
        type            zeroGradient;
    }
    Inlet
    {
        type            fixedValue;
        value           uniform 500;
    }
    Outlet
    {
        type            fixedValue;
        value           uniform 0;
    }
    Front
    {
        type            wedge;
    }
    Back
    {
        type            wedge;
    }
    defaultFaces
    {
        type            empty;
    }
}


// ************************************************************************* //
