/*--------------------------------*- C++ -*----------------------------------*\
| =========                 |                                                 |
| \\      /  F ield         | OpenFOAM: The Open Source CFD Toolbox           |
|  \\    /   O peration     | Version:  4.0                                   |
|   \\  /    A nd           | Web:      www.OpenFOAM.org                      |
|    \\/     M anipulation  |                                                 |
\*---------------------------------------------------------------------------*/
FoamFile
{
    version     2.0;
    format      ascii;
    class       surfaceScalarField;
    location    "0.1";
    object      phi;
}
// * * * * * * * * * * * * * * * * * * * * * * * * * * * * * * * * * * * * * //

dimensions      [0 3 -1 0 0 0 0];

internalField   nonuniform List<scalar> 
3364
(
1.4435833e-11
1.6286671e-08
-2.2285925e-10
4.9625037e-08
8.8071967e-08
-1.3716786e-10
1.6423808e-08
-1.0656591e-09
5.0553505e-08
8.7006266e-08
-4.4336124e-10
1.6867166e-08
-1.0497172e-09
5.1159835e-08
8.5956486e-08
-1.9307738e-10
1.7060213e-08
-4.7727286e-10
5.1444004e-08
8.5479181e-08
4.9043852e-10
1.656971e-08
-8.4186306e-10
5.2776263e-08
8.4637315e-08
-1.4968515e-10
1.6719335e-08
-8.7962072e-10
5.3506156e-08
8.3757679e-08
-6.7865748e-10
1.7397953e-08
4.5818979e-10
5.2369257e-08
8.4215826e-08
-2.1373219e-11
1.7419292e-08
8.374081e-10
5.1510422e-08
8.5053198e-08
-9.0222021e-11
1.7509465e-08
1.7042062e-10
5.1249726e-08
8.5223579e-08
-3.0636862e-10
1.7815801e-08
-4.1354183e-10
5.1356886e-08
8.4810006e-08
5.137828e-10
1.7302011e-08
-4.92886e-10
5.2363557e-08
8.4317107e-08
4.6984494e-10
1.6832126e-08
4.4328527e-10
5.2390103e-08
8.4760376e-08
3.6069829e-11
1.6795985e-08
5.9181111e-10
5.1834289e-08
8.5352139e-08
1.4215877e-10
1.665379e-08
-4.7685222e-10
5.2453213e-08
8.4875226e-08
-1.5902531e-10
1.6812801e-08
-3.0431233e-11
5.2324585e-08
8.4844754e-08
-5.3529135e-10
1.7348067e-08
7.4446025e-10
5.1044808e-08
8.5589181e-08
-6.5178132e-10
1.7999815e-08
-1.0266127e-11
5.0403251e-08
8.5578874e-08
-1.0469199e-10
1.8104491e-08
-1.2109879e-09
5.1509512e-08
8.4367842e-08
2.5842529e-10
1.7846044e-08
-1.04832e-09
5.2816245e-08
8.3319487e-08
-2.9930549e-11
1.7875928e-08
7.2074171e-10
5.2065538e-08
8.4040207e-08
1.4896356e-10
1.7726908e-08
1.0700475e-09
5.1144394e-08
8.5110217e-08
2.3530271e-10
1.7491545e-08
1.5178699e-10
5.1227849e-08
8.5261957e-08
-1.7391386e-10
1.7665404e-08
-5.0439177e-10
5.1558284e-08
8.4757527e-08
-3.0586485e-10
1.7971276e-08
-8.3723672e-10
5.2089634e-08
8.3920258e-08
3.2707735e-10
1.7644169e-08
-1.0967232e-09
5.3513421e-08
8.2823516e-08
3.4626514e-10
1.7297813e-08
-8.2865686e-13
5.3860475e-08
8.2822679e-08
1.7778489e-10
1.7119946e-08
1.0861679e-09
5.2952058e-08
8.3908828e-08
2.8894967e-10
1.683098e-08
7.1124973e-10
5.2529756e-08
8.4620047e-08
1.1790527e-10
1.6713143e-08
2.2337092e-10
5.2424416e-08
8.4843431e-08
1.2707652e-09
1.544261e-08
5.2649473e-09
4.843035e-08
9.0108334e-08
1.1161233e-08
4.2807376e-09
4.8874067e-08
1.0715616e-08
1.0954388e-08
1.280254e-07
4.8780498e-09
-5.9779147e-10
1.7174573e-08
-1.5824221e-09
-1.5675943e-09
2.9694643e-08
-4.0466186e-10
-1.930991e-10
-1.5042535e-09
-4.8276971e-10
-5.5913185e-10
-2.512633e-09
-1.3268706e-10
-6.0397747e-11
-4.6953505e-10
-1.4588726e-10
-1.7475048e-10
-8.5387694e-10
-3.246366e-11
-2.7932292e-11
-1.093319e-10
-6.9013996e-11
-7.2898145e-11
-2.1117753e-10
-1.145397e-11
-1.6478247e-11
-3.885664e-11
-4.1611086e-11
-4.5970709e-11
-6.5783669e-11
-4.7223061e-12
-1.1756078e-11
-1.5351579e-11
-3.0982183e-11
-3.8538906e-11
-2.2784208e-11
-2.5418361e-12
-9.2144529e-12
-8.2412182e-12
-2.5283263e-11
-3.4982958e-11
-1.1798007e-11
-2.0399547e-12
-7.1745513e-12
-7.0160583e-12
-2.0307424e-11
-2.981812e-11
-1.2181289e-11
-1.7608656e-12
-5.4136836e-12
-6.5144957e-12
-1.5553875e-11
-2.3483555e-11
-1.2849167e-11
-1.4025842e-12
-4.0110862e-12
-5.2825314e-12
-1.1673955e-11
-1.7996209e-11
-1.0769918e-11
-9.7050083e-13
-3.0405741e-12
-3.7451767e-12
-8.8992992e-12
-1.3974346e-11
-7.7670796e-12
-6.334325e-13
-2.4071336e-12
-2.447061e-12
-7.0856915e-12
-1.1253431e-11
-5.1680274e-12
-4.2414026e-13
-1.9829888e-12
-1.6410965e-12
-5.8687522e-12
-9.4317036e-12
-3.4628749e-12
-2.95332e-13
-1.6876547e-12
-1.1488898e-12
-5.0152093e-12
-8.1337434e-12
-2.4468924e-12
-2.2153457e-13
-1.4661197e-12
-8.6321369e-13
-4.3735431e-12
-7.1427407e-12
-1.8542506e-12
-1.7598918e-13
-1.2901311e-12
-6.8857222e-13
-3.8609715e-12
-6.3387216e-12
-1.492619e-12
-1.4311662e-13
-1.147016e-12
-5.6375708e-13
-3.4403418e-12
-5.6679584e-12
-1.234544e-12
-1.1708066e-13
-1.0299374e-12
-4.6564178e-13
-3.0917915e-12
-5.1075081e-12
-1.0261139e-12
-9.5209774e-14
-9.3473019e-13
-3.7914243e-13
-2.80787e-12
-4.6472999e-12
-8.3937183e-13
-7.8473678e-14
-8.5625937e-13
-3.13257e-13
-2.5730978e-12
-4.2659081e-12
-6.9466927e-13
-6.5560049e-14
-7.9070232e-13
-2.6194383e-13
-2.3767251e-12
-3.9459671e-12
-5.819045e-13
-5.6099175e-14
-7.3460615e-13
-2.2348709e-13
-2.2093478e-12
-3.6691089e-12
-5.0036402e-13
-5.0152207e-14
-6.8445685e-13
-1.9886101e-13
-2.0606491e-12
-3.4250456e-12
-4.429418e-13
-4.4501121e-14
-6.3995847e-13
-1.7954113e-13
-1.9256184e-12
-3.2020108e-12
-4.025919e-13
-4.0723868e-14
-5.9923712e-13
-1.6376123e-13
-1.8025895e-12
-2.998368e-12
-3.6741858e-13
-3.7989154e-14
-5.6125024e-13
-1.5238606e-13
-1.6882002e-12
-2.8087114e-12
-3.4205556e-13
-3.5796922e-14
-5.2545532e-13
-1.4366032e-13
-1.5803436e-12
-2.6305049e-12
-3.2187824e-13
-3.4117764e-14
-4.913393e-13
-1.3636322e-13
-1.4781039e-12
-2.4592048e-12
-3.0767327e-13
-3.3022708e-14
-4.5831807e-13
-1.3222861e-13
-1.378903e-12
-2.2940318e-12
-2.9740994e-13
-3.2082428e-14
-4.2623685e-13
-1.28502e-13
-1.2824876e-12
-2.1337076e-12
-2.8883315e-13
-3.1111437e-14
-3.9512638e-13
-1.2467619e-13
-1.1889261e-12
-1.9780373e-12
-2.8035221e-13
-3.0078044e-14
-3.6504908e-13
-1.2056818e-13
-1.0984386e-12
-1.8273537e-12
-2.7125623e-13
-2.8964274e-14
-3.3608533e-13
-1.1612967e-13
-1.0112752e-12
-1.6822467e-12
-2.6124004e-13
-2.7728137e-14
-3.0835754e-13
-1.1114171e-13
-9.2786302e-13
-1.5432411e-12
-2.5014958e-13
-2.6383392e-14
-2.8197433e-13
-1.0580146e-13
-8.484458e-13
-1.4111275e-12
-2.3791652e-13
-2.4914174e-14
-2.5706019e-13
-9.9912831e-14
-7.7344753e-13
-1.2863353e-12
-2.2470553e-13
-2.3317439e-14
-2.3374265e-13
-9.3538411e-14
-7.0322654e-13
-1.1694931e-12
-2.1038057e-13
-2.1604899e-14
-2.1213756e-13
-8.6552336e-14
-6.3827874e-13
-1.061496e-12
-1.9454868e-13
-1.9828935e-14
-1.9230835e-13
-7.9440682e-14
-5.7866633e-13
-9.623582e-13
-1.7857729e-13
-1.8031513e-14
-1.7427649e-13
-7.2254766e-14
-5.2444218e-13
-8.7223012e-13
-1.6238125e-13
-1.6189514e-14
-1.5808656e-13
-6.4891475e-14
-4.7573911e-13
-7.9130983e-13
-1.4580984e-13
-1.433059e-14
-1.4375552e-13
-5.7466077e-14
-4.3260236e-13
-7.196491e-13
-1.2912461e-13
-1.245815e-14
-1.3129688e-13
-4.9926768e-14
-3.9513235e-13
-6.5731909e-13
-1.1225438e-13
-1.0550053e-14
-1.2074631e-13
-4.2291072e-14
-3.6338985e-13
-6.0450099e-13
-9.5106635e-14
-8.5760026e-15
-1.1216978e-13
-3.4341134e-14
-3.3762317e-13
-5.6161232e-13
-7.7227167e-14
-6.5980322e-15
-1.0557121e-13
-2.633174e-14
-3.1788787e-13
-5.2891692e-13
-5.9024427e-14
-4.5853444e-15
-1.009853e-13
-1.8270117e-14
-3.0420144e-13
-5.0627762e-13
-4.0906599e-14
-2.4892801e-15
-9.8495437e-14
-1.0069311e-14
-2.9661968e-13
-4.9360445e-13
-2.2739531e-14
-5.4060552e-16
-2.2609524e-15
-5.1421109e-15
1.3758189e-07
-9.5618122e-09
-8.7350243e-09
1.4631059e-07
2.1668801e-08
-1.5371912e-09
-1.3990431e-09
1.4332263e-08
-3.4677543e-09
-5.8195341e-10
-6.2080348e-10
-4.2458547e-09
-1.2607667e-09
-1.7501948e-10
-2.0083231e-10
-1.6806812e-09
-3.2678746e-10
-5.9403547e-11
-4.9620376e-11
-4.7798644e-10
-8.8991849e-11
-3.6195783e-11
-1.9836888e-11
-1.1877377e-10
-2.2167838e-11
-3.6813548e-11
-2.7657747e-11
-1.4348266e-11
-1.0236353e-11
-3.8376016e-11
-3.5077589e-11
-2.8177664e-12
-1.5330033e-11
-3.522773e-11
-3.6471964e-11
-1.3936241e-11
-1.9212848e-11
-2.8864151e-11
-3.1479406e-11
-2.4205545e-11
-1.7139775e-11
-2.2494314e-11
-2.5257305e-11
-2.3361881e-11
-1.2378332e-11
-1.7883111e-11
-2.0464319e-11
-1.7171372e-11
-8.358139e-12
-1.4693074e-11
-1.716318e-11
-1.1659372e-11
-5.6465011e-12
-1.2509529e-11
-1.4944526e-11
-7.8652609e-12
-4.0159919e-12
-1.09405e-11
-1.3306774e-11
-5.6538429e-12
-3.1070066e-12
-9.6878033e-12
-1.1937548e-11
-4.4763148e-12
-2.5244548e-12
-8.6560155e-12
-1.0743615e-11
-3.7184553e-12
-2.1097758e-12
-7.7808239e-12
-9.719791e-12
-3.1336571e-12
-1.7657262e-12
-7.0412472e-12
-8.8482151e-12
-2.6373521e-12
-1.4556349e-12
-6.4250172e-12
-8.1089835e-12
-2.194912e-12
-1.2099178e-12
-5.9097997e-12
-7.4846742e-12
-1.8342691e-12
-1.0183571e-12
-5.4733764e-12
-6.9495971e-12
-1.5534733e-12
-8.7358144e-13
-5.1001863e-12
-6.4846686e-12
-1.3385462e-12
-7.7258565e-13
-4.7705676e-12
-6.0685976e-12
-1.1886898e-12
-7.1355378e-13
-4.4596287e-12
-5.6915341e-12
-1.0906474e-12
-6.473072e-13
-4.1797607e-12
-5.3407501e-12
-9.9811801e-13
-6.0323169e-13
-3.9186028e-12
-5.0054799e-12
-9.3852555e-13
-5.7296915e-13
-3.667528e-12
-4.6885041e-12
-8.8996557e-13
-5.4651266e-13
-3.4287025e-12
-4.385075e-12
-8.499596e-13
-5.2669878e-13
-3.1994254e-12
-4.0907401e-12
-8.2104885e-13
-5.1202969e-13
-2.9762386e-12
-3.8057745e-12
-7.9700779e-13
-4.9762771e-13
-2.7589711e-12
-3.5280788e-12
-7.7533366e-13
-4.8180651e-13
-2.548427e-12
-3.2581568e-12
-7.5173644e-13
-4.6390116e-13
-2.3457706e-12
-2.998589e-12
-7.2347487e-13
-4.443471e-13
-2.1515762e-12
-2.7497285e-12
-6.9321161e-13
-4.2237159e-13
-1.967123e-12
-2.5133133e-12
-6.58789e-13
-3.9865779e-13
-1.7931714e-12
-2.2911764e-12
-6.2079548e-13
-3.7319218e-13
-1.6303595e-12
-2.0830695e-12
-5.8129864e-13
-3.4530909e-13
-1.479598e-12
-1.8903317e-12
-5.3804544e-13
-3.1696317e-13
-1.3412104e-12
-1.71351e-12
-4.9378259e-13
-2.8786912e-13
-1.2157202e-12
-1.5532196e-12
-4.4815652e-13
-2.5847279e-13
-1.1030545e-12
-1.4093515e-12
-4.0233728e-13
-2.2895906e-13
-1.003217e-12
-1.281933e-12
-3.5637355e-13
-1.9912654e-13
-9.163414e-13
-1.1711348e-12
-3.0992036e-13
-1.6868692e-13
-8.4275752e-13
-1.0772619e-12
-2.6255522e-13
-1.3712206e-13
-7.828589e-13
-1.0009024e-12
-2.134767e-13
-1.0444063e-13
-7.3743886e-13
-9.4274872e-13
-1.625894e-13
-7.2218282e-14
-7.0612321e-13
-9.0279987e-13
-1.1216203e-13
-4.0327285e-14
-6.8853129e-13
-8.803688e-13
-6.2752998e-14
-9.3092987e-15
-1.4728962e-14
3.2669732e-13
-3.2520939e-13
1.0107376e-12
-6.8244638e-13
3.6810626e-12
-2.6690782e-12
9.3707354e-12
-5.6898631e-12
1.7647283e-11
-8.2783761e-12
2.7046953e-11
-9.4021264e-12
3.6036556e-11
-8.9922283e-12
4.468996e-11
-8.6559893e-12
4.9340375e-11
-4.6528419e-12
5.0941087e-11
-1.602941e-12
4.849478e-11
2.4443151e-12
4.2229324e-11
6.2636906e-12
3.2776397e-11
9.4514027e-12
2.1073034e-11
1.1702049e-11
7.0800663e-12
1.3991871e-11
-8.356611e-12
1.5435759e-11
-2.4514835e-11
1.6157489e-11
-4.0575974e-11
1.6060544e-11
-5.5845236e-11
1.5268814e-11
-6.9785343e-11
1.3939764e-11
-8.1961274e-11
1.2175704e-11
-9.1996072e-11
1.003465e-11
-9.9440327e-11
7.4441892e-12
-1.0390296e-10
4.4626051e-12
1.0258939e-12
-3.7729619e-11
3.7405873e-11
-8.5047045e-11
4.6637292e-11
-1.3834275e-10
5.0629406e-11
-1.9787788e-10
5.384822e-11
-2.6581064e-10
5.9657414e-11
-3.4594283e-10
7.073306e-11
-4.3750145e-10
8.256928e-11
-5.4244281e-10
9.6288085e-11
-6.5874189e-10
1.1164868e-10
-7.8665616e-10
1.2631344e-10
-9.2336723e-10
1.3915714e-10
-1.066094e-09
1.4899187e-10
-1.2120284e-09
1.5538686e-10
-1.3586395e-09
1.5831387e-10
-1.5027955e-09
1.5814819e-10
-1.6421322e-09
1.5477254e-10
-1.7743322e-09
1.4835727e-10
-1.8974446e-09
1.3917251e-10
-2.0096356e-09
1.2745914e-10
-2.1092531e-09
1.1355647e-10
-2.1949427e-09
9.7864389e-11
-2.2661297e-09
8.1220559e-11
-2.3220186e-09
6.3331889e-11
-2.3556939e-09
3.8136834e-11
9.6752668e-12
-1.3551716e-10
1.7292802e-10
-2.9212232e-10
2.0324999e-10
-4.7079681e-10
2.2931256e-10
-6.7336879e-10
2.5642892e-10
-9.0416425e-10
2.9046114e-10
-1.166935e-09
3.3351132e-10
-1.4697364e-09
3.8537722e-10
-1.8612803e-09
4.878374e-10
-2.3140862e-09
5.6445884e-10
-2.7820553e-09
5.9428558e-10
-3.2485458e-09
6.0564944e-10
-3.7027344e-09
6.0318133e-10
-4.137799e-09
5.904513e-10
-4.5487692e-09
5.6928313e-10
-4.9306312e-09
5.4000849e-10
-5.2791362e-09
5.0327514e-10
-5.5912423e-09
4.6046038e-10
-5.8650605e-09
4.1298728e-10
-6.0996325e-09
3.6202721e-10
-6.2946319e-09
3.0855171e-10
-6.4502392e-09
2.5346726e-10
-6.5664566e-09
1.9743339e-10
-6.643892e-09
1.4076262e-10
-6.689489e-09
8.3729427e-11
2.6982862e-11
-3.919636e-10
5.6490352e-10
-8.2411405e-10
6.3541807e-10
-1.3126001e-09
7.1781749e-10
-2.0983869e-09
1.042232e-09
-2.9620142e-09
1.1541013e-09
-3.8057222e-09
1.1772286e-09
-4.5765259e-09
1.1561871e-09
-5.1951793e-09
1.1064946e-09
-5.6687812e-09
1.0380627e-09
-6.0315101e-09
9.5701489e-10
-6.2957941e-09
8.6993267e-10
-6.4733787e-09
7.8076421e-10
-6.5750774e-09
6.9214755e-10
-6.6093904e-09
6.0359307e-10
-6.5856236e-09
5.1623829e-10
-6.517932e-09
4.3557975e-10
-6.4202773e-09
3.6280171e-10
-6.3053654e-09
2.9807115e-10
-6.184443e-09
2.4110054e-10
-6.0671723e-09
1.9127658e-10
-5.9615106e-09
1.4780103e-10
-5.8737893e-09
1.097075e-10
-5.8092978e-09
7.6266441e-11
-5.7721534e-09
4.658045e-11
2.0357013e-11
-2.2261819e-09
2.7911061e-09
-3.9453832e-09
2.3546413e-09
-5.4035479e-09
2.1760027e-09
-6.0777762e-09
1.7164732e-09
-6.1650492e-09
1.2413843e-09
-5.7319575e-09
7.4414463e-10
-5.0089431e-09
4.331791e-10
-4.0623248e-09
1.5988215e-10
-2.9543916e-09
-6.9864886e-11
-1.7403585e-09
-2.5701275e-10
-5.2618893e-10
-3.4423167e-10
6.6609009e-10
-4.1151025e-10
1.8391784e-09
-4.8093879e-10
3.1117618e-09
-6.6898798e-10
4.3861166e-09
-7.5811306e-10
5.5933293e-09
-7.7162787e-10
6.7050215e-09
-7.4888404e-10
7.7042114e-09
-7.0111092e-10
8.5800747e-09
-6.3475353e-10
9.3258033e-09
-5.5444164e-10
9.9373813e-09
-4.6376541e-10
1.0412812e-08
-3.657105e-10
1.0751358e-08
-2.6226615e-10
1.095397e-08
-1.5601874e-10
-4.4613222e-11
1.147455e-09
1.6437353e-09
4.4524563e-09
-9.503118e-10
8.2432124e-09
-1.614684e-09
1.1957513e-08
-1.9977962e-09
1.5682965e-08
-2.4840404e-09
1.9339047e-08
-2.9119065e-09
2.2933325e-08
-3.1610642e-09
2.6312003e-08
-3.2187551e-09
2.9385049e-08
-3.1428657e-09
3.2122982e-08
-2.9948962e-09
3.4585888e-08
-2.8070856e-09
3.6763746e-08
-2.5893128e-09
3.8648049e-08
-2.3651842e-09
4.0123672e-08
-2.144553e-09
4.1286429e-08
-1.9208116e-09
4.2214147e-08
-1.6992866e-09
4.2950562e-08
-1.4852413e-09
4.3529828e-08
-1.2803184e-09
4.3980302e-08
-1.0851686e-09
4.432563e-08
-8.9971277e-10
4.4585063e-08
-7.2314039e-10
4.4773583e-08
-5.5417395e-10
4.490207e-08
-3.9069721e-10
4.4977789e-08
-2.3168308e-10
-7.1265573e-11
1.5016109e-07
-2.2055431e-09
1.4853745e-07
6.7425226e-10
1.4576467e-07
1.1588827e-09
1.4220774e-07
1.5598406e-09
1.3764005e-07
2.0842501e-09
1.32188e-07
2.5406719e-09
1.2620403e-07
2.8233513e-09
1.2007227e-07
2.9133906e-09
1.1407102e-07
2.8587142e-09
1.08341e-07
2.7354164e-09
1.0294549e-07
2.5886773e-09
9.7945322e-08
2.4110783e-09
9.3365069e-08
2.2152693e-09
8.9210608e-08
2.0100881e-09
8.548754e-08
1.8024202e-09
8.219083e-08
1.5975729e-09
7.9307099e-08
1.3986262e-09
7.6819469e-08
1.2074373e-09
7.4709506e-08
1.0249121e-09
7.2958973e-08
8.5093045e-10
7.1551113e-08
6.848232e-10
7.0471543e-08
5.2549317e-10
6.9709959e-08
3.7098005e-10
6.9258049e-08
2.2031696e-10
6.8114736e-11
1.3665285e-08
-1.53844e-09
1.6002745e-08
-1.6630921e-09
1.8615065e-08
-1.4533228e-09
2.1303846e-08
-1.128829e-09
2.4095307e-08
-7.0710308e-10
2.6996114e-08
-3.6003299e-10
2.9913308e-08
-9.3747638e-11
3.2687727e-08
1.3906095e-10
3.5241703e-08
3.0482819e-10
3.7585574e-08
3.916346e-10
3.9686085e-08
4.8825381e-10
4.1482107e-08
6.1514208e-10
4.2842248e-08
8.5521352e-10
4.3935623e-08
9.1679567e-10
4.4808085e-08
9.3003949e-10
4.5495659e-08
9.1007772e-10
4.6029735e-08
8.6462654e-10
4.6438274e-08
7.9897275e-10
4.6745829e-08
7.1742881e-10
4.6974048e-08
6.22781e-10
4.7140247e-08
5.1869179e-10
4.7258193e-08
4.0761301e-10
4.7337159e-08
2.9207821e-10
4.7383563e-08
1.7397426e-10
5.0419598e-11
-4.9807973e-09
-8.0350916e-10
-5.6300865e-09
-1.0138136e-09
-5.9768023e-09
-1.1066183e-09
-5.9471042e-09
-1.1585379e-09
-5.4853266e-09
-1.1688898e-09
-4.7025575e-09
-1.142809e-09
-3.706771e-09
-1.0895383e-09
-2.5521729e-09
-1.0155384e-09
-1.319452e-09
-9.2789115e-10
-9.0147544e-11
-8.376658e-10
1.1428033e-09
-7.4469068e-10
2.407898e-09
-6.4994417e-10
3.8168743e-09
-5.5375209e-10
5.1975109e-09
-4.6382821e-10
6.5101406e-09
-3.8257572e-10
7.7310493e-09
-3.1081499e-10
8.8442276e-09
-2.4853466e-10
9.8384924e-09
-1.9527393e-10
1.0707099e-08
-1.5115876e-10
1.1449429e-08
-1.1952988e-10
1.2060514e-08
-9.2374539e-11
1.2536726e-08
-6.8579757e-11
1.2876609e-08
-4.7785537e-11
1.3080058e-08
-2.9455164e-11
-1.470755e-11
-2.2541397e-09
-2.300541e-10
-3.0103549e-09
-2.5760331e-10
-3.8235689e-09
-2.9341163e-10
-4.6379156e-09
-3.4420101e-10
-5.3928458e-09
-4.1397129e-10
-5.9845434e-09
-5.5112443e-10
-6.4580755e-09
-6.1601972e-10
-6.8232002e-09
-6.5042763e-10
-7.0840297e-09
-6.6707561e-10
-7.2511315e-09
-6.7057766e-10
-7.3330016e-09
-6.6283379e-10
-7.3367702e-09
-6.4618828e-10
-7.2686194e-09
-6.2191499e-10
-7.1424392e-09
-5.9001987e-10
-6.9733927e-09
-5.5163284e-10
-6.7761659e-09
-5.0805179e-10
-6.5643087e-09
-4.6040121e-10
-6.3502109e-09
-4.0938043e-10
-6.1452904e-09
-3.560874e-10
-5.9627974e-09
-3.020305e-10
-5.8080126e-09
-2.471666e-10
-5.6847246e-09
-1.9187469e-10
-5.5960271e-09
-1.3648976e-10
-5.5443078e-09
-8.118092e-11
-2.6572201e-11
-6.6492158e-10
-4.3118717e-11
-8.7863713e-10
-4.3887683e-11
-1.1258874e-09
-4.6161904e-11
-1.4131875e-09
-5.6902188e-11
-1.7475666e-09
-7.9594268e-11
-2.1985936e-09
-1.0010067e-10
-2.6909352e-09
-1.2368256e-10
-3.1971779e-09
-1.4419043e-10
-3.7004777e-09
-1.6378239e-10
-4.1907855e-09
-1.8027727e-10
-4.6609343e-09
-1.9269317e-10
-5.106135e-09
-2.009964e-10
-5.5225575e-09
-2.0550174e-10
-5.9059903e-09
-2.0659677e-10
-6.2529088e-09
-2.0472436e-10
-6.5602304e-09
-2.0074048e-10
-6.8198804e-09
-2.0076158e-10
-7.0357431e-09
-1.9352826e-10
-7.216248e-09
-1.7559293e-10
-7.3644242e-09
-1.538646e-10
-7.4821005e-09
-1.2950033e-10
-7.5708759e-09
-1.0310894e-10
-7.6324889e-09
-7.4886203e-11
-7.6690695e-09
-4.4609415e-11
-1.2292859e-11
-1.6105277e-10
-8.3970628e-13
-2.2017118e-10
1.5230795e-11
-2.9386399e-10
2.7530907e-11
-3.8535174e-10
3.4585425e-11
-5.0159158e-10
3.6645201e-11
-6.3653813e-10
3.4845222e-11
-7.847161e-10
2.4494406e-11
-9.4713161e-10
1.8223721e-11
-1.1212692e-09
1.0353519e-11
-1.3029255e-09
1.3769274e-12
-1.488344e-09
-7.2770413e-12
-1.674484e-09
-1.4859117e-11
-1.8589498e-09
-2.1038889e-11
-2.039735e-09
-2.5814811e-11
-2.2152306e-09
-2.9232162e-11
-2.3847917e-09
-3.1182966e-11
-2.5537071e-09
-3.184997e-11
-2.7162401e-09
-3.0999192e-11
-2.8627463e-09
-2.9090775e-11
-2.9905171e-09
-2.6097979e-11
-3.0978257e-09
-2.2195802e-11
-3.1830114e-09
-1.7927194e-11
-3.2447102e-09
-1.3191391e-11
-3.2813564e-09
-7.9671019e-12
-2.4034839e-12
-9.8546479e-13
-1.4202543e-11
1.3516141e-11
7.2920676e-13
2.6864982e-11
1.4182089e-11
3.5825534e-11
2.5624892e-11
3.8976284e-11
3.3494459e-11
3.6034901e-11
3.7786594e-11
2.2288273e-11
3.8240993e-11
2.8990202e-12
3.7612901e-11
-2.1669957e-11
3.4922387e-11
-5.1236518e-11
3.0943337e-11
-8.4835585e-11
2.6321832e-11
-1.2136847e-10
2.1673533e-11
-1.5937701e-10
1.696937e-11
-1.9779821e-10
1.2606063e-11
-2.3580117e-10
8.7704411e-12
-2.7237065e-10
5.3861068e-12
-3.0718642e-10
2.9653583e-12
-3.3974435e-10
1.5582604e-12
-3.6937721e-10
5.4158259e-13
-3.9545452e-10
-2.1211003e-14
-4.1743958e-10
-2.1129333e-13
-4.3507362e-10
-2.9371883e-13
-4.4797368e-10
-2.9188912e-13
-4.557242e-10
-2.1713323e-13
-4.1357565e-15
1.3354499e-11
-3.0374752e-11
3.6799757e-11
-2.2715891e-11
6.4487701e-11
-1.350562e-11
9.3997573e-11
-3.884687e-12
1.2244883e-10
5.0435423e-12
1.4810409e-10
1.2131696e-11
1.6987112e-10
1.6474353e-11
1.887668e-10
1.8717638e-11
2.0399283e-10
1.9696774e-11
2.1594351e-10
1.8993086e-11
2.2482258e-10
1.744319e-11
2.3137085e-10
1.5125686e-11
2.3638576e-10
1.1954873e-11
2.4023709e-10
8.7551378e-12
2.4312223e-10
5.8856902e-12
2.4517113e-10
3.3375934e-12
2.4676742e-10
1.3694369e-12
2.4824954e-10
7.6496747e-14
2.4947869e-10
-6.8721349e-13
2.5051901e-10
-1.0611945e-12
2.5150371e-10
-1.1956715e-12
2.5232931e-10
-1.1189945e-12
2.5291842e-10
-8.8069059e-13
2.5324568e-10
-5.4409685e-13
-2.1923326e-13
-1.0098564e-11
-3.4212461e-11
-2.4345389e-12
-3.0379878e-11
1.0294163e-11
-2.6234233e-11
2.645284e-11
-2.0043234e-11
4.4459763e-11
-1.2963219e-11
6.2776609e-11
-6.1849611e-12
7.9810245e-11
-5.5907546e-13
9.4708746e-11
3.8193584e-12
1.0776161e-10
6.6441412e-12
1.1828449e-10
8.4704342e-12
1.2682202e-10
8.9058963e-12
1.3326951e-10
8.678423e-12
1.3825673e-10
6.9678847e-12
1.4206362e-10
4.9484629e-12
1.4491064e-10
3.0388843e-12
1.4698256e-10
1.2658817e-12
1.4851888e-10
-1.6668224e-13
1.4976316e-10
-1.1675873e-12
1.5078134e-10
-1.7052053e-12
1.5167667e-10
-1.9563445e-12
1.5261464e-10
-2.1334637e-12
1.5346967e-10
-1.9738433e-12
1.5417681e-10
-1.5876549e-12
1.5473502e-10
-1.1021344e-12
-5.1482685e-13
-2.6933064e-11
-3.1485069e-11
-2.8036274e-11
-2.9276774e-11
-2.7193075e-11
-2.7077519e-11
-2.3766986e-11
-2.346939e-11
-1.8495125e-11
-1.8235132e-11
-1.1889451e-11
-1.2790673e-11
-4.9723975e-12
-7.4761546e-12
1.6002857e-12
-2.753341e-12
7.2255613e-12
1.0188571e-12
1.1862917e-11
3.8330742e-12
1.5200606e-11
5.5682061e-12
1.7042594e-11
6.8364332e-12
1.7406784e-11
6.6036897e-12
1.6247282e-11
6.1079581e-12
1.4364275e-11
4.9218794e-12
1.1992722e-11
3.6374199e-12
9.2092801e-12
2.61674e-12
6.2705901e-12
1.7710796e-12
3.4123974e-12
1.152961e-12
7.8080352e-13
6.7522067e-13
-1.6364624e-12
2.8377228e-13
-3.6688284e-12
5.8492345e-14
-5.2209946e-12
-3.5520488e-14
-6.3440569e-12
2.0900356e-14
1.2995536e-13
-2.8529307e-11
-2.6317771e-11
-3.1835597e-11
-2.5970614e-11
-3.4548904e-11
-2.4364338e-11
-3.6414333e-11
-2.1604083e-11
-3.6684603e-11
-1.7964977e-11
-3.5785769e-11
-1.3689614e-11
-3.40621e-11
-9.1999235e-12
-3.1856762e-11
-4.9587733e-12
-2.9688255e-11
-1.1497388e-12
-2.7760152e-11
1.9048867e-12
-2.647089e-11
4.2788611e-12
-2.566662e-11
6.0320819e-12
-2.6377916e-11
7.3149039e-12
-2.7848415e-11
7.5783733e-12
-3.0260248e-11
7.3336275e-12
-3.3281569e-11
6.658654e-12
-3.6765855e-11
6.100936e-12
-4.0234328e-11
5.2394615e-12
-4.3674581e-11
4.5931203e-12
-4.6860778e-11
3.8613231e-12
-4.9617861e-11
3.0407609e-12
-5.1878383e-11
2.3189207e-12
-5.355841e-11
1.644412e-12
-5.4524415e-11
9.8681709e-13
3.2943912e-13
-2.1573171e-11
-2.1916079e-11
-2.5261855e-11
-2.2282034e-11
-2.8089808e-11
-2.1536488e-11
-3.024079e-11
-1.9453202e-11
-3.150039e-11
-1.6705474e-11
-3.1804697e-11
-1.3385404e-11
-3.1189701e-11
-9.8150125e-12
-2.9933786e-11
-6.2147774e-12
-2.8342535e-11
-2.7410762e-12
-2.6755322e-11
3.1759025e-13
-2.5332022e-11
2.8554819e-12
-2.4068027e-11
4.768009e-12
-2.3053124e-11
6.2999255e-12
-2.2891692e-11
7.4168676e-12
-2.3406179e-11
7.8480404e-12
-2.4645344e-11
7.8977441e-12
-2.615779e-11
7.6133075e-12
-2.8029463e-11
7.1110575e-12
-2.9929521e-11
6.4931011e-12
-3.1712455e-11
5.644179e-12
-3.3368122e-11
4.6963504e-12
-3.4750064e-11
3.7007861e-12
-3.5741379e-11
2.63565e-12
-3.6271635e-11
1.517001e-12
5.1661578e-13
-1.4734616e-11
-1.884094e-11
-1.7252436e-11
-1.9764313e-11
-1.9193612e-11
-1.9595404e-11
-2.0615123e-11
-1.8031778e-11
-2.1240068e-11
-1.6080612e-11
-2.1041198e-11
-1.3584351e-11
-2.0109816e-11
-1.0746468e-11
-1.8575156e-11
-7.7495039e-12
-1.6506263e-11
-4.8100317e-12
-1.4176699e-11
-2.0120318e-12
-1.1789714e-11
4.6844321e-13
-9.6077794e-12
2.5860241e-12
-7.6106674e-12
4.3027661e-12
-5.8302408e-12
5.6363959e-12
-4.5132184e-12
6.5309744e-12
-3.5625707e-12
6.9470536e-12
-3.0311538e-12
7.081848e-12
-2.8438281e-12
6.9236892e-12
-2.9183605e-12
6.5675907e-12
-3.2005162e-12
5.9262917e-12
-3.5642689e-12
5.0600605e-12
-3.9415528e-12
4.0780277e-12
-4.3067109e-12
3.0007656e-12
-4.6112466e-12
1.8214984e-12
5.5056484e-13
-9.9754253e-12
-1.6730869e-11
-1.1692064e-11
-1.8047762e-11
-1.3159697e-11
-1.8127851e-11
-1.3791977e-11
-1.7399573e-11
-1.3838147e-11
-1.6034509e-11
-1.3204686e-11
-1.4217874e-11
-1.1925105e-11
-1.2026104e-11
-1.0072509e-11
-9.6021505e-12
-7.785883e-12
-7.0967021e-12
-5.1606107e-12
-4.6373438e-12
-2.328058e-12
-2.3641446e-12
5.1803794e-13
-2.6010287e-13
3.2881421e-12
1.5326343e-12
5.9148945e-12
3.0096187e-12
8.3037e-12
4.1421463e-12
1.0335374e-11
4.9153584e-12
1.2043022e-11
5.3741804e-12
1.3439453e-11
5.527238e-12
1.4599593e-11
5.4074321e-12
1.5495313e-11
5.0305526e-12
1.6132859e-11
4.4224966e-12
1.658347e-11
3.6273991e-12
1.6903301e-11
2.680917e-12
1.7052275e-11
1.6725096e-12
5.7107017e-13
-7.2743134e-12
-1.5110483e-11
-8.7403933e-12
-1.6581761e-11
-9.8478481e-12
-1.702047e-11
-1.0355463e-11
-1.6892025e-11
-1.0300093e-11
-1.6089942e-11
-9.66881e-12
-1.4849212e-11
-8.4663052e-12
-1.3228658e-11
-6.7416456e-12
-1.1326854e-11
-4.5811984e-12
-9.2571877e-12
-2.0786525e-12
-7.1399231e-12
6.2946092e-13
-5.0722868e-12
3.493917e-12
-3.1245835e-12
6.3921219e-12
-1.3655915e-12
9.2480118e-12
1.5371108e-13
1.1962363e-11
1.4277802e-12
1.447242e-11
2.4052877e-12
1.6749377e-11
3.0972122e-12
1.8765149e-11
3.5114558e-12
2.051543e-11
3.6571411e-12
2.1990223e-11
3.5557518e-12
2.3176339e-11
3.236373e-12
2.4095929e-11
2.707802e-12
2.4740613e-11
2.0362257e-12
2.5163246e-11
1.2498726e-12
4.4806288e-13
-5.8095423e-12
-1.3777333e-11
-7.1736688e-12
-1.5217709e-11
-8.1855777e-12
-1.6008631e-11
-8.8305117e-12
-1.6247156e-11
-8.9415529e-12
-1.597896e-11
-8.5887456e-12
-1.5202074e-11
-7.7713704e-12
-1.4046083e-11
-6.4729808e-12
-1.2625288e-11
-4.7532451e-12
-1.0976962e-11
-2.6836446e-12
-9.2095577e-12
-3.4124469e-13
-7.4147163e-12
2.2021254e-12
-5.6679791e-12
4.8588797e-12
-4.0223675e-12
7.5244782e-12
-2.5119058e-12
1.0136705e-11
-1.1844625e-12
1.2673162e-11
-1.3118224e-13
1.5062245e-11
7.0811757e-13
1.7247838e-11
1.3258538e-12
1.9198619e-11
1.706352e-12
2.088579e-11
1.8685736e-12
2.2292912e-11
1.8292459e-12
2.3370286e-11
1.6304235e-12
2.4127481e-11
1.2790268e-12
2.4571079e-11
8.0627271e-13
1.6224563e-13
-4.9620274e-12
-1.2533832e-11
-6.2102967e-12
-1.3969509e-11
-7.2069922e-12
-1.5012002e-11
-7.9471876e-12
-1.5507023e-11
-8.3447895e-12
-1.5581417e-11
-8.3209415e-12
-1.5225976e-11
-7.8903568e-12
-1.4476717e-11
-7.0755106e-12
-1.3440179e-11
-5.8602766e-12
-1.2192237e-11
-4.2953174e-12
-1.0774553e-11
-2.4369676e-12
-9.2730982e-12
-3.5850881e-13
-7.7464661e-12
1.8806953e-12
-6.2615961e-12
4.2317541e-12
-4.8629858e-12
6.6232537e-12
-3.5759803e-12
8.9210701e-12
-2.4290141e-12
1.1122776e-11
-1.4936017e-12
1.3208721e-11
-7.6010242e-13
1.5110344e-11
-1.9528003e-13
1.6787909e-11
1.9100054e-13
1.8203199e-11
4.1394968e-13
1.9342576e-11
4.9104248e-13
2.0165853e-11
4.5574504e-13
2.0671565e-11
3.0055874e-13
5.0765883e-14
-4.2479055e-12
-1.1419651e-11
-5.359114e-12
-1.2858365e-11
-6.3340455e-12
-1.4037133e-11
-7.1533528e-12
-1.4687776e-11
-7.7185129e-12
-1.5016313e-11
-7.9633367e-12
-1.4981205e-11
-7.8509302e-12
-1.4589173e-11
-7.4036764e-12
-1.3887478e-11
-6.6113521e-12
-1.2984602e-11
-5.5100618e-12
-1.1875881e-11
-4.1182953e-12
-1.0664898e-11
-2.5087866e-12
-9.3560044e-12
-6.9590412e-13
-8.0745047e-12
1.2435179e-12
-6.8024306e-12
3.2646072e-12
-5.5970894e-12
5.3174853e-12
-4.4819092e-12
7.3010141e-12
-3.4771451e-12
9.1518068e-12
-2.6109074e-12
1.0857153e-11
-1.9006366e-12
1.2395456e-11
-1.3473108e-12
1.3717179e-11
-9.0778035e-13
1.4796623e-11
-5.8840664e-13
1.5644008e-11
-3.9164477e-13
1.6178224e-11
-2.3365898e-13
1.420739e-14
-3.5830147e-12
-1.047405e-11
-4.5629767e-12
-1.1878463e-11
-5.5131941e-12
-1.3086974e-11
-6.3129699e-12
-1.3888055e-11
-6.9283684e-12
-1.4400967e-11
-7.3205744e-12
-1.4589049e-11
-7.4380504e-12
-1.4471743e-11
-7.2512777e-12
-1.4074293e-11
-6.7877751e-12
-1.3448144e-11
-6.0362188e-12
-1.2627473e-11
-5.0360678e-12
-1.1665081e-11
-3.796385e-12
-1.0595716e-11
-2.3800192e-12
-9.4908961e-12
-8.4793778e-13
-8.3345347e-12
7.9652237e-13
-7.2415693e-12
2.4889312e-12
-6.1743351e-12
4.1822684e-12
-5.1704968e-12
5.8215333e-12
-4.2501846e-12
7.3450899e-12
-3.4242035e-12
8.6811063e-12
-2.6833356e-12
9.8371191e-12
-2.0637998e-12
1.0769754e-11
-1.5210466e-12
1.1417825e-11
-1.0397199e-12
1.1785786e-11
-6.01622e-13
-2.3038673e-13
-3.0127832e-12
-9.6562346e-12
-3.8604843e-12
-1.1030816e-11
-4.7282263e-12
-1.2219284e-11
-5.4587464e-12
-1.3157586e-11
-6.0929626e-12
-1.3766799e-11
-6.5514551e-12
-1.4130602e-11
-6.7989746e-12
-1.4224266e-11
-6.8106717e-12
-1.4062636e-11
-6.5810428e-12
-1.3677809e-11
-6.1052621e-12
-1.3103287e-11
-5.4072221e-12
-1.2363151e-11
-4.4995461e-12
-1.1503419e-11
-3.4232032e-12
-1.0567263e-11
-2.2009878e-12
-9.5567712e-12
-8.9517562e-13
-8.5473999e-12
4.6461498e-13
-7.5341416e-12
1.8352242e-12
-6.5411195e-12
3.1825092e-12
-5.5974809e-12
4.4557141e-12
-4.6974178e-12
5.6247734e-12
-3.8524024e-12
6.6282624e-12
-3.0672946e-12
7.4440977e-12
-2.3368859e-12
8.0455037e-12
-1.6411295e-12
8.4275742e-12
-9.836932e-13
-3.6121881e-13
-2.5372534e-12
-8.9533012e-12
-3.2879108e-12
-1.0280208e-11
-4.0438023e-12
-1.146344e-11
-4.7084335e-12
-1.2493e-11
-5.3266423e-12
-1.3148634e-11
-5.815599e-12
-1.3641686e-11
-6.1436439e-12
-1.3896259e-11
-6.2854216e-12
-1.3920894e-11
-6.2310542e-12
-1.373221e-11
-5.9814616e-12
-1.3352909e-11
-5.5416099e-12
-1.280303e-11
-4.9361582e-12
-1.2108895e-11
-4.1337559e-12
-1.1369687e-11
-3.2224264e-12
-1.046812e-11
-2.2187887e-12
-9.5510542e-12
-1.1372989e-12
-8.6156456e-12
-4.1459232e-14
-7.6369712e-12
1.0380859e-12
-6.6770359e-12
2.0720238e-12
-5.7313638e-12
3.0223008e-12
-4.8026858e-12
3.8535167e-12
-3.8985151e-12
4.5393356e-12
-3.0227078e-12
5.0591999e-12
-2.1609964e-12
5.3805671e-12
-1.3050603e-12
-4.4911587e-13
-2.1599857e-12
-8.3468344e-12
-2.8085691e-12
-9.6316691e-12
-3.4833594e-12
-1.0788693e-11
-4.1747211e-12
-1.1801679e-11
-4.7277068e-12
-1.2595687e-11
-5.2282533e-12
-1.3141176e-11
-5.6102844e-12
-1.3514263e-11
-5.8528363e-12
-1.3678374e-11
-5.9405885e-12
-1.3644487e-11
-5.8685598e-12
-1.3424965e-11
-5.6380445e-12
-1.303357e-11
-5.2447651e-12
-1.2502196e-11
-4.7633914e-12
-1.185108e-11
-4.1135477e-12
-1.111798e-11
-3.3983019e-12
-1.0266314e-11
-2.5792003e-12
-9.4347595e-12
-1.754384e-12
-8.4617978e-12