/*--------------------------------*- C++ -*----------------------------------*\
| =========                 |                                                 |
| \\      /  F ield         | OpenFOAM: The Open Source CFD Toolbox           |
|  \\    /   O peration     | Version:  4.0                                   |
|   \\  /    A nd           | Web:      www.OpenFOAM.org                      |
|    \\/     M anipulation  |                                                 |
\*---------------------------------------------------------------------------*/
FoamFile
{
    version     2.0;
    format      ascii;
    class       volScalarField;
    location    "0.29";
    object      k;
}
// * * * * * * * * * * * * * * * * * * * * * * * * * * * * * * * * * * * * * //

dimensions      [0 2 -2 0 0 0 0];

internalField   nonuniform List<scalar> 
1740
(
0.0086537337
0.0092903025
0.018490814
0.0091829989
0.0099597255
0.027421546
0.0095332853
0.010524987
0.034508576
0.0098075552
0.010723465
0.041542988
0.0099548679
0.011022767
0.047602687
0.010018403
0.01138892
0.051818653
0.010052239
0.011576684
0.056018826
0.010045805
0.01207328
0.059542277
0.010049507
0.012237051
0.06136934
0.0099921257
0.012307893
0.06398325
0.0099241173
0.012673477
0.066703645
0.0098493814
0.013056304
0.067862264
0.0097891996
0.013298402
0.069320255
0.0097584411
0.013617357
0.070398813
0.0096324048
0.013925146
0.070726624
0.009531947
0.013902106
0.071495942
0.0094208357
0.013956016
0.072165197
0.0094245239
0.014223245
0.072790883
0.0093250069
0.014461576
0.073301116
0.0092433067
0.014704097
0.073258335
0.0091092585
0.01473902
0.072989377
0.0089830053
0.01489223
0.073163141
0.0088446734
0.015000183
0.073028121
0.0087550135
0.014781948
0.072644273
0.0086097338
0.014550053
0.072736164
0.0084805286
0.01449225
0.072390789
0.0084287461
0.014583022
0.072602184
0.0083874401
0.014829894
0.072578319
0.0084090787
0.015025506
0.071789044
0.0089723315
0.016081189
0.06697372
0.012675302
0.018027193
0.047562205
0.024001173
0.031204223
0.039918064
0.010293032
0.012550061
0.013754324
0.0042637567
0.0045969865
0.0046554263
0.0020629485
0.0021063598
0.0020813832
0.0011277867
0.0011290864
0.0011118859
0.00067435136
0.0006719409
0.000664168
0.000428511
0.00042707985
0.00042414417
0.00028198607
0.00028141421
0.00028053507
0.00018794167
0.0001877735
0.00018764363
0.00012451807
0.00012449123
0.0001245603
8.0798437e-05
8.0801685e-05
8.0873267e-05
5.0832743e-05
5.0831602e-05
5.0860756e-05
3.0885031e-05
3.0875895e-05
3.0871329e-05
1.8192038e-05
1.817983e-05
1.8160504e-05
1.0529584e-05
1.0518551e-05
1.0498019e-05
6.1526114e-06
6.1447786e-06
6.1293928e-06
3.7893985e-06
3.7848271e-06
3.7756366e-06
2.5867587e-06
2.5846235e-06
2.5803299e-06
2.018337e-06
2.0177692e-06
2.0167066e-06
1.7810611e-06
1.7813922e-06
1.7822051e-06
1.7096084e-06
1.710399e-06
1.7121749e-06
1.7180141e-06
1.7190051e-06
1.7211989e-06
1.7635037e-06
1.7645547e-06
1.7668694e-06
1.8256559e-06
1.8266967e-06
1.8289832e-06
1.8950895e-06
1.8960877e-06
1.8982776e-06
1.9676313e-06
1.9685738e-06
1.9706398e-06
2.041451e-06
2.0423338e-06
2.044268e-06
2.1157172e-06
2.1165405e-06
2.1183435e-06
2.1899934e-06
2.1907588e-06
2.1924347e-06
2.2639784e-06
2.2646883e-06
2.2662425e-06
2.337399e-06
2.338056e-06
2.3394941e-06
2.4099633e-06
2.41057e-06
2.4118977e-06
2.481335e-06
2.4818939e-06
2.4831169e-06
2.5511066e-06
2.5516202e-06
2.5527441e-06
2.6187557e-06
2.6192267e-06
2.620257e-06
2.6835702e-06
2.6840009e-06
2.6849432e-06
2.7445188e-06
2.7449118e-06
2.7457718e-06
2.8000422e-06
2.8004002e-06
2.8011834e-06
2.8477299e-06
2.8480555e-06
2.8487677e-06
2.8838498e-06
2.8841456e-06
2.8847927e-06
2.9027096e-06
2.9029782e-06
2.9035657e-06
2.8958661e-06
2.8961096e-06
2.8966427e-06
2.8512803e-06
2.8515004e-06
2.8519829e-06
2.7526744e-06
2.752872e-06
2.7533062e-06
2.579601e-06
2.579776e-06
2.5801627e-06
2.3090675e-06
2.3092189e-06
2.3095574e-06
1.9197847e-06
1.9199106e-06
1.9201975e-06
1.3993891e-06
1.3994846e-06
1.399707e-06
7.5559169e-07
7.5564671e-07
7.557765e-07
0.056390967
0.060979793
0.046208044
0.046697185
0.012504289
0.011365329
0.0043516135
0.004120201
0.0019922255
0.001934304
0.0010835535
0.0010691072
0.0006553838
0.00065331914
0.00042192275
0.00042318761
0.00028043224
0.00028221055
0.0001880668
0.0001895244
0.00012497017
0.00012594181
8.1131405e-05
8.1681539e-05
5.0978119e-05
5.1235626e-05
3.0900231e-05
3.0988649e-05
1.8148911e-05
1.8158168e-05
1.0475762e-05
1.0458405e-05
6.110418e-06
6.0912418e-06
3.7637693e-06
3.7509336e-06
2.5747906e-06
2.5688388e-06
2.0155463e-06
2.0146693e-06
1.7836413e-06
1.7858578e-06
1.7149541e-06
1.7187845e-06
1.7245562e-06
1.7290724e-06
1.7703833e-06
1.7750675e-06
1.8324413e-06
1.837032e-06
1.9015833e-06
1.9059619e-06
1.9737548e-06
1.9778757e-06
2.0471822e-06
2.0510343e-06
2.1210586e-06
2.1246458e-06
2.1949575e-06
2.1982894e-06
2.2685814e-06
2.2716696e-06
2.3416579e-06
2.3445143e-06
2.4138952e-06
2.4165315e-06
2.4849567e-06
2.4873844e-06
2.5544346e-06
2.5566649e-06
2.6218066e-06
2.6238506e-06
2.6863602e-06
2.6882292e-06
2.7470647e-06
2.7487698e-06
2.8023609e-06
2.8039134e-06
2.8498385e-06
2.8512501e-06
2.8857655e-06
2.887048e-06
2.9044491e-06
2.9056139e-06
2.8974445e-06
2.8985024e-06
2.8527098e-06
2.8536701e-06
2.7539628e-06
2.7548333e-06
2.5807522e-06
2.5815389e-06
2.3100814e-06
2.3107878e-06
1.9206514e-06
1.921271e-06
1.4000675e-06
1.4005697e-06
7.5599187e-07
7.5631094e-07
4.3583529e-06
2.6966247e-05
0.00013427064
0.00030459088
0.00046154643
0.00057228038
0.00064234143
0.00068569583
0.00071407148
0.00073455078
0.00075110508
0.00076657622
0.00078087222
0.00079371746
0.00080479867
0.00081359573
0.00081918948
0.00082001879
0.00081351533
0.00079559546
0.00075995787
0.00069722323
0.00059422627
0.00043410827
0.0001961975
2.5403178e-06
5.4738962e-05
0.00025100856
0.00051572875
0.00072743606
0.00085872259
0.00093440369
0.00097861299
0.0010067336
0.0010267418
0.0010428219
0.0010573988
0.0010704957
0.0010818065
0.0010909401
0.0010973062
0.0010998417
0.0010967459
0.0010849868
0.0010596612
0.0010130513
0.0009332417
0.00080236922
0.00059533027
0.00028134903
7.9452765e-06
0.00016006926
0.00061638044
0.0010802459
0.001363114
0.0015056023
0.0015727856
0.0016040118
0.0016192435
0.0016268675
0.0016312218
0.001633339
0.0016342209
0.0016332689
0.001629996
0.0016239557
0.0016141471
0.0015988763
0.0015749005
0.0015368465
0.0014759807
0.0013779518
0.0012185092
0.00095533062
0.00051383929
3.7597036e-05
0.00058012184
0.0016878113
0.0024391597
0.0027756488
0.0028890661
0.0028979233
0.0028671892
0.0028267365
0.0027813708
0.002736069
0.0026926984
0.0026517073
0.0026099211
0.0025667325
0.0025225529
0.0024769128
0.0024284535
0.0023745646
0.0023106767
0.0022291536
0.0021170521
0.0019504562
0.0016769899
0.0011411135
0.00028117311
0.0024511786
0.0049231159
0.0060450072
0.0063905274
0.0063276273
0.0060970206
0.0058327058
0.0055826889
0.0053313593
0.0050905563
0.0048654243
0.0046610158
0.0044628842
0.0042700362
0.0040872046
0.0039153188
0.0037538127
0.0036009564
0.0034534178
0.0033057683
0.0031500541
0.0029755775
0.0027742696
0.0025644582
0.0023606287
0.010545979
0.016603342
0.018555437
0.018094486
0.016534334
0.0147154
0.013024139
0.01153968
0.010261397
0.0091682345
0.0082374216
0.0074435409
0.0067626067
0.0061767017
0.0056724369
0.0052383982
0.0048642517
0.0045406124
0.0042587212
0.00400988
0.003785351
0.0035768126
0.0033838637
0.0032221307
0.045038771
0.034109762
0.02658701
0.021426973
0.017778036
0.015075507
0.012985318
0.011326552
0.0099933467
0.0089102867
0.0080189359
0.0072747514
0.0066444201
0.0061034089
0.0056337298
0.0052227428
0.0048616628
0.0045439104
0.0042639933
0.0040167468
0.0037967312
0.0035981977
0.0034156915
0.003250843
0.0031190903
0.03734506
0.031020379
0.027797871
0.025162965
0.022290901
0.019313355
0.016592383
0.014290336
0.012406296
0.010862799
0.0095902551
0.0085317164
0.0076435001
0.0068956172
0.0062641643
0.0057295776
0.0052754908
0.0048882157
0.0045560951
0.0042687447
0.0040163062
0.0037892583
0.0035786975
0.0033839613
0.0032208035
0.010223307
0.009549219
0.0092102123
0.0088907963
0.0084282298
0.0078620326
0.0073030758
0.0068057479
0.0063534053
0.0059538948
0.0056041585
0.005298216
0.005010696
0.0047444592
0.0045009112
0.004279332
0.0040777388
0.0038933798
0.0037225529
0.0035604648
0.0034006814
0.0032345609
0.0030508843
0.0028411767
0.0026234382
0.0039629103
0.0038905986
0.0038687773
0.0038280157
0.0037330551
0.0035971236
0.0034563488
0.0033257713
0.0032077486
0.0031043924
0.0030147012
0.0029355605
0.0028613666
0.002791533
0.002725929
0.0026638214
0.0026037045
0.0025431916
0.0024787566
0.0024051928
0.0023145063
0.002193614
0.0020185107
0.001735995
0.0011854125
0.0019178546
0.0019316531
0.0019566035
0.001970863
0.0019634849
0.0019380791
0.0019056419
0.0018731821
0.0018436998
0.0018184982
0.0017973764
0.0017791101
0.0017620723
0.0017456368
0.0017295995
0.0017129143
0.0016939219
0.0016700863
0.0016376289
0.0015908831
0.0015211138
0.0014142859
0.0012466547
0.00097611574
0.00052724858
0.001073727
0.0010919371
0.0011148984
0.0011339426
0.0011445651
0.0011475286
0.0011464141
0.0011442009
0.0011426016
0.0011423644
0.0011434746
0.0011454056
0.0011474486
0.0011490372
0.0011495991
0.0011481516
0.0011431439
0.0011322449
0.0011120359
0.0010775327
0.0010214333
0.00093296534
0.00079627479
0.0005888866
0.00028238031
0.00066019122
0.00067370903
0.00068987919
0.00070488675
0.00071659104
0.00072493108
0.00073111322
0.00073642484
0.00074175184
0.00074752752
0.00075378707
0.00076028838
0.000766646
0.0007724177
0.00077702415
0.00077958215
0.00077877646
0.00077269458
0.00075862394
0.00073279671
0.00069009498
0.00062378156
0.00052543164
0.00038513355
0.0001887158
0.00042886541
0.00043799906
0.00044874821
0.00045931408
0.00046858972
0.00047635232
0.00048297997
0.00048901519
0.00049489276
0.0005008462
0.00050690624
0.00051294409
0.00051871816
0.00052389528
0.00052800629
0.00053036053
0.00052995281
0.00052535965
0.00051463415
0.0004952287
0.00046402415
0.00041767002
0.00035378252
0.00027458509
0.00019836459
0.00028627146
0.00029219607
0.00029911806
0.00030614558
0.00031267631
0.00031849962
0.00032370485
0.00032850471
0.00033309796
0.00033760038
0.00034202535
0.00034629314
0.00035024563
0.0003536451
0.00035614816
0.00035725665
0.00035626022
0.00035217853
0.00034372171
0.00032930973
0.00030723513
0.00027615184
0.0002362808
0.00019209217
0.0001572152
0.00019219447
0.00019588483
0.00020017505
0.00020460783
0.00020884314
0.00021272104
0.00021623312
0.0002194512
0.00022245742
0.00022530193
0.00022798458
0.00023045241
0.00023260164
0.0002342733
0.00023523677
0.0002351621
0.00023358735
0.00022988958
0.00022327742
0.00021283637
0.00019768147
0.00017730894
0.00015229312
0.00012551882
0.00010384395
0.00012755676
0.00012972509
0.00013223708
0.0001348518
0.0001373742
0.00013969233
0.00014177202
0.000143627
0.00014528536
0.00014676459
0.00014805843
0.00014913233
0.00014992166
0.00015032857
0.00015021263
0.00014937607
0.00014754637
0.00014436262
0.000139377
0.00013208739
0.000122019
0.00010885413
9.2520789e-05
7.2821012e-05
4.6431907e-05
8.2563134e-05
8.3732992e-05
8.5085388e-05
8.6491847e-05
8.784063e-05
8.9057745e-05
9.0109571e-05
9.0989515e-05
9.1703022e-05
9.2253547e-05
9.2634469e-05
9.2825062e-05
9.2789008e-05
9.2472562e-05
9.1799873e-05
9.0665846e-05
8.8927378e-05
8.6396583e-05
8.28413e-05
7.799848e-05
7.1599249e-05
6.3380395e-05
5.2993364e-05
3.9596801e-05
2.0784739e-05
5.1653729e-05
5.221191e-05
5.285696e-05
5.3521103e-05
5.4141435e-05
5.46722e-05
5.5088001e-05
5.5378531e-05
5.5541866e-05
5.5577165e-05
5.5479942e-05
5.5239641e-05
5.4838702e-05
5.4251701e-05
5.3443422e-05
5.2365509e-05
5.09521e-05
4.9115805e-05
4.6745973e-05
4.3710085e-05
3.9853819e-05
3.4983241e-05
2.8796943e-05
2.0749302e-05
9.9960405e-06
3.114773e-05
3.136844e-05
3.1624514e-05
3.1881243e-05
3.2104593e-05
3.2268106e-05
3.2355378e-05
3.2358284e-05
3.2273891e-05
3.2101075e-05
3.1837862e-05
3.1480157e-05
3.1021102e-05
3.0450939e-05
2.9756111e-05
2.8917729e-05
2.7909197e-05
2.669346e-05
2.5220429e-05
2.342427e-05
2.1217997e-05
1.8479908e-05
1.5029921e-05
1.0629092e-05
5.1206585e-06
1.8194561e-05
1.8254617e-05
1.8325916e-05
1.8391419e-05
1.843367e-05
1.8438407e-05
1.8396192e-05
1.8302029e-05
1.8153953e-05
1.7951461e-05
1.7694196e-05
1.7381282e-05
1.7010919e-05
1.6580449e-05
1.6085775e-05
1.5520621e-05
1.4875108e-05
1.4133835e-05
1.327359e-05
1.226054e-05
1.1046129e-05
9.5615008e-06
7.7156779e-06
5.4225427e-06
2.7118849e-06
1.0449577e-05
1.044819e-05
1.04488e-05
1.0443456e-05
1.042364e-05
1.0382211e-05
1.0314225e-05
1.0217013e-05
1.0089586e-05
9.9319136e-06
9.7442698e-06
9.5268846e-06
9.2797402e-06
9.0024764e-06
8.6941994e-06
8.3528911e-06
7.9744783e-06
7.5514912e-06
7.0715402e-06
6.5154634e-06
5.8550861e-06
5.0521362e-06
4.0620542e-06
2.854829e-06
1.4685048e-06
6.0738789e-06
6.0581714e-06
6.0419028e-06
6.0215267e-06
5.9931407e-06
5.9533394e-06
5.8997491e-06
5.8310618e-06
5.746851e-06
5.6472348e-06
5.532558e-06
5.4031909e-06
5.2593971e-06
5.1012008e-06
4.9282387e-06
4.7393569e-06
4.5319376e-06
4.3010473e-06
4.0383053e-06
3.7306689e-06
3.3599681e-06
2.9031454e-06
2.3361869e-06
1.6462337e-06
8.5816472e-07
3.7382094e-06
3.7257025e-06
3.7125655e-06
3.6972821e-06
3.6781317e-06
3.6535568e-06
3.6224443e-06
3.5841757e-06
3.5385497e-06
3.4856385e-06
3.4256295e-06
3.3587045e-06
3.2849302e-06
3.204142e-06
3.1157381e-06
3.0184078e-06
2.9095992e-06
2.784898e-06
2.6372382e-06
2.4562094e-06
2.2279431e-06
1.9361373e-06
1.5651351e-06
1.1069454e-06
5.781601e-07
2.5630297e-06
2.5574866e-06
2.5518949e-06
2.5456138e-06
2.5378779e-06
2.5279686e-06
2.5153436e-06
2.4996707e-06
2.4808018e-06
2.4587034e-06
2.4333766e-06
2.4047774e-06
2.3727254e-06
2.3367799e-06
2.2960411e-06
2.2488718e-06
2.1924719e-06
2.1223468e-06
2.0317429e-06
1.9112201e-06
1.7486269e-06
1.5303377e-06
1.2439533e-06
8.8338408e-07
4.6131268e-07
2.0143423e-06
2.0146358e-06
2.0154153e-06
2.0163885e-06
2.0171859e-06
2.0174408e-06
2.0168473e-06
2.0151792e-06
2.0122796e-06
2.0080268e-06
2.0022884e-06
1.9948583e-06
1.9853744e-06
1.9731901e-06
1.9571777e-06
1.9354411e-06
1.904933e-06
1.8609739e-06
1.7967645e-06
1.7030635e-06
1.5682988e-06
1.379742e-06
1.1261596e-06
8.0223073e-07
4.1738798e-07
1.7889618e-06
1.7929679e-06
1.7977909e-06
1.8032646e-06
1.8091742e-06
1.8152925e-06
1.8214056e-06
1.8273227e-06
1.832871e-06
1.8378748e-06
1.8421233e-06
1.8453165e-06
1.8469827e-06
1.8463478e-06
1.8421362e-06
1.8322827e-06
1.8135513e-06
1.7810791e-06
1.727914e-06
1.6447278e-06
1.5199981e-06
1.3411786e-06
1.0974334e-06
7.8406634e-07
4.1053353e-07
1.7236881e-06
1.7296401e-06
1.7365624e-06
1.7443305e-06
1.7527878e-06
1.7617618e-06
1.7710752e-06
1.780551e-06
1.7900075e-06
1.7992436e-06
1.80801e-06
1.8159582e-06
1.8225576e-06
1.8269614e-06
1.8278029e-06
1.8229046e-06
1.8088909e-06
1.7807351e-06
1.7313011e-06
1.651067e-06
1.5283397e-06
1.3504614e-06
1.1066494e-06
7.9251202e-07
4.1961484e-07
1.7347269e-06
1.7414715e-06
1.7492257e-06
1.7578793e-06
1.7672988e-06
1.7773353e-06
1.7878293e-06
1.7986129e-06
1.8095042e-06
1.820294e-06
1.8307176e-06
1.840405e-06
1.8487951e-06
1.854999e-06
1.8575912e-06
1.8543125e-06
1.8416751e-06
1.8145014e-06
1.7654617e-06
1.6847975e-06
1.5605519e-06
1.3798163e-06
1.131662e-06
8.1176084e-07
4.3155107e-07
1.7808817e-06
1.7877658e-06
1.7956378e-06
1.8043941e-06
1.8139134e-06
1.8240599e-06
1.8346864e-06
1.8456337e-06
1.8567252e-06
1.8677525e-06
1.8784478e-06
1.8884326e-06
1.8971297e-06
1.9036233e-06
1.9064445e-06
1.9032663e-06
1.8905013e-06
1.8628251e-06
1.8127089e-06
1.7301359e-06
1.6028391e-06
1.417584e-06
1.1631822e-06
8.3529412e-07
4.4715339e-07
1.8427067e-06
1.849401e-06
1.8570337e-06
1.8655066e-06
1.8747071e-06
1.8845098e-06
1.8947776e-06
1.9053604e-06
1.9160891e-06
1.9267606e-06
1.937109e-06
1.9467529e-06
1.9551059e-06
1.9612315e-06
1.9636235e-06
1.9598929e-06
1.9463548e-06
1.9175391e-06
1.8657106e-06
1.7805784e-06
1.6495391e-06
1.4589917e-06
1.197418e-06
8.6023402e-07
4.5882641e-07
1.9113624e-06
1.9177206e-06
1.9249577e-06
1.9329813e-06
1.9416865e-06
1.9509566e-06
1.960664e-06
1.9706677e-06
1.9808065e-06
1.9908839e-06
2.0006379e-06
2.0096865e-06
2.017436e-06
2.0229316e-06
2.0246318e-06
2.0200866e-06
2.0055129e-06
1.9752921e-06
1.9214754e-06
1.8334863e-06
1.6983692e-06
1.5021431e-06
1.2329268e-06
8.857322e-07
4.7179585e-07
1.982952e-06
1.9889211e-06
1.9957086e-06
2.0032275e-06
2.0113798e-06
2.0200574e-06
2.029141e-06
2.0384982e-06
2.0479756e-06
2.0573833e-06
2.0664631e-06
2.0748334e-06
2.0818936e-06
2.0866709e-06
2.0875886e-06
2.0821348e-06
2.0664264e-06
2.0346926e-06
1.9787651e-06
1.887773e-06
1.7483997e-06
1.5462815e-06
1.2692021e-06
9.1200545e-07
4.8714536e-07
2.0557756e-06
2.0613468e-06
2.0676774e-06
2.0746863e-06
2.0822821e-06
2.090364e-06
2.0988207e-06
2.1075276e-06
2.1163385e-06
2.1250695e-06
2.1334663e-06
2.1411471e-06
2.1475042e-06
2.1515466e-06
2.1516617e-06
2.1452745e-06
2.1284001e-06
2.0951121e-06
2.0370191e-06
1.9429499e-06
1.7992198e-06
1.5910676e-06
1.3059059e-06
9.382504e-07
4.9859768e-07
2.1290586e-06
2.1342411e-06
2.1401273e-06
2.1466414e-06
2.1536983e-06
2.161204e-06
2.1690541e-06
2.1771313e-06
2.1852962e-06
2.1933701e-06
2.2011022e-06
2.2081099e-06
2.2137778e-06
2.2170964e-06
2.2164161e-06
2.2090981e-06
2.1910538e-06
2.1562e-06
2.0959205e-06
1.9987421e-06
1.850608e-06
1.6363435e-06
1.3429435e-06
9.6453629e-07
5.1172361e-07
2.2023866e-06
2.2071967e-06
2.2126578e-06
2.2186993e-06
2.2252419e-06
2.2321979e-06
2.2394695e-06
2.2469457e-06
2.254493e-06
2.2619381e-06
2.2690326e-06
2.2753926e-06
2.2803949e-06
2.2830104e-06
2.2815521e-06
2.2733164e-06
2.2541105e-06
2.2176936e-06
2.1552255e-06
2.0549345e-06
1.9023964e-06
1.6820258e-06
1.3804108e-06
9.9140424e-07
5.2370474e-07
2.275466e-06
2.2799215e-06
2.2849785e-06
2.2905712e-06
2.2966256e-06
2.3030597e-06
2.3097819e-06
2.316687e-06
2.3236471e-06
2.3304931e-06
2.3369791e-06
2.3427194e-06
2.3470821e-06
2.3490182e-06
2.3468026e-06
2.3376666e-06
2.3173128e-06
2.2793435e-06
2.2146967e-06
2.1113096e-06
1.9544056e-06
1.7280142e-06
1.4183608e-06
1.0191306e-06
5.3933591e-07
2.3480249e-06
2.3521438e-06
2.3568175e-06
2.3619846e-06
2.3675761e-06
2.3735154e-06
2.3797165e-06
2.3860797e-06
2.3924821e-06
2.3987586e-06
2.4046648e-06
2.409813e-06
2.4135623e-06
2.4148434e-06
2.4118927e-06
2.4018758e-06
2.3803913e-06
2.3408853e-06
2.2740779e-06
2.1676227e-06
2.0064082e-06
1.7741108e-06
1.4566e-06
1.0471336e-06
5.5439758e-07
2.4197709e-06
2.4235707e-06
2.4278811e-06
2.4326449e-06
2.4377978e-06
2.4432683e-06
2.4489755e-06
2.4548247e-06
2.4606978e-06
2.4664329e-06
2.4717873e-06
2.4763707e-06
2.4795326e-06
2.4801829e-06
2.4765198e-06
2.4656432e-06
2.4430479e-06
2.4020258e-06
2.3330817e-06
2.223592e-06
2.0581215e-06
1.820016e-06
1.4948523e-06
1.075752e-06
5.7367155e-07
2.4903668e-06
2.4938645e-06
2.4978308e-06
2.5022128e-06
2.5069505e-06
2.5119771e-06
2.5172165e-06
2.5225787e-06
2.5279497e-06
2.533171e-06
2.5380008e-06
2.5420458e-06
2.5446459e-06
2.5446902e-06
2.540338e-06
2.5286243e-06
2.5049412e-06
2.462428e-06
2.3913779e-06
2.2788933e-06
2.1092153e-06
1.8653468e-06
1.5325376e-06
1.1036367e-06
5.8960943e-07
2.5594044e-06
2.5626162e-06
2.5662573e-06
2.5702784e-06
2.5746237e-06
2.5792306e-06
2.5840275e-06
2.5889289e-06
2.5938247e-06
2.5985591e-06
2.602891e-06
2.6064238e-06
2.6084877e-06
2.6079506e-06
2.6029337e-06
2.5904073e-06
2.5656623e-06
2.5216885e-06
2.448571e-06
2.3331423e-06
2.1593188e-06
1.9097447e-06
1.5693223e-06
1.1307658e-06
6.0571985e-07
2.6263608e-06
2.6293031e-06
2.6326375e-06
2.6363182e-06
2.6402934e-06
2.6445044e-06
2.648884e-06
2.6533505e-06
2.6577975e-06
2.6620716e-06
2.6659321e-06
2.6689791e-06
2.6705324e-06
2.6694393e-06
2.6637828e-06
2.65047e-06
2.6246924e-06
2.5792938e-06
2.5041562e-06
2.3858479e-06
2.2079627e-06
1.9527798e-06
1.6048289e-06
1.1565564e-06
6.1981685e-07
2.6905239e-06
2.6932128e-06
2.6962589e-06
2.6996198e-06
2.7032471e-06
2.7070862e-06
2.7110734e-06
2.715131e-06
2.7191556e-06
2.7229962e-06
2.726412e-06
2.7289995e-06
2.7300683e-06
2.728445e-06
2.7221753e-06
2.7081042e-06
2.6813269e-06
2.6345453e-06
2.5574448e-06
2.4363362e-06
2.2544971e-06
1.9938428e-06
1.6385197e-06
1.1806444e-06
6.3220271e-07
2.7508627e-06
2.7533146e-06
2.7560911e-06
2.7591529e-06
2.762455e-06
2.7659461e-06
2.7695663e-06
2.7732412e-06
2.7768703e-06
2.7803044e-06
2.7833026e-06
2.7854574e-06
2.7860684e-06
2.7839414e-06
2.7770859e-06
2.7622871e-06
2.7345472e-06
2.6864322e-06
2.6074394e-06
2.4836334e-06
2.2979899e-06
2.0320813e-06
1.6696891e-06
1.2024626e-06
6.3974846e-07
2.8058188e-06
2.8080503e-06
2.8105762e-06
2.81336e-06
2.8163598e-06
2.8195276e-06
2.8228067e-06
2.8261257e-06
2.8293868e-06
2.8324422e-06
2.8350505e-06
2.8368e-06
2.8369802e-06
2.834377e-06
2.8269648e-06
2.8114717e-06
2.7828124e-06
2.7334258e-06
2.6526345e-06
2.5262766e-06
2.3370546e-06
2.0662498e-06
1.6974087e-06
1.2221143e-06
6.4990025e-07
2.8529823e-06
2.8550104e-06
2.8573051e-06
2.8598325e-06
2.8625537e-06
2.8654236e-06
2.8683882e-06
2.871379e-06
2.8743003e-06
2.8770055e-06
2.8792523e-06
2.8806248e-06
2.8804024e-06
2.8773517e-06
2.8694143e-06
2.8532653e-06
2.8237402e-06
2.7731646e-06
2.6907089e-06
2.5620194e-06
2.3695774e-06
2.0944542e-06
1.7201105e-06
1.2383846e-06
6.5919196e-07
2.8886215e-06
2.8904634e-06
2.8925467e-06
2.8948399e-06
2.8973067e-06
2.8999046e-06
2.9025822e-06
2.9052732e-06
2.9078839e-06
2.9102683e-06
2.912183e-06
2.9132078e-06
2.9126122e-06
2.9091454e-06
2.9007188e-06
2.883962e-06
2.8536437e-06
2.8019988e-06
2.7180823e-06
2.5874056e-06
2.3923124e-06
2.1137762e-06
1.7353002e-06
1.2490589e-06
6.6530688e-07
2.9070432e-06
2.9087161e-06
2.9106078e-06
2.9126891e-06
2.9149259e-06
2.9172781e-06
2.9196964e-06
2.9221167e-06
2.9244464e-06
2.9265401e-06
2.928153e-06
2.9288607e-06
2.9279243e-06
2.9240774e-06
2.9152078e-06
2.89791e-06
2.8669068e-06
2.8143785e-06
2.7293231e-06
2.5972069e-06
2.4003632e-06
2.1198247e-06
1.7392676e-06
1.2511678e-06
6.6608577e-07
2.899801e-06
2.9013214e-06
2.9030405e-06
2.9049312e-06
2.9069615e-06
2.9090934e-06
2.9112797e-06
2.9134575e-06
2.9155355e-06
2.9173685e-06
2.9187107e-06
2.9191342e-06
2.917894e-06
2.9137134e-06
2.9044661e-06
2.8867306e-06
2.8552171e-06
2.8021072e-06
2.7164324e-06
2.5837505e-06
2.3865724e-06
2.1062206e-06
1.7267857e-06
1.2413017e-06
6.6076523e-07
2.8548503e-06
2.8562326e-06
2.8577957e-06
2.8595141e-06
2.861358e-06
2.8632916e-06
2.8652694e-06
2.8672302e-06
2.8690835e-06
2.8706845e-06
2.8717871e-06
2.8719626e-06
2.8704644e-06
2.8660152e-06
2.8564918e-06
2.8384881e-06
2.8067545e-06
2.7535606e-06
2.6681073e-06
2.5362429e-06
2.3409282e-06
2.0641018e-06
1.6905749e-06
1.2140538e-06
6.4576404e-07
2.7559051e-06
2.7571605e-06
2.7585786e-06
2.7601356e-06
2.7618046e-06
2.7635531e-06
2.7653378e-06
2.7670994e-06
2.7687488e-06
2.7701423e-06
2.7710354e-06
2.7710032e-06
2.7693074e-06
2.7646864e-06
2.7550503e-06
2.7370591e-06
2.705587e-06
2.653122e-06
2.5692299e-06
2.4403302e-06
2.250208e-06
1.981865e-06
1.6212634e-06
1.1629738e-06
6.1809365e-07
2.5825094e-06
2.583643e-06
2.5849176e-06
2.5863097e-06
2.5877978e-06
2.5893565e-06
2.590947e-06
2.5925124e-06
2.5939665e-06
2.5951679e-06
2.5958772e-06
2.5956822e-06
2.5938712e-06
2.5892237e-06
2.5797313e-06
2.5622033e-06
2.5317659e-06
2.481314e-06
2.4010509e-06
2.2783435e-06
2.0982862e-06
1.8455089e-06
1.5076603e-06
1.0803921e-06
5.7403689e-07
2.3116589e-06
2.3126688e-06
2.3137938e-06
2.3150033e-06
2.3162798e-06
2.3176161e-06
2.3189846e-06
2.3203333e-06
2.3215803e-06
2.3225886e-06
2.3231281e-06
2.3228167e-06
2.3210064e-06
2.3165426e-06
2.3075687e-06
2.2911795e-06
2.2629456e-06
2.216429e-06
2.1428289e-06
2.0309325e-06
1.867719e-06
1.6400722e-06
1.3378724e-06
9.5805039e-07
5.0948263e-07
1.9220362e-06
1.9229333e-06
1.9239401e-06
1.9249796e-06
1.9260182e-06
1.9270764e-06
1.9281676e-06
1.9292521e-06
1.9302539e-06
1.9310428e-06
1.931403e-06
1.9310203e-06
1.9293996e-06
1.9254046e-06
1.9174347e-06
1.9030997e-06
1.8786895e-06
1.8387636e-06
1.7759526e-06
1.6810139e-06
1.5434246e-06
1.3529015e-06
1.1019637e-06
7.890103e-07
4.2125173e-07
1.4012232e-06
1.4021027e-06
1.4031654e-06
1.4042003e-06
1.405237e-06
1.4059955e-06
1.4067507e-06
1.4075093e-06
1.408158e-06
1.4086786e-06
1.4088336e-06
1.4084741e-06
1.4075395e-06
1.404411e-06
1.3980199e-06
1.3868636e-06
1.3682911e-06
1.338233e-06
1.2912296e-06
1.2205928e-06
1.1188688e-06
9.7904262e-07
7.9645769e-07
5.7111075e-07
3.0897255e-07
7.5681985e-07
7.577369e-07
7.58925e-07
7.6020806e-07
7.6316548e-07
7.6380335e-07
7.6420351e-07
7.6454178e-07
7.6181702e-07
7.6199858e-07
7.6200271e-07
7.620059e-07
7.6315516e-07
7.6155488e-07
7.576019e-07
7.5103648e-07
7.4053329e-07
7.2379197e-07
6.9773913e-07
6.5883397e-07
6.0310697e-07
5.269872e-07
4.283938e-07
3.0819489e-07
1.7188481e-07
)
;

boundaryField
{
    Walls
    {
        type            kqRWallFunction;
        value           nonuniform List<scalar> 
38
(
4.3583529e-06
2.5403178e-06
7.9452765e-06
3.7597036e-05
0.00028117311
0.0023606287
0.056390967
0.060979793
0.018490814
0.027421546
0.034508576
0.041542988
0.047602687
0.051818653
0.056018826
0.059542277
0.06136934
0.06398325
0.066703645
0.067862264
0.069320255
0.070398813
0.070726624
0.071495942
0.072165197
0.072790883
0.073301116
0.073258335
0.072989377
0.073163141
0.073028121
0.072644273
0.072736164
0.072390789
0.072602184
0.072578319
0.071789044
0.06697372
)
;
    }
    Inlet
    {
        type            turbulentIntensityKineticEnergyInlet;
        intensity       0.05;
        value           nonuniform List<scalar> 3(0.0080890887 0.0090339648 0.0094937912);
    }
    Outlet
    {
        type            inletOutlet;
        inletValue      uniform 0;
        value           nonuniform List<scalar> 
86
(
0
0
0
0
0
0
0
0
0
0
0
0
0
0
0
0
0
0
0
0
0
0
0
0
0
0
0
0
0
0
0.0031190903
0.0032208035
0.0026234382
0
0
0
0
0.00019836459
0.0001572152
0.00010384395
0
0
0
0
0
1.4685048e-06
8.5816472e-07
5.781601e-07
4.6131268e-07
0
0
0
0
0
0
0
0
0
0
0
0
0
0
0
0
0
0
0
0
0
0
0
0
0
0
0
0
0
0
0
0
0
0
0
0.0025644582
0.0032221307
)
;
    }
    Front
    {
        type            wedge;
    }
    Back
    {
        type            wedge;
    }
    defaultFaces
    {
        type            empty;
    }
}


// ************************************************************************* //
