/*--------------------------------*- C++ -*----------------------------------*\
| =========                 |                                                 |
| \\      /  F ield         | OpenFOAM: The Open Source CFD Toolbox           |
|  \\    /   O peration     | Version:  4.0                                   |
|   \\  /    A nd           | Web:      www.OpenFOAM.org                      |
|    \\/     M anipulation  |                                                 |
\*---------------------------------------------------------------------------*/
FoamFile
{
    version     2.0;
    format      ascii;
    class       volScalarField;
    location    "0.29";
    object      nut;
}
// * * * * * * * * * * * * * * * * * * * * * * * * * * * * * * * * * * * * * //

dimensions      [0 2 -1 0 0 0 0];

internalField   nonuniform List<scalar> 
1740
(
1.4515376e-05
1.3753587e-05
1.2391629e-06
1.6129885e-05
6.7890835e-06
1.8243704e-06
2.091591e-05
5.2993384e-06
2.2828672e-06
1.4193527e-05
4.7567336e-06
2.7327761e-06
1.7538296e-05
4.3386351e-06
3.1164815e-06
1.5820833e-05
4.0290624e-06
3.3814838e-06
1.35134e-05
3.8255556e-06
3.643951e-06
1.1751647e-05
3.6969076e-06
3.8628329e-06
1.0550029e-05
3.6060495e-06
3.9755045e-06
9.5519e-06
3.5383523e-06
4.1366238e-06
8.6723381e-06
3.5039586e-06
4.303608e-06
7.9631044e-06
3.4926936e-06
4.3741452e-06
7.3192144e-06
3.4832621e-06
4.4638541e-06
6.7609425e-06
3.4901323e-06
4.5296598e-06
6.4261934e-06
3.505237e-06
4.5490663e-06
6.1461846e-06
3.5022726e-06
4.5955289e-06
5.8508686e-06
3.4994156e-06
4.63714e-06
5.5499462e-06
3.5172446e-06
4.6752705e-06
5.3449189e-06
3.538508e-06
4.7051983e-06
5.1518346e-06
3.5598867e-06
4.7034323e-06
5.0142424e-06
3.5598388e-06
4.6868228e-06
4.8787166e-06
3.5691113e-06
4.6975018e-06
4.7332409e-06
3.5671739e-06
4.6895948e-06
4.6021314e-06
3.5430194e-06
4.6656286e-06
4.5027646e-06
3.523689e-06
4.6709401e-06
4.4121434e-06
3.5187049e-06
4.6494922e-06
4.316846e-06
3.5257234e-06
4.6632533e-06
4.2371449e-06
3.5429134e-06
4.6618719e-06
4.1830419e-06
3.562582e-06
4.6137091e-06
3.0348327e-06
3.3315168e-06
4.3200977e-06
1.9223087e-06
2.159851e-06
4.419496e-06
7.2126223e-06
7.3666386e-06
6.7053529e-06
6.5491249e-06
6.7485047e-06
6.3799937e-06
5.1728295e-06
5.1111574e-06
4.863576e-06
4.3181422e-06
4.2472049e-06
4.1134392e-06
3.7569796e-06
3.7149375e-06
3.6557818e-06
3.34834e-06
3.3307174e-06
3.3142613e-06
3.0001981e-06
2.9966012e-06
3.0010693e-06
2.6511434e-06
2.6537415e-06
2.6658503e-06
2.2673014e-06
2.2714865e-06
2.2839591e-06
1.8439047e-06
1.8474537e-06
1.8569776e-06
1.4049557e-06
1.4071572e-06
1.412941e-06
9.9379492e-07
9.9477471e-07
9.9746039e-07
6.5268117e-07
6.5288504e-07
6.5363706e-07
4.0259561e-07
4.0245103e-07
4.0230753e-07
2.386764e-07
2.3845003e-07
2.3805809e-07
1.4119519e-07
1.4102735e-07
1.4070693e-07
8.7757362e-08
8.7657786e-08
8.7461081e-08
6.0368327e-08
6.0321265e-08
6.0229159e-08
4.7440444e-08
4.742771e-08
4.7406654e-08
4.2153706e-08
4.2160732e-08
4.2181483e-08
4.0729519e-08
4.0746778e-08
4.0789264e-08
4.1173265e-08
4.1195266e-08
4.1247471e-08
4.2477278e-08
4.2501054e-08
4.255638e-08
4.4155292e-08
4.4179279e-08
4.4234317e-08
4.5984298e-08
4.6007691e-08
4.6060785e-08
4.7867577e-08
4.7889975e-08
4.7940387e-08
4.9765419e-08
4.9786635e-08
4.9834087e-08
5.1661929e-08
5.1681892e-08
5.1726325e-08
5.3550044e-08
5.3568738e-08
5.3610195e-08
5.5425198e-08
5.5442638e-08
5.5481207e-08
5.7282873e-08
5.7299089e-08
5.7334877e-08
5.9117764e-08
5.9132796e-08
5.9165918e-08
6.0923584e-08
6.0937479e-08
6.0968055e-08
6.2693103e-08
6.2705911e-08
6.2734065e-08
6.4418256e-08
6.4430029e-08
6.4455888e-08
6.6090295e-08
6.610109e-08
6.6124783e-08
6.7699985e-08
6.770986e-08
6.7731525e-08
6.923785e-08
6.924687e-08
6.9266649e-08
7.0694486e-08
7.0702717e-08
7.072076e-08
7.2060885e-08
7.2068399e-08
7.2084866e-08
7.3328706e-08
7.3335579e-08
7.3350636e-08
7.4490296e-08
7.4496606e-08
7.4510428e-08
7.5538251e-08
7.5544079e-08
7.5556843e-08
7.6464252e-08
7.6469678e-08
7.6481561e-08
7.7256863e-08
7.726197e-08
7.7273147e-08
7.7894275e-08
7.7899127e-08
7.7909751e-08
7.8342054e-08
7.8346713e-08
7.835692e-08
7.8531932e-08
7.853644e-08
7.8546332e-08
7.8284947e-08
7.8289274e-08
7.8298858e-08
4.1827673e-06
4.5051288e-06
6.6843246e-06
8.3956409e-06
5.9969637e-06
6.0376547e-06
4.7195209e-06
4.824602e-06
4.0676572e-06
4.1767645e-06
3.6581614e-06
3.7577096e-06
3.3395285e-06
3.4263881e-06
3.0341219e-06
3.1068394e-06
2.6977231e-06
2.7554705e-06
2.3098612e-06
2.3526219e-06
1.8751602e-06
1.9039991e-06
1.4238057e-06
1.4409714e-06
1.0027339e-06
1.0113607e-06
6.554655e-07
6.5884196e-07
4.0248175e-07
4.0324967e-07
2.3768567e-07
2.3748518e-07
1.403294e-07
1.3997593e-07
8.721489e-08
8.6961433e-08
6.0115536e-08
6.0001879e-08
4.7388886e-08
4.7385035e-08
4.2221739e-08
4.2286638e-08
4.0859868e-08
4.0960935e-08
4.1331203e-08
4.1447348e-08
4.2643608e-08
4.276284e-08
4.4320115e-08
4.4436334e-08
4.6142865e-08
4.6253343e-08
4.8017831e-08
4.8121581e-08
4.9906636e-08
5.0003489e-08
5.1794013e-08
5.188414e-08
5.3673177e-08
5.375687e-08
5.5539678e-08
5.561726e-08
5.7389044e-08
5.7460831e-08
5.9215987e-08
5.9282283e-08
6.1014231e-08
6.1075327e-08
6.2776549e-08
6.2832727e-08
6.4494883e-08
6.4546422e-08
6.6160496e-08
6.6207673e-08
6.7764165e-08
6.7807267e-08
6.9296435e-08
6.9335756e-08
7.0747923e-08
7.078377e-08
7.2109648e-08
7.2142344e-08
7.3373292e-08
7.3403176e-08
7.4531222e-08
7.4558643e-08
7.5576044e-08
7.5601361e-08
7.6499437e-08
7.6523004e-08
7.7289957e-08
7.7312119e-08
7.7925735e-08
7.7946812e-08
7.837229e-08
7.8392567e-08
7.8561254e-08
7.858096e-08
7.8313394e-08
7.8332666e-08
3.6144375e-10
1.3198582e-08
1.9283721e-07
8.2579213e-07
1.6423212e-06
2.2283895e-06
2.5727702e-06
2.780575e-06
2.9240168e-06
3.0385836e-06
3.1411438e-06
3.2445579e-06
3.3472606e-06
3.4479097e-06
3.545659e-06
3.6391975e-06
3.7261845e-06
3.8026683e-06
3.8622082e-06
3.8945495e-06
3.8834916e-06
3.8032919e-06
3.6119937e-06
3.2331144e-06
2.4269387e-06
2.1067258e-10
2.6870784e-08
3.5985087e-07
1.3771097e-06
2.5699516e-06
3.3775773e-06
3.8497905e-06
4.1556068e-06
4.3892583e-06
4.5932978e-06
4.7878941e-06
4.9846526e-06
5.1826735e-06
5.3805979e-06
5.5767572e-06
5.7684692e-06
5.9511487e-06
6.1173125e-06
6.2547e-06
6.3436265e-06
6.3525668e-06
6.2302188e-06
5.8902047e-06
5.1735782e-06
3.6546092e-06
6.5891182e-10
7.8828411e-08
8.5772484e-07
2.5080495e-06
3.7931316e-06
4.5291196e-06
4.9920842e-06
5.3369158e-06
5.6360347e-06
5.9216002e-06
6.2086548e-06
6.5036165e-06
6.8052369e-06
7.1121977e-06
7.4229645e-06
7.7344532e-06
8.0405462e-06
8.3315579e-06
8.5904039e-06
8.7892126e-06
8.8825702e-06
8.7946161e-06
8.3924863e-06
7.4217916e-06
5.2461581e-06
3.1178799e-09
2.8549582e-07
2.0640543e-06
4.0047995e-06
5.0448175e-06
5.6319311e-06
6.0381102e-06
6.3800161e-06
6.7077845e-06
7.03975e-06
7.3864962e-06
7.7510073e-06
8.1294553e-06
8.5203406e-06
8.9232495e-06
9.3366193e-06
9.7553649e-06
1.017004e-05
1.0564374e-05
1.0911253e-05
1.116577e-05
1.1251504e-05
1.1027888e-05
1.0191361e-05
7.825053e-06
2.3311571e-08
1.1394266e-06
3.9929769e-06
5.6020639e-06
6.4532472e-06
6.9733816e-06
7.3559352e-06
7.7011617e-06
8.0501714e-06
8.4042106e-06
8.7765224e-06
9.174203e-06
9.5861318e-06
1.0007852e-05
1.0441328e-05
1.0890882e-05
1.1355472e-05
1.183022e-05
1.2305173e-05
1.2762463e-05
1.3171891e-05
1.3484912e-05
1.362731e-05
1.350637e-05
1.3095618e-05
1.9529886e-07
2.7551788e-06
5.907372e-06
7.7149758e-06
8.6316013e-06
9.0487791e-06
9.2441136e-06
9.3796687e-06
9.5169605e-06
9.6744727e-06
9.8601756e-06
1.0080351e-05
1.0335414e-05
1.0625129e-05
1.0950181e-05
1.1311056e-05
1.1707357e-05
1.2136583e-05
1.2593261e-05
1.3067372e-05
1.354154e-05
1.3987954e-05
1.4365359e-05
1.4627833e-05
1.4721084e-05
4.3421506e-06
4.3137701e-06
4.3604577e-06
4.4763539e-06
4.6569864e-06
4.8899689e-06
5.1647035e-06
5.4788569e-06
5.8350608e-06
6.2352646e-06
6.6788695e-06
7.1628255e-06
7.6815328e-06
8.2278291e-06
8.7945017e-06
9.3759712e-06
9.9688495e-06
1.0570925e-05
1.1179615e-05
1.178997e-05
1.2391887e-05
1.2967237e-05
1.3487204e-05
1.3917781e-05
1.4195125e-05
9.1204781e-06
9.3761561e-06
9.7777293e-06
1.0197956e-05
1.0375436e-05
1.0338949e-05
1.0220603e-05
1.0121641e-05
1.0082559e-05
1.0105129e-05
1.0185359e-05
1.0318557e-05
1.0502365e-05
1.0736067e-05
1.1018968e-05
1.1349911e-05
1.1726417e-05
1.2144157e-05
1.259596e-05
1.3069921e-05
1.35465e-05
1.3995534e-05
1.4373329e-05
1.4632703e-05
1.4721371e-05
6.4083912e-06
6.8187466e-06
7.2510668e-06
7.651706e-06
7.9533836e-06
8.1693455e-06
8.3596064e-06
8.5650322e-06
8.79302e-06
9.0582171e-06
9.3572714e-06
9.6806986e-06
1.0023224e-05
1.03905e-05
1.0785981e-05
1.1209987e-05
1.1659541e-05
1.2127714e-05
1.260184e-05
1.3060706e-05
1.3470117e-05
1.3777016e-05
1.3902699e-05
1.3751602e-05
1.3300731e-05
5.1374608e-06
5.4943614e-06
5.8448417e-06
6.160811e-06
6.4253078e-06
6.6509487e-06
6.8680168e-06
7.0968589e-06
7.3482294e-06
7.6284285e-06
7.9351864e-06
8.2654469e-06
8.6186623e-06
8.9956689e-06
9.3959884e-06
9.8162523e-06
1.0249072e-05
1.0681455e-05
1.1092314e-05
1.1448413e-05
1.1697468e-05
1.1754941e-05
1.1472409e-05
1.0537783e-05
8.0117227e-06
4.4190911e-06
4.7075379e-06
4.9959123e-06
5.2636815e-06
5.5047619e-06
5.7270489e-06
5.9447926e-06
6.1704926e-06
6.4123287e-06
6.6741279e-06
6.9553346e-06
7.2545223e-06
7.5712164e-06
7.904513e-06
8.2522212e-06
8.6084935e-06
8.9629199e-06
9.2986713e-06
9.5897839e-06
9.7970226e-06
9.8612834e-06
9.6920949e-06
9.1444225e-06
7.9599731e-06
5.5144902e-06
3.9426564e-06
4.1676488e-06
4.3999772e-06
4.6236099e-06
4.8344017e-06
5.0366236e-06
5.2380282e-06
5.4460039e-06
5.6658855e-06
5.9002192e-06
6.1490527e-06
6.4114644e-06
6.6864015e-06
6.971854e-06
7.2638361e-06
7.5552791e-06
7.8346741e-06
8.0843854e-06
8.2784145e-06
8.3793668e-06
8.3342201e-06
8.06788e-06
7.4710104e-06
6.3652214e-06
4.2911845e-06
3.5688664e-06
3.7431276e-06
3.9280646e-06
4.1115933e-06
4.2896961e-06
4.4639422e-06
4.6384769e-06
4.8177149e-06
5.0050648e-06
5.2022758e-06
5.4095276e-06
5.6260969e-06
5.8506501e-06
6.0807789e-06
6.3122013e-06
6.5378746e-06
6.7469698e-06
6.9235548e-06
7.0450482e-06
7.0804637e-06
6.9884901e-06
6.7151747e-06
6.1892077e-06
5.3008157e-06
3.722754e-06
3.2164496e-06
3.3502583e-06
3.4950884e-06
3.6421086e-06
3.7874565e-06
3.9310696e-06
4.0749118e-06
4.2214936e-06
4.3728831e-06
4.530185e-06
4.6934926e-06
4.8621146e-06
5.0346423e-06
5.2086777e-06
5.3803002e-06
5.5434075e-06
5.6889364e-06
5.8039714e-06
5.8708396e-06
5.8663967e-06
5.7618889e-06
5.5242235e-06
5.1211169e-06
4.5413605e-06
3.8994656e-06
2.8379626e-06
2.9383399e-06
3.0484523e-06
3.1619613e-06
3.2754042e-06
3.3878456e-06
3.4999406e-06
3.6129518e-06
3.7280333e-06
3.8458032e-06
3.9662163e-06
4.0886045e-06
4.2116796e-06
4.3333581e-06
4.4504385e-06
4.5581587e-06
4.6496818e-06
4.7155624e-06
4.7433245e-06
4.7174164e-06
4.6200418e-06
4.4340196e-06
4.1508924e-06
3.7944676e-06
3.4840734e-06
2.4118825e-06
2.4839015e-06
2.5636386e-06
2.646623e-06
2.7299273e-06
2.8122616e-06
2.8935208e-06
2.9741889e-06
3.0548109e-06
3.1356582e-06
3.2165821e-06
3.2969879e-06
3.3758208e-06
3.4514849e-06
3.5216712e-06
3.5831119e-06
3.6312991e-06
3.6602278e-06
3.6622987e-06
3.6286113e-06
3.5500595e-06
3.420052e-06
3.2406695e-06
3.0360757e-06
2.8737185e-06
1.9434865e-06
1.9916086e-06
2.0452704e-06
2.10139e-06
2.157646e-06
2.2127197e-06
2.2661333e-06
2.3179054e-06
2.3681993e-06
2.4170671e-06
2.4643162e-06
2.5094724e-06
2.5517738e-06
2.5901617e-06
2.6232233e-06
2.649099e-06
2.6653778e-06
2.6690369e-06
2.6565279e-06
2.6241617e-06
2.5689939e-06
2.4903462e-06
2.3913686e-06
2.2757146e-06
2.1008898e-06
1.4645835e-06
1.4935919e-06
1.5261519e-06
1.5602261e-06
1.5941064e-06
1.6266517e-06
1.6572849e-06
1.6857974e-06
1.712146e-06
1.7362692e-06
1.7579888e-06
1.7769755e-06
1.7927628e-06
1.8047762e-06
1.8123463e-06
1.8147115e-06
1.8110177e-06
1.800356e-06
1.7818978e-06
1.7552003e-06
1.7206939e-06
1.6800809e-06
1.6352814e-06
1.5804197e-06
1.4559266e-06
1.0235315e-06
1.0387334e-06
1.0559205e-06
1.0738336e-06
1.0913208e-06
1.1075298e-06
1.1219509e-06
1.1343265e-06
1.1445415e-06
1.1525085e-06
1.158101e-06
1.1611336e-06
1.1613826e-06
1.1586267e-06
1.1526886e-06
1.1434698e-06
1.130983e-06
1.1153991e-06
1.0971388e-06
1.077023e-06
1.0564199e-06
1.0370741e-06
1.0196208e-06
9.97731e-07
9.3243377e-07
6.6393935e-07
6.7053644e-07
6.7807838e-07
6.8584903e-07
6.9314616e-07
6.9941241e-07
7.0428198e-07
7.0754752e-07
7.0910347e-07
7.0888615e-07
7.0683125e-07
7.0286547e-07
6.9692001e-07
6.8896999e-07
6.7907193e-07
6.6739619e-07
6.5424856e-07
6.4009015e-07
6.2556569e-07
6.1153267e-07
5.9903473e-07
5.8901272e-07
5.81251e-07
5.7139382e-07
5.4108784e-07
4.0474125e-07
4.0687956e-07
4.0939319e-07
4.1190827e-07
4.1403786e-07
4.1545873e-07
4.159469e-07
4.1537089e-07
4.1366415e-07
4.1079487e-07
4.0674363e-07
4.0149926e-07
3.9506487e-07
3.8748522e-07
3.7887374e-07
3.6943243e-07
3.5945699e-07
3.4933503e-07
3.3953845e-07
3.3059811e-07
3.2304777e-07
3.1722632e-07
3.1274842e-07
3.073576e-07
2.9439261e-07
2.375432e-07
2.3784263e-07
2.3826342e-07
2.3862567e-07
2.3873367e-07
2.3841959e-07
2.3756269e-07
2.3609188e-07
2.3397386e-07
2.3119851e-07
2.2776698e-07
2.2368932e-07
2.1898971e-07
2.137097e-07
2.0794215e-07
2.0183556e-07
1.9558977e-07
1.8944884e-07
1.8368503e-07
1.7855103e-07
1.7426587e-07
1.709255e-07
1.6829632e-07
1.6551506e-07
1.6069356e-07
1.3969615e-07
1.3948983e-07
1.393081e-07
1.390702e-07
1.3868571e-07
1.380742e-07
1.3717775e-07
1.3596222e-07
1.3441388e-07
1.3253288e-07
1.3032778e-07
1.2781186e-07
1.2500603e-07
1.2194345e-07
1.1867078e-07
1.1527445e-07
1.1186833e-07
1.0860411e-07
1.0562572e-07
1.0300509e-07
1.008158e-07
9.9088176e-08
9.7722174e-08
9.6439703e-08
9.4822126e-08
8.6728176e-08
8.6519728e-08
8.631795e-08
8.6088459e-08
8.5791372e-08
8.5389882e-08
8.485694e-08
8.4176652e-08
8.3342773e-08
8.2355799e-08
8.1220095e-08
7.9942936e-08
7.8535793e-08
7.7017967e-08
7.5412254e-08
7.3764096e-08
7.2132186e-08
7.0586607e-08
6.9203034e-08
6.8053312e-08
6.7096102e-08
6.6341022e-08
6.5747116e-08
6.5215548e-08
6.4625149e-08
5.9903046e-08
5.982363e-08
5.9757521e-08
5.9690501e-08
5.960496e-08
5.9483948e-08
5.9314223e-08
5.9087082e-08
5.8797875e-08
5.8444691e-08
5.8027381e-08
5.7547505e-08
5.7009329e-08
5.6421442e-08
5.5797661e-08
5.5155907e-08
5.4525709e-08
5.3940203e-08
5.3435563e-08
5.3052474e-08
5.2757074e-08
5.2532722e-08
5.2357098e-08
5.2178414e-08
5.1901347e-08
4.7402976e-08
4.7445937e-08
4.7511835e-08
4.7594433e-08
4.7685253e-08
4.7775485e-08
4.7857315e-08
4.7924415e-08
4.7971849e-08
4.7995728e-08
4.7993125e-08
4.79623e-08
4.7903444e-08
4.7819529e-08
4.7717063e-08
4.7602616e-08
4.7490072e-08
4.7395188e-08
4.733523e-08
4.7331763e-08
4.7366169e-08
4.7407215e-08
4.7438276e-08
4.7421881e-08
4.7271888e-08
4.2380141e-08
4.2504106e-08
4.265742e-08
4.2836543e-08
4.3036357e-08
4.3251023e-08
4.3474622e-08
4.3701486e-08
4.3926335e-08
4.4144343e-08
4.435135e-08
4.4544173e-08
4.4721065e-08
4.4882154e-08
4.5029646e-08
4.5167473e-08
4.5299991e-08
4.5435536e-08
4.5582924e-08
4.5754179e-08
4.5939964e-08
4.6103297e-08
4.6229044e-08
4.6284182e-08
4.6187338e-08
4.1094239e-08
4.1260594e-08
4.1458817e-08
4.1686077e-08
4.1938339e-08
4.2210798e-08
4.2498246e-08
4.2795346e-08
4.3096848e-08
4.3397798e-08
4.3693793e-08
4.3981275e-08
4.4257842e-08
4.4522515e-08
4.4775878e-08
4.5020081e-08
4.5256325e-08
4.5489439e-08
4.5724444e-08
4.596864e-08
4.6216621e-08
4.6431004e-08
4.6596393e-08
4.6680437e-08
4.6604346e-08
4.1596463e-08
4.1778595e-08
4.1992286e-08
4.2234839e-08
4.2502605e-08
4.2791254e-08
4.3096039e-08
4.3412022e-08
4.3734296e-08
4.4058208e-08
4.4379601e-08
4.4695059e-08
4.5002152e-08
4.5299632e-08
4.5587561e-08
4.5867344e-08
4.6139442e-08
4.6406938e-08
4.6673105e-08
4.6942702e-08
4.7211349e-08
4.7443525e-08
4.7622616e-08
4.771493e-08
4.7639315e-08
4.2913935e-08
4.3096415e-08
4.330861e-08
4.3547888e-08
4.3810861e-08
4.4093585e-08
4.4391763e-08
4.4700934e-08
4.5016678e-08
4.5334804e-08
4.565157e-08
4.5963899e-08
4.6269588e-08
4.6567478e-08
4.6857534e-08
4.7140757e-08
4.7418708e-08
4.769261e-08
4.7965032e-08
4.8239186e-08
4.8510504e-08
4.874584e-08
4.8926939e-08
4.9017962e-08
4.8935327e-08
4.4582434e-08
4.4757594e-08
4.4960052e-08
4.5187288e-08
4.5436183e-08
4.5703171e-08
4.5984407e-08
4.6275918e-08
4.6573778e-08
4.687428e-08
4.717412e-08
4.7470604e-08
4.7761845e-08
4.8046918e-08
4.8325943e-08
4.8600008e-08
4.8870931e-08
4.9139719e-08
4.9408238e-08
4.9678528e-08
4.9945405e-08
5.0177936e-08
5.0356148e-08
5.0441693e-08
5.0343213e-08
4.639145e-08
4.6556167e-08
4.6745728e-08
4.6957761e-08
4.7189419e-08
4.74375e-08
4.7698573e-08
4.7969114e-08
4.8245645e-08
4.8524894e-08
4.880397e-08
4.9080547e-08
4.9353067e-08
4.9620893e-08
4.9884384e-08
5.0144802e-08
5.0403988e-08
5.0663716e-08
5.0924717e-08
5.1188213e-08
5.1448304e-08
5.167595e-08
5.1849505e-08
5.1928152e-08
5.1815197e-08
4.8250748e-08
4.8404208e-08
4.8580244e-08
4.8776649e-08
4.8990829e-08
4.9219907e-08
4.9460814e-08
4.9710411e-08
4.9965609e-08
5.0223515e-08
5.0481597e-08
5.0737875e-08
5.0991108e-08
5.1240957e-08
5.1488055e-08
5.17339e-08
5.1980515e-08
5.2229858e-08
5.2482351e-08
5.2738385e-08
5.2991319e-08
5.3213633e-08
5.338204e-08
5.3453341e-08
5.3326959e-08
5.01237e-08
5.0266107e-08
5.0429066e-08
5.0610533e-08
5.0808142e-08
5.1019289e-08
5.1241219e-08
5.1471115e-08
5.1706221e-08
5.1943967e-08
5.2182141e-08
5.241907e-08
5.2653815e-08
5.2886332e-08
5.3117533e-08
5.3349172e-08
5.3583467e-08
5.3822468e-08
5.4066554e-08
5.4315348e-08
5.4561509e-08
5.4778693e-08
5.4941935e-08
5.5005268e-08
5.4859686e-08
5.1995746e-08
5.2127671e-08
5.2278354e-08
5.24459e-08
5.2628147e-08
5.2822728e-08
5.3027145e-08
5.323886e-08
5.3455396e-08
5.3674468e-08
5.3894143e-08
5.4113028e-08
5.4330466e-08
5.4546696e-08
5.4762908e-08
5.4981107e-08
5.5203699e-08
5.5432748e-08
5.5668988e-08
5.5911057e-08
5.6151062e-08
5.6363569e-08
5.6522008e-08
5.6577719e-08
5.6415621e-08
5.386033e-08
5.398242e-08
5.4121669e-08
5.427632e-08
5.4444386e-08
5.4623704e-08
5.4812002e-08
5.5006975e-08
5.5206389e-08
5.5408208e-08
5.5610751e-08
5.581288e-08
5.6014202e-08
5.6215225e-08
5.6417411e-08
5.6623018e-08
5.6834655e-08
5.7054493e-08
5.7283272e-08
5.7519116e-08
5.775358e-08
5.7961911e-08
5.811613e-08
5.8165285e-08
5.7987418e-08
5.5713037e-08
5.5825914e-08
5.5954506e-08
5.6097185e-08
5.625212e-08
5.6417327e-08
5.6590727e-08
5.6770222e-08
5.6953792e-08
5.7139619e-08
5.732625e-08
5.7512785e-08
5.7699077e-08
5.7885893e-08
5.8074955e-08
5.8268773e-08
5.8470158e-08
5.8681397e-08
5.8903174e-08
5.9133271e-08
5.9362716e-08
5.9567267e-08
5.9717703e-08
5.976092e-08
5.9569322e-08
5.7549362e-08
5.765359e-08
5.777222e-08
5.790374e-08
5.8046457e-08
5.8198548e-08
5.8358105e-08
5.8523213e-08
5.8692044e-08
5.8862977e-08
5.9034768e-08
5.9206736e-08
5.9378967e-08
5.9552475e-08
5.9729233e-08
5.9911991e-08
6.0103763e-08
6.0306934e-08
6.052209e-08
6.0746911e-08
6.0971741e-08
6.1172702e-08
6.1319374e-08
6.1356437e-08
6.1150192e-08
5.9363974e-08
5.9460068e-08
5.9569355e-08
5.969043e-08
5.9821731e-08
5.9961574e-08
6.0108208e-08
6.0259883e-08
6.0414942e-08
6.0571948e-08
6.0729847e-08
6.0888164e-08
6.1047204e-08
6.1208213e-08
6.1373409e-08
6.1545776e-08
6.172852e-08
6.1924135e-08
6.2133159e-08
6.2352966e-08
6.2573445e-08
6.2770827e-08
6.2913404e-08
6.294376e-08
6.2726099e-08
6.1150558e-08
6.1238992e-08
6.1339498e-08
6.1450774e-08
6.1571374e-08
6.1699746e-08
6.1834278e-08
6.1973371e-08
6.2115525e-08
6.2259472e-08
6.2404336e-08
6.2549833e-08
6.2696475e-08
6.2845731e-08
6.3000049e-08
6.3162637e-08
6.3336889e-08
6.3525406e-08
6.3728678e-08
6.3943752e-08
6.4160093e-08
6.4353851e-08
6.449191e-08
6.4514424e-08
6.4280306e-08
6.2901863e-08
6.2983081e-08
6.3075331e-08
6.3177405e-08
6.3287964e-08
6.3405576e-08
6.3528759e-08
6.3656052e-08
6.37861e-08
6.3917791e-08
6.4050412e-08
6.4183861e-08
6.4318845e-08
6.4457042e-08
6.460112e-08
6.4754501e-08
6.4920757e-08
6.5102587e-08
6.5300432e-08
6.5511019e-08
6.5723396e-08
6.5913517e-08
6.6046865e-08
6.6061312e-08
6.5811691e-08
6.4609816e-08
6.4684248e-08
6.4768743e-08
6.486218e-08
6.4963322e-08
6.5070848e-08
6.5183394e-08
6.5299624e-08
6.5418322e-08
6.5538515e-08
6.5659648e-08
6.5781785e-08
6.5905816e-08
6.6033617e-08
6.6168064e-08
6.6312778e-08
6.6471497e-08
6.664701e-08
6.6839703e-08
6.704599e-08
6.7254516e-08
6.7440937e-08
6.756937e-08
6.7575307e-08
6.7307947e-08
6.6265678e-08
6.6333748e-08
6.6410978e-08
6.6496332e-08
6.6588664e-08
6.6686755e-08
6.6789352e-08
6.6895238e-08
6.7003317e-08
6.7112752e-08
6.7223131e-08
6.7334673e-08
6.7448439e-08
6.756649e-08
6.7691893e-08
6.7828457e-08
6.7980069e-08
6.8149595e-08
6.8337356e-08
6.8539447e-08
6.874417e-08
6.8926751e-08
6.9050001e-08
6.9047065e-08
6.8761103e-08
6.7860238e-08
6.7922373e-08
6.799283e-08
6.807065e-08
6.8154777e-08
6.8244082e-08
6.8337417e-08
6.8433669e-08
6.853186e-08
6.8631273e-08
6.8731628e-08
6.8833289e-08
6.8937474e-08
6.9046413e-08
6.916335e-08
6.9292261e-08
6.9437169e-08
6.9601001e-08
6.9784009e-08
6.9981994e-08
7.0182831e-08
7.036137e-08
7.0479201e-08
7.0467296e-08
7.015928e-08
6.9384061e-08
6.9440696e-08
6.9504882e-08
6.9575732e-08
6.9652266e-08
6.9733447e-08
6.9818215e-08
6.9905557e-08
6.9994599e-08
7.0084738e-08
7.0175812e-08
7.0268317e-08
7.0363612e-08
7.0464081e-08
7.0573123e-08
7.0694862e-08
7.0833437e-08
7.0991817e-08
7.117018e-08
7.1364046e-08
7.1560858e-08
7.1735114e-08
7.1847349e-08
7.1826963e-08
7.1504181e-08
7.0827791e-08
7.087938e-08
7.0937815e-08
7.1002275e-08
7.1071853e-08
7.1145588e-08
7.1222507e-08
7.1301685e-08
7.1382344e-08
7.1463979e-08
7.1546538e-08
7.1630631e-08
7.1717745e-08
7.1810395e-08
7.1912114e-08
7.2027147e-08
7.2159721e-08
7.231283e-08
7.2486568e-08
7.2676194e-08
7.2868724e-08
7.3038355e-08
7.3144702e-08
7.3115837e-08
7.2779232e-08
7.2182482e-08
7.2229499e-08
7.2282726e-08
7.2341401e-08
7.2404683e-08
7.2471682e-08
7.2541499e-08
7.261329e-08
7.2686359e-08
7.2760292e-08
7.2835131e-08
7.2911587e-08
7.299125e-08
7.3076746e-08
7.3171713e-08
7.3280485e-08
7.3407347e-08
7.3555292e-08
7.3724318e-08
7.3909449e-08
7.4097257e-08
7.4261725e-08
7.436165e-08
7.4323759e-08
7.3972282e-08
7.3439849e-08
7.3482789e-08
7.3531375e-08
7.3584896e-08
7.364257e-08
7.3703569e-08
7.3767062e-08
7.3832272e-08
7.389858e-08
7.3965645e-08
7.403359e-08
7.4103207e-08
7.4176173e-08
7.4255194e-08
7.4343979e-08
7.4446915e-08
7.4568304e-08
7.4711102e-08
7.4875204e-08
7.505542e-08
7.5237816e-08
7.5396312e-08
7.5489009e-08
7.544139e-08
7.5074439e-08
7.4592286e-08
7.4631662e-08
7.4676191e-08
7.4725208e-08
7.4777983e-08
7.4833742e-08
7.4891709e-08
7.4951171e-08
7.5011567e-08
7.5072621e-08
7.513452e-08
7.5198121e-08
7.5265159e-08
7.5338389e-08
7.5421557e-08
7.5519055e-08
7.5635152e-08
7.5772729e-08
7.5931552e-08
7.6106221e-08
7.628222e-08
7.6433625e-08
7.6518071e-08
7.6460413e-08
7.6080377e-08
7.5632414e-08
7.5668745e-08
7.5709808e-08
7.5754978e-08
7.5803569e-08
7.5854852e-08
7.5908101e-08
7.596265e-08
7.6017991e-08
7.6073897e-08
7.6130605e-08
7.6189013e-08
7.6250891e-08
7.6319013e-08
7.6397112e-08
7.6489535e-08
7.6600465e-08
7.673266e-08
7.68857e-08
7.7053875e-08
7.7222213e-08
7.7365078e-08
7.7439987e-08
7.7372194e-08
7.6987495e-08
7.6551905e-08
7.6585704e-08
7.6623881e-08
7.6665846e-08
7.6710948e-08
7.6758499e-08
7.6807814e-08
7.6858266e-08
7.6909386e-08
7.6960986e-08
7.7013332e-08
7.7067349e-08
7.7124813e-08
7.7188479e-08
7.7262027e-08
7.7349701e-08
7.7455538e-08
7.7582183e-08
7.772887e-08
7.7889058e-08
7.8048227e-08
7.8180791e-08
7.8244397e-08
7.8164778e-08
7.7768972e-08
7.7339288e-08
7.7371041e-08
7.7406879e-08
7.7446236e-08
7.7488492e-08
7.7533e-08
7.7579105e-08
7.7626216e-08
7.7673889e-08
7.7721962e-08
7.7770716e-08
7.7821081e-08
7.7874819e-08
7.7934629e-08
7.8004091e-08
7.8087294e-08
7.818803e-08
7.8308524e-08
7.8447657e-08
7.8598739e-08
7.8747202e-08
7.8867553e-08
7.8917888e-08
7.8824745e-08
7.8415218e-08
7.7972645e-08
7.8002815e-08
7.8036838e-08
7.8074158e-08
7.8114182e-08
7.8156303e-08
7.8199902e-08
7.8244407e-08
7.8289395e-08
7.8334712e-08
7.8380636e-08
7.8428086e-08
7.8478797e-08
7.8535359e-08
7.8601206e-08
7.8680233e-08
7.8775948e-08
7.8890183e-08
7.9021378e-08
7.9162507e-08
7.929888e-08
7.9405236e-08
7.9440454e-08
7.9332536e-08
7.8910087e-08
7.8417416e-08
7.8446435e-08
7.8479149e-08
7.8514969e-08
7.8553305e-08
7.8593601e-08
7.8635289e-08
7.8677821e-08
7.872078e-08
7.8764002e-08
7.8807743e-08
7.8852914e-08
7.890125e-08
7.8955098e-08
7.9017715e-08
7.9092835e-08
7.9183693e-08
7.929172e-08
7.9414899e-08
7.9545601e-08
7.9668985e-08
7.9760144e-08
7.9779078e-08
7.9656264e-08
7.922566e-08
7.8605144e-08
7.8633497e-08
7.8665526e-08
7.8700484e-08
7.8737831e-08
7.877679e-08
7.8817063e-08
7.8858148e-08
7.8899584e-08
7.8941256e-08
7.8983341e-08
7.9026811e-08
7.9073622e-08
7.9125251e-08
7.9184893e-08
7.9256328e-08
7.934263e-08
7.9444983e-08
7.9561259e-08
7.9682036e-08
7.9792585e-08
7.9868655e-08
7.9871872e-08
7.9737021e-08
7.9312072e-08
7.8356521e-08
7.8384989e-08
7.8417405e-08
7.8452795e-08
7.8492615e-08
7.8530977e-08
7.8570306e-08
7.861037e-08
7.8646886e-08
7.8687474e-08
7.8728437e-08
7.8771178e-08
7.8819303e-08
7.886953e-08
7.8926302e-08
7.8994134e-08
7.9076227e-08
7.9174357e-08
7.9291505e-08
7.9404989e-08
7.9504516e-08
7.9567674e-08
7.9558397e-08
7.9417803e-08
7.9024448e-08
)
;

boundaryField
{
    Walls
    {
        type            nutUWallFunction;
        Cmu             0.09;
        kappa           0.41;
        E               9.8;
        value           uniform 0;
    }
    Inlet
    {
        type            calculated;
        value           nonuniform List<scalar> 3(2.3127097e-05 3.7749101e-05 7.7320899e-07);
    }
    Outlet
    {
        type            calculated;
        value           nonuniform List<scalar> 
86
(
0
0
0
0
0
0
0
0
0
0
0
0
0
0
0
0
0
0
0
0
0
0
0
0
0
0
0
0
0
0
1.4195125e-05
1.4721371e-05
1.3300731e-05
0
0
0
0
3.8994656e-06
3.4840734e-06
2.8737185e-06
0
0
0
0
0
1.6069356e-07
9.4822126e-08
6.4625149e-08
5.1901347e-08
0
0
0
0
0
0
0
0
0
0
0
0
0
0
0
0
0
0
0
0
0
0
0
0
0
0
0
0
0
0
0
0
0
0
0
1.3095618e-05
1.4721084e-05
)
;
    }
    Front
    {
        type            wedge;
    }
    Back
    {
        type            wedge;
    }
    defaultFaces
    {
        type            empty;
    }
}


// ************************************************************************* //
