/*--------------------------------*- C++ -*----------------------------------*\
| =========                 |                                                 |
| \\      /  F ield         | OpenFOAM: The Open Source CFD Toolbox           |
|  \\    /   O peration     | Version:  4.0                                   |
|   \\  /    A nd           | Web:      www.OpenFOAM.org                      |
|    \\/     M anipulation  |                                                 |
\*---------------------------------------------------------------------------*/
FoamFile
{
    version     2.0;
    format      ascii;
    class       volScalarField;
    location    "0.29";
    object      omega;
}
// * * * * * * * * * * * * * * * * * * * * * * * * * * * * * * * * * * * * * //

dimensions      [0 0 -1 0 0 0 0];

internalField   nonuniform List<scalar> 
1740
(
62.643959
675.48215
14922.02
179.96905
1467.0206
15030.69
294.13702
1986.0944
15116.331
394.73453
2254.3758
15201.753
510.79988
2540.607
15274.497
633.24121
2826.6925
15324.235
743.8719
3026.1446
15373.101
854.84226
3265.7781
15414.148
952.55729
3393.4784
15436.869
1046.0878
3478.4251
15467.505
1144.3416
3616.9026
15499.47
1236.8771
3738.1761
15514.406
1337.4659
3817.8011
15529.239
1443.3551
3901.6735
15541.744
1498.9285
3972.6689
15547.503
1550.8722
3969.453
15557.718
1610.1602
3988.099
15562.437
1698.1289
4043.8601
15569.342
1744.6489
4086.9135
15578.752
1794.1777
4130.4957
15575.505
1816.6769
4140.3616
15573.317
1841.264
4172.5317
15574.904
1868.6295
4205.0608
15572.373
1902.3824
4172.133
15570.093
1912.0995
4129.2102
15572.061
1922.0882
4118.6319
15569.612
1952.5242
4136.1786
15568.998
1979.5028
4185.7908
15568.493
2010.2784
4217.5888
15559.941
2122.6014
4283.614
15502.825
3182.0045
4551.4407
10761.907
3327.6625
4235.8835
5953.1639
1571.6653
1859.6802
2155.8522
824.26005
899.40226
957.20235
477.73982
495.94024
505.99586
300.1844
303.93147
304.14449
201.39871
201.74059
200.39699
142.82757
142.52142
141.33102
106.36394
106.04432
105.23287
82.892233
82.665471
82.157175
67.529559
67.385305
67.076902
57.509599
57.421932
57.237539
51.150134
51.098607
50.990251
47.320242
47.291472
47.230078
45.186877
45.172775
45.140849
44.116568
44.112181
44.098558
43.575221
43.571538
43.561413
43.180406
43.177307
43.169334
42.849601
42.847634
42.841872
42.544648
42.544101
42.540582
42.25159
42.252402
42.250888
41.974676
41.9763
41.976117
41.726448
41.728219
41.728593
41.5164
41.517904
41.51832
41.346255
41.347363
41.347608
41.211666
41.212408
41.212446
41.10572
41.106176
41.106046
41.021478
41.021729
41.02148
40.953121
40.953232
40.952908
40.896201
40.896218
40.895853
40.847457
40.847413
40.847029
40.8045
40.804419
40.804031
40.765468
40.765364
40.764984
40.728645
40.728529
40.728164
40.691981
40.691861
40.691515
40.652385
40.652266
40.651942
40.604603
40.604488
40.60419
40.539429
40.539322
40.539051
40.440917
40.44082
40.440579
40.282207
40.282122
40.281916
40.019628
40.01956
40.019395
39.584902
39.584854
39.584738
38.87575
38.875726
38.875668
37.746178
37.746181
37.74619
35.999494
35.999524
35.999608
33.389927
33.389984
33.390159
29.64361
29.643707
29.64401
24.505162
24.505312
24.505781
17.819364
17.819558
17.820145
9.6518132
9.6519827
9.6524587
13481.737
13535.638
6002.16
5335.1004
2085.1034
1882.4079
922.04561
853.9981
489.77222
463.11063
296.20168
284.51034
196.2504
190.67284
139.05926
136.21162
103.95145
102.41828
81.419093
80.558799
66.645065
66.145938
56.982078
56.685051
50.839129
50.660094
47.142421
47.035026
45.092507
45.029592
44.074015
44.038139
43.54339
43.516354
43.155122
43.1333
42.830702
42.812639
42.532047
42.516996
42.244619
42.232201
41.971602
41.961555
41.725285
41.717323
41.515794
41.509579
41.345591
41.340765
41.210776
41.207008
41.104623
41.101637
41.02024
41.017824
40.95181
40.949812
40.894868
40.89318
40.846139
40.844687
40.803222
40.801956
40.764248
40.763131
40.727493
40.726501
40.690905
40.69002
40.651388
40.650598
40.60369
40.602985
40.538605
40.537982
40.440188
40.439646
40.281585
40.281129
40.019131
40.018771
39.584555
39.584309
38.875581
38.875472
37.746217
37.74628
35.999779
36.000067
33.390524
33.391128
29.644653
29.6457
24.506766
24.508331
17.821348
17.82327
9.6534172
9.6551155
12058.177
2043.117
696.29008
368.84691
281.03298
256.81345
249.66918
246.60217
244.20909
241.74118
239.11834
236.26523
233.28695
230.20251
226.9814
223.5646
219.84673
215.643
210.63477
204.28434
195.68933
183.32099
164.51476
134.26938
80.841553
12058.132
2037.1182
697.53497
374.50084
283.05438
254.24218
242.71547
235.4922
229.36304
223.53043
217.80388
212.1309
206.5528
201.05692
195.62267
190.22486
184.81166
179.28558
173.46743
167.04345
159.47117
149.79277
136.22094
115.07128
76.984708
12058.179
2030.6037
718.62259
430.71154
359.36376
332.42715
315.05591
300.55034
287.3019
274.73444
262.73353
251.1432
240.14166
229.64334
219.58828
209.96387
200.75092
191.90604
183.33253
174.85599
166.16595
156.68129
145.19049
128.71968
97.945826
12058.526
2031.9802
817.71651
609.05913
550.19805
512.97967
479.93879
449.40157
421.41134
395.09511
370.415
347.3998
326.18511
306.31653
287.64549
270.1784
253.90263
238.78504
224.77097
211.77005
199.64173
188.15725
176.86579
164.55015
145.82821
12061.525
2151.2386
1232.9438
1079.0679
990.28088
907.39725
828.8573
757.37999
693.48695
634.36765
580.01975
530.33755
486.22488
445.93825
408.95528
375.28682
344.79578
317.30709
292.63761
270.59181
250.97142
233.59841
218.35399
205.40453
195.82568
12087.263
3827.6933
2810.6139
2405.1192
2096.307
1827.2447
1591.8671
1388.55
1212.5384
1060.6674
929.82466
817.17606
720.19766
636.47291
564.07303
501.49491
447.44499
400.79253
360.55891
325.90494
296.11699
270.61506
248.98875
231.33049
218.87862
10372.457
7907.1811
6097.298
4786.7021
3817.4979
3082.9455
2514.2426
2067.3203
1712.638
1429.015
1200.6427
1015.6259
864.98624
741.80064
640.59682
557.03486
487.68545
429.84983
381.40789
340.69185
306.38845
277.48375
253.25423
233.5748
219.72968
4094.6384
3308.4324
2842.9782
2467.4519
2148.4302
1868.0193
1623.4251
1411.8596
1230.4709
1074.9787
941.57259
826.83232
727.78848
642.28524
568.48922
504.81256
449.88089
402.51584
361.71083
326.60831
296.48293
270.74768
248.98182
231.26016
218.78421
1595.3001
1400.4361
1270.1872
1161.9365
1059.7037
962.38219
873.61479
794.59688
722.55099
657.29213
598.90947
547.29686
499.90862
456.61508
417.2927
381.74282
349.73408
321.03164
295.39757
272.60891
252.46117
234.77949
219.44547
206.60696
197.24015
771.37529
708.10752
661.91309
621.34932
580.99242
540.84369
503.25282
468.62582
436.53354
406.95045
379.91562
355.16052
331.9966
310.31966
290.11625
271.36847
254.04294
238.09411
223.46615
210.08962
197.86388
186.61207
175.9448
164.74007
147.95975
433.99301
410.33193
391.64088
374.42673
356.68844
338.40798
320.5565
303.57091
287.52422
272.46979
258.41696
245.24153
232.73306
220.84053
209.59199
198.97957
188.9922
179.60483
170.76807
162.38435
154.2511
145.92159
136.32951
122.62802
95.611481
272.33593
262.00316
253.38731
245.25049
236.75424
227.83688
218.86368
210.09917
201.66338
193.61389
185.95947
178.64961
171.6093
164.81086
158.26335
151.9668
145.9083
140.0533
134.32957
128.59358
122.55896
115.63947
106.58194
92.516279
65.804747
184.98625
179.98559
175.62827
171.43883
167.04937
162.39706
157.61924
152.85771
148.20025
143.6924
139.34434
135.13603
131.03604
127.02611
123.09876
119.24091
115.42611
111.60374
107.68187
103.49558
98.747365
92.891337
84.894815
72.655525
50.692526
133.33503
130.73591
128.39395
126.11213
123.72148
121.17626
118.52526
115.83938
113.1731
110.55756
108.00193
105.49815
103.02979
100.58124
98.136957
95.674102
93.15499
90.517271
87.659378
84.417868
80.533339
75.607009
69.083078
60.463178
50.869687
100.87217
99.442569
98.121288
96.821417
95.461902
94.012437
92.488668
90.92419
89.349514
87.784101
86.234669
84.697149
83.160561
81.609942
80.025408
78.377404
76.620343
74.68431
72.464304
69.807221
66.500509
62.280248
56.922893
50.624275
45.123963
79.686499
78.861756
78.082401
77.309022
76.501356
75.640559
74.730109
73.785225
72.821995
71.85156
70.877897
69.897864
68.902246
67.87609
66.796915
65.630689
64.32611
62.807452
60.966469
58.655047
55.683989
51.843931
46.994338
41.342455
36.135742
65.632957
65.135837
64.655059
64.172669
63.668554
63.131509
62.561198
61.964135
61.348449
60.720115
60.080938
59.427764
58.751941
58.038295
57.262618
56.387501
55.356643
54.087908
52.465851
50.33508
47.496805
43.710439
38.689473
31.999185
22.101067
56.373115
56.061492
55.751585
55.435458
55.103368
54.749118
54.371803
53.974171
53.560283
53.133206
52.693434
52.23767
51.75755
51.23769
50.652501
49.961576
49.103538
47.98861
46.490488
44.438507
41.610683
37.724608
32.406266
25.054611
14.275952
50.466185
50.264977
50.057707
49.841151
49.610925
49.364091
49.100189
48.820628
48.527613
48.222779
47.905962
47.57389
47.218463
46.82414
46.364146
45.79527
45.051165
44.034288
42.607164
40.584171
37.72536
33.732633
28.242795
20.796489
10.720376
46.913517
46.781112
46.638435
46.484345
46.317205
46.136022
45.940943
45.73302
45.513655
45.283823
45.043088
44.788311
44.51171
44.197773
43.818791
43.329179
42.6584
41.702656
40.316196
38.3042
35.420312
31.374378
25.857885
18.602042
9.4636363
44.953563
44.864915
44.763608
44.649308
44.521702
44.380838
44.227261
44.061896
43.885731
43.699332
43.502086
43.290945
43.058547
42.789888
42.456823
42.01207
41.382163
40.459256
39.093038
37.085937
34.193485
30.140944
24.670557
17.642455
9.211797
43.990217
43.929005
43.853986
43.765014
43.662213
43.545964
43.416857
43.275578
43.122705
42.958381
42.78175
42.589805
42.375233
42.124791
41.810664
41.384636
40.771448
39.860318
38.498185
36.490763
33.598581
29.557534
24.136322
17.248152
9.1385419
43.479216
43.430919
43.370793
43.29847
43.213831
43.116958
43.008062
42.887367
42.754893
42.610067
42.451104
42.274567
42.073145
41.832512
41.528661
41.113681
40.511356
39.602988
38.232216
36.218297
33.327793
29.298605
23.906415
17.070083
9.0502582
43.102594
43.061885
43.010354
42.947477
42.87298
42.786765
42.688839
42.579214
42.457788
42.324141
42.177117
42.013775
41.827173
41.602526
41.316072
40.919742
40.337045
39.453632
38.108707
36.09243
33.205254
29.184616
23.80538
16.973642
8.9463638
42.786299
42.750442
42.704163
42.646884
42.5783
42.498332
42.407091
42.304859
42.192032
42.068892
41.934972
41.787691
41.619949
41.416522
41.149415
40.772999
40.209874
39.346289
38.022299
36.02509
33.144881
29.131133
23.759019
16.930068
8.8882603
42.494006
42.461714
42.419225
42.366058
42.30209
42.227532
42.142926
42.049114
41.947094
41.837615
41.720317
41.592216
41.445337
41.26327
41.016308
40.658292
40.112238
39.265038
37.958293
35.981407
33.110104
29.10405
23.739471
16.91689
8.8295178
42.212267
42.183404
42.144859
42.096408
42.038274
41.971087
41.895834
41.813743
41.726017
41.633303
41.534775
41.426666
41.30006
41.137683
40.90941
40.566421
40.034253
39.200133
37.907045
35.947052
33.086621
29.090732
23.739045
16.940266
8.8884433
41.944763
41.919903
41.886444
41.844438
41.794403
41.737231
41.674079
41.606183
41.534533
41.45933
41.379104
41.28935
41.180445
41.03455
40.821152
40.490922
39.969903
39.146122
37.863798
35.917248
33.069049
29.085338
23.74968
16.977391
9.0037706
41.703713
41.683344
41.655883
41.621545
41.580953
41.535012
41.484772
41.431218
41.374948
41.315661
41.251332
41.176923
41.082372
40.949537
40.747765
40.427727
39.915418
39.099786
37.826103
35.89051
33.054594
29.083343
23.763121
17.012722
9.058717
41.498913
41.482936
41.461451
41.43471
41.40328
41.367919
41.329434
41.288482
41.245273
41.199086
41.147497
41.085125
41.001655
40.878815
40.685976
40.374115
39.868258
39.058989
37.792301
35.865776
33.041072
29.081127
23.77386
17.040572
9.1376399
41.332573
41.320385
41.304081
41.28388
41.260225
41.233677
41.204785
41.173908
41.140941
41.104857
41.062959
41.009651
40.934472
40.81909
40.632906
40.327008
39.826432
39.022183
37.761123
35.842013
33.026844
29.07636
23.778984
17.054028
9.1139675
41.200747
41.191547
41.179329
41.164257
41.146649
41.126885
41.105296
41.082012
41.056691
41.028094
40.993343
40.946701
40.877621
40.767738
40.586486
40.285065
39.788773
38.988299
37.731685
35.818525
33.01118
29.068514
23.77895
17.056879
9.1053566
41.096813
41.08984
41.080662
41.069395
41.056252
41.041471
41.025224
41.00747
40.987705
40.964542
40.934978
40.893187
40.828561
40.722715
40.545106
40.247011
39.753866
38.956502
37.703439
35.795047
32.994078
29.057994
23.775826
17.061711
9.1350675
41.014044
41.008682
41.001699
40.993172
40.983237
40.972033
40.959618
40.94583
40.930056
40.910804
40.884991
40.846721
40.785348
40.68247
40.50756
40.211955
39.721208
38.926346
37.67614
35.771656
32.975991
29.045374
23.768838
17.057464
9.088599
40.946784
40.942576
40.93716
40.930586
40.922937
40.914282
40.9046
40.893651
40.880741
40.864311
40.841215
40.805513
40.746527
40.645841
40.472943
40.179221
39.690345
38.897585
37.649696
35.748602
32.957667
29.031935
23.759658
17.047988
9.0706014
40.8907
40.887323
40.883029
40.877851
40.871835
40.865004
40.857284
40.848377
40.837539
40.823158
40.802049
40.768235
40.711013
40.611958
40.440567
40.148273
39.660847
38.869745
37.623993
35.726113
32.939887
29.019503
23.752628
17.044604
9.0313512
40.842613
40.839843
40.836364
40.832195
40.827361
40.82185
40.815554
40.808136
40.798813
40.785941
40.7663
40.733889
40.677983
40.580149
40.409891
40.118686
39.632403
38.842693
37.598937
35.70426
32.923116
29.00946
23.751095
17.053463
9.0539205
40.800189
40.797873
40.794997
40.791572
40.787607
40.78307
40.777824
40.771509
40.763313
40.751567
40.733027
40.70167
40.646755
40.549841
40.38044
40.090068
39.604697
38.816189
37.574345
35.682847
32.907183
29.001674
23.754319
17.066401
9.0661626
40.761605
40.759636
40.757216
40.754353
40.751042
40.747235
40.74278
40.737296
40.729954
40.719062
40.701359
40.670805
40.616644
40.520427
40.351674
40.06194
39.577296
38.789815
37.549703
35.661367
32.891293
28.994615
23.760475
17.090686
9.1456595
40.725169
40.723473
40.721409
40.718979
40.71617
40.712925
40.709078
40.704235
40.69755
40.687319
40.670264
40.640329
40.586746
40.491059
40.322795
40.033546
39.549482
38.762886
37.524361
35.63903
32.874256
28.985783
23.763253
17.106822
9.1724739
40.688849
40.687374
40.685594
40.683507
40.681095
40.678293
40.674924
40.670585
40.664419
40.654708
40.638161
40.60871
40.555574
40.46029
40.292393
40.00351
39.519907
38.734076
37.49701
35.614502
32.854644
28.973492
23.760738
17.116914
9.2038335
40.649564
40.648274
40.646728
40.644921
40.642831
40.640387
40.637405
40.633473
40.627724
40.618431
40.602291
40.573224
40.520437
40.425459
40.257832
39.969219
39.485983
38.700818
37.465101
35.585243
32.829954
28.955407
23.750835
17.115074
9.2086728
40.602072
40.600943
40.599596
40.598026
40.596206
40.594061
40.591401
40.587807
40.582403
40.573454
40.557647
40.528889
40.476376
40.381631
40.214199
39.925782
39.442839
38.658268
37.423818
35.546482
32.795467
28.926981
23.729467
17.099125
9.1941909
40.537181
40.536196
40.535026
40.533665
40.532082
40.530197
40.527816
40.524513
40.519407
40.510751
40.495223
40.46672
40.414425
40.319855
40.152565
39.864294
39.381605
38.597609
37.364425
35.489607
32.742907
28.880638
23.690523
17.064123
9.1185152
40.438954
40.438107
40.437105
40.435938
40.434575
40.432931
40.430806
40.427769
40.42293
40.414536
40.399254
40.370968
40.318854
40.224423
40.057244
39.769109
39.286705
38.503393
37.271712
35.399851
32.658281
28.803883
23.625211
17.0147
9.0889824
40.280549
40.279844
40.279012
40.278041
40.276897
40.275492
40.27362
40.270843
40.266264
40.258121
40.24307
40.214985
40.163036
40.068736
39.901682
39.613749
39.131806
38.349552
37.120104
35.252526
32.518443
28.676086
23.516542
16.937296
9.0574185
40.018317
40.017768
40.017122
40.016365
40.01546
40.014313
40.012713
40.010213
40.00591
39.998029
39.983219
39.955347
39.903581
39.809454
39.642626
39.355116
38.874088
38.093776
36.868191
35.007778
32.286113
28.463872
23.335956
16.805647
8.9940024
39.584002
39.583637
39.583209
39.582703
39.582077
39.581232
39.579948
39.57777
39.573784
39.566208
39.551682
39.524075
39.472571
39.37876
39.212426
38.925857
38.446722
37.670152
36.451628
34.603855
31.90368
28.115762
23.040011
16.584633
8.8723376
38.875347
38.875208
38.875048
38.874849
38.874565
38.874088
38.87319
38.871407
38.867813
38.860619
38.846467
38.819244
38.76819
38.675016
38.50976
38.225195
37.749869
36.980418
35.774752
33.949268
31.286091
27.556205
22.567031
16.234567
8.6850941
37.746386
37.746531
37.746704
37.74688
37.74701
37.746981
37.746557
37.745262
37.742164
37.735473
37.721848
37.695233
37.644995
37.553095
37.39005
37.109496
36.641481
35.885119
34.702257
32.915189
30.314182
26.680019
21.830774
15.691087
8.3879082
36.000477
36.000982
36.001552
36.002153
36.002744
36.003219
36.00334
36.002625
36.000141
35.994111
35.981243
35.955606
35.906829
35.817345
35.65853
35.385517
34.93084
34.197569
33.053741
31.330847
28.830995
25.349769
20.720505
14.87849
7.9478182
33.391947
33.392895
33.3939
33.394906
33.395899
33.396831
33.397485
33.397382
33.395604
33.390407
33.378595
33.354487
33.308215
33.22302
33.071743
32.812039
32.38048
31.686385
30.607044
28.987023
26.645852
23.400104
19.104164
13.706255
7.3204781
29.64705
29.64853
29.65002
29.651339
29.652487
29.653604
29.654571
29.654941
29.653828
29.649545
29.639057
29.617154
29.574949
29.49681
29.357929
29.120142
28.726352
28.095118
27.117078
25.655232
23.552905
20.654459
16.841198
12.076387
6.4564957
24.510324
24.512691
24.515303
24.517357
24.518615
24.519508
24.520386
24.520914
24.520259
24.516819
24.507782
24.488889
24.453347
24.386071
24.265884
24.061594
23.725712
23.189856
22.362965
21.132708
19.372967
16.962124
13.812691
9.9051884
5.3171122
17.8261
17.830858
17.837107
17.842334
17.847038
17.847839
17.848301
17.848623
17.847471
17.844644
17.837098
17.822737
17.800367
17.749214
17.655134
17.498458
17.245346
16.844777
16.229376
15.318294
14.022216
12.258158
9.9716918
7.1624289
3.895656
9.6586709
9.6668624
9.6780173
9.6900061
9.722768
9.7261409
9.7263654
9.7257115
9.6865503
9.6838613
9.6788751
9.6736638
9.6823384
9.655882
9.5988522
9.5074968
9.364803
9.1417473
8.7996706
8.2971357
7.5858203
6.6231319
5.384646
3.8806776
2.175084
)
;

boundaryField
{
    Walls
    {
        Cmu             0.09;
        kappa           0.41;
        E               9.8;
        beta1           0.075;
        type            omegaWallFunction;
        value           nonuniform List<scalar> 
38
(
12058.177
12058.132
12058.179
12058.526
12061.525
12087.263
13481.737
13535.638
14922.02
15030.69
15116.331
15201.753
15274.497
15324.235
15373.101
15414.148
15436.869
15467.505
15499.47
15514.406
15529.239
15541.744
15547.503
15557.718
15562.437
15569.342
15578.752
15575.505
15573.317
15574.904
15572.373
15570.093
15572.061
15569.612
15568.998
15568.493
15559.941
15502.825
)
;
    }
    Inlet
    {
        type            turbulentMixingLengthDissipationRateInlet;
        mixingLength    0.03;
        phi             phi;
        k               k;
        value           nonuniform List<scalar> 3(0.0040690258 0.0051658544 0.0049178296);
    }
    Outlet
    {
        type            inletOutlet;
        inletValue      uniform 1e-05;
        value           nonuniform List<scalar> 
86
(
1e-05
1e-05
1e-05
1e-05
1e-05
1e-05
1e-05
1e-05
1e-05
1e-05
1e-05
1e-05
1e-05
1e-05
1e-05
1e-05
1e-05
1e-05
1e-05
1e-05
1e-05
1e-05
1e-05
1e-05
1e-05
1e-05
1e-05
1e-05
1e-05
1e-05
219.72968
218.78421
197.24015
1e-05
1e-05
1e-05
1e-05
50.869687
45.123963
36.135742
1e-05
1e-05
1e-05
1e-05
1e-05
9.1385419
9.0502582
8.9463638
8.8882603
1e-05
1e-05
1e-05
1e-05
1e-05
1e-05
1e-05
1e-05
1e-05
1e-05
1e-05
1e-05
1e-05
1e-05
1e-05
1e-05
1e-05
1e-05
1e-05
1e-05
1e-05
1e-05
1e-05
1e-05
1e-05
1e-05
1e-05
1e-05
1e-05
1e-05
1e-05
1e-05
1e-05
1e-05
1e-05
195.82568
218.87862
)
;
    }
    Front
    {
        type            wedge;
    }
    Back
    {
        type            wedge;
    }
    defaultFaces
    {
        type            empty;
    }
}


// ************************************************************************* //
