/*--------------------------------*- C++ -*----------------------------------*\
| =========                 |                                                 |
| \\      /  F ield         | OpenFOAM: The Open Source CFD Toolbox           |
|  \\    /   O peration     | Version:  4.0                                   |
|   \\  /    A nd           | Web:      www.OpenFOAM.org                      |
|    \\/     M anipulation  |                                                 |
\*---------------------------------------------------------------------------*/
FoamFile
{
    version     2.0;
    format      ascii;
    class       volScalarField;
    location    "0.29";
    object      p;
}
// * * * * * * * * * * * * * * * * * * * * * * * * * * * * * * * * * * * * * //

dimensions      [0 2 -2 0 0 0 0];

internalField   nonuniform List<scalar> 
1740
(
491.83985
491.84246
491.90097
475.60339
475.53828
475.661
459.2906
459.19156
459.32063
442.64857
442.64174
442.59652
425.55627
425.72416
425.52443
408.70512
408.84531
408.56518
392.41639
392.28817
392.09225
375.66637
375.60513
375.86918
358.8988
359.06229
359.35851
342.8631
342.93699
342.86727
326.47105
326.55291
326.42183
309.53052
309.7425
309.66554
293.04407
293.03002
293.0566
276.98188
276.67553
276.74694
260.3356
260.17482
260.25861
243.18298
243.28452
243.21805
226.34943
226.47263
226.34972
209.89575
209.89815
210.00809
193.42107
193.25654
193.30239
176.69963
176.47328
176.44056
159.76765
159.81313
159.91588
143.29818
143.56079
143.68877
127.38046
127.51292
127.69983
111.18904
111.18815
111.33796
94.760113
94.710014
94.554928
78.183868
78.192999
77.89477
61.810686
61.81316
61.704959
46.032836
45.678421
45.759055
30.5136
30.214953
30.145708
15.811586
15.754337
15.30638
3.8722054
3.4510271
1.5719194
-0.76792926
-0.64859099
-0.46197899
-0.24952098
-0.21744175
-0.18073641
-0.085747596
-0.075077083
-0.067111626
-0.050893452
-0.046460177
-0.04128267
-0.037075981
-0.034968459
-0.031816734
-0.030202175
-0.029159934
-0.027102241
-0.025644198
-0.024986118
-0.023648526
-0.022034797
-0.021585649
-0.020660911
-0.018698976
-0.018379225
-0.017711978
-0.015816927
-0.015598788
-0.015135097
-0.013604776
-0.013442058
-0.013103882
-0.011962271
-0.01183795
-0.011585886
-0.010675225
-0.010581429
-0.01038357
-0.0096295774
-0.0095574065
-0.0093979404
-0.0087469271
-0.0086877905
-0.0085591777
-0.0079815595
-0.0079331457
-0.0078281098
-0.0073074335
-0.0072673189
-0.0071799413
-0.006705727
-0.0066719759
-0.0065980303
-0.0061624919
-0.0061336833
-0.0060703485
-0.0056675136
-0.005642637
-0.005587843
-0.0052127413
-0.0051910478
-0.0051431972
-0.0047919529
-0.0047728989
-0.0047308164
-0.0044005584
-0.0043837205
-0.004346481
-0.0040356448
-0.0040205279
-0.0039871796
-0.003693855
-0.0036805097
-0.0036510638
-0.0033738012
-0.0033618848
-0.0033355628
-0.0030743246
-0.0030636703
-0.003040136
-0.0027944407
-0.0027849182
-0.0027638688
-0.0025333199
-0.0025248198
-0.0025060029
-0.0022902348
-0.0022826703
-0.0022658494
-0.0020644885
-0.0020577315
-0.0020427785
-0.0018553942
-0.0018493847
-0.0018361095
-0.0016622416
-0.0016569151
-0.0016451571
-0.0014842798
-0.0014795743
-0.0014691909
-0.0013207102
-0.0013165683
-0.0013074313
-0.0011706958
-0.0011670649
-0.0011590574
-0.0010333602
-0.0010301914
-0.0010232057
-0.00090778821
-0.00090503454
-0.00089896815
-0.00079301815
-0.00079062111
-0.00078532303
-0.00068811371
-0.00068606561
-0.00068155832
-0.00059225512
-0.00059051751
-0.00058669176
-0.00050436261
-0.00050290175
-0.00049968477
-0.00042345481
-0.00042224254
-0.00041957264
-0.00034856912
-0.00034758157
-0.00034540643
-0.00027874535
-0.00027796272
-0.0002762388
-0.00021300353
-0.00021240996
-0.00021110233
-0.00015036495
-0.00014994821
-0.00014902988
-8.9681579e-05
-8.9433914e-05
-8.8887587e-05
-2.9883639e-05
-2.9801419e-05
-2.9619368e-05
-1.3709739
-0.96315048
-0.37041366
-0.28320871
-0.1491478
-0.13118171
-0.059620066
-0.055089445
-0.035068588
-0.030429188
-0.027896539
-0.02417849
-0.024495485
-0.021727692
-0.021866455
-0.019872439
-0.019400782
-0.017938421
-0.016805629
-0.015741746
-0.014480113
-0.013708673
-0.012629724
-0.012044159
-0.011222733
-0.010766715
-0.010095771
-0.0097302191
-0.0091665414
-0.0088686343
-0.0083712141
-0.0081255114
-0.007672329
-0.0074675108
-0.0070489656
-0.0068760734
-0.006486662
-0.0063390317
-0.0059746103
-0.0058473468
-0.0055047979
-0.0053940166
-0.005070549
-0.0049734752
-0.0046668533
-0.0045813057
-0.0042898649
-0.0042140871
-0.0039368284
-0.0038694225
-0.0036059787
-0.0035455973
-0.0032954806
-0.0032419231
-0.00300432
-0.0029563578
-0.0027318513
-0.0026889599
-0.0024774006
-0.0024390861
-0.0022403356
-0.0022061595
-0.0020200545
-0.0019896214
-0.001815922
-0.0017888862
-0.0016272725
-0.0016033197
-0.0014533953
-0.001432239
-0.0012935305
-0.0012749104
-0.0011468736
-0.0011305481
-0.0010125762
-0.00099831822
-0.00088975065
-0.00087732828
-0.00077725517
-0.00076652206
-0.00067469981
-0.00066553099
-0.00058087211
-0.00057307966
-0.00049479007
-0.00048823218
-0.00041550958
-0.00041006415
-0.00034209584
-0.000337658
-0.00027361444
-0.00027009585
-0.0002091112
-0.00020644034
-0.00014763115
-0.00014575459
-8.8055601e-05
-8.6939259e-05
-2.9342139e-05
-2.8970051e-05
-0.012473351
-0.012141451
-0.011497167
-0.010640596
-0.009687292
-0.0087152039
-0.0077675752
-0.0068719762
-0.0060454769
-0.0052991044
-0.0046379323
-0.0040644845
-0.0035778837
-0.0031788215
-0.0028224828
-0.0024896882
-0.0021757915
-0.001881993
-0.0016043487
-0.0013394874
-0.0010844908
-0.00083730001
-0.0005962311
-0.00035897502
-0.00012000136
-0.01313515
-0.012778338
-0.012068827
-0.011137173
-0.010134821
-0.0091411678
-0.0081946811
-0.0073247309
-0.0065453076
-0.0058585623
-0.0052557506
-0.0047277663
-0.0042563035
-0.0038158739
-0.0034178084
-0.0030554761
-0.0027141507
-0.0023780772
-0.0020477169
-0.0017220014
-0.0013995007
-0.001081021
-0.00076703883
-0.00045517163
-0.00014285199
-0.018378214
-0.017896581
-0.017073789
-0.016122228
-0.015199376
-0.014362443
-0.013661934
-0.013095881
-0.012559258
-0.012010489
-0.011422765
-0.010791159
-0.010110468
-0.0093827
-0.0086163724
-0.0078178689
-0.0069948121
-0.0061569648
-0.0053059274
-0.0044458956
-0.0035858836
-0.0027341236
-0.0018986644
-0.0010875916
-0.00031743144
-0.03590126
-0.035247472
-0.034520017
-0.033888027
-0.033237358
-0.032442828
-0.031471471
-0.030277057
-0.028914118
-0.027412642
-0.025785207
-0.024073486
-0.022292767
-0.020456988
-0.018583104
-0.016688827
-0.014789086
-0.012895468
-0.011018291
-0.0091669037
-0.0073632631
-0.0056059563
-0.0038984355
-0.0022498362
-0.00069242715
-0.090091466
-0.087839107
-0.084878724
-0.07997851
-0.074778316
-0.069214294
-0.063712885
-0.058332397
-0.053110727
-0.048104819
-0.043351901
-0.038891759
-0.034659185
-0.030519232
-0.026683298
-0.023153138
-0.019909459
-0.016928581
-0.014183268
-0.011644422
-0.0092697977
-0.0070402916
-0.004935131
-0.0029288503
-0.000998968
-0.25771763
-0.20901537
-0.18353173
-0.14952087
-0.12173473
-0.097889154
-0.077808704
-0.061464615
-0.048300587
-0.037716772
-0.029255272
-0.02253273
-0.017249693
-0.013174506
-0.0099232447
-0.0073812004
-0.0054122825
-0.0039033056
-0.0027648641
-0.0019241281
-0.0013174976
-0.0008897335
-0.00059569103
-0.00038938233
-0.00026953409
-0.36269825
-0.148416
-0.094517485
-0.056184667
-0.021658408
0.005709989
0.023334951
0.032323176
0.035887392
0.036591789
0.035685802
0.033814108
0.031339724
0.028544602
0.025625668
0.022705574
0.019856579
0.017117891
0.014503169
0.012009862
0.0096257238
0.0073344092
0.0051114822
0.0029477026
0.00075757558
-0.22704851
-0.19300001
-0.16224182
-0.13372382
-0.10829249
-0.086345421
-0.068079691
-0.053286033
-0.041454055
-0.032022958
-0.024544231
-0.018647029
-0.01403264
-0.010405706
-0.0075815901
-0.0054091632
-0.0037599304
-0.0025281168
-0.0016323957
-0.0010063265
-0.00059407652
-0.00034645654
-0.00022141063
-0.00017419562
-0.00020735029
-0.11830959
-0.10736075
-0.097674361
-0.089002809
-0.081071952
-0.073728615
-0.066921559
-0.060567685
-0.054615949
-0.049102222
-0.043970734
-0.039083537
-0.034504474
-0.030294559
-0.026443663
-0.022929816
-0.019699033
-0.016722633
-0.013982059
-0.01145203
-0.0091055058
-0.0069147664
-0.0048530615
-0.0028891355
-0.00099634471
-0.051017823
-0.047603661
-0.044826621
-0.042630705
-0.040711437
-0.038850889
-0.036998884
-0.035095239
-0.033116269
-0.031075177
-0.028991502
-0.026875863
-0.024729638
-0.022567387
-0.020401988
-0.01824087
-0.016118397
-0.014040669
-0.012001113
-0.0099995099
-0.008038226
-0.0061219459
-0.004258273
-0.002458599
-0.00075757435
-0.026404079
-0.023096935
-0.020606224
-0.018942828
-0.017762841
-0.01695319
-0.016297808
-0.01569656
-0.015083615
-0.014428449
-0.013718094
-0.012953186
-0.012133191
-0.011266781
-0.010357126
-0.0094056615
-0.0084191073
-0.0074089918
-0.0063828131
-0.0053477971
-0.0043118992
-0.0032845288
-0.0022766054
-0.001299394
-0.00037742851
-0.020634182
-0.01743182
-0.014775131
-0.012470937
-0.01066831
-0.0092891307
-0.0082245629
-0.0074033864
-0.0067697782
-0.0062636547
-0.0058318094
-0.0054468103
-0.0050771427
-0.0047124689
-0.0043390373
-0.0039540827
-0.0035533735
-0.0031405531
-0.0027191546
-0.0022926309
-0.0018643083
-0.0014375537
-0.0010150984
-0.00059686767
-0.00018216448
-0.019027739
-0.016531556
-0.014267412
-0.012222261
-0.010462946
-0.0089715872
-0.007731384
-0.0067074604
-0.0058596746
-0.0051508443
-0.0045576895
-0.0040379359
-0.0035876084
-0.003189355
-0.002828245
-0.0024963708
-0.0021883316
-0.0018980315
-0.0016215017
-0.0013563539
-0.0011004656
-0.000851909
-0.00060866588
-0.00036744698
-0.00012183358
-0.017840905
-0.015871791
-0.014023483
-0.012319945
-0.010787073
-0.0094183
-0.0082128006
-0.0071656602
-0.0062661553
-0.0055020546
-0.0048469163
-0.0042870853
-0.0037981327
-0.0033570197
-0.0029582627
-0.0025955388
-0.00226215
-0.0019516621
-0.0016587746
-0.0013798309
-0.0011119528
-0.00085321582
-0.00060229676
-0.00035811165
-0.00011882018
-0.016407826
-0.014891065
-0.013420697
-0.012019711
-0.01071361
-0.0095169133
-0.0084240438
-0.0074367229
-0.0065554781
-0.0057773137
-0.005091713
-0.0044893605
-0.003958091
-0.0034825312
-0.0030542034
-0.0026664183
-0.0023123717
-0.0019862568
-0.0016792848
-0.0013900062
-0.0011146477
-0.00085070209
-0.00059661794
-0.00035210341
-0.0001158215
-0.014599415
-0.013436098
-0.012294862
-0.011192773
-0.010140152
-0.0091412698
-0.008204821
-0.0073263833
-0.0065183634
-0.0057828146
-0.0051140886
-0.0045119683
-0.0039710767
-0.0034816581
-0.0030390059
-0.0026369463
-0.0022701632
-0.0019334497
-0.0016231306
-0.0013345378
-0.0010639051
-0.00080803288
-0.00056498339
-0.00033272497
-0.00010948619
-0.012842304
-0.011923983
-0.011008869
-0.010116504
-0.0092602121
-0.0084384084
-0.0076507053
-0.0069153197
-0.0062205682
-0.0055665023
-0.0049567686
-0.004392288
-0.0038729856
-0.0033974725
-0.0029622823
-0.0025633327
-0.0021977451
-0.0018625421
-0.0015563095
-0.0012731566
-0.0010102591
-0.00076472255
-0.00053330919
-0.00031258167
-9.9951095e-05
-0.011381858
-0.01065724
-0.0098988554
-0.0091514448
-0.0084360888
-0.0077529725
-0.0071030737
-0.0064756995
-0.0058739221
-0.0052991202
-0.0047557143
-0.0042434995
-0.0037625857
-0.0033144657
-0.0028988046
-0.0025139526
-0.0021585451
-0.0018308817
-0.0015290954
-0.0012500391
-0.00099106999
-0.00074938633
-0.00052208702
-0.00030645433
-9.9773604e-05
-0.010233981
-0.0096434899
-0.0090199277
-0.0083945384
-0.0077843266
-0.0071956505
-0.0066301189
-0.0060849585
-0.0055584161
-0.0050502976
-0.0045639093
-0.0041004189
-0.0036604625
-0.003244906
-0.0028539665
-0.0024874905
-0.0021451404
-0.001826119
-0.0015291624
-0.0012525139
-0.0009943176
-0.00075247978
-0.00052471125
-0.0003077851
-9.8849044e-05
-0.0092983897
-0.0088134703
-0.0082952316
-0.0077656589
-0.0072392666
-0.0067251816
-0.0062271461
-0.0057451904
-0.005277596
-0.0048244765
-0.0043876467
-0.0039676849
-0.0035652486
-0.0031809427
-0.0028151702
-0.0024681058
-0.0021399914
-0.0018306015
-0.0015393419
-0.0012652755
-0.0010072059
-0.00076374808
-0.00053402078
-0.00031351772
-9.9315548e-05
-0.008512563
-0.008109671
-0.0076741086
-0.0072208763
-0.0067638597
-0.0063113719
-0.0058684596
-0.0054369724
-0.0050177743
-0.0046109208
-0.0042166669
-0.0038348728
-0.0034658878
-0.0031104493
-0.0027688185
-0.0024412188
-0.0021278973
-0.0018291738
-0.0015449142
-0.001274732
-0.001017973
-0.00077380776
-0.00054134817
-0.00031771619
-0.00010168536
-0.0078290276
-0.0074903899
-0.0071197217
-0.0067290403
-0.0063293332
-0.0059293593
-0.005533855
-0.0051458818
-0.0047676479
-0.0043994749
-0.0040409609
-0.0036921492
-0.0033531305
-0.0030241899
-0.0027054753
-0.0023971407
-0.0020995002
-0.0018128015
-0.0015373153
-0.0012730437
-0.0010197336
-0.00077690793
-0.00054403151
-0.00031958575
-0.00010301256
-0.0072181737
-0.0069306021
-0.00661276
-0.0062738265
-0.0059228787
-0.0055675893
-0.0052133899
-0.0048635902
-0.0045205394
-0.0041850992
-0.0038572294
-0.0035369929
-0.0032243894
-0.0029194918
-0.0026223515
-0.0023329088
-0.0020513661
-0.0017780045
-0.0015131643
-0.0012570028
-0.0010095751
-0.00077073762
-0.00054037409
-0.00031787659
-0.00010275051
-0.0066641334
-0.006417805
-0.0061431789
-0.0058474813
-0.0055381007
-0.0052216335
-0.0049033418
-0.0045868359
-0.0042744436
-0.0039674617
-0.0036663254
-0.0033711363
-0.0030819238
-0.0027986628
-0.0025213401
-0.002249993
-0.0019846281
-0.001725438
-0.0014726705
-0.0012265959
-0.00098741482
-0.00075527818
-0.00053036905
-0.00031221305
-0.00010080182
-0.0061571372
-0.0059443459
-0.005705464
-0.005446026
-0.0051721521
-0.0048894327
-0.004602644
-0.0043153735
-0.0040300622
-0.0037482714
-0.0034707415
-0.0031977829
-0.0029294947
-0.0026658669
-0.0024068485
-0.002152497
-0.0019028483
-0.0016579944
-0.0014181404
-0.0011835273
-0.00095443304
-0.00073115946
-0.00051409932
-0.00030292233
-9.7827548e-05
-0.0056898741
-0.005504741
-0.0052956385
-0.0050669181
-0.0048234981
-0.0045701836
-0.0043111674
-0.0040498459
-0.0037887042
-0.0035294558
-0.0032731112
-0.0030201712
-0.0027708285
-0.0025251561
-0.0022831669
-0.0020448864
-0.0018103668
-0.0015796908
-0.001353044
-0.0011306766
-0.0009128914
-0.00070004485
-0.00049262818
-0.00029048766
-9.3878619e-05
-0.0052567161
-0.0050946135
-0.00491051
-0.0047079553
-0.0044908644
-0.0042632958
-0.0040288898
-0.0037907987
-0.0035514495
-0.0033126288
-0.0030755102
-0.0028408666
-0.0026089579
-0.0023799386
-0.0021539116
-0.0019308987
-0.0017109784
-0.0014942846
-0.0012809432
-0.0010712573
-0.00086553456
-0.00066414109
-0.00046756098
-0.0002758162
-8.9213921e-05
-0.0048529319
-0.0047101612
-0.004547308
-0.0043672017
-0.0041730329
-0.0039681104
-0.0037556903
-0.0035385554
-0.0033190482
-0.0030989546
-0.0028795649
-0.0026617507
-0.0024461094
-0.0022327374
-0.0020218454
-0.0018134156
-0.0016076465
-0.0014046571
-0.0012046467
-0.0010079115
-0.00081466297
-0.00062530189
-0.00044044715
-0.00025970001
-8.3745726e-05
-0.0044748096
-0.0043484671
-0.0042038315
-0.0040431379
-0.0038690124
-0.0036842089
-0.0034914862
-0.0032934013
-0.0030921152
-0.002889374
-0.0026865572
-0.0024844955
-0.0022839474
-0.0020853658
-0.0018889519
-0.0016944706
-0.0015025028
-0.001313085
-0.0011263856
-0.00094255243
-0.00076193489
-0.00058479563
-0.0004116039
-0.00024286905
-7.8457609e-05
-0.0041196324
-0.0040073314
-0.0038784444
-0.0037346969
-0.0035782394
-0.00341138
-0.0032364892
-0.003055802
-0.0028713422
-0.0026848061
-0.002497585
-0.0023104498
-0.0021242301
-0.0019394952
-0.0017564798
-0.0015758145
-0.0013972798
-0.0012210728
-0.0010473975
-0.00087647988
-0.00070854545
-0.00054384627
-0.00038295064
-0.00022580493
-7.272801e-05
-0.003785372
-0.0036852522
-0.0035700888
-0.0034412743
-0.0033005122
-0.0031497716
-0.0029910716
-0.0028263847
-0.0026575271
-0.0024861044
-0.0023134441
-0.0021406743
-0.0019681889
-0.0017968645
-0.0016271328
-0.0014593777
-0.0012936858
-0.001130295
-0.00096937699
-0.00081108876
-0.00065565458
-0.00050327058
-0.00035439814
-0.00020886652
-6.6827142e-05
-0.0034706693
-0.0033812171
-0.0032781283
-0.0031625443
-0.0030358541
-0.0028996852
-0.0027557711
-0.0026058388
-0.0024515183
-0.0022942783
-0.0021353724
-0.0019759524
-0.0018168485
-0.0016585148
-0.001501542
-0.0013463166
-0.001193082
-0.0010420755
-0.00089348318
-0.00074747205
-0.00060422954
-0.00046391382
-0.00032701099
-0.0001926391
-6.1132049e-05
-0.0031746436
-0.0030945345
-0.0030021715
-0.0028984206
-0.0027844003
-0.0026614747
-0.0025311227
-0.0023948506
-0.0022541184
-0.002110264
-0.0019644556
-0.0018178138
-0.0016713297
-0.0015254446
-0.0013807221
-0.0012375719
-0.0010963142
-0.00095720923
-0.00082046233
-0.0006862561
-0.00055476449
-0.00042612117
-0.00030094645
-0.00017704952
-5.5563323e-05
-0.0028963278
-0.0028246783
-0.0027419252
-0.0026488643
-0.0025462732
-0.0024354635
-0.0023175918
-0.002193992
-0.0020659812
-0.0019347753
-0.0018013771
-0.0016669814
-0.0015324458
-0.0013984613
-0.0012654498
-0.001133867
-0.0010040563
-0.00087631203
-0.00075085568
-0.00062787408
-0.00050753419
-0.00038995638
-0.00027626584
-0.00016259188
-5.0508738e-05
-0.0026353202
-0.002571221
-0.0024970871
-0.002413517
-0.0023214818
-0.0022218311
-0.002115508
-0.0020036444
-0.001887511
-0.0017680196
-0.0016465389
-0.0015238576
-0.0014007793
-0.0012780591
-0.0011562085
-0.0010356747
-0.00091675546
-0.00079980452
-0.00068503963
-0.00057264561
-0.00046277832
-0.000355435
-0.00025379079
-0.00014928724
-4.5409886e-05
-0.0023911713
-0.0023338788
-0.0022675582
-0.00219272
-0.002110069
-0.0020203459
-0.0019246272
-0.0018238129
-0.001718761
-0.001610595
-0.0015002819
-0.0013886618
-0.0012765093
-0.0011645235
-0.0010532759
-0.00094317885
-0.00083463988
-0.00072790978
-0.00062322779
-0.00052079039
-0.00042078464
-0.00032337765
-0.00023037595
-0.0001362746
-4.1395714e-05
-0.0021634162
-0.0021122833
-0.0020530505
-0.0019861479
-0.0019121451
-0.0018317313
-0.0017457291
-0.0016549382
-0.0015602703
-0.0014626059
-0.0013627676
-0.0012615746
-0.0011597537
-0.0010579571
-0.00095674832
-0.00085656929
-0.00075779131
-0.00066067301
-0.0005654649
-0.00047235417
-0.00038149432
-0.00029303921
-0.00020781291
-0.00012304497
-3.8349005e-05
-0.0019515602
-0.0019060148
-0.001853226
-0.0017935412
-0.0017274405
-0.0016555364
-0.0015785102
-0.0014970377
-0.0014119019
-0.001323924
-0.0012339128
-0.0011425706
-0.0010504939
-0.0009583261
-0.00086662956
-0.00077577508
-0.00068616441
-0.00059806525
-0.00051172184
-0.00042731229
-0.00034495311
-0.00026471583
-0.00018713474
-0.00011079136
-3.5193894e-05
-0.001755071
-0.001714597
-0.0016676667
-0.0016145685
-0.0015557065
-0.0014915703
-0.0014227199
-0.0013497245
-0.0012732653
-0.0011942753
-0.001113371
-0.0010311766
-0.00094831394
-0.00086532939
-0.00078270255
-0.00070062683
-0.000619633
-0.00053995287
-0.00046187673
-0.00038556641
-0.00031112611
-0.00023862739
-0.00016842667
-9.9681807e-05
-3.1797259e-05
-0.0015733581
-0.0015374889
-0.0014958785
-0.0014487709
-0.0013964969
-0.0013394585
-0.00127806
-0.0012128185
-0.0011446617
-0.0010741367
-0.0010017252
-0.00092801989
-0.00085360113
-0.00077892601
-0.00070438216
-0.00063059345
-0.00055770288
-0.00048604271
-0.00041575444
-0.00034700875
-0.00027994326
-0.00021465369
-0.00015144509
-8.9590451e-05
-2.8527975e-05
-0.0014057726
-0.0013740805
-0.001337299
-0.0012956264
-0.0012493424
-0.0011987216
-0.0011441
-0.0010863639
-0.0010258508
-0.00096304013
-0.00089847084
-0.00083265798
-0.00076610217
-0.00069924391
-0.00063248979
-0.00056626814
-0.00050084359
-0.00043646697
-0.00037332391
-0.00031157017
-0.00025133354
-0.00019270127
-0.00013590657
-8.0355029e-05
-2.5581286e-05
-0.0012516139
-0.0012237095
-0.0011913059
-0.0011545475
-0.0011136155
-0.0010687954
-0.001020786
-0.00096977753
-0.00091619765
-0.00086049695
-0.00080314982
-0.00074461649
-0.00068534012
-0.00062573156
-0.00056616727
-0.00050699427
-0.00044849145
-0.00039089
-0.00033437313
-0.00027908652
-0.00022514077
-0.00017259803
-0.0001216627
-7.1881772e-05
-2.2909481e-05
-0.0011101198
-0.0010856482
-0.0010572149
-0.0010247764
-0.00098877538
-0.00094959063
-0.00090738404
-0.000862469
-0.00081521749
-0.00076602727
-0.00071530932
-0.00066347068
-0.00061090557
-0.00055798375
-0.00050504575
-0.00045239471
-0.00040028976
-0.00034895032
-0.00029854812
-0.00024921879
-0.00020106299
-0.00015413787
-0.00010861969
-6.4182323e-05
-2.048768e-05
-0.0009804659
-0.0009590678
-0.00093398781
-0.0009057975
-0.00087447616
-0.00084020911
-0.00080324564
-0.00076386058
-0.00072237323
-0.00067912636
-0.00063447514
-0.00058877556
-0.00054237456
-0.0004956006
-0.00044875697
-0.00040211518
-0.00035591181
-0.00031034474
-0.00026557783
-0.00022173753
-0.00017891732
-0.00013717589
-9.6694026e-05
-5.7147202e-05
-1.8235068e-05
-0.00086166483
-0.00084296201
-0.00082143347
-0.00079698528
-0.00076975687
-0.00073992665
-0.000707707
-0.00067333847
-0.00063709146
-0.0005992588
-0.00056014584
-0.00052006108
-0.00047930723
-0.00043817309
-0.00039692695
-0.00035581116
-0.00031503852
-0.00027478979
-0.00023521545
-0.00019643552
-0.00015854262
-0.00012160612
-8.5786655e-05
-5.0738208e-05
-1.6155556e-05
-0.00075318
-0.00073714269
-0.00071853181
-0.00069739649
-0.00067384275
-0.00064801408
-0.00062008641
-0.00059026342
-0.0005587737
-0.00052586561
-0.00049179993
-0.00045684189
-0.00042125354
-0.00038528669
-0.00034917692
-0.00031313883
-0.00027736251
-0.000242012
-0.00020722508
-0.00017311468
-0.00013977069
-0.00010726499
-7.5729488e-05
-4.4808958e-05
-1.4251648e-05
-0.00065407641
-0.00064033031
-0.00062435174
-0.00060619672
-0.00058595178
-0.00056373294
-0.00053968562
-0.00051397905
-0.00048680502
-0.00045837291
-0.00042890375
-0.00039862378
-0.000367758
-0.00033652419
-0.00030512753
-0.00027375646
-0.00024257951
-0.00021174389
-0.00018137464
-0.0001515757
-0.00012243085
-9.4006106e-05
-6.6410829e-05
-3.9307303e-05
-1.2496651e-05
-0.0005633302
-0.00055163403
-0.00053802711
-0.00052255793
-0.00050529591
-0.00048633644
-0.00046579795
-0.00044382007
-0.00042056244
-0.00039619995
-0.00037091841
-0.00034490919
-0.00031836378
-0.00029146871
-0.00026440105
-0.00023732462
-0.00021038736
-0.00018371934
-0.00015743246
-0.00013161998
-0.00010635712
-8.1702098e-05
-5.7748479e-05
-3.4189955e-05
-1.0865571e-05
-0.00048002104
-0.00047016858
-0.00045870003
-0.00044565416
-0.00043108708
-0.00041507547
-0.00039771482
-0.00037911993
-0.00035942187
-0.00033876551
-0.0003173055
-0.00029520203
-0.00027261633
-0.00024970637
-0.00022662317
-0.00020350735
-0.0001804869
-0.00015767512
-0.00013516987
-0.00011305302
-9.1390508e-05
-7.0233339e-05
-4.9663541e-05
-2.9411336e-05
-9.3444874e-06
-0.00040324274
-0.00039505506
-0.00038551979
-0.00037466719
-0.00036254171
-0.00034920405
-0.0003347308
-0.00031921454
-0.00030276195
-0.00028549139
-0.00026752995
-0.00024900998
-0.00023006529
-0.00021082783
-0.00019142432
-0.00017197374
-0.00015258469
-0.00013335392
-0.00011436515
-9.5688681e-05
-7.7381477e-05
-5.9488284e-05
-4.2081234e-05
-2.4927862e-05
-7.9187857e-06
-0.00033209691
-0.00032541982
-0.0003176406
-0.00030878241
-0.00029887973
-0.00028797959
-0.00027614257
-0.00026344213
-0.00024996341
-0.00023580156
-0.00022105922
-0.00020584365
-0.00019026382
-0.00017442777
-0.00015843989
-0.00014239849
-0.00012639362
-0.00011050577
-9.4804854e-05
-7.93499e-05
-6.4189268e-05
-4.9361834e-05
-3.4930148e-05
-2.0697432e-05
-6.5734015e-06
-0.00026568548
-0.00026038872
-0.00025421567
-0.00024718364
-0.00023931871
-0.00023065672
-0.00022124421
-0.00021113798
-0.00020040434
-0.00018911786
-0.00017735928
-0.0001652131
-0.00015276561
-0.00014010284
-0.00012730818
-0.00011446027
-0.00010163142
-8.8886411e-05
-7.6281812e-05
-6.3865753e-05
-5.1678199e-05
-3.9751958e-05
-2.8140009e-05
-1.6678522e-05
-5.2942466e-06
-0.00020309199
-0.0001990699
-0.00019438108
-0.00018903824
-0.00018306053
-0.00017647436
-0.00016931427
-0.00016162261
-0.00015344925
-0.0001448499
-0.00013588532
-0.00012661938
-0.0001171171
-0.00010744381
-9.7662946e-05
-8.7834461e-05
-7.8013687e-05
-6.8250404e-05
-5.8588321e-05
-4.9064946e-05
-3.9711841e-05
-3.0555352e-05
-2.1638901e-05
-1.2828829e-05
-4.0675044e-06
-0.00014340158
-0.00014057385
-0.00013727629
-0.00013351792
-0.00012931195
-0.00012467694
-0.00011963726
-0.00011422282
-0.00010846902
-0.0001024132
-9.6099226e-05
-8.9569601e-05
-8.2870014e-05
-7.6045999e-05
-6.9141917e-05
-6.2199961e-05
-5.5259277e-05
-4.8355248e-05
-4.1519113e-05
-3.4777897e-05
-2.8154601e-05
-2.1668701e-05
-1.5354447e-05
-9.1064693e-06
-2.8794266e-06
-8.5539006e-05
-8.3855732e-05
-8.1891699e-05
-7.965249e-05
-7.7145449e-05
-7.4382738e-05
-7.1379563e-05
-6.8154458e-05
-6.4727497e-05
-6.1125604e-05
-5.736878e-05
-5.3482522e-05
-4.9493406e-05
-4.5428001e-05
-4.1312557e-05
-3.7172281e-05
-3.3030677e-05
-2.890908e-05
-2.4826398e-05
-2.0799093e-05
-1.6841288e-05
-1.2964921e-05
-9.1970531e-06
-5.4583459e-06
-1.7138333e-06
-2.8503154e-05
-2.7941703e-05
-2.7286357e-05
-2.6537221e-05
-2.5699726e-05
-2.4776076e-05
-2.3772997e-05
-2.2697273e-05
-2.1551316e-05
-2.0358241e-05
-1.9109396e-05
-1.7817841e-05
-1.6491661e-05
-1.5139328e-05
-1.3769602e-05
-1.2391004e-05
-1.1011499e-05
-9.6383192e-06
-8.2778785e-06
-6.9357751e-06
-5.6168323e-06
-4.3248091e-06
-3.0732611e-06
-1.8236766e-06
-5.6594392e-07
)
;

boundaryField
{
    Walls
    {
        type            zeroGradient;
    }
    Inlet
    {
        type            fixedValue;
        value           uniform 500;
    }
    Outlet
    {
        type            fixedValue;
        value           uniform 0;
    }
    Front
    {
        type            wedge;
    }
    Back
    {
        type            wedge;
    }
    defaultFaces
    {
        type            empty;
    }
}


// ************************************************************************* //
