/*--------------------------------*- C++ -*----------------------------------*\
| =========                 |                                                 |
| \\      /  F ield         | OpenFOAM: The Open Source CFD Toolbox           |
|  \\    /   O peration     | Version:  4.0                                   |
|   \\  /    A nd           | Web:      www.OpenFOAM.org                      |
|    \\/     M anipulation  |                                                 |
\*---------------------------------------------------------------------------*/
FoamFile
{
    version     2.0;
    format      ascii;
    class       surfaceScalarField;
    location    "0.29";
    object      phi;
}
// * * * * * * * * * * * * * * * * * * * * * * * * * * * * * * * * * * * * * //

dimensions      [0 3 -1 0 0 0 0];

internalField   nonuniform List<scalar> 
3364
(
-3.1870011e-10
1.6337187e-08
-4.9363979e-10
5.095963e-08
8.627489e-08
-4.6318678e-10
1.6800373e-08
-1.5017671e-09
5.1998272e-08
8.4773127e-08
4.8128883e-11
1.6752234e-08
-1.1257892e-09
5.3172255e-08
8.3647329e-08
1.0655795e-10
1.6645646e-08
3.9268321e-10
5.2886116e-08
8.4039997e-08
-3.5546558e-10
1.7001058e-08
8.8442103e-10
5.1646162e-08
8.4924379e-08
-3.4644502e-10
1.7347459e-08
1.0022553e-09
5.0297418e-08
8.5926607e-08
2.8168688e-10
1.7065733e-08
7.5365537e-10
4.9825411e-08
8.6680246e-08
1.168673e-10
1.6948833e-08
-1.1631028e-09
5.1105351e-08
8.5517116e-08
-5.5020392e-11
1.7003806e-08
-5.8508862e-10
5.1635406e-08
8.4931983e-08
2.3323e-10
1.6770508e-08
1.2030817e-09
5.0665474e-08
8.6134991e-08
-2.7684139e-10
1.7047311e-08
2.3748037e-10
5.0151058e-08
8.637241e-08
-5.4630039e-10
1.7593582e-08
-1.2441713e-10
4.9729123e-08
8.6247967e-08
3.2536857e-11
1.7560999e-08
1.6752452e-10
4.9594103e-08
8.641548e-08
3.2843756e-10
1.7232556e-08
-3.2511186e-10
5.0247618e-08
8.6090326e-08
1.7531023e-10
1.7057247e-08
-4.3518424e-10
5.0858096e-08
8.5655102e-08
1.4312209e-10
1.691408e-08
6.8258546e-10
5.03186e-08
8.633766e-08
-1.3109762e-10
1.7045112e-08
7.1587952e-10
4.9471543e-08
8.7053492e-08
-3.6322243e-10
1.740828e-08
-7.9185453e-10
4.9900113e-08
8.6261575e-08
1.5767884e-10
1.7250577e-08
-5.1912283e-10
5.0576878e-08
8.5742406e-08
3.2805662e-10
1.6922509e-08
-6.7218716e-11
5.097214e-08
8.5675162e-08
3.5377595e-11
1.6887107e-08
-2.2640488e-10
5.1233903e-08
8.5448726e-08
-1.3319734e-10
1.7020246e-08
-2.7080235e-10
5.1371456e-08
8.5177889e-08
-1.6614806e-10
1.7186307e-08
-1.0028703e-09
5.2208142e-08
8.4175005e-08
-3.4630642e-10
1.7532577e-08
-9.0604469e-10
5.2767853e-08
8.3268931e-08
-1.4554556e-10
1.7678109e-08
3.6382468e-10
5.2258444e-08
8.3632702e-08
3.2018643e-11
1.764605e-08
1.3991228e-09
5.0891298e-08
8.5031778e-08
3.1346426e-10
1.7332539e-08
7.0081895e-10
5.0503902e-08
8.5732563e-08
6.997559e-10
1.6632756e-08
-5.337785e-10
5.1737396e-08
8.5198744e-08
2.9679701e-10
1.6335988e-08
-4.1521475e-10
5.2449496e-08
8.478354e-08
1.1402267e-09
1.5195971e-08
5.0174234e-09
4.8572435e-08
8.9800975e-08
1.0977742e-08
4.2175844e-09
4.8590962e-08
1.095735e-08
1.0838278e-08
1.2755109e-07
4.8116901e-09
-5.9458946e-10
1.7247614e-08
-1.4800824e-09
-1.601037e-09
2.9685019e-08
-4.2763522e-10
-1.6692354e-10
-1.4943307e-09
-4.1332459e-10
-5.4698694e-10
-2.5482942e-09
-1.2630683e-10
-4.0602294e-11
-4.3926637e-10
-1.0033062e-10
-1.5099885e-10
-8.3521516e-10
-2.4438434e-11
-1.6162321e-11
-8.4263798e-11
-4.050111e-11
-5.5643769e-11
-1.7961285e-10
-8.4241985e-12
-7.7381117e-12
-2.8519386e-11
-2.0405824e-11
-2.6557307e-11
-5.760498e-11
-2.8451823e-12
-4.8929462e-12
-9.8215729e-12
-1.3429407e-11
-1.8048441e-11
-1.8330418e-11
-6.2128332e-13
-4.2716212e-12
-2.1042265e-12
-1.194648e-11
-1.7319826e-11
-2.8327693e-12
-3.6018858e-13
-3.9113589e-12
-9.767102e-13
-1.1329864e-11
-1.7374246e-11
-9.2222623e-13
-5.3475358e-13
-3.3765255e-12
-2.0487513e-12
-9.8157226e-12
-1.5169342e-11
-4.2534625e-12
-7.6864072e-13
-2.6077965e-12
-2.9409022e-12
-7.6432805e-12
-1.1958385e-11
-6.1515981e-12
-6.9524408e-13
-1.912481e-12
-2.6729001e-12
-5.6654726e-12
-9.0075512e-12
-5.6235017e-12
-4.4415124e-13
-1.4682822e-12
-1.7954643e-12
-4.3140592e-12
-6.8474997e-12
-3.9553603e-12
-2.8906039e-13
-1.1791902e-12
-1.1335062e-12
-3.4695482e-12
-5.5485357e-12
-2.4323769e-12
-1.8198098e-13
-9.9718944e-13
-7.016883e-13
-2.9497992e-12
-4.8108396e-12
-1.4393294e-12
-1.208744e-13
-8.763029e-13
-4.7123894e-13
-2.5994086e-12
-4.2359825e-12
-1.046059e-12
-9.5828612e-14
-7.8046655e-13
-3.7467082e-13
-2.3205494e-12
-3.7744799e-12
-8.3614989e-13
-8.1769616e-14
-6.9869205e-13
-3.2039472e-13
-2.0819142e-12
-3.3903596e-12
-7.0450045e-13
-6.8036108e-14
-6.3065298e-13
-2.6673665e-13
-1.8832083e-12
-3.0791755e-12
-5.7791314e-13
-5.6419608e-14
-5.7423167e-13
-2.2368019e-13
-1.7159456e-12
-2.8110862e-12
-4.9176664e-13
-4.6427744e-14
-5.2780312e-13
-1.842733e-13
-1.5781003e-12
-2.5905223e-12
-4.0483793e-13
-3.8609163e-14
-4.8919376e-13
-1.5334756e-13
-1.4633635e-12
-2.4056997e-12
-3.3817318e-13
-3.3127777e-14
-4.5606617e-13
-1.3146263e-13
-1.3650312e-12
-2.2469377e-12
-2.9022917e-13
-2.934705e-14
-4.2671951e-13
-1.1664416e-13
-1.277737e-12
-2.1057773e-12
-2.578098e-13
-2.7214235e-14
-3.9950578e-13
-1.0794945e-13
-1.1970048e-12
-1.9771286e-12
-2.3660348e-13
-2.5047864e-14
-3.7445845e-13
-9.9576027e-14
-1.1224796e-12
-1.8535138e-12
-2.2319609e-13
-2.374126e-14
-3.5071772e-13
-9.4750932e-14
-1.0514727e-12
-1.73671e-12
-2.1155966e-13
-2.2510693e-14
-3.2820751e-13
-8.9956205e-14
-9.8402979e-13
-1.6246085e-12
-2.0206224e-13
-2.1703419e-14
-3.0650451e-13
-8.649012e-14
-9.1924534e-13
-1.5190417e-12
-1.92061e-13
-2.101149e-14
-2.8549336e-13
-8.3934632e-14
-8.5632412e-13
-1.4162244e-12
-1.8675543e-13
-2.021344e-14
-2.6528018e-13
-8.0641274e-14
-7.958979e-13
-1.316294e-12
-1.8057453e-13
-1.9366003e-14
-2.4591436e-13
-7.7486805e-14
-7.377784e-13
-1.2203073e-12
-1.7347594e-13
-1.8606204e-14
-2.2730826e-13
-7.4389999e-14
-6.8199563e-13
-1.1282251e-12
-1.6647405e-13
-1.7775716e-14
-2.0953259e-13
-7.1036563e-14
-6.2873554e-13
-1.0402588e-12
-1.5900438e-13
-1.6834726e-14
-1.9269784e-13
-6.7275081e-14
-5.7829571e-13
-9.5690528e-13
-1.5062964e-13
-1.5900416e-14
-1.7679735e-13
-6.357591e-14
-5.3062055e-13
-8.7808266e-13
-1.423992e-13
-1.4925905e-14
-1.6187133e-13
-5.9719011e-14
-4.8582759e-13
-8.0403254e-13
-1.3376939e-13
-1.3884242e-14
-1.4798693e-13
-5.559604e-14
-4.4411579e-13
-7.3507514e-13
-1.2455339e-13
-1.2773326e-14
-1.3521343e-13
-5.1166215e-14
-4.0572275e-13
-6.7174943e-13
-1.144916e-13
-1.1683531e-14
-1.235297e-13
-4.6713433e-14
-3.7069258e-13
-6.1369898e-13
-1.0476336e-13
-1.051691e-14
-1.1301257e-13
-4.1970172e-14
-3.3923896e-13
-5.6163696e-13
-9.4031506e-14
-9.3613297e-15
-1.0365102e-13
-3.7427967e-14
-3.1117189e-13
-5.1524291e-13
-8.3821218e-14
-8.2183897e-15
-9.5432401e-14
-3.2879383e-14
-2.8651042e-13
-4.7448847e-13
-7.3632946e-14
-7.0761776e-15
-8.8355998e-14
-2.8326393e-14
-2.6525969e-13
-4.3935301e-13
-6.3460925e-14
-5.9196088e-15
-8.2436163e-14
-2.3696909e-14
-2.4748186e-13
-4.0991018e-13
-5.3138778e-14
-4.748453e-15
-7.7687489e-14
-1.8938291e-14
-2.3329148e-13
-3.8640482e-13
-4.2442684e-14
-3.611114e-15
-7.4076162e-14
-1.4329647e-14
-2.2257242e-13
-3.68714e-13
-3.2019512e-14
-2.4280207e-15
-7.1647944e-14
-9.5954502e-15
-2.1540449e-13
-3.5697018e-13
-2.1338353e-14
-1.2058837e-15
-7.044188e-14
-4.947168e-15
-2.1166274e-13
-3.5078281e-13
-1.1133684e-14
-1.3225582e-16
-6.8235507e-16
-1.6324626e-15
1.3726582e-07
-9.7200431e-09
-8.8648897e-09
1.4612438e-07
2.1552675e-08
-1.5889242e-09
-1.4776984e-09
1.4164927e-08
-3.5413133e-09
-5.957882e-10
-6.666912e-10
-4.3521808e-09
-1.2499403e-09
-1.8101369e-10
-2.2328655e-10
-1.6932852e-09
-3.0164703e-10
-5.8969943e-11
-6.5997432e-11
-4.5892172e-10
-9.1061012e-11
-2.5511661e-11
-2.2324305e-11
-1.3473188e-10
-2.5319831e-11
-1.8521952e-11
-1.6483998e-11
-3.1160689e-11
-1.0723819e-12
-2.0282633e-11
-2.1217217e-11
3.6599659e-12
2.0486935e-13
-2.1409845e-11
-2.3299872e-11
2.2871235e-12
-6.4948783e-12
-1.916826e-11
-2.1545888e-11
-8.2487738e-12
-1.0062656e-11
-1.5256889e-11
-1.7652825e-11
-1.3955396e-11
-9.2447326e-12
-1.1635365e-11
-1.3582067e-11
-1.3315161e-11
-6.6602323e-12
-8.9302908e-12
-1.0534588e-11
-9.7074751e-12
-4.0980255e-12
-7.2645256e-12
-8.6226709e-12
-6.0098065e-12
-2.4544954e-12
-6.2492964e-12
-7.5064875e-12
-3.5706089e-12
-1.6928303e-12
-5.602485e-12
-6.7705346e-12
-2.4287446e-12
-1.353482e-12
-5.0851288e-12
-6.1721942e-12
-1.9518007e-12
-1.147854e-12
-4.6417604e-12
-5.6350763e-12
-1.6849594e-12
-1.0281386e-12
-4.1915266e-12
-5.1786471e-12
-1.4845607e-12
-8.6090864e-13
-3.8223819e-12
-4.7976772e-12
-1.2418775e-12
-6.8792021e-13
-3.5393016e-12
-4.4234165e-12
-1.0621846e-12
-5.8136748e-13
-3.2961122e-12
-4.1167513e-12
-8.8803976e-13
-5.0129834e-13
-3.0850497e-12
-3.8625713e-12
-7.5548743e-13
-4.4710667e-13
-2.8957604e-12
-3.6325944e-12
-6.7709356e-13
-4.1195709e-13
-2.7204146e-12
-3.4196354e-12
-6.2492619e-13
-3.8904338e-13
-2.5545749e-12
-3.2186691e-12
-5.9001961e-13
-3.6846526e-13
-2.3976764e-12
-3.0215877e-12
-5.6555585e-13
-3.5385003e-13
-2.2458951e-12
-2.8332686e-12
-5.4217768e-13
-3.3883563e-13
-2.0991263e-12
-2.6493751e-12
-5.2273661e-13
-3.2807471e-13
-1.9578121e-12
-2.4729926e-12
-5.0446379e-13
-3.1808224e-13
-1.8203086e-12
-2.3012943e-12
-4.8978599e-13
-3.0590643e-13
-1.6878815e-12
-2.1341753e-12
-4.7302989e-13
-2.935921e-13
-1.5607662e-12
-1.9742427e-12
-4.5352834e-13
-2.8035603e-13
-1.4394167e-12
-1.8213827e-12
-4.3321874e-13
-2.657955e-13
-1.3242523e-12
-1.6758677e-12
-4.1131243e-13
-2.5138162e-13
-1.2152708e-12
-1.5382447e-12
-3.8900552e-13
-2.361006e-13
-1.1129398e-12
-1.4089031e-12
-3.654425e-13
-2.1997668e-13
-1.0175163e-12
-1.2884986e-12
-3.4038089e-13
-2.0267407e-13
-9.2933334e-13
-1.1760128e-12
-3.1515901e-13
-1.8444581e-13
-8.4965007e-13
-1.0762489e-12
-2.8420857e-13
-1.6579643e-13
-7.7788412e-13
-9.8562596e-13
-2.56418e-13
-1.4787497e-13
-7.1382917e-13
-9.0475204e-13
-2.287473e-13
-1.2992017e-13
-6.5754064e-13
-8.3366544e-13
-2.0100503e-13
-1.1200399e-13
-6.089962e-13
-7.7239867e-13
-1.7326894e-13
-9.4000561e-14
-5.6813301e-13
-7.2106585e-13
-1.4533151e-13
-7.5479591e-14
-5.3509467e-13
-6.8003086e-13
-1.165127e-13
-5.5827319e-14
-5.1128546e-13
-6.4919067e-13
-8.6665663e-14
-3.7462267e-14
-4.9516021e-13
-6.2845439e-13
-5.8196763e-14
-1.9697226e-14
-4.8659537e-13
-6.1770827e-13
-3.0441625e-14
-2.961181e-15
-4.5785414e-15
-8.5209793e-12
8.5200966e-12
-1.8247861e-11
9.7236334e-12
-2.8316898e-11
1.0064341e-11
-3.8215807e-11
9.8947585e-12
-4.8169146e-11
9.9498369e-12
-5.86244e-11
1.0452387e-11
-7.009165e-11
1.146501e-11
-8.3292154e-11
1.3198856e-11
-9.9020398e-11
1.5727154e-11
-1.1792087e-10
1.8899876e-11
-1.4022571e-10
2.2304673e-11
-1.6571146e-10
2.548591e-11
-1.9368006e-10
2.7968992e-11
-2.2539301e-10
3.1713484e-11
-2.589923e-10
3.3599872e-11
-2.9378264e-10
3.4790898e-11
-3.2909664e-10
3.531447e-11
-3.6339694e-10
3.4300648e-11
-3.9546947e-10
3.207271e-11
-4.2428081e-10
2.88114e-11
-4.4892904e-10
2.4648152e-11
-4.6872295e-10
1.9793749e-11
-4.8312552e-10
1.4402368e-11
-4.9155147e-10
8.4257305e-12
2.0229109e-12
-4.8182277e-11
5.6706129e-11
-1.0588826e-10
6.7435364e-11
-1.7179621e-10
7.5978955e-11
-2.4647601e-10
8.4581538e-11
-3.310272e-10
9.4508047e-11
-4.2665917e-10
1.0609128e-10
-5.346859e-10
1.1949847e-10
-6.5660864e-10
1.3512804e-10
-7.9213193e-10
1.5125651e-10
-9.4009001e-10
1.6686355e-10
-1.0987417e-09
1.8096142e-10
-1.2661803e-09
1.9292899e-10
-1.4404406e-09
2.0223327e-10
-1.6180491e-09
2.0932532e-10
-1.7980618e-09
2.1361545e-10
-1.9794836e-09
2.1621485e-10
-2.1713351e-09
2.2716766e-10
-2.3551314e-09
2.1809812e-10
-2.5231661e-09
2.0010804e-10
-2.6703308e-09
1.7597628e-10
-2.7928441e-09
1.4716118e-10
-2.8878129e-09
1.1476187e-10
-2.9528411e-09
7.9429556e-11
-2.9838778e-09
3.9461148e-11
9.9445246e-12
-1.2945516e-10
1.8616951e-10
-2.8172953e-10
2.1972232e-10
-4.5660833e-10
2.508722e-10
-6.5659141e-10
2.8457935e-10
-8.8457323e-10
3.2250425e-10
-1.1438319e-09
3.653635e-10
-1.4422892e-09
4.1796837e-10
-1.848367e-09
5.4121711e-10
-2.2956452e-09
5.9854452e-10
-2.7555218e-09
6.2674843e-10
-3.212514e-09
6.3796059e-10
-3.6568826e-09
6.3730317e-10
-4.0815855e-09
6.2694056e-10
-4.4808061e-09
6.085492e-10
-4.8487216e-09
5.8153307e-10
-5.1795131e-09
5.4700751e-10
-5.45832e-09
5.0597483e-10
-5.6991362e-09
4.5891387e-10
-5.9059521e-09
4.0692269e-10
-6.0809073e-09
3.5092955e-10
-6.226243e-09
2.9249432e-10
-6.3426921e-09
2.31208e-10
-6.4303291e-09
1.6706306e-10
-6.4913138e-09
1.0044206e-10
3.3283039e-11
-3.870364e-10
5.7322215e-10
-8.1311435e-10
6.4582421e-10
-1.2923547e-09
7.3013846e-10
-2.050513e-09
1.042761e-09
-2.8785031e-09
1.1505143e-09
-3.6773031e-09
1.1641798e-09
-4.3945603e-09
1.1352386e-09
-4.9318312e-09
1.0784983e-09
-5.336583e-09
1.0033044e-09
-5.6260417e-09
9.1621327e-10
-5.8115253e-09
8.2344885e-10
-5.9038821e-09
7.2966336e-10
-5.9124584e-09
6.3551916e-10
-5.840759e-09
5.3685137e-10
-5.7044862e-09
4.4526103e-10
-5.520635e-09
3.6315647e-10
-5.3060297e-09
2.9136932e-10
-5.0773571e-09
2.3024065e-10
-4.8502449e-09
1.7980947e-10
-4.6396672e-09
1.4035058e-10
-4.4595593e-09
1.1238486e-10
-4.3162074e-09
8.7854237e-11
-4.2150101e-09
6.5863798e-11
-4.1592778e-09
4.4707555e-11
2.4532932e-11
-2.2478665e-09
2.8211147e-09
-3.9678635e-09
2.3658499e-09
-5.4094104e-09
2.1717128e-09
-6.0558154e-09
1.6891852e-09
-6.0947399e-09
1.1894543e-09
-5.6288313e-09
6.9828353e-10
-4.8695014e-09
3.7591884e-10
-3.8818266e-09
9.0832126e-11
-2.7280816e-09
-1.5043316e-10
-1.4885146e-09
-3.2334747e-10
-2.5202531e-10
-4.1303615e-10
9.824783e-10
-5.0484093e-10
2.2748204e-09
-6.5682371e-10
3.6878185e-09
-8.7614626e-10
5.0697729e-09
-9.366912e-10
6.3804459e-09
-9.4751263e-10
7.5966887e-09
-9.2486773e-10
8.7032678e-09
-8.7633097e-10
9.6894946e-09
-8.0640835e-10
1.0547896e-08
-7.180404e-10
1.1272911e-08
-6.1261838e-10
1.1853824e-08
-4.9304528e-10
1.2280813e-08
-3.6110963e-10
1.2544748e-08
-2.192126e-10
-6.5653458e-11
1.0826719e-09
1.7385294e-09
4.3616487e-09
-9.1307704e-10
8.1418177e-09
-1.6083879e-09
1.1847461e-08
-2.0164297e-09
1.5549387e-08
-2.5124472e-09
1.919575e-08
-2.9480505e-09
2.2775007e-08
-3.2033058e-09
2.6133081e-08
-3.2672044e-09
2.9181028e-08
-3.1983371e-09
3.1915216e-08
-3.057489e-09
3.4379916e-08
-2.8776863e-09
3.6541316e-08
-2.6661875e-09
3.8334135e-08
-2.4495889e-09
3.9699753e-08
-2.2417086e-09
4.0787993e-08
-2.0248751e-09
4.1649108e-08
-1.8085716e-09
4.2322772e-08
-1.5984757e-09
4.284223e-08
-1.3957337e-09
4.3236367e-08
-1.2004896e-09
4.3530375e-08
-1.0119928e-09
4.3746229e-08
-8.2841766e-10
4.3900808e-08
-6.4757009e-10
4.400626e-08
-4.6650772e-10
4.4069706e-08
-2.8260534e-10
-8.979425e-11
1.501156e-07
-2.2514643e-09
1.4853354e-07
6.6991201e-10
1.4574927e-07
1.1766699e-09
1.4212799e-07
1.6055423e-09
1.3748846e-07
2.1276977e-09
1.3195805e-07
2.5828804e-09
1.2588817e-07
2.8670242e-09
1.1966116e-07
2.960187e-09
1.1355429e-07
2.90887e-09
1.0770509e-07
2.7919902e-09
1.0217518e-07
2.6524783e-09
9.7026181e-08
2.4830339e-09
9.2284818e-08
2.2919731e-09
8.7952292e-08
2.0909949e-09
8.403939e-08
1.8881882e-09
8.0543059e-08
1.6879052e-09
7.745214e-08
1.4925771e-09
7.4752959e-08
1.30357e-09
7.2431374e-08
1.1212088e-09
7.0474574e-08
9.4491312e-10
6.8872872e-08
7.7338361e-10
6.7620741e-08
6.0465449e-10
6.6718442e-08
4.3587907e-10
6.6171509e-08
2.6441257e-10
8.4406434e-11
1.3490546e-08
-1.5769575e-09
1.5847626e-08
-1.687052e-09
1.8465435e-08
-1.4410239e-09
2.1157228e-08
-1.0861396e-09
2.3919866e-08
-6.3483333e-10
2.6809862e-08
-3.0701354e-10
2.9707994e-08
-3.1014959e-11
3.2457599e-08
2.1067018e-10
3.5014361e-08
3.5219678e-10
3.7349574e-08
4.5686563e-10
3.9426582e-08
5.7555632e-10
4.1049653e-08
8.6004812e-10
4.2335801e-08
1.005908e-09
4.3357883e-08
1.0689943e-09
4.4158545e-08
1.0876062e-09
4.4773349e-08
1.0731776e-09
4.5235837e-08
1.0301641e-09
4.5575698e-08
9.6378068e-10
4.5819019e-08
8.7795806e-10
4.5988549e-08
7.7545148e-10
4.6103642e-08
6.583559e-10
4.6180311e-08
5.2804937e-10
4.6229697e-08
3.8655454e-10
4.6258967e-08
2.3520205e-10
7.124847e-11
-5.0895724e-09
-8.395758e-10
-5.7276339e-09
-1.0489994e-09
-6.0409921e-09
-1.1276751e-09
-5.9649287e-09
-1.1622121e-09
-5.4435713e-09
-1.1561984e-09
-4.6322788e-09
-1.1183114e-09
-3.6070021e-09
-1.0562945e-09
-2.4210732e-09
-9.7525886e-10
-1.1864634e-09
-8.8241057e-10
5.5384429e-11
-7.8497729e-10
1.3163358e-09
-6.8538803e-10
2.7578802e-09
-5.8148684e-10
4.2433501e-09
-4.7955029e-10
5.6972489e-09
-3.8489075e-10
7.084416e-09
-2.9954527e-10
8.3822397e-09
-2.2462886e-10
9.5906569e-09
-1.7823461e-10
1.0694136e-08
-1.3967899e-10
1.1679846e-08
-1.0773109e-10
1.2537657e-08
-8.2338911e-11
1.3258995e-08
-6.2960378e-11
1.3835643e-08
-4.8577532e-11
1.4260026e-08
-3.7807031e-11
1.452362e-08
-2.8370829e-11
-1.7099133e-11
-2.2702182e-09
-2.626437e-10
-3.0164643e-09
-3.027557e-10
-3.7975385e-09
-3.4660584e-10
-4.5648802e-09
-3.9487758e-10
-5.2623999e-09
-4.5868773e-10
-5.7885744e-09
-5.9214727e-10
-6.1966726e-09
-6.4820718e-10
-6.4917181e-09
-6.802246e-10
-6.677523e-09
-6.9661691e-10
-6.7619697e-09
-7.0054148e-10
-6.7527735e-09
-6.9459477e-10
-6.6538684e-09
-6.8040189e-10
-6.4756703e-09
-6.5775761e-10
-6.2332646e-09
-6.2730495e-10
-5.9426375e-09
-5.9018008e-10
-5.6200353e-09
-5.4723793e-10
-5.2967967e-09
-5.0147937e-10
-4.9835769e-09
-4.529042e-10
-4.6900126e-09
-4.0130021e-10
-4.4256294e-09
-3.4672637e-10
-4.1993187e-09
-2.8927495e-10
-4.0188863e-09
-2.2901345e-10
-3.8906616e-09
-1.6603503e-10
-3.818439e-09
-1.0059658e-10
-3.3992028e-11
-6.4724386e-10
-7.431924e-11
-8.6398807e-10
-8.6009375e-11
-1.1108043e-09
-9.9788078e-11
-1.3939735e-09
-1.1170771e-10
-1.7220199e-09
-1.3064139e-10
-2.16162e-09
-1.5254843e-10
-2.6344916e-09
-1.7533802e-10
-3.1168504e-09
-1.9786938e-10
-3.5949095e-09
-2.1856244e-10
-4.0590692e-09
-2.363872e-10
-4.5024189e-09
-2.5125142e-10
-4.9191393e-09
-2.6368832e-10
-5.2996252e-09
-2.7727919e-10
-5.6227016e-09
-3.0423641e-10
-5.9087123e-09
-3.0417742e-10
-6.1606486e-09
-2.9530988e-10
-6.3823413e-09
-2.7979509e-10
-6.5763613e-09
-2.588926e-10
-6.7445247e-09
-2.3314525e-10
-6.8882485e-09
-2.0301105e-10
-7.0085874e-09
-1.6894449e-10
-7.1060944e-09
-1.3151469e-10
-7.1806146e-09
-9.1523165e-11
-7.231881e-09
-4.9338362e-11
-1.125296e-11
-1.9191691e-10
-1.7133104e-11
-2.6454959e-10
-1.3375529e-11
-3.5512788e-10
-9.2087204e-12
-4.6164187e-10
-5.1928337e-12
-5.8751033e-10
-4.7723069e-12
-7.3211051e-10
-7.9479539e-12
-8.9409802e-10
-1.3350609e-11
-1.0716053e-09
-2.0362575e-11
-1.2614915e-09
-2.8677203e-11
-1.4602764e-09
-3.7603648e-11
-1.6655429e-09
-4.5986554e-11
-1.8772961e-09
-5.1937251e-11
-2.0987022e-09
-5.5875545e-11
-2.3447076e-09
-5.8233813e-11
-2.5895983e-09
-5.9289956e-11
-2.8259746e-09
-5.8937145e-11
-3.0485966e-09
-5.7176857e-11
-3.2534686e-09
-5.4024732e-11
-3.4370487e-09
-4.9569402e-11
-3.5961512e-09
-4.3913027e-11
-3.7279052e-09
-3.7195053e-11
-3.8298349e-09
-2.9589653e-11
-3.9000693e-09
-2.1293347e-11
-3.9369464e-09
-1.2465904e-11
-3.4307821e-12
-3.6394721e-11
-1.1898975e-11
-4.3894992e-11
-5.8752656e-12
-5.366445e-11
5.6063476e-13
-6.7153028e-11
8.2955684e-12
-8.7086137e-11
1.5160562e-11
-1.1485145e-10
1.9817053e-11
-1.5010713e-10
2.1904703e-11
-1.9228048e-10
2.1810339e-11
-2.4109476e-10
2.0136584e-11
-2.9640739e-10
1.7708403e-11
-3.5665463e-10
1.4260043e-11
-4.1938327e-10
1.0790674e-11
-4.8373122e-10
8.471608e-12
-5.4909457e-10
7.1286534e-12
-6.1420539e-10
5.8198997e-12
-6.7780389e-10
4.6602988e-12
-7.3861317e-10
3.6312921e-12
-7.9539253e-10
2.7534264e-12
-8.4695377e-10
1.9905911e-12
-8.921663e-10
1.2982023e-12
-9.30012e-10
6.4933698e-13
-9.5965939e-10
5.6428705e-14
-9.8053001e-10
-4.2401547e-13
-9.9236819e-10
-6.289539e-13
-2.0978233e-13
1.1150618e-11
-1.9389557e-11
2.0514949e-11
-1.5239618e-11
3.1879201e-11
-1.0803706e-11
4.5743351e-11
-5.568702e-12
6.0360725e-11
5.4306284e-13
7.4573888e-11
5.6037753e-12
8.687774e-11
9.6007535e-12
9.6530289e-11
1.2157712e-11
1.0329369e-10
1.3373126e-11
1.0778289e-10
1.3219158e-11
1.0971854e-10
1.2324365e-11
1.0973554e-10
1.0773663e-11
1.0907032e-10
9.1368197e-12
1.086714e-10
7.5275872e-12
1.0816159e-10
6.3297282e-12
1.0771161e-10
5.1103069e-12
1.0736032e-10
3.9826354e-12
1.0700478e-10
3.1090144e-12
1.0682109e-10
2.174353e-12
1.0672241e-10
1.3969614e-12
1.0660594e-10
7.6590608e-13
1.0640485e-10
2.5762256e-13
1.0610748e-10
-1.265213e-13
1.0578108e-10
-3.0242297e-13
-1.9888491e-13
6.4980134e-12
-2.3600265e-11
1.3891137e-11
-2.2632603e-11
2.3549466e-11
-2.0461931e-11
3.5577779e-11
-1.7596933e-11
5.0334439e-11
-1.4213523e-11
6.6904577e-11
-1.0966281e-11
8.4074912e-11
-7.5694837e-12
1.0093391e-10
-4.7011664e-12
1.1681415e-10
-2.5069704e-12
1.3123277e-10
-1.1992926e-12
1.4395079e-10
-3.9346668e-13
1.549307e-10
-2.0604358e-13
1.6477395e-10
-7.0620645e-13
1.7357248e-10
-1.2707051e-12
1.8143326e-10
-1.5307953e-12
1.887598e-10
-2.2159624e-12
1.954313e-10
-2.6885839e-12
2.0135188e-10
-2.8112725e-12
2.0663755e-10
-3.111016e-12
2.1123292e-10
-3.198098e-12
2.1504132e-10
-3.0421814e-12
2.1795607e-10
-2.6568199e-12
2.1997615e-10
-2.1462853e-12
2.211054e-10
-1.4313623e-12
-4.4647044e-13
-9.0889709e-12
-2.2759885e-11
-8.5750522e-12
-2.3146358e-11
-6.3211283e-12
-2.2715711e-11
-2.3703941e-12
-2.1547536e-11
3.107762e-12
-1.9691556e-11
9.5333899e-12
-1.7391789e-11
1.6995181e-11
-1.5031153e-11
2.5190631e-11
-1.2896489e-11
3.3289683e-11
-1.0605888e-11
4.0742659e-11
-8.6521281e-12
4.7398457e-11
-7.0491169e-12
5.3088282e-11
-5.8957155e-12
5.7565678e-11
-5.183446e-12
6.0925976e-11
-4.6308448e-12
6.3666463e-11
-4.2711218e-12
6.5605645e-11
-4.1549842e-12
6.6951288e-11
-4.0340683e-12
6.7906452e-11
-3.7662791e-12
6.8496004e-11
-3.7004134e-12
6.8838132e-11
-3.540075e-12
6.9013854e-11
-3.2177566e-12
6.9134065e-11
-2.7768888e-12
6.9165162e-11
-2.1772463e-12
6.9203694e-11
-1.4697669e-12
-7.6485029e-13
-1.7667258e-11
-1.9047899e-11
-2.1286357e-11
-1.9527148e-11
-2.4383542e-11
-1.9618428e-11
-2.6601069e-11
-1.9329923e-11
-2.7843077e-11
-1.844947e-11
-2.8272729e-11
-1.6962066e-11
-2.8131329e-11
-1.5172487e-11
-2.7631669e-11
-1.3396087e-11
-2.6656718e-11
-1.1580782e-11
-2.5339759e-11
-9.9690325e-12
-2.4213366e-11
-8.1754588e-12
-2.3759798e-11
-6.3492361e-12
-2.387739e-11
-5.0658116e-12
-2.4548057e-11
-3.9601405e-12
-2.5605783e-11
-3.2133646e-12
-2.7083999e-11
-2.6767432e-12
-2.8894253e-11
-2.2237954e-12
-3.0818266e-11
-1.8422537e-12
-3.2941168e-11
-1.5775058e-12
-3.5152677e-11
-1.3285642e-12
-3.7240173e-11
-1.130266e-12
-3.9066583e-11
-9.5048721e-13
-4.0516814e-11
-7.2702993e-13
-4.1613238e-11
-3.7336014e-13
8.4769893e-14
-1.7387812e-11
-1.4975185e-11
-2.1587748e-11
-1.5327154e-11
-2.5882782e-11
-1.5323344e-11
-2.9883152e-11
-1.5329512e-11
-3.3411848e-11
-1.4920743e-11
-3.6297743e-11
-1.4076148e-11
-3.8711586e-11
-1.2758629e-11
-4.05397e-11
-1.1567963e-11
-4.2433241e-11
-9.6872367e-12
-4.3883216e-11
-8.5190597e-12
-4.5171307e-11
-6.8873751e-12
-4.6211361e-11
-5.3091941e-12
-4.7179976e-11
-4.0972136e-12
-4.8320492e-11
-2.8196474e-12
-4.9801255e-11
-1.7326299e-12
-5.1603055e-11
-8.7497652e-13
-5.3601386e-11
-2.2550224e-13
-5.5663467e-11
2.1978343e-13
-5.7694466e-11
4.5344564e-13
-5.9614159e-11
5.9107726e-13
-6.1319575e-11
5.7509569e-13
-6.2764676e-11
4.9455581e-13
-6.3918426e-11
4.2666082e-13
-6.4508801e-11
2.1695293e-13
-1.2663856e-13
-1.307216e-11
-1.1610474e-11
-1.6130004e-11
-1.2269283e-11
-1.9145919e-11
-1.2307407e-11
-2.2417484e-11
-1.2057929e-11
-2.5552316e-11
-1.1785899e-11
-2.8336519e-11
-1.1291937e-11
-3.0590941e-11
-1.0504205e-11
-3.2569375e-11
-9.5895321e-12
-3.3686743e-11
-8.5698765e-12
-3.5006936e-11
-7.1988778e-12
-3.6083757e-11
-5.8105697e-12
-3.683781e-11
-4.5551604e-12
-3.7400275e-11
-3.5347716e-12
-3.781239e-11
-2.4075588e-12
-3.8364501e-11
-1.1805478e-12
-3.899331e-11
-2.4620079e-13
-3.9685437e-11
4.665886e-13
-4.0414849e-11
9.4915611e-13
-4.1188417e-11
1.2269721e-12
-4.1934459e-11
1.3370752e-12
-4.263157e-11
1.2721605e-12
-4.3215377e-11
1.0783158e-12
-4.3588916e-11
8.00152e-13
-4.3809765e-11
4.3775214e-13
1.7188054e-13
-7.9978615e-12
-9.6224139e-12
-1.0100901e-11
-1.0166235e-11
-1.2054665e-11
-1.0353633e-11
-1.3754723e-11
-1.0357861e-11
-1.5443582e-11
-1.0097031e-11
-1.7008518e-11
-9.7269951e-12
-1.8283204e-11
-9.2295154e-12
-1.9133108e-11
-8.7396266e-12
-1.9770517e-11
-7.9324692e-12
-2.0198339e-11
-6.7710591e-12
-2.0383443e-11
-5.6254715e-12
-2.0390095e-11
-4.5485163e-12
-2.0247863e-11
-3.677013e-12
-1.9882322e-11
-2.7731125e-12
-1.9341533e-11
-1.7213503e-12
-1.8863354e-11
-7.2439539e-13
-1.8421357e-11
2.4574437e-14
-1.8044006e-11
5.7178601e-13
-1.7742302e-11
9.252475e-13
-1.750772e-11
1.1024713e-12
-1.7358021e-11
1.1224391e-12
-1.7304338e-11
1.024609e-12
-1.73515e-11
8.4728936e-13
-1.7441299e-11
5.2752734e-13
1.0427788e-13
-4.7599539e-12
-8.4330782e-12
-5.9229852e-12
-9.0032069e-12
-6.9427578e-12
-9.3338598e-12
-7.9073349e-12
-9.3932814e-12
-8.6502199e-12
-9.3541425e-12
-9.3332856e-12
-9.0439252e-12
-9.8733963e-12
-8.6894009e-12
-1.019977e-11
-8.4132502e-12
-1.0329536e-11
-7.8027005e-12
-1.0250561e-11
-6.8500321e-12
-9.8568371e-12
-6.0191944e-12
-9.2790366e-12
-5.1263169e-12
-8.7110559e-12
-4.2449947e-12
-8.0437115e-12
-3.4404589e-12
-7.0246512e-12
-2.7404135e-12
-5.8267286e-12
-1.9223218e-12
-4.7538365e-12
-1.0483222e-12
-3.7364118e-12
-4.4564388e-13
-2.8326422e-12
2.1471938e-14
-2.0532026e-12
3.2302518e-13
-1.415042e-12
4.8427114e-13
-9.071444e-13
5.1670428e-13
-4.382703e-13
3.7840716e-13
-1.2148161e-13
2.1073199e-13
1.8009826e-13
-3.1949409e-12
-7.6669009e-12
-3.8883558e-12
-8.3098052e-12
-4.5479214e-12
-8.6743026e-12
-5.0878628e-12
-8.8533448e-12
-5.6003451e-12
-8.8416627e-12
-5.8852359e-12
-8.7590352e-12
-6.0981562e-12
-8.4764804e-12
-6.2934128e-12
-8.217993e-12
-6.1660184e-12
-7.9300939e-12
-5.8754709e-12
-7.1405785e-12
-5.4200386e-12
-6.4746256e-12
-4.7894511e-12
-5.7569036e-12
-4.0233918e-12
-5.0110532e-12
-3.1915486e-12
-4.2723017e-12
-2.3512639e-12
-3.580698e-12
-1.3274951e-12
-2.9460908e-12
-2.4613534e-14
-2.3512042e-12
1.256732e-12
-1.72699e-12
2.4002692e-12
-1.1220658e-12
3.4201886e-12
-6.9689478e-13
4.3038631e-12
-3.9940442e-13
5.0347288e-12
-2.1416177e-13
5.6086155e-12
-1.9548076e-13
5.8513709e-12
-3.2023045e-14
4.0171127e-14
-2.5676188e-12
-7.0511072e-12
-3.1561058e-12
-7.7213376e-12
-3.6816731e-12
-8.1487504e-12
-4.1270141e-12
-8.408015e-12
-4.4975485e-12
-8.4711366e-12
-4.824743e-12
-8.4318469e-12
-5.0084822e-12
-8.2927457e-12
-5.1550363e-12
-8.0714423e-12
-5.1334268e-12
-7.9517059e-12
-4.883193e-12
-7.3908142e-12
-4.5043451e-12
-6.8534748e-12
-3.9661742e-12
-6.2950754e-12
-3.2884166e-12
-5.6888115e-12
-2.5011543e-12
-5.0595646e-12
-1.6331746e-12
-4.4486782e-12
-7.6182146e-13
-3.8174444e-12
1.2685201e-13
-3.2398781e-12
1.0694579e-12
-2.6695962e-12
2.1382526e-12
-2.1908606e-12
3.1280045e-12
-1.6866466e-12
3.9883776e-12
-1.2597775e-12
4.643135e-12
-8.689184e-13
4.9448859e-12
-4.9723157e-13
5.2189482e-12
-3.0608377e-13
-1.8675999e-13
-2.2593098e-12
-6.4767828e-12
-2.8052459e-12
-7.1754237e-12
-3.3334277e-12
-7.6205869e-12
-3.7828535e-12
-7.9586043e-12
-4.1572129e-12
-8.0967894e-12
-4.4655146e-12
-8.123555e-12
-4.7015382e-12
-8.0567301e-12
-4.8557704e-12
-7.9172165e-12
-5.0311432e-12
-7.7763385e-12
-4.8701196e-12
-7.5518422e-12
-4.6142078e-12
-7.1093901e-12
-4.2447406e-12
-6.6645456e-12
-3.7517037e-12
-6.181851e-12
-3.1530489e-12
-5.6582215e-12
-2.4854384e-12
-5.1162905e-12
-1.7432022e-12
-4.5596822e-12
-9.9691304e-13
-3.9861685e-12
-2.3220509e-13
-3.4343052e-12
4.8859853e-13
-2.911665e-12
1.2040916e-12
-2.4021403e-12
1.8624993e-12
-1.9181858e-12
2.4478061e-12
-1.4542249e-12
3.0450597e-12
-1.0944854e-12
3.3404958e-12
-6.0151887e-13
-1.7047324e-13
-1.9765969e-12
-5.9847707e-12
-2.4983138e-12
-6.6537293e-12
-2.9672486e-12
-7.1516713e-12
-3.4295529e-12
-7.4963163e-12
-3.8074718e-12
-7.7188841e-12
-4.1245076e-12
-7.8065306e-12
-4.3729528e-12
-7.8082943e-12
-4.5508562e-12
-7.7393209e-12
-4.7017114e-12
-7.6254898e-12
-4.7065596e-12
-7.5469995e-12
-4.5776474e-12
-7.2383069e-12
-4.3889461e-12
-6.8532508e-12
-4.1057358e-12
-6.4650645e-12
-3.7200541e-12
-6.0439061e-12
-3.2577814e-12
-5.5785657e-12
-2.7361852e-12
-5.0812805e-12
-2.1621717e-12
-4.5601839e-12
-1.5663365e-12
-4.0301418e-12
-9.8586272e-13
-3.4921398e-12
-4.3444752e-13
-2.9535563e-12
6.4986975e-14
-2.4176212e-12
5.0156781e-13
-1.8908058e-12
7.5596239e-13
-1.3488804e-12
9.7198891e-13
-8.1754469e-13
-2.7161141e-13
-1.679953e-12
-5.5467142e-12
-2.1420261e-12
-6.1916744e-12
-2.5682206e-12
-6.7254937e-12
-2.9676905e-12
-7.0968618e-12
-3.3351192e-12
-7.351469e-12
-3.6419635e-12
-7.4996977e-12
-3.8904785e-12
-7.5597888e-12
-4.0811094e-12
-7.548698e-12
-4.2240138e-12
-7.4825921e-12
-4.3251693e-12
-7.4458494e-12
-4.2792499e-12
-7.2842308e-12
-4.187084e-12
-6.9454204e-12
-4.0304078e-12
-6.6217437e-12
-3.8057339e-12
-6.2685826e-12
-3.5150957e-12
-5.8692061e-12
-3.1680615e-12
-5.4283165e-12
-2.7730594e-12
-4.9551875e-12
-2.3655897e-12
-4.4376128e-12
-1.9511228e-12
-3.9066076e-12
-1.5542974e-12
-3.3503823e-12
-1.1987505e-12
-2.7731687e-12
-9.1168644e-13
-2.1778696e-12
-6.8779782e-13
-1.5727694e-12
-5.5196421e-13
-9.5337765e-13
-3.1477619e-13
-1.425074e-12
-5.1838412e-12
-1.8005254e-12
-5.8162383e-12
-2.1814728e-12
-6.3445603e-12
-2.5301762e-12
-6.7481709e-12
-2.8617152e-12
-7.0199411e-12
-3.1323594e-12
-7.2290633e-12
-3.3738094e-12
-7.3183471e-12
-3.5660477e-12
-7.3564667e-12
-3.7175025e-12
-7.3311431e-12
-3.817233e-12
-7.3461237e-12
-3.9560964e-12
-7.1453713e-12
-3.8788007e-12
-7.0227193e-12
-3.8006927e-12
-6.6998542e-12
-3.681359e-12
-6.3879184e-12
-3.5175878e-12
-6.032979e-12
-3.3116894e-12
-5.6342162e-12
-3.0792219e-12
-5.187656e-12
-2.8077631e-12
-4.7090723e-12
-2.534888e-12
-4.1794831e-12
-2.2676519e-12
-3.6176186e-12
-2.0180671e-12
-3.0227537e-12
-1.795239e-12
-2.4006972e-12
-1.667602e-12
-1.7004064e-12
-1.5605499e-12
-1.060429e-12
-3.8005306e-13
-1.2004704e-12
-4.8714254e-12
-1.5308612e-12
-5.485861e-12
-1.8695294e-12
-6.0059043e-12
-2.1908527e-12
-6.4268586e-12
-2.4755982e-12
-6.7352052e-12
-2.7518556e-12
-6.9528141e-12
-2.9687496e-12
-7.1014601e-12
-3.1583783e-12
-7.1668439e-12
-3.3156922e-12
-7.173834e-12
-3.4518565e-12
-7.2099632e-12
-3.5700192e-12
-7.0272116e-12
-3.6991824e-12
-6.8935585e-12
-3.6585642e-12