/*--------------------------------*- C++ -*----------------------------------*\
| =========                 |                                                 |
| \\      /  F ield         | OpenFOAM: The Open Source CFD Toolbox           |
|  \\    /   O peration     | Version:  4.0                                   |
|   \\  /    A nd           | Web:      www.OpenFOAM.org                      |
|    \\/     M anipulation  |                                                 |
\*---------------------------------------------------------------------------*/
FoamFile
{
    version     2.0;
    format      ascii;
    class       volScalarField;
    location    "0.26";
    object      k;
}
// * * * * * * * * * * * * * * * * * * * * * * * * * * * * * * * * * * * * * //

dimensions      [0 2 -2 0 0 0 0];

internalField   nonuniform List<scalar> 
1740
(
0.0084465965
0.0091240149
0.018041117
0.0091226657
0.00990528
0.026966397
0.0096137082
0.010460727
0.034091262
0.0098262089
0.010665126
0.040833767
0.0099682054
0.010894309
0.04706099
0.010079508
0.011244548
0.05213339
0.010150674
0.011782407
0.056140952
0.01019001
0.012261166
0.05944765
0.010188298
0.012702589
0.061982852
0.010181689
0.012828912
0.063845254
0.010132287
0.012951008
0.065743426
0.010041099
0.013129649
0.06736202
0.009913897
0.01310854
0.067917252
0.0097463809
0.013132838
0.069295409
0.0096257185
0.013657488
0.070647887
0.0096105794
0.013914812
0.070566289
0.0094884791
0.014024974
0.071024861
0.0093173795
0.014087844
0.071703091
0.0091716509
0.014369212
0.071988784
0.0090385902
0.014313266
0.071696007
0.0089337601
0.01404735
0.072019776
0.0088404869
0.014153822
0.072863853
0.0086928262
0.014622497
0.072372028
0.0085684823
0.014623122
0.07278085
0.0084732783
0.014405976
0.07305502
0.0083718518
0.014505118
0.072478316
0.0082608644
0.014609288
0.072400301
0.0082345276
0.014848336
0.072402253
0.0082989355
0.015059916
0.071770146
0.0089613861
0.01636793
0.066738634
0.012779865
0.018415492
0.047424592
0.023859323
0.031161345
0.039675074
0.01027192
0.012516929
0.013704999
0.0042701126
0.0046005058
0.004661238
0.0020677875
0.0021102905
0.0020851332
0.0011304069
0.0011313132
0.0011132449
0.00067336687
0.00067066623
0.00066217008
0.00042383145
0.0004221792
0.00041873644
0.00027441942
0.00027367925
0.00027242899
0.00017854622
0.00017824488
0.00017782495
0.00011447171
0.00011434021
0.00011418248
7.1263117e-05
7.1189217e-05
7.1093225e-05
4.2724075e-05
4.2671589e-05
4.2588779e-05
2.4673703e-05
2.4634652e-05
2.456448e-05
1.3877174e-05
1.3849859e-05
1.3797424e-05
7.795095e-06
7.7779503e-06
7.7439528e-06
4.5725971e-06
4.56315e-06
4.5440913e-06
2.9696961e-06
2.9652683e-06
2.9563036e-06
2.2300803e-06
2.2285908e-06
2.2256585e-06
1.9277749e-06
1.9278567e-06
1.9281876e-06
1.8370332e-06
1.8378781e-06
1.8398005e-06
1.8443845e-06
1.8455528e-06
1.8481468e-06
1.8954856e-06
1.8967549e-06
1.8995527e-06
1.9654679e-06
1.9667335e-06
1.9695146e-06
2.0434277e-06
2.0446442e-06
2.0473131e-06
2.1247585e-06
2.1259083e-06
2.1284288e-06
2.2075511e-06
2.2086294e-06
2.2109916e-06
2.2909872e-06
2.2919941e-06
2.2941989e-06
2.3746543e-06
2.3755918e-06
2.3776443e-06
2.4582688e-06
2.4591399e-06
2.4610465e-06
2.5415694e-06
2.542377e-06
2.5441446e-06
2.6242771e-06
2.6250242e-06
2.6266594e-06
2.7060793e-06
2.706769e-06
2.7082782e-06
2.7866187e-06
2.7872538e-06
2.7886436e-06
2.8654761e-06
2.8660595e-06
2.8673361e-06
2.9421363e-06
2.9426709e-06
2.9438406e-06
3.0159227e-06
3.0164113e-06
3.0174803e-06
3.0858763e-06
3.0863218e-06
3.0872964e-06
3.1505451e-06
3.1509505e-06
3.1518372e-06
3.2076382e-06
3.2080064e-06
3.2088118e-06
3.2534879e-06
3.2538219e-06
3.2545527e-06
3.2822706e-06
3.2825735e-06
3.2832363e-06
3.2849663e-06
3.2852409e-06
3.2858421e-06
3.2481226e-06
3.2483711e-06
3.2489155e-06
3.1526729e-06
3.1528956e-06
3.1533844e-06
2.9733977e-06
2.9735915e-06
2.9740197e-06
2.6801959e-06
2.6803527e-06
2.6807066e-06
2.2431751e-06
2.2432842e-06
2.2435467e-06
1.6440077e-06
1.6440661e-06
1.644234e-06
8.8888208e-07
8.889038e-07
8.8899437e-07
0.056340511
0.060915745
0.046040483
0.046514455
0.012463223
0.011337785
0.0043544264
0.0041217575
0.0019947763
0.0019353988
0.001083476
0.0010675472
0.00065227559
0.00064908493
0.00041578103
0.00041622834
0.00027179343
0.00027294098
0.0001778289
0.00017877083
0.00011426015
0.00011481398
7.1103833e-05
7.1337484e-05
4.2539942e-05
4.2582388e-05
2.4495433e-05
2.4456046e-05
1.3736077e-05
1.3680088e-05
7.7011499e-06
7.6565776e-06
4.5192794e-06
4.4921191e-06
2.9445707e-06
2.9316738e-06
2.2220446e-06
2.2184693e-06
1.929052e-06
1.9307465e-06
1.842865e-06
1.8471704e-06
1.8521335e-06
1.8575213e-06
1.903805e-06
1.9094806e-06
1.9737218e-06
1.979308e-06
2.0513415e-06
2.0566767e-06
2.1322285e-06
2.1372542e-06
2.21455e-06
2.2192529e-06
2.2975187e-06
2.3019042e-06
2.3807339e-06
2.3848139e-06
2.4639159e-06
2.4677043e-06
2.5468042e-06
2.5503149e-06
2.6291194e-06
2.6323662e-06
2.7105486e-06
2.7135447e-06
2.790734e-06
2.7934924e-06
2.8692561e-06
2.8717894e-06
2.9455996e-06
2.9479202e-06
3.0190879e-06
3.0212084e-06
3.088762e-06
3.090695e-06
3.1531705e-06
3.1549288e-06
3.2100227e-06
3.2116196e-06
3.2556514e-06
3.2571002e-06
3.284233e-06
3.2855473e-06
3.2867463e-06
3.287939e-06
3.2497348e-06
3.2508166e-06
3.1541224e-06
3.1550996e-06
2.9746724e-06
2.9755453e-06
2.6812628e-06
2.6820312e-06
2.2439984e-06
2.2446866e-06
1.6445967e-06
1.6452851e-06
8.8926853e-07
8.8993368e-07
4.8578929e-06
2.6920506e-05
0.00013423555
0.00030450213
0.00046140368
0.00057199499
0.0006417896
0.00068475978
0.00071264053
0.00073250061
0.00074826397
0.00076261481
0.00077566825
0.00078711279
0.00079663217
0.00080373619
0.00080757235
0.0008066881
0.00079867046
0.00077963482
0.0007435212
0.00068123672
0.00057998319
0.00042350034
0.00019246034
2.5523516e-06
5.4763857e-05
0.00025101883
0.00051568201
0.00072729989
0.00085841112
0.00093379113
0.00097758402
0.0010051708
0.0010245115
0.0010397456
0.0010532
0.0010650229
0.0010748727
0.001082359
0.0010869239
0.0010875738
0.0010826198
0.0010691967
0.001042616
0.00099542113
0.00091600776
0.00078689013
0.00058346503
0.00027560985
8.0197486e-06
0.00016018929
0.00061657512
0.0010804236
0.0013631916
0.0015054781
0.0015723471
0.0016031434
0.0016178167
0.0016247354
0.0016282134
0.0016293827
0.0016290664
0.00162671
0.0016218272
0.0016139937
0.0016022665
0.0015850431
0.0015592407
0.0015196916
0.0014579207
0.0013598904
0.0012017371
0.00094167331
0.00050605983
3.7811938e-05
0.0005802954
0.001688
0.0024393676
0.002776
0.002889481
0.002898238
0.0028672101
0.002826281
0.0027802789
0.0027341949
0.0026899095
0.0026478364
0.0026048004
0.002560163
0.0025143198
0.0024668296
0.0024163933
0.0023605169
0.0022947958
0.0022118186
0.0020989234
0.0019325361
0.0016607534
0.0011291828
0.00028208137
0.0024484248
0.0049180822
0.0060395353
0.0063863291
0.0063251992
0.0060960404
0.0058324382
0.0055822767
0.0053310619
0.0050898484
0.0048641811
0.0046588718
0.0044597521
0.0042657386
0.0040815152
0.0039080077
0.0037446588
0.0035898122
0.0034402299
0.003290641
0.0031333136
0.002957805
0.0027562769
0.0025470103
0.0023555585
0.010492058
0.016556619
0.018514957
0.018062648
0.016512068
0.014700812
0.013015451
0.011535138
0.010258764
0.0091665355
0.008236094
0.0074421548
0.0067608212
0.0061742669
0.0056691225
0.0052339552
0.0048584129
0.0045331088
0.0042493208
0.0039984376
0.0037718712
0.0035614976
0.0033671412
0.0032046032
0.044919416
0.034041117
0.026533725
0.02137442
0.017728187
0.015032511
0.012951869
0.011303196
0.00997865
0.0089019559
0.0080148407
0.0072732225
0.0066441737
0.0061034834
0.0056334419
0.0052216206
0.0048593652
0.0045401583
0.0042585314
0.0040093416
0.0037872024
0.0035864764
0.0034018742
0.0032352313
0.0031022567
0.037160208
0.030926938
0.027747807
0.025128711
0.022263853
0.019292719
0.016577616
0.014281126
0.012400543
0.010859115
0.00958759
0.0085293807
0.0076410454
0.0068926674
0.006260408
0.0057247317
0.0052693113
0.0048804682
0.0045465557
0.0042572457
0.0040027841
0.0037738089
0.003561604
0.0033656983
0.0032019418
0.010206632
0.0095385487
0.0092021837
0.0088842369
0.008423077
0.0078585825
0.0073009789
0.006803902
0.0063518966
0.0059519946
0.005601586
0.0052946144
0.0050059993
0.0047384607
0.0044933377
0.0042700183
0.0040665159
0.0038800753
0.0037071267
0.0035430117
0.0033814742
0.0032140894
0.0030298598
0.0028204749
0.0026037523
0.0039635916
0.0038906372
0.0038682398
0.0038270711
0.0037318562
0.0035956215
0.0034544006
0.0033231606
0.0032042675
0.0030998419
0.0030089277
0.0029284054
0.0028526643
0.0027810895
0.0027135426
0.0026493446
0.0025870546
0.0025243912
0.0024579871
0.0023828297
0.0022911516
0.0021701229
0.0019960291
0.0017160954
0.0011709287
0.0019177301
0.0019304093
0.0019545756
0.0019682637
0.0019602786
0.0019341765
0.0019009107
0.0018674603
0.0018368271
0.0018103086
0.0017876964
0.0017677527
0.0017488438
0.001730342
0.0017120884
0.0016931225
0.0016719039
0.0016460572
0.001612001
0.0015642916
0.0014944367
0.001388668
0.0012235731
0.00095759157
0.00051652839
0.0010709833
0.0010883072
0.001110532
0.0011288594
0.0011387107
0.0011407883
0.0011386647
0.0011353109
0.0011324068
0.0011306748
0.0011300806
0.0011300907
0.0011300002
0.0011292707
0.001127401
0.0011235263
0.0011162547
0.0011034516
0.0010819247
0.0010469282
0.00099140089
0.00090481798
0.00077162454
0.00056983239
0.00027210434
0.0006549452
0.0006675976
0.00068297432
0.00069718924
0.0007080419
0.00071542048
0.00072049886
0.00072454535
0.00072842765
0.0007325573
0.00073695714
0.00074138341
0.00074546521
0.0007488019
0.00075089691
0.00075099761
0.00074796296
0.00074009431
0.00072491573
0.00069889666
0.00065713537
0.00059308088
0.00049848965
0.00036376222
0.00017589158
0.00042109097
0.00042942934
0.00043938127
0.00044910958
0.0004574698
0.00046420385
0.00046966713
0.00047438092
0.00047876064
0.00048302712
0.00048720143
0.00049115725
0.00049467277
0.00049746196
0.00049914128
0.00049915058
0.00049666051
0.00049046064
0.0004788353
0.00045945702
0.00042938053
0.0003853449
0.00032491265
0.00024990421
0.0001729636
0.00027631658
0.00028151568
0.00028766322
0.00029385316
0.00029945962
0.00030425046
0.00030829558
0.00031179461
0.00031493503
0.00031782311
0.00032046815
0.00032279621
0.0003246697
0.00032589678
0.00032621456
0.00032524645
0.00032244589
0.00031703101
0.00030792545
0.00029374543
0.0002729206
0.0002441302
0.00020741958
0.00016668348
0.00013420095
0.00018085109
0.00018388978
0.0001874649
0.00019111204
0.00019448051
0.0001973982
0.0001998462
0.00020188728
0.00020359744
0.00020502242
0.0002061618
0.0002069708
0.00020736606
0.00020723013
0.00020640255
0.00020465826
0.00020167646
0.00019700587
0.00019004031
0.00018003563
0.00016622537
0.00014812792
0.00012616726
0.00010265427
7.9836386e-05
0.00011593833
0.00011755281
0.00011944978
0.00012138691
0.00012316619
0.00012467117
0.0001258636
0.00012675375
0.00012736751
0.00012772212
0.00012781425
0.00012761821
0.00012708853
0.00012616179
0.00012475343
0.00012274769
0.00011998212
0.00011623019
0.0001111907
0.00010450101
9.5796915e-05
8.4831573e-05
7.1582281e-05
5.5918909e-05
3.4913087e-05
7.1842091e-05
7.258219e-05
7.3455848e-05
7.43373e-05
7.5116197e-05
7.5719605e-05
7.6113875e-05
7.6293259e-05
7.6264488e-05
7.60336e-05
7.5598671e-05
7.4947861e-05
7.4060579e-05
7.2908723e-05
7.1456145e-05
6.9654487e-05
6.7435889e-05
6.4704135e-05
6.1328461e-05
5.7146568e-05
5.1981541e-05
4.5660223e-05
3.7961342e-05
2.8259657e-05
1.4473798e-05
4.2742129e-05
4.300444e-05
4.3320606e-05
4.3627115e-05
4.3864889e-05
4.3991882e-05
4.3985225e-05
4.3837512e-05
4.3549763e-05
4.3124766e-05
4.2562988e-05
4.1861183e-05
4.1012938e-05
4.0009568e-05
3.8840229e-05
3.7490254e-05
3.5937666e-05
3.4148309e-05
3.2071182e-05
2.9636024e-05
2.6752581e-05
2.330226e-05
1.9093937e-05
1.3732077e-05
6.4468851e-06
2.4460858e-05
2.4504415e-05
2.4564792e-05
2.4611412e-05
2.4614406e-05
2.4551344e-05
2.4409192e-05
2.4182929e-05
2.3872658e-05
2.3480412e-05
2.3007999e-05
2.2456117e-05
2.1824588e-05
2.1112814e-05
2.0319899e-05
1.9443882e-05
1.8479855e-05
1.7417057e-05
1.6235504e-05
1.4902653e-05
1.3369476e-05
1.1562972e-05
9.3707047e-06
6.624925e-06
3.1525841e-06
1.3637383e-05
1.3606729e-05
1.3578908e-05
1.3540038e-05
1.3475988e-05
1.3375674e-05
1.3232449e-05
1.3043738e-05
1.2809775e-05
1.2532118e-05
1.2212615e-05
1.1852918e-05
1.1454427e-05
1.1018639e-05
1.0546987e-05
1.0040389e-05
9.4980801e-06
8.9157969e-06
8.2836016e-06
7.5834265e-06
6.7861818e-06
5.8489733e-06
4.7141554e-06
3.3219915e-06
1.6583892e-06
7.6144789e-06
7.5750764e-06
7.5347268e-06
7.4876057e-06
7.4273794e-06
7.3489737e-06
7.2492923e-06
7.1271902e-06
6.9829588e-06
6.8176567e-06
6.6326036e-06
6.4291164e-06
6.2084068e-06
5.9716406e-06
5.7198406e-06
5.4534699e-06
5.1716644e-06
4.871096e-06
4.5444821e-06
4.17889e-06
3.7546262e-06
3.2448998e-06
2.6188051e-06
1.8529022e-06
9.5525185e-07
4.4648249e-06
4.4378591e-06
4.4099162e-06
4.3786437e-06
4.3413875e-06
4.2959236e-06
4.2408817e-06
4.1757744e-06
4.1007876e-06
4.0164955e-06
3.9236194e-06
3.8228626e-06
3.7148343e-06
3.5999678e-06
3.4783963e-06
3.3496097e-06
3.2118598e-06
3.0613451e-06
2.8911703e-06
2.6902951e-06
2.4430071e-06
2.1297637e-06
1.7306897e-06
1.2339537e-06
6.4947878e-07
2.918723e-06
2.9060694e-06
2.8932866e-06
2.8794401e-06
2.863427e-06
2.8442734e-06
2.8213529e-06
2.7944029e-06
2.7634583e-06
2.7287238e-06
2.6904595e-06
2.6488854e-06
2.6041027e-06
2.5559924e-06
2.5040236e-06
2.4469553e-06
2.3823199e-06
2.3057462e-06
2.2101668e-06
2.0850851e-06
1.9163051e-06
1.6870181e-06
1.381261e-06
9.9068622e-07
5.2640977e-07
2.2154515e-06
2.213183e-06
2.2115138e-06
2.2100469e-06
2.208287e-06
2.2057678e-06
2.2021439e-06
2.1972126e-06
2.1908861e-06
2.1831419e-06
2.173961e-06
2.1632684e-06
2.1508547e-06
2.136257e-06
2.1185574e-06
2.0960718e-06
2.065885e-06
2.0232289e-06
1.9607751e-06
1.8680181e-06
1.7311558e-06
1.5341682e-06
1.2621565e-06
9.0730382e-07
4.7920853e-07
1.9334833e-06
1.9373305e-06
1.9421998e-06
1.9478806e-06
1.9541016e-06
1.9605849e-06
1.9670876e-06
1.973413e-06
1.979404e-06
1.9849177e-06
1.9897916e-06
1.9937945e-06
1.9965507e-06
1.9974125e-06
1.9952541e-06
1.98815e-06
1.9729232e-06
1.9445395e-06
1.895424e-06
1.8148767e-06
1.6889956e-06
1.501786e-06
1.238482e-06
8.9148213e-07
4.7250032e-07
1.8527758e-06
1.8596717e-06
1.8677708e-06
1.8769211e-06
1.8869304e-06
1.8975905e-06
1.9086959e-06
1.920051e-06
1.9314668e-06
1.942748e-06
1.9536673e-06
1.9639211e-06
1.9730533e-06
1.9803244e-06
1.9844989e-06
1.9835198e-06
1.974045e-06
1.9508461e-06
1.9061194e-06
1.8289032e-06
1.7050086e-06
1.5181536e-06
1.2533007e-06
9.0263342e-07
4.7782644e-07
1.8642968e-06
1.8724081e-06
1.8817602e-06
1.8922188e-06
1.9036215e-06
1.9157892e-06
1.9285351e-06
1.9416683e-06
1.954992e-06
1.9682937e-06
1.9813223e-06
1.9937454e-06
2.0050713e-06
2.0145151e-06
2.0207806e-06
2.0217269e-06
2.0138937e-06
1.9918892e-06
1.9476903e-06
1.8700504e-06
1.7444313e-06
1.5541661e-06
1.2838533e-06
9.2544894e-07
4.9045625e-07
1.9165334e-06
1.9248922e-06
1.9344574e-06
1.9451027e-06
1.9566807e-06
1.9690287e-06
1.9819734e-06
1.995333e-06
2.0089146e-06
2.022505e-06
2.0358488e-06
2.0486049e-06
2.0602665e-06
2.0700244e-06
2.0765424e-06
2.0776155e-06
2.0696831e-06
2.0472015e-06
2.0019296e-06
1.9223266e-06
1.7934869e-06
1.5983397e-06
1.3211399e-06
9.5388111e-07
5.0870371e-07
1.9862138e-06
1.9943612e-06
2.0036508e-06
2.0139631e-06
2.0251613e-06
2.0370954e-06
2.0496042e-06
2.0625168e-06
2.0756492e-06
2.0887945e-06
2.1017004e-06
2.1140255e-06
2.1252568e-06
2.1345689e-06
2.1405933e-06
2.141068e-06
2.1323374e-06
2.1087067e-06
2.0617137e-06
1.9795151e-06
1.8468263e-06
1.6461498e-06
1.3612863e-06
9.836386e-07
5.2431195e-07
2.0632557e-06
2.0709997e-06
2.0798128e-06
2.0895823e-06
2.1001811e-06
2.11147e-06
2.1232994e-06
2.1355094e-06
2.1479258e-06
2.1603504e-06
2.1725371e-06
2.184147e-06
2.1946636e-06
2.2032481e-06
2.2085022e-06
2.208108e-06
2.1983142e-06
2.1732727e-06
2.1242927e-06
2.0392155e-06
1.9023547e-06
1.6957379e-06
1.4025548e-06
1.0131304e-06
5.3761628e-07
2.1434432e-06
2.1507192e-06
2.158991e-06
2.168153e-06
2.1780871e-06
2.188664e-06
2.1997446e-06
2.2111793e-06
2.2228039e-06
2.2344288e-06
2.2458147e-06
2.2566259e-06
2.2663431e-06
2.2741145e-06
2.2785122e-06
2.2771612e-06
2.2662122e-06
2.2396598e-06
2.1885756e-06
2.1004686e-06
1.9592207e-06
1.7463416e-06
1.444425e-06
1.0431616e-06
5.5275663e-07
2.2250402e-06
2.231839e-06
2.2395634e-06
2.2481149e-06
2.2573835e-06
2.2672492e-06
2.2775822e-06
2.2882427e-06
2.2990756e-06
2.3098994e-06
2.3204813e-06
2.3304886e-06
2.3393991e-06
2.3463476e-06
2.3498756e-06
2.3475499e-06
2.3354204e-06
2.3073194e-06
2.2540733e-06
2.1628444e-06
2.0170565e-06
1.7976627e-06
1.4866702e-06
1.0734591e-06
5.7110216e-07
2.3072983e-06
2.3136324e-06
2.320826e-06
2.3287871e-06
2.3374134e-06
2.346593e-06
2.3562051e-06
2.3661185e-06
2.3761866e-06
2.3862354e-06
2.396038e-06
2.4052641e-06
2.4133879e-06
2.4195305e-06
2.4222018e-06
2.4189086e-06
2.4055978e-06
2.3759358e-06
2.3204987e-06
2.2260935e-06
2.0756731e-06
1.8496146e-06
1.5293192e-06
1.1038854e-06
5.8746453e-07
2.3898307e-06
2.3957199e-06
2.4024063e-06
2.4098041e-06
2.417818e-06
2.4263439e-06
2.4352688e-06
2.4444695e-06
2.4538072e-06
2.463115e-06
2.472171e-06
2.4806468e-06
2.4880126e-06
2.4933747e-06
2.4952106e-06
2.4909659e-06
2.4764825e-06
2.4452585e-06
2.3876175e-06
2.2900096e-06
2.13492e-06
1.9021688e-06
1.5726177e-06
1.1354111e-06
6.0929748e-07
2.4723614e-06
2.4778271e-06
2.4840312e-06
2.4908938e-06
2.4983261e-06
2.5062309e-06
2.5145027e-06
2.5230258e-06
2.5316683e-06
2.5402698e-06
2.548613e-06
2.5563709e-06
2.563009e-06
2.567618e-06
2.5686423e-06
2.5634651e-06
2.547822e-06
2.5150418e-06
2.4551946e-06
2.3543763e-06
2.1946159e-06
1.9552117e-06
1.6165224e-06
1.1672652e-06
6.2555423e-07
2.55463e-06
2.5596932e-06
2.5654393e-06
2.5717937e-06
2.5786738e-06
2.585989e-06
2.5936405e-06
2.6015194e-06
2.6095007e-06
2.6174296e-06
2.625093e-06
2.6321647e-06
2.6381048e-06
2.6419883e-06
2.6422253e-06
2.636136e-06
2.6193488e-06
2.5850228e-06
2.5229753e-06
2.418952e-06
2.2545405e-06
2.0085635e-06
1.6610063e-06
1.2004582e-06
6.4497457e-07
2.6363562e-06
2.6410372e-06
2.6463483e-06
2.6522204e-06
2.6585763e-06
2.6653317e-06
2.672394e-06
2.6796607e-06
2.6870131e-06
2.6943016e-06
2.701317e-06
2.7077331e-06
2.7130045e-06
2.7161895e-06
2.7156637e-06
2.7086837e-06
2.6907705e-06
2.6549134e-06
2.5906785e-06
2.483465e-06
2.3144286e-06
2.0619381e-06
1.7056593e-06
1.2343084e-06
6.6918873e-07
2.7172261e-06
2.7215443e-06
2.7264426e-06
2.731857e-06
2.7377154e-06
2.7439393e-06
2.7504422e-06
2.7571274e-06
2.7638819e-06
2.7705612e-06
2.7769591e-06
2.7827495e-06
2.7873808e-06
2.7898943e-06
2.7886305e-06
2.7807825e-06
2.7617639e-06
2.7243951e-06
2.6579929e-06
2.547615e-06
2.3739914e-06
2.1150399e-06
1.7500871e-06
1.2679954e-06
6.9217528e-07
2.7968811e-06
2.8008552e-06
2.8053623e-06
2.8103426e-06
2.8157294e-06
2.8214493e-06
2.8274214e-06
2.8335548e-06
2.8397416e-06
2.8458418e-06
2.8516522e-06
2.8568463e-06
2.8608657e-06
2.8627347e-06
2.8607586e-06
2.8520666e-06
2.831966e-06
2.7931098e-06
2.7245692e-06
2.6110663e-06
2.4329157e-06
2.1675917e-06
1.7940414e-06
1.3008592e-06
7.1154035e-07
2.874901e-06
2.8785495e-06
2.8826862e-06
2.8872557e-06
2.8921961e-06
2.8974388e-06
2.9029083e-06
2.9085188e-06
2.9141675e-06
2.9197185e-06
2.9249711e-06
2.9295978e-06
2.9330338e-06
2.9342855e-06
2.9316234e-06
2.9221134e-06
2.9009573e-06
2.8606434e-06
2.7900021e-06
2.6734284e-06
2.4908343e-06
2.2192641e-06
1.8372765e-06
1.3331006e-06
7.3004993e-07
2.9507703e-06
2.9541113e-06
2.9578983e-06
2.96208e-06
2.9665987e-06
2.9713909e-06
2.9763856e-06
2.9815021e-06
2.9866421e-06
2.9916735e-06
2.9963978e-06
3.0004865e-06
3.0033674e-06
3.0040298e-06
3.000709e-06
2.9904088e-06
2.968227e-06
2.926491e-06
2.8537961e-06
2.7342208e-06
2.5472914e-06
2.2696462e-06
1.8794804e-06
1.3646496e-06
7.4820089e-07
3.0238122e-06
3.0268639e-06
3.0303219e-06
3.0341387e-06
3.0382607e-06
3.0426289e-06
3.0471768e-06
3.0518282e-06
3.056489e-06
3.0610307e-06
3.0652565e-06
3.0688366e-06
3.0711915e-06
3.071293e-06
3.0673422e-06
3.0562815e-06
3.0331076e-06
2.9899912e-06
2.9153001e-06
2.7928077e-06
2.601669e-06
2.318131e-06
1.9200173e-06
1.3946995e-06
7.6485279e-07
3.0930682e-06
3.0958489e-06
3.0989988e-06
3.1024738e-06
3.1062245e-06
3.1101955e-06
3.1143249e-06
3.1185406e-06
3.1227523e-06
3.1268347e-06
3.1305923e-06
3.1336938e-06
3.1355523e-06
3.1351223e-06
3.1305712e-06
3.1187819e-06
3.0946535e-06
3.0502056e-06
2.9735886e-06
2.8482825e-06
2.6530813e-06
2.3638246e-06
1.9578518e-06
1.4217401e-06
7.779035e-07
3.1570873e-06
3.1596157e-06
3.1624788e-06
3.1656359e-06
3.1690409e-06
3.1726425e-06
3.1763825e-06
3.1801925e-06
3.1839859e-06
3.1876401e-06
3.1909608e-06
3.1936144e-06
3.195007e-06
3.1940757e-06
3.1889554e-06
3.1764717e-06
3.1514307e-06
3.1057098e-06
3.0272543e-06
2.8992683e-06
2.7001989e-06
2.4054752e-06
1.9919452e-06
1.4456035e-06
7.8928237e-07
3.2135795e-06
3.2158749e-06
3.2184731e-06
3.2213367e-06
3.2244228e-06
3.2276835e-06
3.2310642e-06
3.2344999e-06
3.2379071e-06
3.2411653e-06
3.2440812e-06
3.2463189e-06
3.2472767e-06
3.2458754e-06
3.2402183e-06
3.2270775e-06
3.2011727e-06
3.1542511e-06
3.0740731e-06
2.9435957e-06
2.740958e-06
2.4412411e-06
2.0209784e-06
1.4660697e-06
7.9980064e-07
3.2588783e-06
3.2609604e-06
3.2633165e-06
3.2659118e-06
3.2687067e-06
3.2716564e-06
3.2747092e-06
3.2778031e-06
3.2808574e-06
3.2837533e-06
3.2862977e-06
3.2881525e-06
3.2887082e-06
3.2868696e-06
3.2807109e-06
3.2669556e-06
3.2402473e-06
3.1922224e-06
3.1104885e-06
2.9778063e-06
2.7720806e-06
2.4681498e-06
2.0423882e-06
1.4806418e-06
8.0478651e-07
3.2871604e-06
3.2890492e-06
3.2911862e-06
3.2935394e-06
3.2960717e-06
3.2987411e-06
3.3014986e-06
3.3042848e-06
3.3070207e-06
3.3095892e-06
3.311797e-06
3.3133032e-06
3.3134912e-06
3.3112511e-06
3.3046316e-06
3.2903158e-06
3.2628881e-06
3.2139047e-06
3.1308744e-06
2.9964478e-06
2.7884249e-06
2.4815697e-06
2.0522722e-06
1.4866333e-06
8.0711201e-07
3.2894032e-06
3.2911183e-06
3.2930591e-06
3.295196e-06
3.2974945e-06
3.2999149e-06
3.3024104e-06
3.3049233e-06
3.3073763e-06
3.3096531e-06
3.3115601e-06
3.312754e-06
3.3126119e-06
3.3100124e-06
3.3029855e-06
3.2881879e-06
3.2601724e-06
3.2104654e-06
3.1265633e-06
2.9911472e-06
2.7821213e-06
2.4744508e-06
2.0448172e-06
1.4797357e-06
8.0232686e-07
3.2521461e-06
3.2537048e-06
3.2554703e-06
3.2574153e-06
3.2595076e-06
3.2617089e-06
3.2639743e-06
3.2662474e-06
3.268452e-06
3.2704723e-06
3.2721147e-06
3.2730347e-06
3.2726064e-06
3.2697029e-06
3.2623483e-06
3.2471976e-06
3.2188177e-06
3.1687861e-06
3.0847227e-06
2.9495534e-06
2.7416026e-06
2.4364583e-06
2.0115683e-06
1.4541533e-06
7.8713168e-07
3.156304e-06
3.1577199e-06
3.1593272e-06
3.1611008e-06
3.1630095e-06
3.1650169e-06
3.167079e-06
3.169141e-06
3.1711275e-06
3.1729231e-06
3.1743355e-06
3.1750225e-06
3.174362e-06
3.1712343e-06
3.1636811e-06
3.1483988e-06
3.1200435e-06
3.0703717e-06
2.9873327e-06
2.8544111e-06
2.6507987e-06
2.3532886e-06
1.9407269e-06
1.4012975e-06
7.5638383e-07
2.9766308e-06
2.9779137e-06
2.9793745e-06
2.9809884e-06
2.982725e-06
2.984551e-06
2.9864235e-06
2.9882897e-06
2.9900785e-06
2.9916733e-06
2.992885e-06
2.9933813e-06
2.9925573e-06
2.9893243e-06
2.9817831e-06
2.9667454e-06
2.9390778e-06
2.890911e-06
2.8108265e-06
2.6833074e-06
2.4890097e-06
2.2066709e-06
1.8173356e-06
1.3109437e-06
7.0779316e-07
2.6830122e-06
2.6841745e-06
2.6854928e-06
2.6869367e-06
2.6884818e-06
2.6901091e-06
2.6917747e-06
2.6934306e-06
2.6950206e-06
2.696423e-06
2.6974521e-06
2.6977978e-06
2.6968953e-06
2.6937256e-06
2.6865197e-06
2.6723284e-06
2.6464159e-06
2.6015743e-06
2.5274415e-06
2.4100844e-06
2.2323688e-06
1.9758392e-06
1.6245808e-06
1.171124e-06
6.3592166e-07
2.2456271e-06
2.246697e-06
2.2478494e-06
2.2490203e-06
2.2502583e-06
2.251599e-06
2.2529763e-06
2.2543431e-06
2.2556891e-06
2.2568789e-06
2.2577241e-06
2.2579508e-06
2.2570667e-06
2.2541791e-06
2.2477596e-06
2.2352911e-06
2.2127067e-06
2.1738538e-06
2.1099842e-06
2.0094727e-06
1.8582501e-06
1.6415827e-06
1.347383e-06
9.7103805e-07
5.3102411e-07
1.6463407e-06
1.6473463e-06
1.6481828e-06
1.6486027e-06
1.6491885e-06
1.6500333e-06
1.6509552e-06
1.6518703e-06
1.6528558e-06
1.6537625e-06
1.6543917e-06
1.65452e-06
1.6537646e-06
1.6514334e-06
1.6463833e-06
1.6367774e-06
1.6195665e-06
1.5901416e-06
1.5420248e-06
1.466712e-06
1.3540705e-06
1.1938782e-06
9.7839855e-07
7.0608443e-07
3.9337947e-07
8.9104858e-07
8.9183073e-07
8.9196844e-07
8.9066487e-07
8.9022074e-07
8.9039638e-07
8.9074439e-07
8.9110073e-07
8.9159035e-07
8.9209202e-07
8.9243985e-07
8.9248873e-07
8.9201396e-07
8.9061739e-07
8.8768161e-07
8.8225365e-07
8.7266473e-07
8.5637361e-07
8.2983172e-07
7.8848133e-07
7.2690757e-07
6.3987875e-07
5.2608225e-07
3.8116757e-07
2.1882473e-07
)
;

boundaryField
{
    Walls
    {
        type            kqRWallFunction;
        value           nonuniform List<scalar> 
38
(
4.8578929e-06
2.5523516e-06
8.0197486e-06
3.7811938e-05
0.00028208137
0.0023555585
0.056340511
0.060915745
0.018041117
0.026966397
0.034091262
0.040833767
0.04706099
0.05213339
0.056140952
0.05944765
0.061982852
0.063845254
0.065743426
0.06736202
0.067917252
0.069295409
0.070647887
0.070566289
0.071024861
0.071703091
0.071988784
0.071696007
0.072019776
0.072863853
0.072372028
0.07278085
0.07305502
0.072478316
0.072400301
0.072402253
0.071770146
0.066738634
)
;
    }
    Inlet
    {
        type            turbulentIntensityKineticEnergyInlet;
        intensity       0.05;
        value           nonuniform List<scalar> 3(0.0076691285 0.0094071932 0.0087114897);
    }
    Outlet
    {
        type            inletOutlet;
        inletValue      uniform 0;
        value           nonuniform List<scalar> 
86
(
0
0
0
0
0
0
0
0
0
0
0
0
0
0
0
0
0
0
0
0
0
0
0
0
0
0
0
5.2608225e-07
3.8116757e-07
2.1882473e-07
0.0031022567
0.0032019418
0.0026037523
0
0
0
0
0
0.00013420095
0
0
0
0
0
0
9.5525185e-07
6.4947878e-07
5.2640977e-07
4.7920853e-07
4.7250032e-07
4.7782644e-07
4.9045625e-07
5.0870371e-07
5.2431195e-07
5.3761628e-07
5.5275663e-07
5.7110216e-07
5.8746453e-07
6.0929748e-07
6.2555423e-07
6.4497457e-07
6.6918873e-07
6.9217528e-07
7.1154035e-07
7.3004993e-07
7.4820089e-07
7.6485279e-07
7.779035e-07
7.8928237e-07
7.9980064e-07
8.0478651e-07
8.0711201e-07
8.0232686e-07
7.8713168e-07
7.5638383e-07
7.0779316e-07
6.3592166e-07
5.3102411e-07
3.9337947e-07
2.1882473e-07
0
0
0
0
0.0025470103
0.0032046032
)
;
    }
    Front
    {
        type            wedge;
    }
    Back
    {
        type            wedge;
    }
    defaultFaces
    {
        type            empty;
    }
}


// ************************************************************************* //
