/*--------------------------------*- C++ -*----------------------------------*\
| =========                 |                                                 |
| \\      /  F ield         | OpenFOAM: The Open Source CFD Toolbox           |
|  \\    /   O peration     | Version:  4.0                                   |
|   \\  /    A nd           | Web:      www.OpenFOAM.org                      |
|    \\/     M anipulation  |                                                 |
\*---------------------------------------------------------------------------*/
FoamFile
{
    version     2.0;
    format      ascii;
    class       volScalarField;
    location    "0.26";
    object      nut;
}
// * * * * * * * * * * * * * * * * * * * * * * * * * * * * * * * * * * * * * //

dimensions      [0 2 -1 0 0 0 0];

internalField   nonuniform List<scalar> 
1740
(
1.1139501e-05
1.3397525e-05
1.2093671e-06
8.0006041e-06
6.9873898e-06
1.7946115e-06
9.0635532e-06
5.5050124e-06
2.2559352e-06
2.1850695e-05
4.8851015e-06
2.6874906e-06
1.95502e-05
4.4447166e-06
3.0822713e-06
1.6255469e-05
4.112257e-06
3.4010734e-06
1.3582723e-05
3.8844871e-06
3.6507775e-06
1.1904351e-05
3.7399725e-06
3.8565973e-06
1.0592232e-05
3.6510481e-06
4.0133182e-06
9.5470414e-06
3.583582e-06
4.1276889e-06
8.7771155e-06
3.5408836e-06
4.2442162e-06
8.1095426e-06
3.5143457e-06
4.3436492e-06
7.4866617e-06
3.4769089e-06
4.3778961e-06
7.0257409e-06
3.4571051e-06
4.4614213e-06
6.5494465e-06
3.4848571e-06
4.5438771e-06
6.0535523e-06
3.4939065e-06
4.5391511e-06
5.7624896e-06
3.4956058e-06
4.5674272e-06
5.5486921e-06
3.4982335e-06
4.608487e-06
5.3495109e-06
3.5149969e-06
4.6258452e-06
5.1573773e-06
3.505496e-06
4.6084318e-06
4.9692296e-06
3.4810658e-06
4.6276948e-06
4.8157099e-06
3.4908312e-06
4.6788787e-06
4.702484e-06
3.5305857e-06
4.6490012e-06
4.5863382e-06
3.530288e-06
4.6735186e-06
4.4739847e-06
3.5097879e-06
4.6900264e-06
4.369023e-06
3.5161861e-06
4.6550105e-06
4.2825103e-06
3.5273131e-06
4.6501413e-06
4.1968474e-06
3.5519878e-06
4.6504827e-06
4.1434402e-06
3.5814155e-06
4.6124558e-06
2.8700786e-06
3.6306516e-06
4.305541e-06
1.8723041e-06
2.2483414e-06
4.4266952e-06
7.1812744e-06
7.3663641e-06
6.7233556e-06
6.5363892e-06
6.7337722e-06
6.3674937e-06
5.1793029e-06
5.1163596e-06
4.8689918e-06
4.3239688e-06
4.2523835e-06
4.1176768e-06
3.7547348e-06
3.7121306e-06
3.6512151e-06
3.3274788e-06
3.3089693e-06
3.2901423e-06
2.9479937e-06
2.9431283e-06
2.944588e-06
2.5550017e-06
2.5559535e-06
2.5643394e-06
2.1202148e-06
2.1224736e-06
2.1306848e-06
1.6517265e-06
1.6533047e-06
1.658517e-06
1.1900004e-06
1.1904865e-06
1.1925256e-06
7.8832242e-07
7.8805778e-07
7.8802152e-07
4.8375679e-07
4.8322e-07
4.8234419e-07
2.8097569e-07
2.8047224e-07
2.7953854e-07
1.6022519e-07
1.598843e-07
1.5922437e-07
9.4937789e-08
9.4748243e-08
9.4370568e-08
6.2170925e-08
6.2080743e-08
6.190126e-08
4.7044071e-08
4.7012698e-08
4.6954218e-08
4.096651e-08
4.0966763e-08
4.097457e-08
3.9309363e-08
3.9325249e-08
3.9365873e-08
3.9709964e-08
3.9732915e-08
3.9787878e-08
4.101999e-08
4.1045641e-08
4.1105443e-08
4.2709079e-08
4.2735255e-08
4.2795269e-08
4.4545811e-08
4.4571451e-08
4.4629544e-08
4.6435429e-08
4.6460032e-08
4.6515297e-08
4.8341645e-08
4.8364988e-08
4.8417092e-08
5.0251136e-08
5.0273133e-08
5.0322005e-08
5.2158433e-08
5.2179063e-08
5.2224745e-08
5.4059936e-08
5.4079215e-08
5.4121794e-08
5.5951772e-08
5.5969731e-08
5.6009318e-08
5.7829144e-08
5.7845824e-08
5.7882539e-08
5.9686223e-08
5.9701672e-08
5.9735637e-08
6.1516204e-08
6.1530472e-08
6.1561812e-08
6.3311411e-08
6.3324551e-08
6.3353394e-08
6.5063417e-08
6.5075485e-08
6.510196e-08
6.6763182e-08
6.6774236e-08
6.6798476e-08
6.840123e-08
6.8411331e-08
6.8433472e-08
6.9967886e-08
6.9977098e-08
6.9997283e-08
7.1453587e-08
7.1461977e-08
7.1480358e-08
7.284924e-08
7.2856881e-08
7.2873617e-08
7.4146531e-08
7.4153499e-08
7.4168761e-08
7.5338001e-08
7.5344378e-08
7.5358342e-08
7.6416593e-08
7.6422461e-08
7.6435311e-08
7.7374325e-08
7.7379768e-08
7.7391685e-08
7.8199716e-08
7.8204813e-08
7.8215972e-08
7.8871095e-08
7.8875913e-08
7.8886465e-08
7.9351508e-08
7.93561e-08
7.9366175e-08
7.9568918e-08
7.9573325e-08
7.9583024e-08
7.9338922e-08
7.9343134e-08
7.9352504e-08
4.1789721e-06
4.5004295e-06
6.7651148e-06
8.4790822e-06
5.9894807e-06
6.0338013e-06
4.7236142e-06
4.8277241e-06
4.0696269e-06
4.1762041e-06
3.6503324e-06
3.7461959e-06
3.3115342e-06
3.3937935e-06
2.9729898e-06
3.0398973e-06
2.5905904e-06
2.6412076e-06
2.1502338e-06
2.1849043e-06
1.6702915e-06
1.6909375e-06
1.1978168e-06
1.207801e-06
7.8922767e-07
7.9255985e-07
4.8172199e-07
4.8187199e-07
2.7850747e-07
2.7766648e-07
1.5841743e-07
1.5761157e-07
9.3888553e-08
9.3376131e-08
6.1672378e-08
6.1430119e-08
4.6887489e-08
4.6829606e-08
4.0998864e-08
4.1047502e-08
3.9435451e-08
3.9537369e-08
3.9876665e-08
4.0000483e-08
4.1199847e-08
4.1328973e-08
4.2888746e-08
4.3015249e-08
4.4719212e-08
4.4839731e-08
4.6600048e-08
4.6713419e-08
4.8496621e-08
4.8602648e-08
5.0396343e-08
5.0495207e-08
5.2294052e-08
5.2386059e-08
5.4186273e-08
5.4271755e-08
5.6069181e-08
5.6148464e-08
5.7937998e-08
5.8011389e-08
5.9786899e-08
5.9854695e-08
6.1609081e-08
6.1671566e-08
6.3396873e-08
6.3454324e-08
6.5141852e-08
6.5194544e-08
6.6834986e-08
6.6883196e-08
6.8466811e-08
6.8510822e-08
7.002767e-08
7.0067773e-08
7.1508022e-08
7.1544523e-08
7.2898801e-08
7.2932023e-08
7.4191721e-08
7.4222005e-08
7.5379348e-08
7.540705e-08
7.6454639e-08
7.6480125e-08
7.740961e-08
7.7433246e-08
7.8232759e-08
7.8254899e-08
7.8902353e-08
7.8923332e-08
7.9381383e-08
7.9401527e-08
7.9597754e-08
7.9617427e-08
7.9366936e-08
7.9386601e-08
4.0287103e-10
1.3176829e-08
1.9275651e-07
8.2519313e-07
1.6412587e-06
2.2271335e-06
2.57118e-06
2.7783712e-06
2.9209509e-06
3.0344105e-06
3.1354663e-06
3.2360988e-06
3.335985e-06
3.4335745e-06
3.5279828e-06
3.6179537e-06
3.7012785e-06
3.7742154e-06
3.8306109e-06
3.860562e-06
3.8482741e-06
3.7684784e-06
3.57985e-06
3.2072025e-06
2.4182751e-06
2.1167056e-10
2.688449e-08
3.5980868e-07
1.3764753e-06
2.5686146e-06
3.3757933e-06
3.8473606e-06
4.1522133e-06
4.3845632e-06
4.5869233e-06
4.7791907e-06
4.9723396e-06
5.166423e-06
5.3598147e-06
5.5508526e-06
5.7369412e-06
5.9136848e-06
6.0739088e-06
6.205824e-06
6.2903522e-06
6.2967244e-06
6.1745807e-06
5.8387428e-06
5.1318958e-06
3.6319762e-06
6.6508783e-10
7.8893825e-08
8.580054e-07
2.5082244e-06
3.7927978e-06
4.5281213e-06
4.9901864e-06
5.3338071e-06
5.6313281e-06
5.9148025e-06
6.1990952e-06
6.4903536e-06
6.7875339e-06
7.0891669e-06
7.3936347e-06
7.6978756e-06
7.9959216e-06
8.2783619e-06
8.528678e-06
8.7197925e-06
8.8073939e-06
8.7171376e-06
8.3182979e-06
7.3597052e-06
5.2109777e-06
3.1357008e-09
2.8562733e-07
2.0645608e-06
4.0057029e-06
5.0459036e-06
5.632909e-06
6.0386202e-06
6.3796472e-06
6.7060921e-06
7.0362348e-06
7.3805709e-06
7.7419503e-06
8.1165307e-06
8.5026203e-06
8.8996206e-06
9.3058416e-06
9.7161777e-06
1.0121305e-05
1.0505322e-05
1.0841802e-05
1.1086952e-05
1.116605e-05
1.0941085e-05
1.0112725e-05
7.7741516e-06
2.3386849e-08
1.1385777e-06
3.9911666e-06
5.6002977e-06
6.4524465e-06
6.9738303e-06
7.3574336e-06
7.7031414e-06
8.051877e-06
8.405274e-06
8.7762061e-06
9.171504e-06
9.5807878e-06
9.9988624e-06
1.042771e-05
1.0871444e-05
1.1328853e-05
1.1794948e-05
1.2259814e-05
1.2705859e-05
1.3103568e-05
1.3405636e-05
1.3539713e-05
1.3415382e-05
1.3007185e-05
1.9488027e-07
2.7521598e-06
5.9040126e-06
7.7089539e-06
8.6245136e-06
9.0428911e-06
9.2404869e-06
9.3785549e-06
9.5179667e-06
9.6767579e-06
9.8629386e-06
1.008272e-05
1.0336458e-05
1.0623886e-05
1.0945692e-05
1.1302281e-05
1.1693095e-05
1.2115421e-05
1.2563566e-05
1.3027397e-05
1.3489681e-05
1.3923205e-05
1.4287917e-05
1.4539739e-05
1.4626537e-05
4.3387792e-06
4.3127505e-06
4.3571823e-06
4.4693176e-06
4.6467942e-06
4.8780792e-06
5.1531303e-06
5.4694672e-06
5.8288902e-06
6.2325658e-06
6.6793965e-06
7.1658775e-06
7.6859005e-06
8.2319167e-06
8.7966035e-06
9.3744554e-06
9.962162e-06
1.0557489e-05
1.1157726e-05
1.1757777e-05
1.2347536e-05
1.2909243e-05
1.3415033e-05
1.3832575e-05
1.4100722e-05
9.1030147e-06
9.3658383e-06
9.7705462e-06
1.0191171e-05
1.0368543e-05
1.0332863e-05
1.021646e-05
1.0119921e-05
1.0082762e-05
1.0106637e-05
1.0187229e-05
1.0319698e-05
1.0501687e-05
1.0732406e-05
1.1011106e-05
1.133653e-05
1.1706084e-05
1.211528e-05
1.2556806e-05
1.3018797e-05
1.3482084e-05
1.3917385e-05
1.4282484e-05
1.4532142e-05
1.4615762e-05
6.4060234e-06
6.8174959e-06
7.2502198e-06
7.6509439e-06
7.9529407e-06
8.1695229e-06
8.3602458e-06
8.56542e-06
8.7926625e-06
9.0561559e-06
9.352521e-06
9.6726082e-06
1.0010643e-05
1.0372154e-05
1.0760397e-05
1.117557e-05
1.161458e-05
1.2070531e-05
1.2531096e-05
1.2975766e-05
1.3371577e-05
1.3667327e-05
1.3786721e-05
1.3636646e-05
1.3193854e-05
5.139519e-06
5.4954914e-06
5.8450005e-06
6.1600243e-06
6.4235174e-06
6.6478232e-06
6.8630542e-06
7.0894126e-06
7.3375299e-06
7.6136009e-06
7.9152165e-06
8.2392143e-06
8.5847477e-06
8.9524039e-06
9.3415778e-06
9.7489165e-06
1.0167253e-05
1.0584156e-05
1.0979536e-05
1.1321659e-05
1.1560318e-05
1.1613693e-05
1.1336858e-05
1.0422685e-05
7.9425785e-06
4.4162233e-06
4.7025403e-06
4.9889095e-06
5.254585e-06
5.4931362e-06
5.7122505e-06
5.9260537e-06
6.1469019e-06
6.3828009e-06
6.6374e-06
6.9099503e-06
7.1987947e-06
7.5032087e-06
7.8221543e-06
8.1535488e-06
8.4919171e-06
8.8275896e-06
9.1449297e-06
9.4196555e-06
9.6147057e-06
9.6736149e-06
9.5089927e-06
8.9793933e-06
7.8309366e-06
5.4462227e-06
3.9275934e-06
4.1492093e-06
4.3781444e-06
4.5979804e-06
4.8043105e-06
5.0011094e-06
5.1959703e-06
5.3961112e-06
5.6066281e-06
5.8298238e-06
6.0655049e-06
6.312517e-06
6.5696372e-06
6.8348879e-06
7.1046483e-06
7.3726162e-06
7.6285289e-06
7.856512e-06
8.0328118e-06
8.1226514e-06
8.075852e-06
7.8202818e-06
7.2498297e-06
6.1905797e-06
4.1938887e-06
3.5313591e-06
3.700551e-06
3.8801244e-06
4.0576866e-06
4.2288564e-06
4.3948778e-06
4.5596648e-06
4.7274269e-06
4.9013396e-06
5.0829034e-06
5.2720825e-06
5.4679672e-06
5.6691527e-06
5.8734093e-06
6.0770292e-06
6.2740308e-06
6.4551936e-06
6.6067454e-06
6.7087013e-06
6.7328777e-06
6.6406535e-06
6.38035e-06
5.8825522e-06
5.0407555e-06
3.5443253e-06
3.142962e-06
3.2696908e-06
3.4068435e-06
3.5453031e-06
3.6808516e-06
3.8130986e-06
3.9437697e-06
4.0751583e-06
4.2091132e-06
4.3465387e-06
4.4873345e-06
4.6306782e-06
4.7751771e-06
4.9187269e-06
5.058117e-06
5.1884808e-06
5.3025796e-06
5.3898789e-06
5.4354724e-06
5.419022e-06
5.3140902e-06
5.088667e-06
4.7091663e-06
4.1582039e-06
3.5062423e-06
2.7154666e-06
2.8067456e-06
2.9068773e-06
3.0093193e-06
3.1102858e-06
3.2085459e-06
3.304514e-06
3.3992735e-06
3.4938075e-06
3.5885678e-06
3.6833664e-06
3.7774626e-06
3.8696385e-06
3.9581607e-06
4.0405915e-06
4.1134568e-06
4.1717959e-06
4.2085908e-06
4.2141551e-06
4.1757022e-06
4.0775703e-06
3.9031977e-06
3.6418555e-06
3.310043e-06
3.0141022e-06
2.2346998e-06
2.2961401e-06
2.3642289e-06
2.4343676e-06
2.5034075e-06
2.5698276e-06
2.6333352e-06
2.6942637e-06
2.7530337e-06
2.8098019e-06
2.8643275e-06
2.9159935e-06
2.9638552e-06
3.006679e-06
3.0428884e-06
3.0704243e-06
3.0865236e-06
3.0874396e-06
3.0681843e-06
3.0225005e-06
2.9434899e-06
2.8257419e-06
2.6706892e-06
2.49822e-06
2.3438071e-06
1.7207459e-06
1.7579559e-06
1.7995738e-06
1.842493e-06
1.8842944e-06
1.9235335e-06
1.9596225e-06
1.99249e-06
2.0222278e-06
2.0488308e-06
2.0720739e-06
2.0915061e-06
2.1065074e-06
2.1163561e-06
2.1202655e-06
2.1173708e-06
2.1066707e-06
2.0869465e-06
2.0567276e-06
2.0144676e-06
1.9592061e-06
1.892069e-06
1.8185099e-06
1.747539e-06
1.6567562e-06
1.2228486e-06
1.2421299e-06
1.263937e-06
1.2863063e-06
1.3075467e-06
1.326511e-06
1.3425969e-06
1.3555835e-06
1.3654215e-06
1.3720553e-06
1.375332e-06
1.3749923e-06
1.370722e-06
1.3622261e-06
1.3492979e-06
1.3318576e-06
1.3099667e-06
1.2838288e-06
1.2538284e-06
1.2207024e-06
1.1859642e-06
1.152583e-06
1.1252135e-06
1.1061021e-06
1.0649434e-06
7.983559e-07
8.0627011e-07
8.154005e-07
8.2461149e-07
8.3284774e-07
8.3933527e-07
8.4361275e-07
8.4547064e-07
8.4483795e-07
8.4167674e-07
8.3592254e-07
8.2747668e-07
8.1624382e-07
8.0219487e-07
7.8542402e-07
7.6618706e-07
7.4492117e-07
7.2225103e-07
6.9900677e-07
6.7629679e-07
6.5565934e-07
6.3918882e-07
6.2907812e-07
6.2455648e-07
6.0614769e-07
4.8304832e-07
4.8513321e-07
4.8769825e-07
4.9014979e-07
4.9190178e-07
4.9250057e-07
4.9166185e-07
4.8924694e-07
4.8521119e-07
4.7954777e-07
4.7225253e-07
4.6331742e-07
4.5275058e-07
4.4062329e-07
4.2710362e-07
4.1247751e-07
3.9715464e-07
3.8166168e-07
3.6663375e-07
3.5281231e-07
3.4105324e-07
3.3225535e-07
3.2689912e-07
3.2341555e-07
3.1197875e-07
2.7717795e-07
2.7702422e-07
2.7702222e-07
2.7689032e-07
2.7633655e-07
2.7512482e-07
2.7310377e-07
2.7020084e-07
2.6639826e-07
2.6170515e-07
2.5613951e-07
2.4972395e-07
2.4248723e-07
2.345034e-07
2.2590615e-07
2.1689717e-07
2.0774325e-07
1.9876627e-07
1.9032807e-07
1.8279371e-07
1.7651779e-07
1.7177677e-07
1.6851513e-07
1.6572628e-07
1.5989949e-07
1.5689776e-07
1.5628453e-07
1.5569879e-07
1.550205e-07
1.5411695e-07
1.52879e-07
1.5123615e-07
1.4915662e-07
1.4663743e-07
1.4369157e-07
1.4033901e-07
1.3660399e-07
1.3251775e-07
1.2811667e-07
1.2347557e-07
1.1870553e-07
1.1395021e-07
1.093895e-07
1.0520762e-07
1.0153545e-07
9.8494654e-08
9.6154745e-08
9.4431546e-08
9.292782e-08
9.0748097e-08
9.2882176e-08
9.2418736e-08
9.1960219e-08
9.1458181e-08
9.0856813e-08
9.0108188e-08
8.9181218e-08
8.8062464e-08
8.6751889e-08
8.5257019e-08
8.3588429e-08
8.1758019e-08
7.978132e-08
7.7682036e-08
7.5492672e-08
7.3271138e-08
7.10879e-08
6.9023577e-08
6.716377e-08
6.5591506e-08
6.4313861e-08
6.332907e-08
6.2594007e-08
6.1968191e-08
6.1189472e-08
6.1199905e-08
6.0991006e-08
6.0795789e-08
6.0595309e-08
6.0366454e-08
6.0088186e-08
5.9746095e-08
5.9332685e-08
5.8845936e-08
5.8286797e-08
5.7657593e-08
5.696187e-08
5.6205942e-08
5.5401494e-08
5.4561638e-08
5.3713394e-08
5.2889282e-08
5.2124944e-08
5.1456839e-08
5.0920938e-08
5.0529527e-08
5.0239078e-08
5.0029549e-08
4.9843255e-08
4.9569341e-08
4.6793317e-08
4.6784417e-08
4.6800876e-08
4.6834889e-08
4.6876036e-08
4.6913946e-08
4.6940169e-08
4.694858e-08
4.6934903e-08
4.6896069e-08
4.6829835e-08
4.6735143e-08
4.6612897e-08
4.6466862e-08
4.6303801e-08
4.6132348e-08
4.5967757e-08
4.582606e-08
4.5723156e-08
4.5673922e-08
4.5691224e-08
4.5724955e-08
4.5761072e-08
4.5761942e-08
4.5644688e-08
4.1126552e-08
4.1239133e-08
4.138429e-08
4.1557863e-08
4.1753848e-08
4.1965553e-08
4.2186471e-08
4.24106e-08
4.263252e-08
4.2847374e-08
4.3050987e-08
4.3240215e-08
4.3413392e-08
4.3570781e-08
4.371493e-08
4.3848054e-08
4.3977233e-08
4.4110301e-08
4.4255034e-08
4.4418826e-08
4.4609564e-08
4.4782908e-08
4.492446e-08
4.4999931e-08
4.4929214e-08
3.9674226e-08
3.9847343e-08
4.0055513e-08
4.0295502e-08
4.0562678e-08
4.0851596e-08
4.115647e-08
4.1471481e-08
4.1790985e-08
4.2109714e-08
4.2423e-08
4.2727051e-08
4.3019246e-08
4.3298396e-08
4.3564864e-08
4.3820313e-08
4.4066798e-08
4.4309209e-08
4.4552193e-08
4.4800081e-08
4.505769e-08
4.5285915e-08
4.5469168e-08
4.5572912e-08
4.5515097e-08
4.0160127e-08
4.035576e-08
4.0585758e-08
4.0847058e-08
4.1135531e-08
4.1446324e-08
4.1774181e-08
4.2113691e-08
4.2459526e-08
4.2806655e-08
4.3150566e-08
4.3487496e-08
4.3814668e-08
4.4130505e-08
4.4434778e-08
4.4728664e-08
4.5012936e-08
4.5291159e-08
4.5566679e-08
4.5842353e-08
4.6121003e-08
4.6367618e-08
4.6565262e-08
4.6678274e-08
4.6622339e-08
4.1492661e-08
4.1690365e-08
4.1920189e-08
4.2179165e-08
4.2463503e-08
4.2768833e-08
4.3090432e-08
4.3423432e-08
4.3763013e-08
4.4104602e-08
4.4444074e-08
4.477795e-08
4.5103623e-08
4.5419563e-08
4.5725489e-08
4.6022475e-08
4.6311281e-08
4.6594809e-08
4.6875812e-08
4.7156276e-08
4.7437478e-08
4.768759e-08
4.78882e-08
4.8001882e-08
4.7940719e-08
4.3174112e-08
4.3364371e-08
4.3584031e-08
4.3830271e-08
4.4099636e-08
4.438821e-08
4.469179e-08
4.5006048e-08
4.5326693e-08
4.5649638e-08
4.5971178e-08
4.6288189e-08
4.6598339e-08
4.6900304e-08
4.7193923e-08
4.748022e-08
4.7761046e-08
4.8038267e-08
4.8314476e-08
4.8591046e-08
4.8867917e-08
4.9115677e-08
4.9314172e-08
4.9423007e-08
4.9345919e-08
4.4990172e-08
4.5169344e-08
4.5375261e-08
4.560529e-08
4.5856298e-08
4.6124782e-08
4.6407e-08
4.6699106e-08
4.6997281e-08
4.7297879e-08
4.7597591e-08
4.7893639e-08
4.8183996e-08
4.8467602e-08
4.8744534e-08
4.9016035e-08
4.9284326e-08
4.9551317e-08
4.9819295e-08
5.0089091e-08
5.0359419e-08
5.0602637e-08
5.0796677e-08
5.0898015e-08
5.0803264e-08
4.6854358e-08
4.7021566e-08
4.7213121e-08
4.7426584e-08
4.7659114e-08
4.7907564e-08
4.8168586e-08
4.8438737e-08
4.8714597e-08
4.8992901e-08
4.9270693e-08
4.9545521e-08
4.9815656e-08
5.008032e-08
5.0339858e-08
5.0595761e-08
5.0850409e-08
5.1106407e-08
5.1365376e-08
5.1627758e-08
5.1891159e-08
5.2129231e-08
5.2318051e-08
5.241158e-08
5.2302397e-08
4.8734073e-08
4.8889566e-08
4.9067291e-08
4.9264996e-08
4.9480091e-08
4.9709728e-08
4.9950889e-08
5.0200468e-08
5.045538e-08
5.0712684e-08
5.0969734e-08
5.1224375e-08
5.1475167e-08
5.1721614e-08
5.1964345e-08
5.2205122e-08
5.244658e-08
5.2691582e-08
5.2941646e-08
5.3196777e-08
5.3453564e-08
5.3686631e-08
5.3870301e-08
5.3956029e-08
5.3833649e-08
5.0617495e-08
5.076189e-08
5.0926651e-08
5.1109696e-08
5.1308652e-08
5.1520924e-08
5.1743766e-08
5.1974359e-08
5.2209901e-08
5.2447732e-08
5.2685482e-08
5.2921265e-08
5.3153912e-08
5.3383206e-08
5.3610057e-08
5.3836508e-08
5.4065447e-08
5.4299919e-08
5.4541516e-08
5.4789824e-08
5.5040541e-08
5.5269056e-08
5.544813e-08
5.5526838e-08
5.5390591e-08
5.249969e-08
5.2633663e-08
5.2786341e-08
5.2955791e-08
5.3139828e-08
5.3336076e-08
5.354202e-08
5.3755084e-08
5.3972714e-08
5.4192496e-08
5.4412305e-08
5.4630506e-08
5.4846186e-08
5.5059393e-08
5.5271314e-08
5.5484268e-08
5.5701382e-08
5.5925822e-08
5.6159528e-08
5.6401496e-08
5.6646697e-08
5.6871142e-08
5.7046263e-08
5.7119127e-08
5.6972981e-08
5.4377207e-08
5.4501395e-08
5.4642786e-08
5.479958e-08
5.4969764e-08
5.5151146e-08
5.5341418e-08
5.5538213e-08
5.5739196e-08
5.594217e-08
5.6145239e-08
5.6346997e-08
5.6546772e-08
5.6744868e-08
5.6942741e-08
5.7142984e-08
5.7348968e-08
5.7564043e-08
5.7790238e-08
5.8026281e-08
5.8266435e-08
5.8487168e-08
5.8658717e-08
5.8726135e-08
5.8565831e-08
5.624618e-08
5.6361159e-08
5.6491962e-08
5.6636918e-08
5.6794163e-08
5.6961674e-08
5.7137321e-08
5.7318927e-08
5.750435e-08
5.7691596e-08
5.7878972e-08
5.8065289e-08
5.8250102e-08
5.8433964e-08
5.861859e-08
5.8806837e-08
5.9002326e-08
5.9208583e-08
5.9427682e-08
5.9658185e-08
5.9893675e-08
6.011092e-08
6.0279015e-08
6.0341331e-08
6.0170833e-08
5.8101783e-08
5.820807e-08
5.8328907e-08
5.8462743e-08
5.8607847e-08
5.8762349e-08
5.8924281e-08
5.9091637e-08
5.9262452e-08
5.9434915e-08
5.9607526e-08
5.9779295e-08
5.9949996e-08
6.0120416e-08
6.0292523e-08
6.0469433e-08
6.0655003e-08
6.0852928e-08
6.1065288e-08
6.1290635e-08
6.152178e-08
6.1735651e-08
6.190013e-08
6.1956741e-08
6.1778108e-08
5.9938149e-08
6.003622e-08
6.0147655e-08
6.0271012e-08
6.0404688e-08
6.0546949e-08
6.0695977e-08
6.0849921e-08
6.1006979e-08
6.1165511e-08
6.1324193e-08
6.1482227e-08
6.1639593e-08
6.1797302e-08
6.1957564e-08
6.2123747e-08
6.2299939e-08
6.2490003e-08
6.2696057e-08
6.2916496e-08
6.3143552e-08
6.3354143e-08
6.35149e-08
6.356532e-08
6.3375689e-08
6.1748446e-08
6.1838747e-08
6.1941302e-08
6.2054773e-08
6.2177672e-08
6.2308395e-08
6.2445259e-08
6.2586559e-08
6.2730643e-08
6.2876028e-08
6.3021557e-08
6.3166612e-08
6.3311368e-08
6.345705e-08
6.3606103e-08
6.3762134e-08
6.3929456e-08
6.4112094e-08
6.4312202e-08
6.4527996e-08
6.4751191e-08
6.4958602e-08
6.5115614e-08
6.5159488e-08
6.4955293e-08
6.3524983e-08
6.3607938e-08
6.3702109e-08
6.3806252e-08
6.3918989e-08
6.4038835e-08
6.4164231e-08
6.4293608e-08
6.4425454e-08
6.4558432e-08
6.4691543e-08
6.4824338e-08
6.4957176e-08
6.5091487e-08
6.5229939e-08
6.5376367e-08
6.5535301e-08
6.5710917e-08
6.5905402e-08
6.6116791e-08
6.6336316e-08
6.6540612e-08
6.6693855e-08
6.6731193e-08
6.6513127e-08
6.5259327e-08
6.5335354e-08
6.542162e-08
6.5516975e-08
6.5620142e-08
6.5729744e-08
6.5844343e-08
6.5962492e-08
6.6082809e-08
6.6204097e-08
6.6325502e-08
6.6446734e-08
6.6568327e-08
6.6691904e-08
6.6820345e-08
6.6957704e-08
6.710871e-08
6.7277685e-08
6.7466837e-08
6.7674025e-08
6.7890021e-08
6.8091197e-08
6.8240544e-08
6.8271122e-08
6.8038968e-08
6.694245e-08
6.701196e-08
6.7090798e-08
6.7177897e-08
6.7272075e-08
6.7372059e-08
6.7476519e-08
6.7584123e-08
6.7693613e-08
6.7803917e-08
6.791432e-08
6.8024679e-08
6.8135693e-08
6.8249169e-08
6.8368181e-08
6.8496992e-08
6.8640516e-08
6.8803206e-08
6.8987282e-08
6.9190406e-08
6.9402965e-08
6.9600905e-08
6.9745944e-08
6.9768712e-08
6.9519891e-08
6.8564897e-08
6.862831e-08
6.8700199e-08
6.8779578e-08
6.8865352e-08
6.8956345e-08
6.9051328e-08
6.9149075e-08
6.9248441e-08
6.9348473e-08
6.9448583e-08
6.9548766e-08
6.9649873e-08
6.975388e-08
6.9864047e-08
6.9984823e-08
7.0121294e-08
7.0278032e-08
7.0457258e-08
7.0656451e-08
7.0865532e-08
7.1059992e-08
7.1200122e-08
7.1213763e-08
7.0945626e-08
7.0117033e-08
7.0174777e-08
7.0240209e-08
7.0312417e-08
7.0390388e-08
7.0473033e-08
7.0559216e-08
7.064781e-08
7.0737774e-08
7.0828264e-08
7.0918808e-08
7.1009528e-08
7.1101416e-08
7.1196601e-08
7.1298509e-08
7.1411759e-08
7.154159e-08
7.1692669e-08
7.186721e-08
7.2062501e-08
7.2267987e-08
7.2458672e-08
7.2593489e-08
7.2597989e-08
7.231261e-08
7.1589346e-08
7.164187e-08
7.1701358e-08
7.1766966e-08
7.1837757e-08
7.1912721e-08
7.1990809e-08
7.2070984e-08
7.2152296e-08
7.2234003e-08
7.2315738e-08
7.2397738e-08
7.2481119e-08
7.2568146e-08
7.2662393e-08
7.2768621e-08
7.2892198e-08
7.3037862e-08
7.3207802e-08
7.3399108e-08
7.3600769e-08
7.3787322e-08
7.3916562e-08
7.3912323e-08
7.3611497e-08
7.2972808e-08
7.3020583e-08
7.3074665e-08
7.3134275e-08
7.319854e-08
7.3266525e-08
7.3337258e-08
7.3409781e-08
7.348323e-08
7.3556952e-08
7.3630673e-08
7.370473e-08
7.3780348e-08
7.3859908e-08
7.3947102e-08
7.4046808e-08
7.4164484e-08
7.4304911e-08
7.4470225e-08
7.4657321e-08
7.4854767e-08
7.5036669e-08
7.5159811e-08
7.5146234e-08
7.4826857e-08
7.4259173e-08
7.4302696e-08
7.4351941e-08
7.4406183e-08
7.4464613e-08
7.4526357e-08
7.4590512e-08
7.4656193e-08
7.472261e-08
7.4789185e-08
7.4855728e-08
7.4922659e-08
7.4991293e-08
7.5064101e-08
7.5144864e-08
7.5238536e-08
7.5350624e-08
7.5485907e-08
7.564644e-08
7.5828917e-08
7.6021533e-08
7.619803e-08
7.6314334e-08
7.6290894e-08
7.5955171e-08
7.5441043e-08
7.5480833e-08
7.5525834e-08
7.557537e-08
7.5628682e-08
7.5684956e-08
7.5743348e-08
7.5803032e-08
7.5863282e-08
7.5923588e-08
7.5983823e-08
7.604448e-08
7.6106937e-08
7.6173729e-08
7.6248689e-08
7.63368e-08
7.6443564e-08
7.6573702e-08
7.6729144e-08
7.6906376e-08
7.7093237e-08
7.7263224e-08
7.7371654e-08
7.7337747e-08
7.698581e-08
7.6511393e-08
7.6547985e-08
7.6589352e-08
7.6634858e-08
7.6683793e-08
7.6735388e-08
7.6788848e-08
7.6843402e-08
7.6898374e-08
7.6953307e-08
7.7008128e-08
7.7063378e-08
7.7120482e-08
7.7182005e-08
7.7251787e-08
7.7334787e-08
7.7436436e-08
7.7561327e-08
7.7711215e-08
7.7882404e-08
7.8062135e-08
7.8224058e-08
7.8323163e-08
7.8278162e-08
7.7911905e-08
7.7462243e-08
7.749617e-08
7.7534511e-08
7.7576665e-08
7.7621958e-08
7.7669661e-08
7.7719019e-08
7.7769302e-08
7.7819878e-08
7.7870329e-08
7.7920621e-08
7.7971328e-08
7.8023893e-08
7.808088e-08
7.8146092e-08
7.8224401e-08
7.832109e-08
7.8440542e-08
7.8584261e-08
7.874829e-08
7.8919178e-08
7.9071022e-08
7.9158824e-08
7.910163e-08
7.8723e-08
7.8282064e-08
7.8313844e-08
7.8349746e-08
7.8389197e-08
7.8431551e-08
7.847611e-08
7.8522153e-08
7.8568983e-08
7.8616002e-08
7.8662817e-08
7.8709419e-08
7.8756398e-08
7.8805195e-08
7.8858338e-08
7.8919546e-08
7.8993545e-08
7.9085387e-08
7.9199137e-08
7.9335876e-08
7.9491081e-08
7.9651359e-08
7.9790826e-08
7.9864792e-08
7.9793179e-08
7.9401274e-08
7.8949094e-08
7.8979229e-08
7.9013257e-08
7.9050616e-08
7.9090689e-08
7.9132813e-08
7.9176288e-08
7.9220443e-08
7.9264713e-08
7.9308713e-08
7.935244e-08
7.9396483e-08
7.944226e-08
7.949223e-08
7.9549987e-08
7.9620052e-08
7.9707166e-08
7.9814985e-08
7.9944105e-08
8.0089496e-08
8.0237515e-08
8.0362361e-08
8.0419998e-08
8.0332168e-08
7.9931127e-08
7.9426325e-08
7.9455292e-08
7.9487938e-08
7.9523687e-08
7.9561996e-08
7.960227e-08
7.9643804e-08
7.9685942e-08
7.9728166e-08
7.9770075e-08
7.9811644e-08
7.9853448e-08
7.9896861e-08
7.9944248e-08
7.9999045e-08
8.0065545e-08
8.0148125e-08
8.0249977e-08
8.0371169e-08
8.0506054e-08
8.06406e-08
8.0749167e-08
8.0788796e-08
8.0684122e-08
8.027639e-08
7.9641792e-08
7.9670052e-08
7.9701643e-08
7.9735841e-08
7.9772587e-08
7.9811381e-08
7.985142e-08
7.9892025e-08
7.9932758e-08
7.9973172e-08
8.0013184e-08
8.0053331e-08
8.0094927e-08
8.0140216e-08
8.0192474e-08
8.0255778e-08
8.0334147e-08
8.0430359e-08
8.0544133e-08
8.0668742e-08
8.078968e-08
8.0881667e-08
8.0903407e-08
8.0784517e-08
8.0386533e-08
7.941129e-08
7.9439259e-08
7.946958e-08
7.950069e-08
7.9535279e-08
7.9572595e-08
7.9611342e-08
7.9650678e-08
7.9690308e-08
7.9729701e-08
7.9768658e-08
7.9807648e-08
7.9847896e-08
7.9891503e-08
7.9941583e-08
8.0002054e-08
8.0076647e-08
8.0168144e-08
8.0278385e-08
8.0394984e-08
8.0503967e-08
8.0581368e-08
8.05888e-08
8.0463301e-08
8.0097525e-08
)
;

boundaryField
{
    Walls
    {
        type            nutUWallFunction;
        Cmu             0.09;
        kappa           0.41;
        E               9.8;
        value           uniform 0;
    }
    Inlet
    {
        type            calculated;
        value           nonuniform List<scalar> 3(9.2550055e-06 3.098177e-05 7.2484874e-07);
    }
    Outlet
    {
        type            calculated;
        value           nonuniform List<scalar> 
86
(
0
0
0
0
0
0
0
0
0
0
0
0
0
0
0
0
0
0
0
0
0
0
0
0
0
0
0
8.05888e-08
8.0463301e-08
8.0097525e-08
1.4100722e-05
1.4615762e-05
1.3193854e-05
0
0
0
0
0
3.0141022e-06
0
0
0
0
0
0
9.0748097e-08
6.1189472e-08
4.9569341e-08
4.5644688e-08
4.4929214e-08
4.5515097e-08
4.6622339e-08
4.7940719e-08
4.9345919e-08
5.0803264e-08
5.2302397e-08
5.3833649e-08
5.5390591e-08
5.6972981e-08
5.8565831e-08
6.0170833e-08
6.1778108e-08
6.3375689e-08
6.4955293e-08
6.6513127e-08
6.8038968e-08
6.9519891e-08
7.0945626e-08
7.231261e-08
7.3611497e-08
7.4826857e-08
7.5955171e-08
7.698581e-08
7.7911905e-08
7.8723e-08
7.9401274e-08
7.9931127e-08
8.027639e-08
8.0386533e-08
8.0097525e-08
0
0
0
0
1.3007185e-05
1.4626537e-05
)
;
    }
    Front
    {
        type            wedge;
    }
    Back
    {
        type            wedge;
    }
    defaultFaces
    {
        type            empty;
    }
}


// ************************************************************************* //
