/*--------------------------------*- C++ -*----------------------------------*\
| =========                 |                                                 |
| \\      /  F ield         | OpenFOAM: The Open Source CFD Toolbox           |
|  \\    /   O peration     | Version:  4.0                                   |
|   \\  /    A nd           | Web:      www.OpenFOAM.org                      |
|    \\/     M anipulation  |                                                 |
\*---------------------------------------------------------------------------*/
FoamFile
{
    version     2.0;
    format      ascii;
    class       volScalarField;
    location    "0.26";
    object      omega;
}
// * * * * * * * * * * * * * * * * * * * * * * * * * * * * * * * * * * * * * //

dimensions      [0 0 -1 0 0 0 0];

internalField   nonuniform List<scalar> 
1740
(
60.929574
681.02245
14917.817
166.17642
1417.5937
15026.314
291.89812
1900.2185
15111.809
384.88432
2183.1944
15194.013
486.57812
2451.0693
15268.283
620.06872
2734.3982
15328.51
747.32248
3033.1951
15377.807
855.99033
3278.4106
15414.534
961.86502
3479.1623
15444.291
1066.4758
3579.9131
15467.555
1154.3983
3657.5637
15490.122
1238.1831
3736.0152
15508.163
1324.208
3770.1706
15513.674
1387.2389
3798.7962
15532.138
1469.6995
3919.0957
15547.931
1587.5934
3982.5942
15546.142
1646.5937
4012.1726
15550.3
1679.2028
4027.1308
15558.922
1714.484
4087.973
15562.298
1752.5555
4083.0929
15557.572
1797.8159
4035.3588
15562.776
1835.7599
4054.5708
15572.931
1848.5605
4141.6632
15567.221
1868.2622
4142.1895
15573.031
1893.8997
4104.5147
15576.676
1916.184
4125.2419
15569.957
1928.9771
4141.7609
15569.484
1962.0746
4180.2893
15568.761
2002.9095
4205.0177
15560.072
2135.5688
4309.9457
15500.638
3198.3625
4582.1804
10713.318
3322.4358
4230.2206
5901.0822
1571.4976
1858.8286
2152.3381
824.45702
899.17561
957.33125
478.21519
496.26063
506.38584
301.06172
304.76116
304.8971
202.36549
202.68131
201.2588
143.76946
143.44574
142.20544
107.40479
107.07521
106.23749
84.211381
83.979788
83.45906
69.30428
69.15858
68.846131
59.884954
59.798423
59.615682
54.196194
54.147793
54.045198
51.004355
50.980199
50.927285
49.389234
49.3805
49.35786
48.65087
48.647366
48.635475
48.164141
48.160788
48.151574
47.766639
47.764704
47.758376
47.404066
47.404019
47.400607
47.057337
47.059044
47.058153
46.732715
46.735319
46.735924
46.446392
46.448965
46.449995
46.208826
46.210873
46.211708
46.019908
46.021336
46.021784
45.872501
45.873406
45.873494
45.75727
45.75779
45.75761
45.665619
45.665874
45.665518
45.590755
45.590834
45.590371
45.527715
45.527682
45.527161
45.473025
45.472921
45.472376
45.424289
45.424143
45.423595
45.379836
45.379667
45.379132
45.338423
45.338244
45.33773
45.298938
45.298756
45.29827
45.260026
45.259848
45.259392
45.219517
45.219347
45.218924
45.173442
45.173281
45.172892
45.114339
45.11419
45.113836
45.028445
45.02831
45.027993
44.891213
44.891094
44.890818
44.660561
44.660461
44.660232
44.267352
44.267277
44.267105
43.603045
43.603
43.602898
42.505462
42.505451
42.505426
40.745724
40.745736
40.745778
38.023127
38.023126
38.023176
33.981979
33.981891
33.981832
28.26884
28.268579
28.268298
20.661431
20.661021
20.660612
11.203607
11.203286
11.203104
13481.906
13535.54
5976.4615
5318.7692
2080.8521
1879.0451
921.8421
853.76823
490.16197
463.43491
296.8157
284.96833
196.97082
191.25646
139.85283
136.92184
104.91563
103.33947
82.702124
81.820897
68.407309
67.899603
59.361194
59.063938
53.900723
53.727662
50.849731
50.752165
49.320318
49.268058
48.613021
48.57878
48.134509
48.107788
47.745373
47.723721
47.390992
47.373221
47.051352
47.03688
46.731177
46.71961
46.446549
46.437472
46.209031
46.201986
46.019574
46.0141
45.871592
45.867284
45.755929
45.752467
45.664006
45.661153
45.588996
45.586588
45.525902
45.523828
45.47122
45.469403
45.422532
45.420921
45.378154
45.376714
45.336832
45.335537
45.297446
45.296278
45.258638
45.257584
45.218236
45.217284
45.172268
45.171411
45.113274
45.112508
45.027494
45.026818
44.890386
44.889803
44.659876
44.659398
44.266839
44.266486
43.602742
43.602541
42.505398
42.505378
40.745876
40.746058
38.023361
38.023757
33.982038
33.982742
28.268572
28.270069
20.661345
20.664887
11.204521
11.210125
12058.184
2043.0186
696.39958
369.00711
281.12794
256.83013
249.60897
246.46087
243.97553
241.398
238.6452
235.65869
232.51551
229.24005
225.80387
222.15215
218.18741
213.73663
208.49689
201.94853
193.209
180.77236
162.01327
132.04665
79.585792
12058.132
2037.0056
697.64528
374.63951
283.1487
254.28426
242.70954
235.43685
229.2522
223.35484
217.55683
211.81175
206.14319
200.54288
194.98968
189.46052
183.90797
178.24104
172.28924
165.74843
158.08555
148.35141
134.77047
113.69386
75.884266
12058.18
2030.4414
718.61449
430.75236
359.41584
332.47301
315.08785
300.56269
287.28866
274.68972
262.65339
251.04683
240.00858
229.46421
219.35452
209.66741
200.38547
191.4682
182.82326
174.28071
165.53372
156.00194
144.46911
127.94987
97.114181
12058.529
2031.6522
817.60729
608.97368
550.14923
512.96426
479.95038
449.43082
421.44978
395.13731
370.45846
347.44597
326.22762
306.35267
287.67102
270.18725
253.88889
238.74325
224.69723
211.66185
199.49745
187.97368
176.63113
164.22412
145.24836
12061.538
2150.4241
1232.2417
1078.4311
989.75312
906.99071
828.55528
757.1506
693.28887
634.252
579.95999
530.35807
486.27231
446.02595
409.0772
375.43452
344.9606
317.47989
292.81131
270.75934
251.12557
233.73107
218.45404
205.45646
195.81564
12087.209
3812.2995
2804.2993
2401.747
2094.3382
1825.9723
1590.9131
1387.7886
1211.933
1060.1447
929.39193
816.8524
719.99084
636.37929
564.08192
501.59101
447.61075
401.01065
360.81387
326.1834
296.40714
270.90539
249.26639
231.58195
219.09514
10353.008
7893.134
6089.6522
4782.4796
3815.1435
3081.6456
2513.3983
2066.5991
1711.9297
1428.2971
1199.9349
1014.98
864.46262
741.44135
640.41103
557.00522
487.78219
430.04149
381.66661
340.99486
306.71727
277.82237
253.58671
233.88496
220.00694
4082.1869
3302.1004
2839.9443
2465.7334
2147.2499
1867.1223
1622.638
1411.1895
1229.8756
1074.4538
941.13818
826.51456
727.60173
642.22949
568.55397
504.98093
450.13441
402.83577
362.07899
327.0076
296.89654
271.1579
249.36868
231.60374
219.07456
1593.2868
1399.1279
1269.2282
1161.1949
1059.1148
961.93898
873.29715
794.3454
722.40878
657.2319
598.93862
547.38229
500.06769
456.8444
417.58101
382.08507
350.12164
321.45026
295.83419
273.04836
252.88522
235.16592
219.76652
206.83054
197.34585
771.19893
707.96894
661.80317
621.27532
580.96771
540.87201
503.33284
468.74978
436.69567
407.14531
380.14471
355.42289
332.29448
310.65282
290.48012
271.75785
254.44972
238.5066
223.86985
210.46648
198.19105
186.85898
176.06546
164.65003
147.42426
434.24664
410.50351
391.78414
374.58024
356.85963
338.60148
320.77177
303.80513
287.77759
272.74364
258.71335
245.56232
233.07946
221.21041
209.98076
199.38049
189.39529
179.99671
171.13163
162.69781
154.48586
146.03734
136.26457
122.28315
94.841584
272.68181
262.29267
253.65357
245.512
237.01855
228.10704
219.14381
210.39428
201.97644
193.94665
186.3127
179.02379
172.00344
165.22154
158.68498
152.39181
146.32633
140.45057
134.68816
128.88996
122.76115
115.70145
106.43347
92.048309
64.881155
185.46548
180.40492
176.01867
171.81939
167.43106
162.78507
158.01575
153.26421
148.61808
144.12182
139.78483
135.58666
131.49499
127.49016
123.56316
119.69938
115.86995
112.02101
108.05605
103.80356
98.956431
92.954286
84.740369
72.164226
49.626252
133.97902
131.33638
128.9702
126.67735
124.28368
121.73927
119.09091
116.40797
113.74383
111.12914
108.57257
106.06594
103.59255
101.13633
98.681245
96.203609
93.663943
90.996596
88.094514
84.785967
80.800384
75.726098
68.99579
60.099075
49.33019
101.75658
100.29968
98.959532
97.647715
96.280418
94.825028
93.295286
91.723898
90.140923
88.565448
87.004146
85.453185
83.901817
82.335409
80.734359
79.068887
77.291866
75.329494
73.069321
70.346354
66.932164
62.546203
56.954368
50.356893
44.524352
80.928583
80.086482
79.292196
78.505825
77.686319
76.813791
75.890908
74.932266
73.953849
72.966859
71.97564
70.977801
69.964977
68.923265
67.831127
66.654716
65.340974
63.808816
61.939012
59.565128
56.472206
52.420893
47.24146
41.090964
34.062695
67.37679
66.86903
66.376705
65.881888
65.364619
64.813619
64.228495
63.615753
62.983762
62.339027
61.684213
61.017372
60.331392
59.612741
58.838586
57.971748
56.953431
55.6939
54.061946
51.875253
48.895782
44.835349
39.363152
31.998662
21.073159
58.749786
58.433658
58.1167
57.791291
57.448194
57.081776
56.691534
56.280751
55.854173
55.415841
54.967579
54.507842
54.030343
53.521747
52.958021
52.29875
51.479088
50.39935
48.912962
46.814497
43.830616
39.61556
33.737013
25.548869
13.591143
53.537688
53.33751
53.128009
52.906266
52.668558
52.412765
52.139118
51.849834
51.548067
51.236732
50.917382
50.588958
50.24594
49.875123
49.451287
48.930941
48.243583
47.280388
45.881075
43.821033
40.802563
36.455987
30.35225
21.986926
10.635832
50.638532
50.510694
50.368834
50.212023
50.039269
49.850388
49.6463
49.428883
49.20055
48.963655
48.719694
48.468104
48.20444
47.915792
47.57604
47.139255
46.530629
45.634807
44.282622
42.239606
39.200555
34.801461
28.665432
20.48425
10.105125
49.200824
49.117473
49.017398
48.900364
48.766577
48.616747
48.45209
48.274233
48.085054
47.8864
47.679545
47.46408
47.237238
46.987118
46.687474
46.29101
45.720284
44.855684
43.522753
41.486256
38.444748
34.049851
27.974672
20.045049
10.371448
48.531469
48.469776
48.392971
48.300745
48.193136
48.070526
47.933596
47.783265
47.620575
47.446464
47.261298
47.0639
46.849626
46.610957
46.323664
45.941161
45.385299
44.529831
43.19537
41.156956
38.120102
33.746643
27.732312
19.939155
10.526412
48.069771
48.019041
47.954607
47.87591
47.78274
47.675175
47.553529
47.418323
47.270298
47.110438
46.939743
46.758258
46.562708
46.342346
46.075946
45.715267
45.181526
44.352165
43.046575
41.015907
37.985702
33.630111
27.649447
19.912696
10.614224
47.691627
47.647507
47.590246
47.519191
47.434077
47.334986
47.222382
47.097192
46.960903
46.81547
46.66271
46.502781
46.331449
46.135803
45.893483
45.555776
45.043529
44.234987
42.951858
40.947499
37.924462
33.579799
27.608904
19.876034
10.619664
47.345467
47.305985
47.253683
47.188047
47.109083
47.017315
46.913847
46.800406
46.67925
46.552771
46.422564
46.287831
46.142911
45.973773
45.753423
45.436053
44.942045
44.150182
42.883634
40.899009
37.888148
33.552099
27.581444
19.826602
10.49867
47.013018
46.977964
46.930848
46.871531
46.800516
46.718911
46.628399
46.531128
46.429438
46.325306
46.219418
46.109727
45.98928
45.842937
45.642394
45.341807
44.862376
44.08357
42.829568
40.858276
37.861738
33.534804
27.568099
19.810744
10.51655
46.699735
46.669905
46.629556
46.578924
46.518882
46.450829
46.376569
46.298104
46.217308
46.135389
46.052077
45.96435
45.864432
45.736668
45.552739
45.264847
44.796652
44.028006
42.783963
40.823659
37.840568
33.523748
27.563748
19.806358
10.498197
46.421586
46.397544
46.365038
46.324481
46.276818
46.223381
46.16572
46.105393
46.043661
45.981021
45.916484
45.846406
45.762558
45.649039
45.477455
45.199805
44.740331
43.979648
42.743742
40.793072
37.822927
33.518352
27.571052
19.826117
10.519769
46.189695
46.171153
46.146199
46.11525
46.079117
46.038869
45.995672
45.950604
45.904394
45.857006
45.806981
45.750305
45.678515
45.575613
45.413236
45.143498
44.690691
43.936258
42.707091
40.76502
37.807383
33.516889
27.588006
19.871744
10.611099
46.00474
45.990778
45.972132
45.949136
45.922404
45.892712
45.860866
45.827549
45.793088
45.757087
45.717784
45.670948
45.607995
45.512901
45.357394
45.093894
44.645953
43.896395
42.672794
40.738268
37.792203
33.515771
27.604363
19.902444
10.625234
45.860143
45.849674
45.835831
45.818857
45.799185
45.777344
45.753861
45.729127
45.703192
45.675417
45.643846
45.604114
45.547564
45.458161
45.307691
45.048687
44.604733
43.85903
42.63996
40.71177
37.775548
33.51086
27.611152
19.905105
10.582318
45.746934
45.738996
45.728623
45.715985
45.701376
45.685145
45.667619
45.648988
45.629114
45.607195
45.581147
45.546516
45.494596
45.409345
45.262587
45.006956
44.566254
43.823465
42.607994
40.684869
37.756349
33.500237
27.608541
19.903265
10.568476
45.656767
45.65062
45.642695
45.633108
45.622057
45.609768
45.596431
45.582099
45.56651
45.548751
45.526652
45.495696
45.447139
45.364933
45.220923
44.967808
44.529508
43.789146
42.576563
40.657432
37.734742
33.484364
27.597214
19.895072
10.608646
45.58302
45.578138
45.571934
45.564487
45.55593
45.546407
45.536019
45.524727
45.512183
45.497399
45.478146
45.44986
45.403769
45.323813
45.181854
44.930637
44.494181
43.755788
42.545548
40.629689
37.711714
33.465644
27.581079
19.880214
10.605854
45.520853
45.516876
45.511892
45.50596
45.499169
45.491609
45.483319
45.474201
45.463847
45.451219
45.434043
45.407721
45.363457
45.285183
45.144767
44.894994
44.459982
43.723246
42.514915
40.60193
37.68834
33.446996
27.567409
19.877949
10.694499
45.46687
45.463554
45.459454
45.454615
45.449097
45.442953
45.436182
45.428645
45.419893
45.408853
45.393217
45.368361
45.32547
45.248463
45.109214
44.860541
44.426641
43.691194
42.484591
40.574309
37.665183
33.429755
27.558093
19.876418
10.681215
45.418728
45.415908
45.412465
45.408433
45.403853
45.398753
45.393107
45.386743
45.379188
45.369339
45.354866
45.331122
45.289274
45.213231
45.074869
44.827032
44.393992
43.659595
42.454547
40.546858
37.64238
33.414287
27.5553
19.894461
10.719057
45.37479
45.372355
45.369414
45.365994
45.362123
45.357814
45.353018
45.347546
45.340903
45.331967
45.318388
45.2955
45.254457
45.179154
45.041467
44.794263
44.361889
43.628359
42.424732
40.519485
37.619662
33.399471
27.55502
19.9221
10.832134
45.333834
45.331706
45.32916
45.326217
45.322897
45.319201
45.315065
45.310288
45.304356
45.296134
45.283255
45.261039
45.220622
45.145891
45.008718
44.761989
44.330121
43.597294
42.394898
40.492004
37.596735
33.384397
27.553962
19.947911
10.921779
45.294761
45.292885
45.290658
45.288098
45.285218
45.282009
45.2784
45.274174
45.26881
45.261158
45.248838
45.227157
45.187236
45.11295
44.976165
44.729787
44.298297
43.566036
42.364733
40.464085
37.573296
33.368816
27.551631
19.964233
10.954309
45.256227
45.254564
45.252603
45.250358
45.247838
45.245027
45.241846
45.238071
45.23317
45.225982
45.214118
45.192869
45.153345
45.079405
44.942912
44.696785
44.265567
43.533762
42.333436
40.434938
37.548577
33.352024
27.547913
19.977174
10.976028
45.21607
45.214591
45.212856
45.210878
45.208661
45.206184
45.203361
45.199962
45.195447
45.188646
45.17716
45.156267
45.117063
45.043395
44.907116
44.661161
44.230131
43.498687
42.299242
40.402811
37.520851
33.332446
27.54199
19.98868
10.996653
45.170325
45.16901
45.167474
45.165728
45.163773
45.161584
45.159069
45.155992
45.151808
45.145338
45.134171
45.113577
45.074635
45.001179
44.865055
44.619208
44.188299
43.457149
42.258516
40.364089
37.486424
33.306047
27.52873
19.990328
11.001927
45.111541
45.110377
45.109022
45.107486
45.105766
45.103834
45.101594
45.098804
45.094911
45.088731
45.077843
45.057504
45.018779
44.94549
44.809474
44.56369
44.132863
43.401978
42.204148
40.311712
37.438247
33.265196
27.497871
19.9644
10.964784
45.025968
45.024948
45.023767
45.02243
45.020932
45.019242
45.017258
45.014735
45.011113
45.005199
44.994563
44.97445
44.935912
44.862756
44.726817
44.481073
44.050331
43.319768
42.122886
40.232691
37.363694
33.197893
27.439723
19.912446
10.914865
44.889074
44.888204
44.887199
44.886064
44.884792
44.883346
44.881621
44.879364
44.876009
44.870355
44.859961
44.84006
44.801692
44.728653
44.592783
44.347102
43.916534
43.18652
41.991059
40.103971
37.240888
33.084831
27.341348
19.835254
10.865159
44.658804
44.658099
44.657289
44.656378
44.655354
44.654177
44.652735
44.650769
44.647702
44.642324
44.632184
44.612503
44.574311
44.501404
44.365646
44.12014
43.690013
42.961122
41.768217
39.886327
37.032787
32.892583
27.17394
19.703473
10.755316
44.266052
44.265543
44.264967
44.264324
44.263599
44.262745
44.261643
44.260023
44.257297
44.252243
44.242399
44.222979
44.185012
44.112312
43.976813
43.731789
43.302734
42.576221
41.388258
39.515899
36.679409
32.567374
26.892356
19.48638
10.626163
43.602304
43.60204
43.601757
43.601454
43.601111
43.600672
43.600005
43.598827
43.596535
43.591895
43.582435
43.563372
43.525755
43.453464
43.318588
43.074742
42.648096
41.926474
40.748054
38.893358
36.087748
32.026243
26.428506
19.133421
10.42175
42.505383
42.505427
42.505521
42.505662
42.505821
42.505929
42.505837
42.505243
42.503526
42.499438
42.490511
42.471986
42.434983
42.363539
42.230069
41.988835
41.567224
40.855233
39.694692
37.871885
35.120774
31.147173
25.682929
18.576743
10.102842
40.746354
40.746787
40.747368
40.748088
40.748901
40.749719
40.750373
40.750539
40.749582
40.74624
40.738067
40.720386
40.684485
40.614736
40.484189
40.248295
39.836569
39.142662
38.014389
36.247277
33.588777
29.761707
24.516874
17.715153
9.6081683
38.02443
38.02538
38.0266
38.028051
38.029658
38.031332
38.032878
38.033962
38.033969
38.031607
38.024483
38.008103
37.974112
37.907524
37.782568
37.556808
37.163348
36.501799
35.42945
33.756081
31.248804
27.655696
22.755154
16.429271
8.9141285
33.984079
33.985828
33.987876
33.990079
33.992394
33.994863
33.997232
33.999186
34.000256
33.999076
33.99331
33.978807
33.947867
33.886652
33.771466
33.56351
33.201731
32.59506
31.615107
30.09239
27.822008
24.586625
20.201204
14.578519
7.95587
28.273083
28.276241
28.279126
28.281137
28.28308
28.285613
28.288156
28.290349
28.292248
28.2923
28.288154
28.276184
28.249754
28.196889
28.09733
27.918265
27.607716
27.088529
26.252999
24.960516
23.043605
20.329407
16.677845
12.035058
6.6149476
20.671819
20.677108
20.679408
20.675805
20.673624
20.674161
20.675339
20.676285
20.678078
20.678965
20.676489
20.667722
20.647558
20.6068
20.530397
20.394512
20.160375
19.770415
19.145092
18.181913
16.76044
14.760801
12.093416
8.7403435
4.8935991
11.220679
11.226574
11.224024
11.203235
11.192778
11.189737
11.188662
11.18761
11.188191
11.188955
11.187851
11.182998
11.171415
11.147836
11.104128
11.027887
10.897868
10.682218
10.336926
9.8075935
9.0294627
7.940778
6.5279822
4.7371605
2.7319787
)
;

boundaryField
{
    Walls
    {
        Cmu             0.09;
        kappa           0.41;
        E               9.8;
        beta1           0.075;
        type            omegaWallFunction;
        value           nonuniform List<scalar> 
38
(
12058.184
12058.132
12058.18
12058.529
12061.538
12087.209
13481.906
13535.54
14917.817
15026.314
15111.809
15194.013
15268.283
15328.51
15377.807
15414.534
15444.291
15467.555
15490.122
15508.163
15513.674
15532.138
15547.931
15546.142
15550.3
15558.922
15562.298
15557.572
15562.776
15572.931
15567.221
15573.031
15576.676
15569.957
15569.484
15568.761
15560.072
15500.638
)
;
    }
    Inlet
    {
        type            turbulentMixingLengthDissipationRateInlet;
        mixingLength    0.03;
        phi             phi;
        k               k;
        value           nonuniform List<scalar> 3(0.0036814464 0.0039593086 0.0050650952);
    }
    Outlet
    {
        type            inletOutlet;
        inletValue      uniform 1e-05;
        value           nonuniform List<scalar> 
86
(
1e-05
1e-05
1e-05
1e-05
1e-05
1e-05
1e-05
1e-05
1e-05
1e-05
1e-05
1e-05
1e-05
1e-05
1e-05
1e-05
1e-05
1e-05
1e-05
1e-05
1e-05
1e-05
1e-05
1e-05
1e-05
1e-05
1e-05
6.5279822
4.7371605
2.7319787
220.00694
219.07456
197.34585
1e-05
1e-05
1e-05
1e-05
1e-05
44.524352
1e-05
1e-05
1e-05
1e-05
1e-05
1e-05
10.526412
10.614224
10.619664
10.49867
10.51655
10.498197
10.519769
10.611099
10.625234
10.582318
10.568476
10.608646
10.605854
10.694499
10.681215
10.719057
10.832134
10.921779
10.954309
10.976028
10.996653
11.001927
10.964784
10.914865
10.865159
10.755316
10.626163
10.42175
10.102842
9.6081683
8.9141285
7.95587
6.6149476
4.8935991
2.7319787
1e-05
1e-05
1e-05
1e-05
195.81564
219.09514
)
;
    }
    Front
    {
        type            wedge;
    }
    Back
    {
        type            wedge;
    }
    defaultFaces
    {
        type            empty;
    }
}


// ************************************************************************* //
