/*--------------------------------*- C++ -*----------------------------------*\
| =========                 |                                                 |
| \\      /  F ield         | OpenFOAM: The Open Source CFD Toolbox           |
|  \\    /   O peration     | Version:  4.0                                   |
|   \\  /    A nd           | Web:      www.OpenFOAM.org                      |
|    \\/     M anipulation  |                                                 |
\*---------------------------------------------------------------------------*/
FoamFile
{
    version     2.0;
    format      ascii;
    class       volScalarField;
    location    "0.26";
    object      p;
}
// * * * * * * * * * * * * * * * * * * * * * * * * * * * * * * * * * * * * * //

dimensions      [0 2 -2 0 0 0 0];

internalField   nonuniform List<scalar> 
1740
(
491.77748
491.68027
491.77833
475.4457
475.38247
475.35716
459.1177
459.30321
459.06738
442.49986
442.64651
442.50134
425.86811
425.84375
425.87213
409.5829
409.62193
409.72735
393.37424
393.28952
393.15691
376.91905
376.7828
376.57263
360.65693
360.65154
360.75224
344.51818
344.47142
344.42013
327.78658
327.69071
327.46963
311.04873
311.02942
310.98541
294.5969
294.71193
294.86225
277.91742
278.07863
278.14432
260.96069
261.01729
260.87567
244.19924
244.02872
243.90429
227.66743
227.48687
227.59513
211.39026
211.31381
211.39675
195.64876
195.44827
195.22643
179.55018
179.45506
179.22731
163.03128
163.17259
163.11185
146.61864
146.77861
146.9125
130.01458
130.05676
130.44408
113.2833
113.15659
113.56397
96.734203
96.680769
96.664253
80.267368
80.416645
80.089825
63.73717
63.755282
63.513816
47.046507
47.002216
46.867138
30.738887
30.84657
30.77984
15.955196
15.813638
15.508827
4.0332746
3.3954181
1.6074899
-0.59658565
-0.54599767
-0.35504064
-0.10347634
-0.094507294
-0.073214118
0.013768135
0.016063877
0.021164321
0.024812462
0.026125337
0.028531006
0.023495356
0.023963673
0.025092535
0.021100718
0.021299216
0.021734912
0.018390877
0.018477083
0.018677831
0.016082412
0.016143885
0.0162781
0.014347917
0.014399197
0.014502527
0.012968424
0.013016105
0.013106296
0.011734259
0.011775892
0.011853788
0.010572131
0.010608106
0.010674002
0.0094626225
0.009492978
0.0095485428
0.0084143119
0.0084395341
0.0084858637
0.0074392314
0.0074599687
0.0074978478
0.0065415513
0.0065582949
0.0065886221
0.0057189369
0.0057321804
0.0057565744
0.0049663444
0.0049770174
0.0049966542
0.004279422
0.00428809
0.004304124
0.0036549211
0.0036620958
0.0036754673
0.0030905014
0.0030965987
0.0031080729
0.0025845736
0.0025899108
0.0026000878
0.0021354801
0.0021402752
0.0021495536
0.0017402183
0.0017446123
0.0017532355
0.0013946202
0.0013987136
0.0014068587
0.0010945791
0.0010984581
0.0011062795
0.00083644924
0.00084017985
0.00084779415
0.0006167531
0.00062037811
0.00062785607
0.00043203373
0.00043557501
0.00044294779
0.00027886845
0.00028233197
0.00028959946
0.00015389143
0.00015727551
0.00016442147
5.3841482e-05
5.7138278e-05
6.4135378e-05
-2.4391791e-05
-2.1195619e-05
-1.4384017e-05
-8.3737224e-05
-8.065775e-05
-7.4072639e-05
-0.00012691595
-0.00012397002
-0.00011765315
-0.00015642338
-0.00015362738
-0.00014761862
-0.00017451874
-0.00017188779
-0.00016622341
-0.00018321761
-0.000180765
-0.00017547677
-0.00018428045
-0.00018201734
-0.00017713187
-0.00017921547
-0.00017715114
-0.00017269031
-0.00016931032
-0.000167452
-0.00016343307
-0.00015566542
-0.00015401844
-0.00015045432
-0.00013920726
-0.00013777527
-0.00013467495
-0.00012069577
-0.00011948102
-0.0001168502
-0.00010073205
-9.9736055e-05
-9.7578283e-05
-7.9760231e-05
-7.8983719e-05
-7.7300702e-05
-5.8037673e-05
-5.7480891e-05
-5.6273527e-05
-3.57611e-05
-3.5425015e-05
-3.469424e-05
-1.2366022e-05
-1.2253026e-05
-1.2005769e-05
-1.2787714
-0.90098957
-0.28380289
-0.22848625
-0.068880376
-0.068617425
0.016022303
0.0081623979
0.028220205
0.026888034
0.025889481
0.026132972
0.022150107
0.022247691
0.01887688
0.018901081
0.016420774
0.016442793
0.014607524
0.014649749
0.013198645
0.013240333
0.011933346
0.011973363
0.010740558
0.010774058
0.0096057878
0.0096377771
0.0085338481
0.008561338
0.0075369703
0.0075596626
0.0066203027
0.0066389753
0.0057821437
0.0057975609
0.0050174632
0.005030419
0.0043213691
0.0043326037
0.0036901238
0.0037002597
0.0031209732
0.003130606
0.0026118992
0.0026215323
0.0021606946
0.002170572
0.0017639181
0.0017740827
0.0014172463
0.0014277385
0.0011165228
0.0011274056
0.00085800033
0.0008693021
0.00063807662
0.00064977434
0.00045318759
0.00046521828
0.00029982836
0.00031209777
0.00017458737
0.00018698029
7.4173749e-05
8.6567112e-05
-4.5451614e-06
7.7236961e-06
-6.4508666e-05
-5.2487887e-05
-0.00010843816
-9.6782782e-05
-0.00013882176
-0.00012763893
-0.00015790673
-0.00014729144
-0.00016769409
-0.00015772785
-0.00016992837
-0.00016067948
-0.00016610276
-0.00015762665
-0.00015749055
-0.00014983119
-0.00014517891
-0.00013837
-0.00013008237
-0.00012414832
-0.00011295083
-0.00010790801
-9.4378075e-05
-9.0236231e-05
-7.4802914e-05
-7.1567974e-05
-5.4481033e-05
-5.2158513e-05
-3.3609923e-05
-3.2205791e-05
-1.1639102e-05
-1.1164849e-05
0.020707369
0.020342542
0.019623013
0.018647664
0.017490565
0.016220951
0.014882486
0.01350033
0.012094255
0.010676639
0.0092921464
0.0080533116
0.0069752802
0.0060378707
0.0052019315
0.0044373026
0.0037409172
0.003111915
0.0025469166
0.0020409987
0.0015877763
0.0011791999
0.0008072416
0.00046555671
0.00015103233
0.020217024
0.019836736
0.019035383
0.017955366
0.016662768
0.015244811
0.013764682
0.01227013
0.010807552
0.0094349379
0.0081800035
0.0070012969
0.0059110423
0.0049222799
0.0040522119
0.0033080034
0.0026776791
0.0021486613
0.0017029319
0.0013276326
0.0010106995
0.00073742321
0.00049799579
0.0002879939
0.00010285139
0.01504507
0.01444825
0.013302859
0.011785515
0.0099738498
0.0080128196
0.0060505294
0.0042329987
0.0026951088
0.0014306297
0.00041695057
-0.00039256307
-0.0010264748
-0.0015020337
-0.0018224214
-0.001996353
-0.0020429104
-0.0019850031
-0.001837623
-0.001617263
-0.0013423106
-0.0010380374
-0.00071785358
-0.00039396228
-8.7725762e-05
-0.00240595
-0.0036140475
-0.0059183257
-0.0087643668
-0.01141724
-0.013533661
-0.014966983
-0.015785125
-0.016146185
-0.016133156
-0.015809103
-0.015269331
-0.014562132
-0.013698522
-0.012705234
-0.011609337
-0.01043498
-0.0092022012
-0.0079277323
-0.0066324792
-0.0053336637
-0.0040658106
-0.002823725
-0.0016191773
-0.00048298407
-0.056684307
-0.058743722
-0.060618818
-0.05975404
-0.057835972
-0.054718225
-0.050969823
-0.04702267
-0.042985577
-0.038970797
-0.035135764
-0.031565034
-0.028195151
-0.024779313
-0.02160291
-0.018688053
-0.016023282
-0.01359061
-0.011367962
-0.009324926
-0.0074327401
-0.0056449296
-0.0039570268
-0.0023479726
-0.00080442331
-0.22501816
-0.1838811
-0.16652761
-0.13589836
-0.11052857
-0.08813874
-0.069109149
-0.053471641
-0.040868744
-0.030801541
-0.022781711
-0.016437246
-0.011515751
-0.0079022278
-0.0051346319
-0.0030877805
-0.0016146667
-0.00059745311
5.6074074e-05
0.00042140044
0.0005635102
0.00054651177
0.00041366745
0.000208866
-7.0070713e-05
-0.33845663
-0.13876149
-0.086491258
-0.047045897
-0.012043084
0.015385389
0.03278293
0.041361274
0.044444254
0.044637343
0.043217267
0.040794572
0.037761195
0.034396252
0.030902472
0.027412082
0.024002979
0.020716127
0.01756716
0.014554712
0.011667542
0.0088923838
0.0062046032
0.0035935491
0.00097135442
-0.19442102
-0.17309396
-0.14897945
-0.12385035
-0.099797229
-0.078744444
-0.060971893
-0.046555516
-0.035052432
-0.025941017
-0.018778152
-0.013217869
-0.008979814
-0.0057515903
-0.0033358562
-0.0015765227
-0.00034271375
0.0004674645
0.00094142898
0.0011487878
0.0011477009
0.00099029071
0.00072106492
0.00038515917
-2.0672969e-05
-0.073838412
-0.076196968
-0.075612822
-0.072856422
-0.06850251
-0.06318039
-0.057813558
-0.052534381
-0.047427193
-0.042629622
-0.038147394
-0.033834459
-0.029753283
-0.026004877
-0.022589974
-0.019483229
-0.016651684
-0.014065494
-0.011704535
-0.0095459674
-0.0075634547
-0.0057286035
-0.0040150058
-0.0023907619
-0.00082897958
-0.0012552312
-0.0091397268
-0.015277255
-0.01967366
-0.022498783
-0.024063136
-0.024728757
-0.024702356
-0.024171117
-0.023274064
-0.022134389
-0.020820937
-0.019363144
-0.017798562
-0.016165584
-0.014500114
-0.012833052
-0.011186331
-0.0095634938
-0.0079661875
-0.0063979987
-0.0048641521
-0.0033721494
-0.0019329336
-0.00058115398
0.023529595
0.018837071
0.013905947
0.0092823879
0.0052715659
0.0019805257
-0.000557856
-0.0024522005
-0.0038192288
-0.0047493118
-0.0053393545
-0.005656533
-0.005750578
-0.0056635168
-0.005437455
-0.0051005329
-0.0046770581
-0.0041885469
-0.0036532214
-0.0030846838
-0.0024950919
-0.0018966444
-0.0013019718
-0.00072310435
-0.00018570077
0.025166559
0.023335545
0.021017003
0.018443557
0.015859757
0.013336345
0.010921763
0.0087946384
0.0069926106
0.0055015403
0.0042822088
0.0033013845
0.0025182045
0.0018963602
0.0014120958
0.0010386215
0.0007530966
0.00053939589
0.00038072574
0.00026431388
0.00018008447
0.00011961347
7.6350969e-05
4.7609828e-05
3.0940972e-05
0.021816942
0.020894228
0.019597657
0.018066398
0.016369543
0.014676934
0.013067686
0.011498341
0.010015558
0.0086606472
0.0074376775
0.0063662728
0.0054428705
0.0046490511
0.0039636452
0.0033672633
0.0028432116
0.002379538
0.0019643317
0.0015882504
0.0012443809
0.00092763289
0.00063455177
0.00036397157
0.00011792208
0.018658652
0.018052102
0.01717151
0.016098018
0.0149169
0.013704621
0.012494152
0.011293635
0.010103972
0.008981701
0.0079339758
0.0069625666
0.0060700101
0.0052599471
0.0045300056
0.0038742365
0.0032853251
0.0027567968
0.0022807669
0.0018491826
0.0014548336
0.0010915595
0.00075417062
0.0004383031
0.00014106319
0.016255048
0.015813812
0.01517392
0.014410114
0.013557023
0.012639951
0.011722948
0.010813361
0.0099138303
0.0090005422
0.0081123793
0.0072523067
0.0064312285
0.0056570666
0.0049350211
0.0042668511
0.0036518324
0.0030877622
0.002570584
0.0020951921
0.001656109
0.0012481093
0.00086623223
0.00050589073
0.00016282089
0.01452635
0.014216024
0.013748016
0.013167946
0.012515784
0.011815707
0.011096957
0.010360121
0.0096235057
0.0088641877
0.0081005425
0.0073429702
0.0066004684
0.0058815966
0.0051933281
0.0045403357
0.0039251085
0.0033482896
0.0028087197
0.0023039247
0.0018306971
0.0013855141
0.00096473798
0.00056498361
0.00018236327
0.013183556
0.012986724
0.01265635
0.012214308
0.011690474
0.011121413
0.010525255
0.0099020621
0.0092520686
0.0085966186
0.0079400494
0.0072753135
0.0066100024
0.0059527284
0.0053095817
0.0046863747
0.0040872374
0.0035144781
0.0029688556
0.0024498999
0.0019563592
0.0014864942
0.0010381646
0.00060913374
0.00019683451
0.011938723
0.011796712
0.011544197
0.011195198
0.010773678
0.010306403
0.0098089615
0.0092870371
0.0087430863
0.0081861262
0.007611087
0.0070266404
0.0064365882
0.0058453352
0.0052540835
0.0046720657
0.0041038403
0.0035520148
0.00301827
0.0025032929
0.0020072183
0.0015299226
0.0010705893
0.00062845114
0.00020256199
0.010758172
0.010645323
0.010444997
0.010164439
0.009820806
0.0094330125
0.0090141352
0.0085707589
0.0081069931
0.007626718
0.0071300706
0.0066199585
0.0060994326
0.0055710585
0.0050423522
0.004513643
0.0039887012
0.0034714148
0.0029646235
0.0024693534
0.0019866302
0.0015183782
0.0010645207
0.00062547664
0.00020146716
0.0096211386
0.0095333581
0.0093722889
0.0091429907
0.0088579004
0.0085306711
0.0081727541
0.0077908029
0.0073900332
0.0069740246
0.0065443895
0.0061023727
0.0056491496
0.0051861535
0.0047163463
0.0042417113
0.0037650703
0.0032895793
0.0028182744
0.0023544997
0.0019003593
0.0014560449
0.0010228768
0.00060205962
0.00019418155
0.0085478447
0.0084779753
0.0083460537
0.0081561754
0.0079162516
0.0076367377
0.0073278055
0.0069971557
0.0066492717
0.0062879804
0.0059152482
0.005531146
0.0051369951
0.0047328003
0.0043199187
0.0039000415
0.0034752265
0.0030479012
0.0026206134
0.002196136
0.0017767728
0.0013640631
0.00095947727
0.00056520703
0.00018270388
0.0075493128
0.0074934356
0.0073861753
0.007228039
0.0070256342
0.0067868538
0.0065203079
0.006234217
0.0059326998
0.0056188457
0.005294151
0.0049590045
0.0046141648
0.0042600501
0.003897349
0.003527115
0.0031508551
0.0027703977
0.0023879353
0.0020056749
0.0016257236
0.0012499811
0.00087990606
0.00051886428
0.00016889379
0.0066311606
0.006586394
0.0064990458
0.0063686066
0.0061988127
0.0059961518
0.0057676648
0.0055197365
0.0052582211
0.0049845705
0.0047005344
0.0044070869
0.0041048077
0.0037941722
0.0034756634
0.003149956
0.002818092
0.0024816211
0.0021423428
0.0018020311
0.0014625291
0.0011258367
0.00079312272
0.00046845378
0.00015332994
0.0057917867
0.0057560172
0.0056851457
0.0055778811
0.0054364471
0.0052654422
0.0050703574
0.0048562425
0.0046282897
0.004388752
0.0041395774
0.0038819589
0.0036166817
0.0033442822
0.0030651791
0.0027798922
0.0024891701
0.0021940931
0.0018959257
0.0015961966
0.0012965366
0.00099866843
0.00070406095
0.00041595834
0.00013608949
0.0050264898
0.0049982724
0.0049411062
0.0048532883
0.0047359489
0.0045922181
0.0044261889
0.0042419541
0.0040432939
0.0038340647
0.0036155513
0.0033894583
0.0031567968
0.00291823
0.0026742414
0.002425278
0.0021719152
0.0019149254
0.0016552603
0.0013941039
0.0011327944
0.00087278851
0.00061556336
0.00036387996
0.0001190277
0.0043304582
0.0043086676
0.0042630073
0.0041916068
0.0040947504
0.0039744835
0.0038338384
0.0036760813
0.0035043083
0.0033220992
0.0031311845
0.002933412
0.0027299936
0.0025217141
0.0023092107
0.0020929359
0.0018733764
0.0016511235
0.001426907
0.0012016178
0.00097628775
0.00075207205
0.00053025753
0.00031364219
0.00010322356
0.0036998633
0.00368365
0.0036478319
0.0035904353
0.0035111982
0.0034113399
0.0032930386
0.0031588796
0.0030115422
0.0028537202
0.0026882631
0.0025163402
0.0023394061
0.0021584764
0.0019742998
0.0017874355
0.0015983367
0.001407504
0.0012155103
0.0010230349
0.00083087145
0.00063993883
0.00045126697
0.0002667107
8.6978021e-05
0.0031320425
0.0031208289
0.0030935901
0.0030483123
0.0029843865
0.0029024043
0.0028038602
0.002690793
0.0025654691
0.0024302206
0.0022877588
0.0021395278
0.0019867111
0.001830518
0.0016718591
0.0015113757
0.0013495739
0.0011869059
0.0010238503
0.0008609309
0.00069875101
0.00053800987
0.0003794532
0.00022410123
7.2581189e-05
0.0026248973
0.0026182138
0.002598473
0.0025637026
0.0025130507
0.0024466807
0.0023655772
0.0022713152
0.0021658264
0.002051129
0.0019293188
0.0018025331
0.0016718138
0.0015381893
0.0014025024
0.0012656455
0.0011281737
0.00099054734
0.00085319699
0.00071651876
0.00058094897
0.00044696399
0.00031502355
0.00018595458
6.0168299e-05
0.0021757756
0.002173065
0.0021597552
0.0021339689
0.0020947308
0.0020419223
0.0019761591
0.0018986306
0.0018108988
0.0017147252
0.0016118345
0.0015041702
0.0013933156
0.0012801613
0.0011653771
0.0010497157
0.00093386948
0.00081838226
0.00070365971
0.00059000467
0.00047773485
0.00036716071
0.00025854383
0.00015255388
4.9400642e-05
0.0017808871
0.0017815524
0.0017737026
0.0017555857
0.0017261766
0.0016851703
0.0016329117
0.0015702606
0.0014984623
0.0014190077
0.0013333796
0.0012430978
0.0011497709
0.001054593
0.00095850397
0.00086185975
0.00076534022
0.00066942785
0.00057445177
0.00048078835
0.00038869556
0.00029837003
0.00020992875
0.00012384255
4.0190645e-05
0.0014359522
0.0014395221
0.0014363582
0.0014248493
0.0014039636
0.0013732664
0.0013328881
0.0012834347
0.0012258575
0.0011613713
0.0010912697
0.0010168742
0.00093942062
0.00086015798
0.00078014632
0.00070015793
0.00062060305
0.00054179212
0.00046401565
0.00038765311
0.00031290955
0.00023989278
0.00016866642
9.9535234e-05
3.2498484e-05
0.0011369174
0.0011430358
0.0011439323
0.0011381351
0.0011246365
0.0011029197
0.0010729478
0.001035105
0.00099012696
0.00093894371
0.00088268493
0.00082248068
0.00075943672
0.00069459207
0.00062885828
0.00056316757
0.00049798309
0.00043372071
0.00037074351
0.00030917394
0.0002491439
0.00019073337
0.00013397795
7.9163907e-05
2.6171844e-05
0.0008799949
0.00088834067
0.00089273437
0.00089184361
0.00088470041
0.00087074126
0.00084980113
0.00082209115
0.00078815083
0.00074869835
0.00070465644
0.00065699286
0.00060668561
0.00055465936
0.00050173653
0.00044859989
0.00039586646
0.00034403137
0.00029343113
0.00024416976
0.00019635231
0.00015007885
0.00010531442
6.2214643e-05
2.06086e-05
0.00066149855
0.00067174847
0.00067911185
0.00068238455
0.00068064866
0.00067331342
0.00066012823
0.00064115275
0.00061676817
0.00058752629
0.0005541501
0.00051744898
0.00047825775
0.00043738852
0.0003955777
0.00035345946
0.0003116079
0.00027044451
0.00023025358
0.00019125673
0.0001535614
0.00011721617
8.2146459e-05
4.8436443e-05
1.5927733e-05
0.00047779776
0.00048962582
0.00049945647
0.00050619766
0.00050898574
0.00050722329
0.00050059923
0.00048907195
0.00047285721
0.000452373
0.00042817937
0.00040093175
0.00037133159
0.00034007211
0.00030780479
0.00027510925
0.00024249073
0.00021034131
0.00017894513
0.00014851643
0.00011916185
9.0889014e-05
6.3625096e-05
3.7503018e-05
1.2392183e-05
0.00032533895
0.00033841942
0.0003502352
0.00035979624
0.00036629332
0.00036913397
0.0003679674
0.00036269262
0.00035335976
0.00034027662
0.00032386992
0.00030465968
0.00028321873
0.00026013134
0.00023595928
0.0002112153
0.00018634658
0.00016171457
0.00013759319
0.00011417947
9.158296e-05
6.9834566e-05
4.8888837e-05
2.8875259e-05
9.656897e-06
0.00020067713
0.00021468816
0.00022803279
0.00023981381
0.0002492751
0.00025583773
0.00025912354
0.00025896767
0.00025532945
0.000248402
0.00023849511
0.00022601026
0.00021140647
0.00019516634
0.00017776495
0.00015964658
0.00014120482
0.00012276745
0.00010459135
8.6863666e-05
6.9702321e-05
5.3166117e-05
3.7238338e-05
2.2113314e-05
7.6805488e-06
0.00010051378
0.00011514559
0.00012959154
0.00014303943
0.00015478505
0.00016426697
0.00017108912
0.00017502851
0.00017599857
0.00017408844
0.00016950581
0.00016254903
0.00015357712
0.00014298078
0.00013115581
0.00011848078
0.0001052987
9.1903492e-05
7.8533442e-05
6.5368725e-05
5.2533295e-05
4.0102011e-05
2.8091331e-05
1.672303e-05
5.8360241e-06
2.1722011e-05
3.6686197e-05
5.1841294e-05
6.6451435e-05
7.98635e-05
9.1537196e-05
0.00010106743
0.00010820079
0.00011279672
0.00011487422
0.00011455441
0.00011204658
0.00010762284
0.00010159295
9.4281222e-05
8.6006251e-05
7.7064432e-05
6.7717525e-05
5.8185091e-05
4.8640804e-05
3.9212994e-05
2.9988763e-05
2.1004092e-05
1.2588348e-05
4.5425872e-06
-3.8624416e-05
-2.3591938e-05
-8.0821378e-06
7.2390397e-06
2.1766866e-05
3.4986941e-05
4.6494491e-05
5.6003086e-05
6.3357461e-05
6.8508444e-05
7.1507036e-05
7.2488814e-05
7.165208e-05
6.923668e-05
6.5504022e-05
6.0719387e-05
5.5137106e-05
4.8989171e-05
4.2477517e-05
3.5769567e-05
2.8997315e-05
2.2260622e-05
1.5616409e-05
9.457676e-06
3.5709881e-06
-8.3226264e-05
-6.8364861e-05
-5.281605e-05
-3.7183464e-05
-2.2024734e-05
-7.8262534e-06
5.0141521e-06
1.6192668e-05
2.5543176e-05
3.2962786e-05
3.8449528e-05
4.2079195e-05
4.3988504e-05
4.4357935e-05
4.3394614e-05
4.131723e-05
3.8342726e-05
3.46761e-05
3.0502676e-05
2.5983405e-05
2.1253056e-05
1.6421014e-05
1.1560323e-05
7.1019114e-06
2.8304339e-06
-0.00011454449
-0.00010006666
-8.4757049e-05
-6.9161707e-05
-5.3793461e-05
-3.9109521e-05
-2.5493953e-05
-1.3247437e-05
-2.5631793e-06
6.4279739e-06
1.3684261e-05
1.9234141e-05
2.3164324e-05
2.5605637e-05
2.6719259e-05
2.6683865e-05
2.5683607e-05
2.3899188e-05
2.1500362e-05
1.8640458e-05
1.5454878e-05
1.2059515e-05
8.5371565e-06
5.3442098e-06
2.2726212e-06
-0.00013479525
-0.00012088561
-0.00010605523
-9.0796522e-05
-7.5579172e-05
-6.0828669e-05
-4.6910622e-05
-3.4118765e-05
-2.2665161e-05
-1.269438e-05
-4.279889e-06
2.571293e-06
7.9062597e-06
1.1815661e-05
1.4422676e-05
1.5871673e-05
1.6318682e-05
1.5922469e-05
1.4837823e-05
1.3210298e-05
1.1171737e-05
8.8413366e-06
6.3083571e-06
4.0446239e-06
1.8525867e-06
-0.00014594578
-0.00013276128
-0.00011861302
-0.00010394366
-8.9180404e-05
-7.4715399e-05
-6.0893169e-05
-4.7997478e-05
-3.6246961e-05
-2.5794492e-05
-1.6734188e-05
-9.1004901e-06
-2.8764566e-06
1.9969907e-06
5.6119951e-06
8.08444e-06
9.5458455e-06
1.0135334e-05
9.9932292e-06
9.2554247e-06
8.0503797e-06
6.4953321e-06
4.6842293e-06
3.0957669e-06
1.5396497e-06
-0.00014970794
-0.00013737844
-0.00012408015
-0.00011020877
-9.6149948e-05
-8.2262671e-05
-6.8866855e-05
-5.6232993e-05
-4.4576381e-05
-3.4055552e-05
-2.4775147e-05
-1.6788848e-05
-1.0102171e-05
-4.6804737e-06
-4.5642963e-07
2.6623922e-06
4.786222e-06
6.0364313e-06
6.539361e-06
6.4206304e-06
5.8017857e-06
4.8018293e-06
3.5061604e-06
2.401296e-06
1.3044611e-06
-0.00014754402
-0.00013617496
-0.00012386284
-0.00011095892
-9.780863e-05
-8.4737389e-05
-7.2038338e-05
-5.9964826e-05
-4.8723531e-05
-3.84725e-05
-2.9321296e-05
-2.1334578e-05
-1.4533934e-05
-8.9030399e-06
-4.3941433e-06
-9.342186e-07
1.5686738e-06
3.2197396e-06
4.1316688e-06
4.4202395e-06
4.1999203e-06
3.5815908e-06
2.6516987e-06
1.8886423e-06
1.1286693e-06
-0.00014069988
-0.00013037544
-0.00011915839
-0.00010735785
-9.5279997e-05
-8.321624e-05
-7.143202e-05
-6.015961e-05
-4.959311e-05
-3.9884722e-05
-3.1144094e-05
-2.3441127e-05
-1.680713e-05
-1.1239251e-05
-6.7048903e-06
-3.1469951e-06
-4.8933425e-07
1.3582578e-06
2.4956387e-06
3.028195e-06
3.0618154e-06
2.7027691e-06
2.0285093e-06
1.5075912e-06
9.95997e-07
-0.00013023816
-0.00012102373
-0.00011098678
-0.00010039612
-8.9519698e-05
-7.8614409e-05
-6.791688e-05
-5.7636294e-05
-4.7949799e-05
-3.8999578e-05
-3.089197e-05
-2.3696861e-05
-1.745077e-05
-1.2160075e-05
-7.8035144e-06
-4.3372747e-06
-1.6988421e-06
1.8853653e-07
1.4121448e-06
2.0660623e-06
2.2480374e-06
2.0593925e-06
1.5678451e-06
1.2188073e-06
8.8596867e-07
-0.00011705128
-0.00010899547
-0.0001002025
-9.0902398e-05
-8.132563e-05
-7.1694659e-05
-6.2215914e-05
-5.3073857e-05
-4.4426182e-05
-3.6401572e-05
-2.9098449e-05
-2.2583994e-05
-1.6896874e-05
-1.2048288e-05
-8.0254842e-06
-4.7955068e-06
-2.3075419e-06
-4.9737341e-07
7.0996725e-07
1.3970277e-06
1.6521634e-06
1.5711729e-06
1.2151918e-06
9.9056441e-07
7.8673625e-07
-0.00010186997
-9.5006772e-05
-8.7503229e-05
-7.9552002e-05
-7.1347006e-05
-6.3076104e-05
-5.4914908e-05
-4.702141e-05
-3.9532034e-05
-3.2559332e-05
-2.6190823e-05
-2.0488303e-05
-1.5488858e-05
-1.1206448e-05
-7.6347281e-06
-4.7486029e-06
-2.5075888e-06
-8.5914036e-07
2.6003621e-07
9.2026075e-07
1.1988457e-06
1.1845526e-06
9.3212307e-07
8.021224e-07
6.8946432e-07
-8.5272618e-05
-7.9624316e-05
-7.3440778e-05
-6.6878678e-05
-6.0096053e-05
-5.3246449e-05
-4.6474016e-05
-3.9909369e-05
-3.3666003e-05
-2.7838395e-05
-2.2501e-05
-1.7707649e-05
-1.3491453e-05
-9.8670221e-06
-6.8317137e-06
-4.3670959e-06
-2.4420104e-06
-1.0137291e-06
-3.0844451e-08
5.6502619e-07
8.389046e-07
8.6849956e-07
6.9758894e-07
6.3406027e-07
5.7964543e-07
-6.7688462e-05
-6.3270067e-05
-5.842773e-05
-5.3282683e-05
-4.7957735e-05
-4.2572355e-05
-3.7239121e-05
-3.2060715e-05
-2.7126488e-05
-2.2511417e-05
-1.8275113e-05
-1.4461441e-05
-1.109774e-05
-8.1972125e-06
-5.7592882e-06
-3.7710453e-06
-2.2089054e-06
-1.0399949e-06
-2.2427626e-07
2.8453581e-07
5.3919305e-07
6.0065571e-07
5.0042894e-07
4.6953144e-07
4.4403331e-07
-4.9372079e-05
-4.6196764e-05
-4.2713154e-05
-3.9007692e-05
-3.5167971e-05
-3.1279768e-05
-2.7423984e-05
-2.3674228e-05
-2.0095638e-05
-1.6742749e-05
-1.3658874e-05
-1.0875783e-05
-8.4149117e-06
-6.2861936e-06
-4.489866e-06
-3.0173953e-06
-1.8525397e-06
-9.7192198e-07
-3.4615658e-07
5.8086027e-08
2.7986843e-07
3.6264127e-07
3.2617172e-07
3.0770065e-07
2.9285377e-07
-3.0519867e-05
-2.8596508e-05
-2.6485019e-05
-2.4236247e-05
-2.1902414e-05
-1.9535343e-05
-1.7184134e-05
-1.4893579e-05
-1.2703484e-05
-1.0647208e-05
-8.7511642e-06
-7.0349367e-06
-5.5118469e-06
-4.1883306e-06
-3.0648743e-06
-2.1367254e-06
-1.394455e-06
-8.244897e-07
-4.096739e-07
-1.2751924e-07
4.5858554e-08
1.3491144e-07
1.5167637e-07
1.5043482e-07
1.4623917e-07
-1.0596106e-05
-9.9472129e-06
-9.2336749e-06
-8.4720642e-06
-7.6798801e-06
-6.8746834e-06
-6.0732361e-06
-5.2908483e-06
-4.5411069e-06
-3.8354053e-06
-3.1827572e-06
-2.5898431e-06
-2.0612121e-06
-1.5991312e-06
-1.2038415e-06
-8.7384003e-07
-6.0611895e-07
-3.9633482e-07
-2.3886769e-07
-1.262363e-07
-4.9930944e-08
-9.0369937e-10
2.5888135e-08
3.1091274e-08
3.4506391e-08
)
;

boundaryField
{
    Walls
    {
        type            zeroGradient;
    }
    Inlet
    {
        type            fixedValue;
        value           uniform 500;
    }
    Outlet
    {
        type            fixedValue;
        value           uniform 0;
    }
    Front
    {
        type            wedge;
    }
    Back
    {
        type            wedge;
    }
    defaultFaces
    {
        type            empty;
    }
}


// ************************************************************************* //
