/*--------------------------------*- C++ -*----------------------------------*\
| =========                 |                                                 |
| \\      /  F ield         | OpenFOAM: The Open Source CFD Toolbox           |
|  \\    /   O peration     | Version:  4.0                                   |
|   \\  /    A nd           | Web:      www.OpenFOAM.org                      |
|    \\/     M anipulation  |                                                 |
\*---------------------------------------------------------------------------*/
FoamFile
{
    version     2.0;
    format      ascii;
    class       surfaceScalarField;
    location    "0.26";
    object      phi;
}
// * * * * * * * * * * * * * * * * * * * * * * * * * * * * * * * * * * * * * //

dimensions      [0 3 -1 0 0 0 0];

internalField   nonuniform List<scalar> 
3364
(
1.5655254e-10
1.5440572e-08
-6.7366754e-10
5.2653344e-08
8.2443091e-08
-4.9310475e-11
1.5489855e-08
-1.0729024e-09
5.3676959e-08
8.1370215e-08
-6.6853288e-10
1.6158377e-08
-3.5040543e-14
5.3008523e-08
8.1370204e-08
-3.0900487e-10
1.6467343e-08
6.1805285e-10
5.2081463e-08
8.1988249e-08
6.2847619e-11
1.6404434e-08
3.4120707e-10
5.1803011e-08
8.2329402e-08
-1.6001145e-10
1.6564409e-08
2.1538789e-10
5.1427525e-08
8.2544721e-08
5.8774825e-11
1.6505628e-08
8.9505144e-10
5.0591205e-08
8.3439728e-08
7.9170364e-11
1.6426445e-08
4.0600738e-10
5.0264345e-08
8.384571e-08
-1.8128291e-10
1.6607693e-08
-8.9802279e-10
5.0981065e-08
8.2947673e-08
1.4587849e-11
1.659307e-08
-3.8210984e-11
5.1033839e-08
8.2909442e-08
2.8028528e-10
1.6312755e-08
5.6961494e-10
5.0744476e-08
8.3479015e-08
2.0456799e-10
1.6108139e-08
-1.4998458e-10
5.1098993e-08
8.3329e-08
-2.4461284e-10
1.6352704e-08
-3.2678234e-11
5.0887028e-08
8.3296288e-08
-2.987833e-10
1.6651452e-08
2.5547903e-10
5.0332706e-08
8.3551706e-08
-2.8625158e-10
1.6937658e-08
9.6113982e-11
4.9950262e-08
8.3647778e-08
-2.0220041e-10
1.7139826e-08
1.1250416e-10
4.963554e-08
8.3760272e-08
2.4237358e-10
1.689745e-08
2.7818907e-10
4.9599722e-08
8.4038435e-08
4.6220277e-10
1.643521e-08
-8.2845723e-13
5.0062693e-08
8.4037565e-08
4.2484171e-10
1.6010306e-08
-1.11017e-10
5.0598504e-08
8.3926512e-08
1.5096358e-10
1.5859294e-08
1.7097881e-12
5.0747741e-08
8.3928193e-08
-4.7094872e-10
1.6330206e-08
3.6964546e-10
4.9907106e-08
8.4297797e-08
-5.3018409e-10
1.6860374e-08
-1.0393234e-10
4.9480801e-08
8.4193806e-08
2.1043345e-10
1.6649912e-08
-1.2170934e-09
5.0908299e-08
8.2976677e-08
6.0211921e-10
1.6047738e-08
-1.3008141e-09
5.2811198e-08
8.1675845e-08
2.1630993e-12
1.6045532e-08
-8.3664825e-11
5.2896955e-08
8.1592137e-08
-4.9076254e-10
1.653626e-08
9.0251148e-10
5.1503641e-08
8.2494611e-08
-1.5711175e-10
1.6693322e-08
6.1424298e-10
5.0732258e-08
8.3108822e-08
-1.2846581e-10
1.6821756e-08
-1.9386259e-12
5.0605703e-08
8.3106855e-08
-2.1243689e-10
1.7034217e-08
4.98388e-11
5.0343512e-08
8.3156718e-08
1.4583386e-09
1.5576091e-08
4.7293978e-09
4.7072573e-08
8.7886104e-08
1.1431919e-08
4.1435276e-09
4.8251546e-08
1.0251063e-08
1.0293417e-08
1.2584166e-07
4.6919909e-09
-5.4892315e-10
1.6453033e-08
-1.5114359e-09
-1.5562822e-09
2.8300899e-08
-4.2747753e-10
-1.2140951e-10
-1.5923636e-09
-3.4647386e-10
-4.1774039e-10
-2.7307937e-09
-1.0888973e-10
-1.2504669e-11
-4.2112538e-10
-3.4201708e-11
-4.113527e-11
-7.9768782e-10
-1.4198911e-11
1.6961108e-12
-5.5757782e-11
7.3621849e-12
1.9653097e-11
-1.1653871e-10
-2.303253e-12
3.9998881e-12
-8.4267049e-12
1.3486879e-11
2.6651937e-11
-1.5425335e-11
2.1639929e-13
3.7833859e-12
1.7827758e-12
1.1920229e-11
2.1417097e-11
7.0176707e-12
1.3360476e-12
2.4474573e-12
5.7377607e-12
7.5185869e-12
1.3166743e-11
1.39885e-11
8.5912645e-13
1.5885357e-12
3.5060143e-12
4.8720329e-12
8.4635471e-12
8.2097715e-12
3.1270718e-13
1.2760336e-12
1.3306995e-12
3.8544039e-12
6.5838986e-12
3.2109195e-12
-6.6660671e-16
1.2768765e-12
1.0575115e-14
3.8434766e-12
6.4965259e-12
9.8434546e-14
-6.2532356e-14
1.3395485e-12
-2.6706259e-13
4.0482421e-12
6.7554487e-12
-5.2563516e-13
1.3738944e-14
1.3259072e-12
3.7650764e-14
4.0244939e-12
6.7473858e-12
4.5938732e-14
6.9716286e-14
1.2562596e-12
2.8701211e-13
3.807321e-12
6.352596e-12
6.8194666e-13
1.0421377e-13
1.1520939e-12
4.3373756e-13
3.4778848e-12
5.7334178e-12
1.0530174e-12
1.1074669e-13
1.0413809e-12
4.5616582e-13
3.1325297e-12
5.1918979e-12
9.9776167e-13
9.971417e-14
9.4169041e-13
4.0844553e-13
2.8238454e-12
4.780082e-12
8.2032017e-13
8.9037198e-14
8.5266973e-13
3.1854959e-13
2.5943671e-12
4.3747957e-12
7.2388035e-13
6.8569549e-14
7.8411166e-13
2.8955732e-13
2.373403e-12
3.9823855e-12
6.8199903e-13
7.1971648e-14
7.1214781e-13
2.9412905e-13
2.1512608e-12
3.6077227e-12
6.6881208e-13
6.9550567e-14
6.4260231e-13
2.8052905e-13
1.9402913e-12
3.2503026e-12
6.3796075e-13
6.783556e-14
5.7476978e-13
2.739344e-13
1.7341969e-12
2.9006343e-12
6.2360752e-13
6.4331659e-14
5.1043968e-13
2.5861461e-13
1.539915e-12
2.5748981e-12
5.8435074e-13
5.9670561e-14
4.5076969e-13
2.3979637e-13
1.3597879e-12
2.2729415e-12
5.4174956e-13
5.5906713e-14
3.9486278e-13
2.2463695e-13
1.1910547e-12
1.990736e-12
5.0683646e-13
5.2027476e-14
3.4283456e-13
2.0931315e-13
1.0337649e-12
1.7269695e-12
4.730718e-13
4.8070419e-14
2.9476303e-13
1.9309755e-13
8.8873279e-13
1.4839747e-12
4.3608338e-13
4.4037936e-14
2.5072374e-13
1.7676287e-13
7.5600243e-13
1.2619081e-12
3.9881984e-13
4.009478e-14
2.1062745e-13
1.6096769e-13
6.3512386e-13
1.060047e-12
3.6281884e-13
3.6588941e-14
1.7403692e-13
1.4659404e-13
5.2511301e-13
8.7749906e-13
3.2913204e-13
3.2568312e-14
1.4146701e-13
1.3072261e-13
4.2695306e-13
7.1389113e-13
2.9432082e-13
2.8563922e-14
1.1290152e-13
1.1472586e-13
3.4078566e-13
5.6960889e-13
2.5899877e-13
2.5096888e-14
8.7803115e-14
1.0075034e-13
2.6512702e-13
4.4352727e-13
2.2682311e-13
2.1743283e-14
6.6058393e-14
8.7221949e-14
1.9964346e-13
3.3463409e-13
1.9610683e-13
1.8594574e-14
4.7462467e-14
7.4590275e-14
1.4364319e-13
2.4143786e-13
1.6777884e-13
1.5692644e-14
3.1768566e-14
6.2940614e-14
9.6391006e-14
1.6273547e-13
1.4163603e-13
1.3089121e-14
1.8678285e-14
5.2493589e-14
5.6982686e-14
9.72577e-14
1.1796503e-13
1.0746603e-14
7.930625e-15
4.3100792e-14
2.4625012e-14
4.345534e-14
9.6897469e-14
8.7030591e-15
-7.7339133e-16
3.4918715e-14
-1.5937627e-15
-2.8060096e-16
7.8649576e-14
6.9854014e-15
-7.7596477e-15
2.8004135e-14
-2.2615268e-14
-3.5078541e-14
6.2797571e-14
5.4851803e-15
-1.3245586e-14
2.195506e-14
-3.9087585e-14
-6.2399601e-14
4.9272156e-14
4.2159128e-15
-1.7462161e-14
1.6885673e-14
-5.1759475e-14
-8.3467237e-14
3.794985e-14
3.1784692e-15
-2.0641206e-14
1.2728546e-14
-6.1311392e-14
-9.9414483e-14
2.8672799e-14
2.3435038e-15
-2.2985197e-14
9.370658e-15
-6.8340122e-14
-1.1124013e-13
2.1193757e-14
1.7176258e-15
-2.4703231e-14
6.8672134e-15
-7.3491032e-14
-1.196707e-13
1.5295641e-14
1.2619942e-15
-2.5965555e-14
5.071482e-15
-7.7301619e-14
-1.2595181e-13
1.1350812e-14
9.6537575e-16
-2.6931194e-14
3.9404093e-15
-8.027756e-14
-1.3090865e-13
8.895782e-15
8.0082678e-16
-2.7732239e-14
3.224672e-15
-8.2702193e-14
-1.3502601e-13
7.3407436e-15
6.7839909e-16
-2.8410853e-14
2.4899837e-15
-8.451456e-14
-1.3804686e-13
5.5095675e-15
4.2812139e-16
1.8895426e-15
4.2398373e-15
1.3535724e-07
-9.5208386e-09
-8.6137478e-09
1.4396476e-07
2.0356004e-08
-1.5771173e-09
-1.4227947e-09
1.3164535e-08
-3.7769802e-09
-5.3079519e-10
-6.2820681e-10
-4.5714213e-09
-1.2325289e-09
-9.589756e-11
-1.5152009e-10
-1.7091505e-09
-2.3124059e-10
1.8815428e-11
8.3201854e-12
-3.9106387e-10
-3.4934335e-11
3.8327815e-11
4.4748829e-11
-7.1357897e-11
1.3670218e-11
3.1676935e-11
4.048687e-11
1.7933987e-11
2.4601893e-11
2.1064513e-11
2.6596663e-11
3.8492943e-11
1.6197835e-11
1.3077237e-11
1.669487e-11
2.6100399e-11
6.7508402e-12
9.5380564e-12
1.3030728e-11
1.0415812e-11
4.5860035e-13
9.1785612e-12
1.2240664e-11
1.2494591e-12
-8.275063e-13
9.4809191e-12
1.2302452e-11
-8.8866702e-13
6.6637964e-14
9.4605247e-12
1.2104793e-11
2.6468245e-13
1.2584611e-12
8.8841848e-12
1.1549775e-11
1.8136956e-12
1.7871805e-12
8.1501282e-12
1.067889e-11
2.6581875e-12
1.6984717e-12
7.4494981e-12
9.6688629e-12
2.7085797e-12
1.4950512e-12
6.7748286e-12
8.7500638e-12
2.4139105e-12
1.330634e-12
6.1681221e-12
7.9486789e-12
2.1320651e-12
1.2426075e-12
5.6075477e-12
7.216072e-12
1.9752479e-12
1.2009768e-12
5.0754051e-12
6.5375035e-12
1.8795669e-12
1.1474212e-12
4.5659568e-12
5.8860202e-12
1.7989157e-12
1.1186328e-12
4.0709355e-12
5.2515541e-12
1.7531011e-12
1.0353435e-12
3.6199407e-12
4.6590458e-12
1.6278473e-12
9.7173355e-13
3.1899505e-12
4.1112578e-12
1.5195119e-12
9.0448777e-13
2.7922897e-12
3.5908994e-12
1.4248328e-12
8.4416231e-13
2.4211873e-12
3.1117519e-12
1.3232938e-12
7.777951e-13
2.0794623e-12
2.6713993e-12
1.21813e-12
7.1065894e-13
1.7676092e-12
2.2703352e-12
1.1117045e-12
6.4616418e-13
1.4842496e-12
1.9050064e-12
1.0114743e-12
5.8372508e-13
1.2296423e-12
1.5797246e-12
9.0898851e-13
5.2324849e-13
1.0007008e-12
1.2874381e-12
8.1551704e-13
4.6192342e-13
7.9776298e-13
1.0287207e-12
7.2062382e-13
4.018021e-13
6.2277152e-13
8.0328885e-13
6.27218e-13
3.4768733e-13
4.7117945e-13
6.0883136e-13
5.4213013e-13
2.976333e-13
3.4131442e-13
4.4304788e-13
4.6340343e-13
2.5134782e-13
2.3159303e-13
3.0332093e-13
3.9106267e-13
2.0926111e-13
1.4028828e-13
1.8694534e-13
3.256258e-13
1.7169612e-13
6.5481849e-14
9.1559005e-14
2.6707266e-13
1.3955441e-13
4.5700621e-15
1.404465e-14
2.1706001e-13
1.1122063e-13
-4.385917e-14
-4.7851388e-14
1.731089e-13
8.7302516e-14
-8.1894961e-14
-9.6393832e-14
1.3583812e-13
6.7272563e-14
-1.1122242e-13
-1.337872e-13
1.0465996e-13
5.0810694e-14
-1.3336441e-13
-1.6201772e-13
7.9036048e-14
3.7555047e-14
-1.497292e-13
-1.8300769e-13
5.8540618e-14
2.7245599e-14
-1.6168209e-13
-1.9854008e-13
4.2774292e-14
2.0147262e-14
-1.7048097e-13
-2.0956395e-13
3.116808e-14
1.5672748e-14
-1.7725995e-13
-2.1777116e-13
2.3877424e-14
1.3085547e-14
-1.8300651e-13
-2.2418469e-13
1.9496862e-14
9.8590701e-15
-1.8735776e-13
-2.3074287e-13
1.6415049e-14
7.4639615e-15
1.181573e-14
-6.1089854e-12
6.1074305e-12
-1.3556223e-11
7.4443115e-12
-2.3551136e-11
9.992823e-12
-3.690202e-11
1.3350231e-11
-5.4745852e-11
1.784768e-11
-7.8006717e-11
2.3266288e-11
-1.0718472e-10
2.9184121e-11
-1.4209407e-10
3.4915762e-11
-1.8153035e-10
3.9442718e-11
-2.2521204e-10
4.3687995e-11
-2.7451629e-10
4.9310282e-11
-3.2526128e-10
5.0750668e-11
-3.7533387e-10
5.0077815e-11
-4.2333539e-10
4.8006255e-11
-4.6910236e-10
4.5771173e-11
-5.1346276e-10
4.4364028e-11
-5.5612127e-10
4.2661559e-11
-5.9620385e-10
4.008503e-11
-6.3289975e-10
3.6697763e-11
-6.653859e-10
3.2487453e-11
-6.928935e-10
2.7508406e-11
-7.1486841e-10
2.1975309e-11
-7.3084302e-10
1.5974709e-11
-7.4033905e-10
9.4959348e-12
2.6992931e-12
-4.5319972e-11
5.1431805e-11
-1.0047663e-10
6.2607736e-11
-1.6785571e-10
7.7379698e-11
-2.4913936e-10
9.4641977e-11
-3.4612749e-10
1.1484384e-10
-4.5976335e-10
1.3690991e-10
-5.9039327e-10
1.5982136e-10
-7.377021e-10
1.8223137e-10
-8.9937157e-10
2.0111834e-10
-1.072099e-09
2.1642098e-10
-1.2510408e-09
2.2825694e-10
-1.4358513e-09
2.3556537e-10
-1.6247881e-09
2.3901831e-10
-1.8164333e-09
2.3965451e-10
-2.0087582e-09
2.3809859e-10
-2.2001236e-09
2.3573136e-10
-2.4001417e-09
2.4268113e-10
-2.5905201e-09
2.3046428e-10
-2.7635344e-09
2.0971256e-10
-2.9144202e-09
1.8337323e-10
-3.0395709e-09
1.5265877e-10
-3.1364238e-09
1.1882735e-10
-3.2027495e-09
8.2299388e-11
-3.2344792e-09
4.1224314e-11
1.0659194e-11
-1.246414e-10
1.7608191e-10
-2.7523396e-10
2.1321393e-10
-4.5763411e-10
2.5979553e-10
-6.7682235e-10
3.1384619e-10
-9.333881e-10
3.7142496e-10
-1.2264775e-09
4.3001358e-10
-1.5572173e-09
4.9057409e-10
-1.9896332e-09
6.1465851e-10
-2.4571315e-09
6.6862632e-10
-2.9332398e-09
6.9253735e-10
-3.4029209e-09
6.979446e-10
-3.8583054e-09
6.9095504e-10
-4.2935024e-09
6.742192e-10
-4.7026922e-09
6.4884697e-10
-5.0795544e-09
6.1496247e-10
-5.4181017e-09
5.7427941e-10
-5.7033816e-09
5.2796088e-10
-5.9493813e-09
4.7646318e-10
-6.1602554e-09
4.2058504e-10
-6.3383511e-09
3.6146679e-10
-6.4856256e-09
2.9993054e-10
-6.6034194e-09
2.366179e-10
-6.6918977e-09
1.7077412e-10
-6.7534177e-09
1.0274047e-10
3.4040448e-11
-3.7320773e-10
5.4930591e-10
-8.0844728e-10
6.4847818e-10
-1.3207338e-09
7.7210881e-10
-2.1390277e-09
1.1321641e-09
-3.0197356e-09
1.2521532e-09
-3.8557406e-09
1.266035e-09
-4.5964407e-09
1.231287e-09
-5.1502897e-09
1.1685174e-09
-5.5668348e-09
1.085179e-09
-5.8623816e-09
9.8808986e-10
-6.0517508e-09
8.8731793e-10
-6.148399e-09
7.8760604e-10
-6.1629112e-09
6.8873322e-10
-6.0964788e-09
5.8241551e-10
-5.9647075e-09
4.8319144e-10
-5.7846654e-09
3.9423711e-10
-5.5733272e-09
3.1662198e-10
-5.3476808e-09
2.5081575e-10
-5.1240863e-09
1.9698923e-10
-4.916555e-09
1.5393393e-10
-4.7373454e-09
1.2071919e-10
-4.5951051e-09
9.4375528e-11
-4.4945902e-09
7.0257054e-11
-4.4394512e-09
4.7599105e-11
2.5143056e-11
-2.2385581e-09
2.7878895e-09
-4.0230652e-09
2.4330137e-09
-5.5702739e-09
2.3193449e-09
-6.2842936e-09
1.8462028e-09
-6.3858522e-09
1.353727e-09
-5.9349338e-09
8.1512869e-10
-5.1752922e-09
4.716555e-10
-4.1891162e-09
1.8234993e-10
-3.0395523e-09
-6.4377417e-11
-1.784032e-09
-2.6742416e-10
-5.3716154e-10
-3.5954805e-10
7.0056526e-10
-4.501212e-10
1.9915427e-09
-6.0224501e-10
3.4057424e-09
-8.3178372e-10
4.7893493e-09
-9.0041348e-10
6.1009028e-09
-9.1731245e-10
7.3172966e-09
-8.9976623e-10
8.4237348e-09
-8.5561516e-10
9.4103827e-09
-7.8964976e-10
1.0268915e-08
-7.0458805e-10
1.0992206e-08
-6.0256001e-10
1.1572014e-08
-4.8541848e-10
1.1998001e-08
-3.557157e-10
1.2261508e-08
-2.1589199e-10
-6.4664295e-11
8.9688487e-10
1.8910903e-09
3.9938094e-09
-6.638581e-10
7.6699712e-09
-1.3567437e-09
1.1333009e-08
-1.8168032e-09
1.5063537e-08
-2.3767745e-09
1.8725967e-08
-2.8472734e-09
2.2323822e-08
-3.1261672e-09
2.5710568e-08
-3.2043586e-09
2.8792115e-08
-3.1458819e-09
3.1539914e-08
-3.0151776e-09
3.4022865e-08
-2.8424489e-09
3.6206813e-08
-2.6340174e-09
3.8021958e-08
-2.4173356e-09
3.9402853e-08
-2.2126235e-09
4.0502414e-08
-1.9999189e-09
4.1372164e-08
-1.7870064e-09
4.2052488e-08
-1.580035e-09
4.2577155e-08
-1.3802263e-09
4.2975287e-08
-1.1877266e-09
4.3272444e-08
-1.0016903e-09
4.349034e-08
-8.2040114e-10
4.3646417e-08
-6.4144077e-10
4.375284e-08
-4.6208462e-10
4.3816844e-08
-2.798425e-10
-8.8893405e-11
1.4818868e-07
-2.3316134e-09
1.4702303e-07
5.0270245e-10
1.4460894e-07
1.0581308e-09
1.4125365e-07
1.5391792e-09
1.3677883e-07
2.0986585e-09
1.3135801e-07
2.574071e-09
1.253664e-07
2.865886e-09
1.191995e-07
2.9629214e-09
1.1312807e-07
2.9258821e-09
1.073074e-07
2.8057841e-09
1.0180902e-07
2.6561746e-09
9.6684543e-08
2.4906861e-09
9.1965878e-08
2.3015277e-09
8.7652786e-08
2.1006463e-09
8.3755879e-08
1.8971486e-09
8.0273356e-08
1.6956621e-09
7.7194281e-08
1.4991742e-09
7.4505299e-08
1.308878e-09
7.2192435e-08
1.1252509e-09
7.024306e-08
9.4779046e-10
6.8647522e-08
7.7523597e-10
6.740043e-08
6.0574519e-10
6.6502012e-08
4.3642142e-10
6.595765e-08
2.6460378e-10
8.4497859e-11
1.2604174e-08
-1.7711316e-09
1.4991365e-08
-1.8843762e-09
1.7671164e-08
-1.6215543e-09
2.0446389e-08
-1.2359366e-09
2.3307371e-08
-7.6221711e-10
2.6250792e-08
-3.692495e-10
2.9198968e-08
-8.2197002e-11
3.199333e-08
1.6864794e-10
3.4587297e-08
3.3200273e-10
3.695474e-08
4.3842865e-10
3.9054616e-08
5.5638559e-10
4.0706377e-08
8.3900975e-10
4.2015777e-08
9.9221097e-10
4.305751e-08
1.0589945e-09
4.3874343e-08
1.0803943e-09
4.4502692e-08
1.0673899e-09
4.4975637e-08
1.0263044e-09
4.5323786e-08
9.6080114e-10
4.5573733e-08
8.7537393e-10
4.5748537e-08
7.7305407e-10
4.5867754e-08
6.5608425e-10
4.5947283e-08
5.2627936e-10
4.5998687e-08
3.8507906e-10
4.6029218e-08
2.3413205e-10
7.1029913e-11
-5.44703e-09
-8.9553496e-10
-6.1785654e-09
-1.1528516e-09
-6.5431481e-09
-1.2569827e-09
-6.4807839e-09
-1.2983112e-09
-5.9599447e-09
-1.283065e-09
-5.1078183e-09
-1.2213822e-09
-4.0506357e-09
-1.1393832e-09
-2.8392748e-09
-1.0427136e-09
-1.5705204e-09
-9.3674959e-10
-3.0217088e-10
-8.2991635e-10
9.7787112e-10
-7.2364962e-10
2.4310851e-09
-6.1419506e-10
3.9304975e-09
-5.0718997e-10
5.3986007e-09
-4.0909512e-10
6.8006427e-09
-3.2163229e-10
8.1129384e-09
-2.4488875e-10
9.3244938e-09
-1.8523265e-10
1.0431416e-08
-1.4610137e-10
1.1420244e-08
-1.1343392e-10
1.2280549e-08
-8.723019e-11
1.3003615e-08
-6.6960746e-11
1.3581523e-08
-5.1606714e-11
1.4006436e-08
-3.9813364e-11
1.4269978e-08
-2.9388693e-11
-1.784258e-11
-2.3708417e-09
-2.3384536e-10
-3.2005893e-09
-3.2310694e-10
-4.050715e-09
-4.0686257e-10
-4.8679004e-09
-4.8113362e-10
-5.5986102e-09
-5.5236487e-10
-6.1352887e-09
-6.8471462e-10
-6.5405728e-09
-7.3411056e-10
-6.8268017e-09
-7.5649643e-10
-7.0008466e-09
-7.6271646e-10
-7.0738799e-09
-7.5689435e-10
-7.055385e-09
-7.4215548e-10
-6.948654e-09
-7.2093641e-10
-6.7634882e-09
-6.9236528e-10
-6.5158083e-09
-6.5678385e-10
-6.2224915e-09
-6.1495709e-10
-5.8990081e-09
-5.6837927e-10
-5.5658162e-09
-5.1843101e-10
-5.2453402e-09
-4.6658303e-10
-4.9464661e-09
-4.1231305e-10
-4.6782114e-09
-3.5548942e-10
-4.4490843e-09
-2.960919e-10
-4.2665935e-09
-2.3410128e-10
-4.136878e-09
-1.6953232e-10
-4.0636772e-09
-1.0259288e-10
-3.4531332e-11
-6.0523034e-10
-1.9676162e-11
-8.7583732e-10
-5.2497547e-11
-1.1919655e-09
-9.0732796e-11
-1.5396751e-09
-1.334233e-10
-1.9151942e-09
-1.7684599e-10
-2.3841533e-09
-2.1575701e-10
-2.8736777e-09
-2.4458883e-10
-3.3645398e-09
-2.6563821e-10
-3.8462664e-09
-2.8099472e-10
-4.3115655e-09
-2.9160105e-10
-4.7548802e-09
-2.9884738e-10
-5.1710982e-09
-3.047256e-10
-5.5512634e-09
-3.1220779e-10
-5.8722994e-09
-3.3575592e-10
-6.1549414e-09
-3.3232346e-10
-6.4034223e-09
-3.1990679e-10
-6.62076e-09
-3.0110196e-10
-6.8104766e-09
-2.768751e-10
-6.9747016e-09
-2.4809673e-10
-7.1149866e-09
-2.1521304e-10
-7.2324242e-09
-1.7866295e-10
-7.3275564e-09
-1.3897758e-10
-7.4002417e-09
-9.6855415e-11
-7.4502619e-09
-5.2581137e-11
-1.2189249e-11
-1.3316136e-10
4.2129114e-11
-2.2204808e-10
3.6390991e-11
-3.3733104e-10
2.4551777e-11
-4.7842919e-10
7.6761353e-12
-6.4476708e-10
-1.0507212e-11
-8.2913231e-10
-3.1391356e-11
-1.0276307e-09
-4.6090504e-11
-1.2329967e-09
-6.0272685e-11
-1.4418501e-09
-7.2142345e-11
-1.6524932e-09
-8.095937e-11
-1.8647137e-09
-8.6628756e-11
-2.0795627e-09
-8.9878849e-11
-2.3005489e-09
-9.122411e-11
-2.5453426e-09
-9.0965247e-11
-2.7886255e-09
-8.904386e-11
-3.0229525e-09
-8.5583507e-11
-3.243319e-09
-8.0739323e-11
-3.4457047e-09
-7.4493637e-11
-3.6267792e-09
-6.7026612e-11
-3.7835271e-09
-5.8469648e-11
-3.9132373e-09
-4.8957414e-11
-4.0135665e-09
-3.8653079e-11
-4.0826948e-09
-2.7731891e-11
-4.1189829e-09
-1.6297702e-11
-4.6316332e-12
1.693065e-11
4.3133318e-11
6.4553605e-12
4.6867033e-11
-1.528042e-11
4.6288168e-11
-4.8305407e-11
4.0701587e-11
-9.0419181e-11
3.1606876e-11
-1.4527877e-10
2.346839e-11
-2.0667908e-10
1.5309814e-11
-2.7312323e-10
6.1713235e-12
-3.4292996e-10
-2.3359014e-12
-4.1434274e-10
-9.5470006e-12
-4.8699031e-10
-1.3981726e-11
-5.5931347e-10
-1.7556331e-11
-6.3066068e-10
-1.9877651e-11
-7.0065212e-10
-2.0974656e-11
-7.6863357e-10
-2.1063365e-11
-8.3379548e-10
-2.0422638e-11
-8.9523924e-10
-1.9296683e-11
-9.5200159e-10
-1.7732483e-11
-1.00316e-09
-1.5869484e-11
-1.0478144e-09
-1.3816506e-11
-1.085136e-09
-1.1637095e-11
-1.1144439e-09
-9.3465684e-12
-1.1352381e-09
-6.9389037e-12
-1.1472345e-09
-4.3025448e-12
-1.3211497e-12
4.9726676e-11
3.1900233e-11
6.1529157e-11
3.5065126e-11
7.3374703e-11
3.4443117e-11
8.0070426e-11
3.4006286e-11
8.0337914e-11
3.1339748e-11
7.6751853e-11
2.7054758e-11
7.1682309e-11
2.0379619e-11
6.3893535e-11
1.3960317e-11
5.2717393e-11
8.8404241e-12
3.9850311e-11
3.3202316e-12
2.7639587e-11
-1.7708781e-12
1.6356461e-11
-6.2731031e-12
6.5807119e-12
-1.0101817e-11
-1.4798668e-12
-1.2914004e-11
-7.8504483e-12
-1.4692717e-11
-1.2749784e-11
-1.5523239e-11
-1.6475355e-11
-1.5571046e-11
-1.9254253e-11
-1.4953516e-11
-2.1306122e-11
-1.3817541e-11
-2.2799435e-11
-1.2323113e-11
-2.3947658e-11
-1.0488784e-11
-2.4874243e-11
-8.4198885e-12
-2.5653528e-11
-6.1595157e-12
-2.6130945e-11
-3.8250174e-12
-1.3372152e-12
3.7691471e-11
2.0309694e-11
5.0357223e-11
2.2399888e-11
6.1594568e-11
2.3206251e-11
7.2447166e-11
2.3154134e-11
8.1918483e-11
2.1868848e-11
8.9504841e-11
1.946879e-11
9.3599122e-11
1.6285706e-11
9.5653985e-11
1.1905802e-11
9.6494401e-11
8.0003374e-12
9.6158338e-11
3.6566094e-12
9.5324571e-11
-9.3681048e-13
9.4471795e-11
-5.4200366e-12
9.3655608e-11
-9.2853489e-12
9.3147749e-11
-1.240587e-11
9.3158916e-11
-1.4703611e-11
9.3787563e-11
-1.6151613e-11
9.4990134e-11
-1.6773343e-11
9.6654688e-11
-1.6617795e-11
9.8608534e-11
-1.5771109e-11
1.0061481e-10
-1.4329113e-11
1.0253286e-10
-1.2406558e-11
1.042011e-10
-1.0087848e-11
1.0550168e-10
-7.4598294e-12
1.0630722e-10
-4.6302983e-12
-1.6171484e-12
1.555898e-11
1.5166899e-11
2.0953752e-11
1.7005489e-11
2.5991412e-11
1.8168952e-11
3.0586311e-11
1.8559581e-11
3.4498891e-11
1.7956596e-11
3.7264119e-11
1.6703871e-11
3.8470854e-11
1.5079262e-11
3.7526755e-11
1.2850173e-11
3.5020289e-11
1.0507056e-11
3.0900385e-11
7.7767449e-12
2.6147865e-11
3.8159219e-12
2.0468484e-11
2.5953712e-13
1.4232974e-11
-3.0496626e-12
7.8193703e-12
-5.9921047e-12
1.4625878e-12
-8.3466817e-12
-4.6232831e-12
-1.0065607e-11
-1.0253724e-11
-1.1142777e-11
-1.5290611e-11
-1.1580793e-11
-1.9651839e-11
-1.1409774e-11
-2.3297851e-11
-1.0683003e-11
-2.6230872e-11
-9.4734457e-12
-2.8458124e-11
-7.8605142e-12
-2.9998113e-11
-5.9197677e-12
-3.0937778e-11
-3.6905679e-12
-1.2691882e-12
1.7398516e-12
1.4676734e-11
2.2524349e-12
1.6493139e-11
2.5169331e-12
1.7904682e-11
2.3785566e-12
1.8698173e-11
1.4752432e-12
1.8860111e-11
-4.1443936e-13
1.8593738e-11
-3.328124e-12
1.7993113e-11
-7.392591e-12
1.6914787e-11
-1.2212059e-11
1.532665e-11
-1.8093437e-11
1.365823e-11
-2.5601421e-11
1.132399e-11
-3.4562404e-11
9.2205847e-12
-4.3735081e-11
6.1230589e-12
-5.3041835e-11
3.3146759e-12
-6.2515484e-11
1.1269762e-12
-7.1852941e-11
-7.2815582e-13
-8.0773545e-11
-2.2221923e-12
-8.9062638e-11
-3.2917304e-12
-9.6549292e-11
-3.9231613e-12
-1.0310823e-10
-4.1241183e-12
-1.0865772e-10
-3.9240076e-12
-1.1314384e-10
-3.3744653e-12
-1.1656001e-10
-2.5036618e-12
-1.1897621e-10
-1.2744448e-12
-2.4969397e-13
-1.3437084e-12
1.5131898e-11
-2.0693631e-12
1.721893e-11
-3.177401e-12
1.9012857e-11
-4.7407295e-12
2.0261632e-11
-6.8582619e-12
2.0977763e-11
-9.6422139e-12
2.1377796e-11
-1.3009539e-11
2.1360529e-11
-1.6984136e-11
2.0889458e-11
-2.1759972e-11
2.0102543e-11
-2.721428e-11
1.9112576e-11
-3.3650993e-11
1.7760724e-11
-4.0563588e-11
1.6133185e-11
-4.850923e-11
1.4068689e-11
-5.6842649e-11
1.1648068e-11
-6.5489231e-11
9.7735178e-12
-7.4037766e-11
7.8203257e-12
-8.2213963e-11
5.9539402e-12
-8.9887804e-11
4.3820359e-12
-9.685474e-11
3.0436921e-12
-1.0297208e-10
1.9931277e-12
-1.0813615e-10
1.2399687e-12
-1.122394e-10
7.2869067e-13
-1.1514276e-10
3.99585e-13
-1.1658506e-10
1.6775636e-13
1.2948627e-13
4.7251062e-13
1.4924112e-11
3.4716471e-13
1.7344343e-11
-2.183408e-14
1.9381935e-11
-6.9356421e-13
2.0933444e-11
-1.7820714e-12
2.2066349e-11
-3.2410891e-12
2.2836886e-11
-4.9646427e-12
2.3084145e-11
-6.9000079e-12
2.2824874e-11
-9.5405363e-12
2.2743111e-11
-1.2732105e-11
2.2304171e-11
-1.6444705e-11
2.1473338e-11
-2.0755671e-11
2.0444152e-11
-2.577393e-11
1.9086938e-11
-3.145502e-11
1.7329136e-11
-3.7178564e-11
1.549703e-11
-4.2945157e-11
1.3586877e-11
-4.8696685e-11
1.1705418e-11
-5.4190015e-11
9.8753079e-12
-5.9238041e-11
8.0916534e-12
-6.370578e-11
6.460797e-12
-6.751972e-11
5.0538338e-12
-7.0587771e-11
3.7966625e-12
-7.2842653e-11
2.654386e-12
-7.4259986e-11
1.5850096e-12
5.1368685e-13
2.6239056e-12
1.4113868e-11
3.6002761e-12
1.6367979e-11
4.3873847e-12
1.8594856e-11
4.9896238e-12
2.0331247e-11
5.3663417e-12
2.1689678e-11
5.5434347e-12
2.265984e-11
5.8758908e-12
2.2751734e-11
5.6921711e-12
2.3008633e-11
5.1770238e-12
2.3258291e-11
4.1982348e-12
2.3282986e-11
2.6469025e-12
2.3024689e-11
8.3685118e-13
2.2254214e-11
-1.3570566e-12
2.1280848e-11
-4.0188586e-12
1.9990933e-11
-6.9792698e-12
1.8457428e-11
-1.0102435e-11
1.6710023e-11
-1.343051e-11
1.5033467e-11
-1.6741382e-11
1.3186149e-11
-1.9941833e-11
1.1292067e-11
-2.2918889e-11
9.4378124e-12
-2.5520359e-11
7.655259e-12
-2.7642381e-11
5.9186371e-12
-2.9216911e-11
4.2288659e-12
-3.0180943e-11
2.5489949e-12
8.3162491e-13
3.7520115e-12
1.3019952e-11
4.9320047e-12
1.5187933e-11
6.5702109e-12
1.695663e-11
8.0353091e-12
1.886615e-11
9.4523959e-12
2.0272604e-11
1.0800061e-11
2.1312195e-11
1.1827686e-11
2.1724131e-11
1.2948808e-11
2.1887534e-11
1.375931e-11
2.244781e-11
1.4131288e-11
2.2911027e-11
1.4284451e-11
2.287154e-11
1.4086298e-11
2.2452376e-11
1.3593071e-11
2.1774081e-11
1.2767725e-11
2.081628e-11
1.1627666e-11
1.9597484e-11
1.0180152e-11
1.8157529e-11
8.658463e-12
1.6555144e-11
7.1206179e-12
1.4723977e-11
5.4703444e-12
1.2942321e-11
3.8448343e-12
1.10633e-11
2.3592736e-12
9.1407945e-12
1.100761e-12
7.1771222e-12
1.4147266e-13
5.188125e-12
-4.4764007e-13
3.1380827e-12
1.0020395e-12
3.9267943e-12
1.1801634e-11
5.3002179e-12
1.3814423e-11
6.6683135e-12
1.5588471e-11
8.4607503e-12
1.7073675e-11
1.0214008e-11
1.8519327e-11
1.1909955e-11
1.9616239e-11
1.3304637e-11
2.0329447e-11
1.4744434e-11
2.044774e-11
1.6047892e-11
2.1144356e-11
1.7252794e-11
2.170613e-11
1.8290472e-11
2.1833868e-11
1.9071696e-11
2.1671156e-11
1.9615774e-11
2.1230005e-11
1.9908553e-11
2.05235e-11
1.9937801e-11
1.9568234e-11
1.9714809e-11
1.8380515e-11
1.9306468e-11
1.6963478e-11
1.8682979e-11
1.5347456e-11
1.800482e-11
1.3620466e-11
1.7299654e-11
1.1768451e-11
1.6622204e-11
9.8182278e-12
1.6014836e-11
7.784472e-12
1.5470059e-11
5.7328818e-12
1.5193016e-11
3.4151113e-12
9.6783295e-13
3.5350846e-12
1.0680362e-11
4.7934134e-12
1.2556004e-11
6.2305409e-12
1.4151266e-11
7.6940804e-12
1.5610075e-11
9.3596506e-12
1.6853714e-11
1.1064192e-11
1.7911668e-11
1.2647887e-11
1.8745733e-11
1.3924497e-11
1.9171117e-11
1.5467265e-11
1.960158e-11
1.6929183e-11
2.0244207e-11
1.831376e-11
2.0449286e-11
1.9565332e-11
2.0419579e-11
2.0643035e-11
2.0152298e-11
2.1524057e-11
1.9642473e-11
2.2197671e-11
1.8894615e-11
2.2678369e-11
1.789981e-11
2.296388e-11
1.6677958e-11
2.3058965e-11
1.5252362e-11
2.303579e-11
1.364363e-11
2.2933171e-11
1.1871057e-11
2.2803791e-11
9.9475945e-12
2.2712424e-11
7.8758236e-12
2.2886569e-11
5.5587198e-12
2.2863316e-11
3.4383534e-12
1.3289318e-12
3.1166873e-12
9.6956475e-12
4.2973376e-12
1.1375267e-11
5.5592111e-12
1.2889314e-11
6.9359105e-12
1.4233308e-11
8.3874781e-12
1.5402093e-11
9.9098607e-12
1.6389245e-11
1.1454052e-11
1.7201511e-11
1.2792018e-11
1.7833127e-11
1.4308155e-11
1.8085425e-11
1.5800405e-11
1.8751942e-11
1.7272542e-11
1.8977138e-11
1.8690788e-11
1.9001322e-11
2.0010062e-11
1.8833014e-11
2.1203942e-11
1.8448585e-11
2.225175e-11
1.7846799e-11
2.3128355e-11
1.7023195e-11
2.3832719e-11
1.5973584e-11
2.4379803e-11
1.4705267e-11
2.4788848e-11
1.3234574e-11
2.5079375e-11
1.1580518e-11
2.5266827e-11
9.7601298e-12
2.5352719e-11
7.7899171e-12
2.5221787e-11
5.6896368e-12
2.5203312e-11
3.456818e-12
1.1638284e-12
2.8864087e-12
8.7844052e-12
3.9573247e-12
1.0304269e-11
5.0870821e-12
1.1759483e-11
6.3413534e-12
1.2978972e-11
7.6857718e-12
1.4057621e-11
9.0875257e-12
1.4987448e-11
1.05433e-11
1.5745702e-11
1.2016268e-11
1.6360131e-11
1.3352477e-11
1.6749193e-11
1.4933163e-11
1.7171237e-11
1.6426127e-11
1.7484157e-11
1.7899264e-11
1.7528171e-11
1.9345746e-11
1.738652e-11
2.0702293e-11
1.7092026e-11
2.1941704e-11
1.6607377e-11
2.3066044e-11
1.5898844e-11
2.40607e-11
1.4978918e-11
2.4912169e-11
1.3853787e-11
2.561993e-11
1.2526801e-11
2.6189692e-11
1.1010744e-11
2.6623643e-11
9.3261669e-12
2.692259e-11
7.4909568e-12
2.7030629e-11
5.5815842e-12
2.7083768e-11
3.4036696e-12
1.0021547e-12
2.6979001e-12
7.9660124e-12
3.6647956e-12
9.3373123e-12
4.7902826e-12
1.0633936e-11
5.9853722e-12
1.1783826e-11
7.2668977e-12
1.2776044e-11
8.6399307e-12
1.3614372e-11
1.0046464e-11
1.4339132e-11
1.1435422e-11
1.4971142e-11
1.2772377e-11
1.5412213e-11
1.4378084e-11
1.5565508e-11
1.5918155e-11
1.5944067e-11
1.7440733e-11
1.6005577e-11
1.8945928e-11
1.5881309e-11
2.0414186e-11
1.5623755e-11
2.1783335e-11
1.5238216e-11
2.3066559e-11
1.4615609e-11
2.4241566e-11
1.3803899e-11
2.5301238e-11
1.2794105e-11
2.6231638e-11
1.159639e-11
2.7027957e-11
1.0214414e-11
2.7695759e-11
8.6583547e-12
2.8261089e-11
6.9256146e-12
2.8860522e-11
4.9821401e-12
2.9193343e-11
3.0708413e-12
1.206368e-12
2.5929967e-12
7.1718852e-12
3.5481584e-12
8.3821034e-12
4.6503693e-12
9.5316782e-12
5.8058699e-12
1.0628282e-11
7.0256851e-12
1.1556188e-11
8.3007431e-12
1.2339276e-11
9.6259184e-12
1.3013924e-11
1.1033866e-11
1.3563165e-11
1.2482687e-11
1.3963365e-11
1.3884831e-11
1.4163341e-11
1.5509928e-11
1.431895e-11
1.707947e-11
1.4436017e-11
1.8601311e-11
1.4359452e-11
2.0102915e-11
1.4122137e-11
2.158797e-11
1.3753148e-11
2.2985619e-11
1.3217948e-11
2.4296621e-11
1.2492886e-11
2.5493987e-11
1.1596728e-11
2.6563625e-11
1.0526742e-11
2.7492755e-11
9.2852743e-12
2.8272926e-11
7.878175e-12
2.888187e-11
6.3166604e-12
2.9235787e-11
4.6282132e-12
2.9463019e-11
2.8436038e-12
9.7711864e-13
2.5177634e-12
6.4071835e-12
3.3918579e-12
7.507969e-12
4.3790089e-12
8.5444879e-12
5.5019897e-12
9.5052629e-12
6.7017002e-12
1.0356442e-11
7.9603174e-12
1.1080626e-11
9.2891841e-12
1.1685027e-11
1.0670599e-11
1.2181722e-11
1.2100225e-11
1.2533713e-11
1.3502788e-11
1.2760756e-11
1.5025571e-11
1.2796146e-11
1.660663e-11
1.285494e-11
1.8156334e-11
1.2809731e-11
1.9669852e-11
1.2608604e-11
2.1173656e-11
1.2249331e-11
2.2632386e-11
1.1759207e-11
2.400167e-11
1.1123591e-11
2.5264957e-11
1.0333432e-11
2.6406778e-11
9.3849112e-12
2.7407688e-11
8.2843565e-12
2.8249852e-11
7.036003e-12
2.8916863e-11
5.6496413e-12
2.9385351e-11
4.1597175e-12
2.9676464e-11
2.5524868e-12
8.5447976e-13
2.3531012e-12
5.6818941e-12
3.1942906e-12
6.6667438e-12
4.1442079e-12
7.5945355e-12
5.2054049e-12
8.4440319e-12
6.3622869e-12
9.1995278e-12
7.5897523e-12
9.8531301e-12
8.878905e-12
1.0395845e-11
1.0237553e-11
1.0823048e-11
1.1615585e-11
1.1155657e-11
1.3036227e-11
1.1340091e-11
1.4410115e-11
1.1422238e-11
1.5933442e-11
1.1331594e-11
1.7466533e-11
1.1276624e-11
1.8990314e-11
1.1084808e-11
2.0455544e-11
1.0784087e-11
2.1883368e-11
1.0331372e-11