/*--------------------------------*- C++ -*----------------------------------*\
| =========                 |                                                 |
| \\      /  F ield         | OpenFOAM: The Open Source CFD Toolbox           |
|  \\    /   O peration     | Version:  4.0                                   |
|   \\  /    A nd           | Web:      www.OpenFOAM.org                      |
|    \\/     M anipulation  |                                                 |
\*---------------------------------------------------------------------------*/
FoamFile
{
    version     2.0;
    format      ascii;
    class       volScalarField;
    location    "0.38";
    object      nut;
}
// * * * * * * * * * * * * * * * * * * * * * * * * * * * * * * * * * * * * * //

dimensions      [0 2 -1 0 0 0 0];

internalField   nonuniform List<scalar> 
1740
(
4.0277622e-05
1.5274793e-05
1.2078697e-06
2.9506716e-05
7.9875175e-06
1.7919792e-06
3.6489477e-05
5.7902209e-06
2.2924268e-06
2.5927424e-05
4.8787342e-06
2.7300888e-06
1.9633105e-05
4.3846301e-06
3.0949463e-06
1.5931773e-05
4.0614457e-06
3.3803752e-06
1.3732023e-05
3.8562265e-06
3.6334695e-06
1.2200894e-05
3.7258776e-06
3.8578167e-06
1.079385e-05
3.6410769e-06
4.0170306e-06
9.650832e-06
3.5781673e-06
4.1614173e-06
8.7712201e-06
3.5371689e-06
4.2786353e-06
7.9682433e-06
3.5005304e-06
4.3290428e-06
7.442738e-06
3.482913e-06
4.4224258e-06
7.0088756e-06
3.4977019e-06
4.5063191e-06
6.6136638e-06
3.49322e-06
4.4982541e-06
6.2416951e-06
3.4763525e-06
4.5390899e-06
5.8969381e-06
3.4945939e-06
4.6116206e-06
5.6018831e-06
3.5470069e-06
4.6463542e-06
5.3562251e-06
3.5507699e-06
4.6418499e-06
5.150047e-06
3.5318108e-06
4.6290958e-06
4.9882924e-06
3.5280436e-06
4.6497676e-06
4.8247306e-06
3.5466362e-06
4.6594995e-06
4.6833115e-06
3.564437e-06
4.6553323e-06
4.5578331e-06
3.5560239e-06
4.6527967e-06
4.4636145e-06
3.5517343e-06
4.6426516e-06
4.3792246e-06
3.5557515e-06
4.6394809e-06
4.2954129e-06
3.5585574e-06
4.6304069e-06
4.2120257e-06
3.5797714e-06
4.6115168e-06
4.1598629e-06
3.5873372e-06
4.5687733e-06
3.1169862e-06
3.4011163e-06
4.271167e-06
1.9343421e-06
2.1940177e-06
4.3892678e-06
7.1885084e-06
7.371008e-06
6.7209025e-06
6.5371614e-06
6.7420636e-06
6.3718244e-06
5.1846714e-06
5.1236352e-06
4.8760097e-06
4.3390548e-06
4.2678507e-06
4.1316486e-06
3.7850259e-06
3.7426117e-06
3.6825104e-06
3.4000754e-06
3.3827169e-06
3.3672991e-06
3.1005755e-06
3.0982353e-06
3.1059012e-06
2.8289306e-06
2.8338854e-06
2.8514241e-06
2.5470643e-06
2.5545656e-06
2.5743971e-06
2.2339516e-06
2.241425e-06
2.2595246e-06
1.8860031e-06
1.8922421e-06
1.9068085e-06
1.5169316e-06
1.5215472e-06
1.532141e-06
1.1538724e-06
1.1569418e-06
1.1639293e-06
8.280371e-07
8.2986767e-07
8.3402438e-07
5.6281539e-07
5.6378623e-07
5.6599739e-07
3.6632384e-07
3.6677323e-07
3.6781117e-07
2.3250798e-07
2.3268248e-07
2.3310349e-07
1.480258e-07
1.4808964e-07
1.4824588e-07
9.7944371e-08
9.7965861e-08
9.8020003e-08
6.9810689e-08
6.9820837e-08
6.9846785e-08
5.4972246e-08
5.498304e-08
5.5009242e-08
4.786273e-08
4.7877018e-08
4.7910694e-08
4.508617e-08
4.5103391e-08
4.5143676e-08
4.4655535e-08
4.467442e-08
4.4718479e-08
4.5447963e-08
4.5467454e-08
4.5512739e-08
4.6849245e-08
4.6868629e-08
4.6913373e-08
4.8534784e-08
4.8553612e-08
4.8596741e-08
5.0339355e-08
5.035736e-08
5.0398292e-08
5.2181947e-08
5.2198982e-08
5.2237448e-08
5.4023859e-08
5.4039858e-08
5.4075775e-08
5.584631e-08
5.5861253e-08
5.5894644e-08
5.7639036e-08
5.7652935e-08
5.7683875e-08
5.9394807e-08
5.9407689e-08
5.943628e-08
6.110696e-08
6.1118865e-08
6.1145222e-08
6.2768434e-08
6.2779407e-08
6.2803655e-08
6.4371508e-08
6.4381602e-08
6.440387e-08
6.5907882e-08
6.5917152e-08
6.5937576e-08
6.7368925e-08
6.7377431e-08
6.7396153e-08
6.8746011e-08
6.8753819e-08
6.8770988e-08
7.0030862e-08
7.0038039e-08
7.0053811e-08
7.1215799e-08
7.1222417e-08
7.123695e-08
7.2293803e-08
7.2299934e-08
7.2313393e-08
7.3258249e-08
7.326397e-08
7.327652e-08
7.410214e-08
7.4107536e-08
7.4119347e-08
7.4808984e-08
7.4814112e-08
7.4825326e-08
7.5360534e-08
7.5365454e-08
7.5376205e-08
7.5725061e-08
7.5729827e-08
7.5740236e-08
7.5839293e-08
7.5843945e-08
7.5854101e-08
7.5527998e-08
7.5532532e-08
7.5542451e-08
4.1552932e-06
4.4877595e-06
6.7425116e-06
8.4667068e-06
5.9915878e-06
6.0350943e-06
4.7259218e-06
4.8285164e-06
4.0812849e-06
4.1878368e-06
3.6841192e-06
3.7841398e-06
3.3949637e-06
3.4858016e-06
3.1444265e-06
3.224775e-06
2.8918071e-06
2.9608324e-06
2.6114212e-06
2.6686261e-06
2.2904915e-06
2.3358459e-06
1.9307262e-06
1.9647863e-06
1.5491949e-06
1.5731367e-06
1.1750767e-06
1.190629e-06
8.406425e-07
8.4986951e-07
5.6953372e-07
5.7448612e-07
3.694947e-07
3.7187986e-07
2.3380921e-07
2.3483228e-07
1.4851546e-07
1.4891714e-07
9.8118315e-08
9.8271453e-08
6.9894915e-08
6.9971282e-08
5.5054362e-08
5.5121882e-08
4.7965709e-08
4.8044087e-08
4.5208169e-08
4.5298022e-08
4.4788401e-08
4.4884789e-08
4.5584164e-08
4.5681965e-08
4.6983515e-08
4.7079032e-08
4.8663935e-08
4.8754978e-08
5.0461689e-08
5.0547199e-08
5.2296716e-08
5.2376342e-08
5.4130873e-08
5.4204649e-08
5.594568e-08
5.6013828e-08
5.7731025e-08
5.7793842e-08
5.9479746e-08
5.953755e-08
6.1185216e-08
6.1238323e-08
6.284039e-08
6.288911e-08
6.4437562e-08
6.4482202e-08
6.5968446e-08
6.600931e-08
6.7424426e-08
6.7461825e-08
6.8796897e-08
6.8831146e-08
7.0077595e-08
7.0109019e-08
7.1258856e-08
7.1287782e-08
7.2333669e-08
7.2360429e-08
7.3295415e-08
7.3320336e-08
7.4137104e-08
7.4160504e-08
7.4842169e-08
7.4864347e-08
7.5392341e-08
7.5413573e-08
7.5755846e-08
7.5776381e-08
7.5869327e-08
7.5889376e-08
7.5557347e-08
7.5577034e-08
5.8696993e-10
1.328402e-08
1.9307253e-07
8.2672603e-07
1.6442368e-06
2.2310529e-06
2.5760328e-06
2.7843015e-06
2.9282177e-06
3.0433946e-06
3.1469602e-06
3.2528231e-06
3.3578722e-06
3.4610044e-06
3.5614314e-06
3.6578075e-06
3.7476916e-06
3.8269728e-06
3.8889941e-06
3.9232295e-06
3.9131391e-06
3.832561e-06
3.6390648e-06
3.2559375e-06
2.4443486e-06
2.1933914e-10
2.6879422e-08
3.5983133e-07
1.3772792e-06
2.57076e-06
3.3794215e-06
3.8526458e-06
4.1592443e-06
4.3937607e-06
4.5989363e-06
4.7953238e-06
4.9953841e-06
5.1968825e-06
5.3987732e-06
5.5993863e-06
5.7959808e-06
5.9838232e-06
6.1551704e-06
6.2973869e-06
6.3902843e-06
6.4016758e-06
6.279408e-06
5.9359879e-06
5.2109569e-06
3.676478e-06
6.6401213e-10
7.8809355e-08
8.572841e-07
2.5068883e-06
3.7920606e-06
4.5284936e-06
4.9921173e-06
5.3377882e-06
5.6380421e-06
5.9252299e-06
6.2146278e-06
6.5129383e-06
6.8186739e-06
7.1306369e-06
7.4473608e-06
7.7657456e-06
8.0795481e-06
8.3788039e-06
8.645931e-06
8.8523395e-06
8.951599e-06
8.8664246e-06
8.4618891e-06
7.4803672e-06
5.2801828e-06
3.1313533e-09
2.8535787e-07
2.0624172e-06
4.0023801e-06
5.0424308e-06
5.629767e-06
6.0362863e-06
6.3786763e-06
6.707084e-06
7.0400838e-06
7.3884747e-06
7.7552929e-06
8.1369995e-06
8.5322404e-06
8.9408007e-06
9.3612404e-06
9.7885144e-06
1.0213035e-05
1.0618136e-05
1.0975994e-05
1.1240574e-05
1.1333779e-05
1.1112512e-05
1.0268822e-05
7.8762462e-06
2.338729e-08
1.138644e-06
3.9888562e-06
5.5972637e-06
6.4485704e-06
6.9691175e-06
7.3521929e-06
7.6980177e-06
8.0470824e-06
8.4013677e-06
8.7743157e-06
9.1725997e-06
9.5862097e-06
1.0010245e-05
1.0447454e-05
1.0902367e-05
1.137418e-05
1.1858168e-05
1.2344282e-05
1.2814237e-05
1.3236984e-05
1.356257e-05
1.3714804e-05
1.3598582e-05
1.3186183e-05
1.9505023e-07
2.7565079e-06
5.9041213e-06
7.7093604e-06
8.6245696e-06
9.0414139e-06
9.237162e-06
9.3733917e-06
9.5113726e-06
9.6692691e-06
9.8552031e-06
1.0075521e-05
1.0330768e-05
1.0621126e-05
1.0947781e-05
1.1311678e-05
1.1712851e-05
1.2149194e-05
1.261552e-05
1.3101831e-05
1.3590352e-05
1.4052301e-05
1.4444845e-05
1.4719908e-05
1.4820854e-05
4.3328151e-06
4.3121792e-06
4.3612539e-06
4.4755846e-06
4.653534e-06
4.8845804e-06
5.1587992e-06
5.4734717e-06
5.830528e-06
6.2316087e-06
6.6761512e-06
7.161078e-06
7.6806117e-06
8.2275832e-06
8.7951959e-06
9.3785824e-06
9.9750951e-06
1.0583162e-05
1.120068e-05
1.1822907e-05
1.2439492e-05
1.3031431e-05
1.3568358e-05
1.4014075e-05
1.4301793e-05
9.1204011e-06
9.3764529e-06
9.7717647e-06
1.0190804e-05
1.0367911e-05
1.033179e-05
1.021439e-05
1.0116815e-05
1.0079012e-05
1.0102826e-05
1.0184136e-05
1.0318373e-05
1.0503626e-05
1.0739591e-05
1.1026073e-05
1.1362421e-05
1.174662e-05
1.2174658e-05
1.2639436e-05
1.3128744e-05
1.3622194e-05
1.4088119e-05
1.4480769e-05
1.4750708e-05
1.4844286e-05
6.407842e-06
6.8170147e-06
7.2482891e-06
7.6487958e-06
7.9510369e-06
8.1681125e-06
8.3600327e-06
8.5664633e-06
8.7960741e-06
9.0632608e-06
9.3648562e-06
9.6918423e-06
1.003913e-05
1.0412987e-05
1.0817234e-05
1.1252411e-05
1.1715569e-05
1.2199529e-05
1.2690997e-05
1.3167573e-05
1.3593246e-05
1.3912522e-05
1.4043858e-05
1.3889216e-05
1.3426809e-05
5.1410596e-06
5.4975771e-06
5.8479902e-06
6.1644708e-06
6.4301211e-06
6.6575783e-06
6.8770964e-06
7.1090498e-06
7.3645294e-06
7.6500734e-06
7.9635965e-06
8.3023549e-06
8.6661109e-06
9.0559597e-06
9.4714949e-06
9.9091606e-06
1.0361037e-05
1.081319e-05
1.1243089e-05
1.161547e-05
1.1875421e-05
1.1935174e-05
1.1642375e-05
1.06794e-05
8.0953828e-06
4.4297243e-06
4.7189942e-06
5.0089928e-06
5.2790522e-06
5.523366e-06
5.7499895e-06
5.9733422e-06
6.2061318e-06
6.4568235e-06
6.7294791e-06
7.0237526e-06
7.3384331e-06
7.6732056e-06
8.0271526e-06
8.3976725e-06
8.7781731e-06
9.1570458e-06
9.5157747e-06
9.8262038e-06
1.004642e-05
1.0114195e-05
9.9354882e-06
9.3611163e-06
8.1274945e-06
5.6022795e-06
3.9709772e-06
4.199018e-06
4.4354688e-06
4.6643712e-06
4.8818643e-06
5.0925229e-06
5.3043608e-06
5.5250035e-06
5.760064e-06
6.012349e-06
6.2821093e-06
6.5685585e-06
6.8706176e-06
7.185911e-06
7.5096043e-06
7.8332812e-06
8.1435507e-06
8.4203947e-06
8.6350214e-06
8.746964e-06
8.699979e-06
8.4155895e-06
7.7804447e-06
6.6096364e-06
4.427902e-06
3.6336749e-06
3.8145473e-06
4.0073131e-06
4.2002134e-06
4.3896545e-06
4.5776234e-06
4.7685719e-06
4.9672067e-06
5.1772017e-06
5.4005411e-06
5.637588e-06
5.887623e-06
6.149075e-06
6.4188483e-06
6.6914016e-06
6.9578209e-06
7.2048152e-06
7.4135113e-06
7.5581207e-06
7.6044738e-06
7.5084105e-06
7.2136201e-06
6.6463319e-06
5.6905372e-06
3.98915e-06
3.3437892e-06
3.4884932e-06
3.6457628e-06
3.8071713e-06
3.9693991e-06
4.1328578e-06
4.2998817e-06
4.4732768e-06
4.6553631e-06
4.8474449e-06
5.0497042e-06
5.261329e-06
5.4804567e-06
5.7037148e-06
5.9255674e-06
6.1376128e-06
6.327863e-06
6.4800296e-06
6.5729378e-06
6.5802725e-06
6.4710382e-06
6.2115736e-06
5.7716415e-06
5.1461203e-06
4.4191168e-06
3.0568649e-06
3.1727135e-06
3.3002644e-06
3.4335804e-06
3.5697419e-06
3.7083127e-06
3.8503357e-06
3.9973782e-06
4.1508136e-06
4.3113973e-06
4.4790877e-06
4.6529786e-06
4.8311441e-06
5.0103078e-06
5.1853891e-06
5.3490164e-06
5.4910782e-06
5.5983976e-06
5.6546762e-06
5.6409853e-06
5.5373279e-06
5.3264964e-06
5.003591e-06
4.6015967e-06
4.2560655e-06
2.7451111e-06
2.8367761e-06
2.93855e-06
3.0462745e-06
3.1574874e-06
3.2713588e-06
3.3881501e-06
3.5086257e-06
3.6335213e-06
3.7631933e-06
3.8974281e-06
4.0353037e-06
4.1750265e-06
4.3136935e-06
4.4469913e-06
4.5688901e-06
4.6714127e-06
4.7445565e-06
4.7765137e-06
4.7544035e-06
4.66589e-06
4.5024429e-06
4.2659307e-06
3.9821063e-06
3.6828597e-06
2.3950496e-06
2.4657064e-06
2.5446016e-06
2.628823e-06
2.7163707e-06
2.8062791e-06
2.8983771e-06
2.9929114e-06
3.0901975e-06
3.1903343e-06
3.2930196e-06
3.3974136e-06
3.5020039e-06
3.6044433e-06
3.7013646e-06
3.788221e-06
3.8591976e-06
3.9072676e-06
3.9244766e-06
3.9025464e-06
3.8338607e-06
3.712667e-06
3.5351449e-06
3.2906896e-06
2.8861554e-06
2.0086538e-06
2.0609084e-06
2.1194967e-06
2.1823884e-06
2.248021e-06
2.3154529e-06
2.3842976e-06
2.4545032e-06
2.5261205e-06
2.5990917e-06
2.6731073e-06
2.7474832e-06
2.8210648e-06
2.892134e-06
2.9583141e-06
3.0165092e-06
3.0629046e-06
3.0930665e-06
3.1021739e-06
3.0853514e-06
3.0379258e-06
2.9549575e-06
2.8277866e-06
2.6289113e-06
2.2341331e-06
1.6037777e-06
1.6402721e-06
1.6813147e-06
1.7255183e-06
1.771709e-06
1.8190704e-06
1.867148e-06
1.9157391e-06
1.964751e-06
2.0140517e-06
2.0633666e-06
2.1121939e-06
2.1597465e-06
2.2049054e-06
2.2461911e-06
2.2817621e-06
2.3094587e-06
2.3268992e-06
2.3316148e-06
2.3211345e-06
2.2927654e-06
2.2424206e-06
2.1607872e-06
2.0213235e-06
1.7270062e-06
1.2104989e-06
1.234189e-06
1.2608897e-06
1.289683e-06
1.3197313e-06
1.3503885e-06
1.3812308e-06
1.4120103e-06
1.4425727e-06
1.4727696e-06
1.5023878e-06
1.5310975e-06
1.5584236e-06
1.5837345e-06
1.6062471e-06
1.6250553e-06
1.6391807e-06
1.6476393e-06
1.6494917e-06
1.6437813e-06
1.6291428e-06
1.6026468e-06
1.5569666e-06
1.4733454e-06
1.2937382e-06
8.6167147e-07
8.7577029e-07
8.9168326e-07
9.0882744e-07
9.2663986e-07
9.4465323e-07
9.6252565e-07
9.8002997e-07
9.970117e-07
1.0133418e-06
1.0288715e-06
1.0434091e-06
1.0567091e-06
1.0684758e-06
1.0783803e-06
1.086095e-06
1.0913304e-06
1.0938676e-06
1.0935557e-06
1.0902072e-06
1.083252e-06
1.070921e-06
1.0485921e-06
1.0054449e-06
9.1275579e-07
5.8084626e-07
5.8846628e-07
5.9707223e-07
6.0631387e-07
6.1583649e-07
6.2532857e-07
6.3454574e-07
6.4331346e-07
6.5150875e-07
6.5903664e-07
6.6580838e-07
6.7172825e-07
6.7669277e-07
6.8059862e-07
6.8336012e-07
6.8493316e-07
6.8533479e-07
6.8464803e-07
6.8299818e-07
6.8047007e-07
6.768918e-07
6.7138959e-07
6.6162579e-07
6.425379e-07
6.0230045e-07
3.7496937e-07
3.7868922e-07
3.8289242e-07
3.8737964e-07
3.9194137e-07
3.9638561e-07
4.0055426e-07
4.0433008e-07
4.0762953e-07
4.1039265e-07
4.1257327e-07
4.1413348e-07
4.1504474e-07
4.152935e-07
4.1489175e-07
4.1389626e-07
4.124125e-07
4.1058021e-07
4.0854771e-07
4.0643133e-07
4.0421658e-07
4.015632e-07
3.9753363e-07
3.9024339e-07
3.7548099e-07
2.3617833e-07
2.3781321e-07
2.3966115e-07
2.4161578e-07
2.4356063e-07
2.4538641e-07
2.4700008e-07
2.4833087e-07
2.49329e-07
2.4996119e-07
2.5020665e-07
2.5005542e-07
2.495099e-07
2.4858836e-07
2.4732422e-07
2.4579138e-07
2.4409322e-07
2.4233552e-07
2.4061049e-07
2.3898978e-07
2.3750098e-07
2.3604462e-07
2.3431016e-07
2.3169374e-07
2.2682723e-07
1.4945544e-07
1.5011379e-07
1.5085433e-07
1.5162289e-07
1.52358e-07
1.5300083e-07
1.5350053e-07
1.5381781e-07
1.5392577e-07
1.538079e-07
1.5345695e-07
1.5287449e-07
1.5207207e-07
1.5107395e-07
1.499234e-07
1.4868413e-07
1.474383e-07
1.4623273e-07
1.4509222e-07
1.4403583e-07
1.4309584e-07
1.422569e-07
1.414256e-07
1.4041264e-07
1.3874497e-07
9.8483011e-08
9.8745592e-08
9.9041067e-08
9.9342433e-08
9.9618677e-08
9.9838866e-08
9.9976089e-08
1.0000931e-07
9.9924224e-08
9.9712619e-08
9.9372022e-08
9.890549e-08
9.8321953e-08
9.7637398e-08
9.6877874e-08
9.6076459e-08
9.5286956e-08
9.4582467e-08
9.3987702e-08
9.3428399e-08
9.2924792e-08
9.2481957e-08
9.2065879e-08
9.1595216e-08
9.0847682e-08
7.0078617e-08
7.0214009e-08
7.0369005e-08
7.0530439e-08
7.0682648e-08
7.0809726e-08
7.0897291e-08
7.0933902e-08
7.0911433e-08
7.0824954e-08
7.067261e-08
7.0455548e-08
7.0178252e-08
6.9849282e-08
6.9482552e-08
6.9098415e-08
6.8722296e-08
6.8396336e-08
6.8173238e-08
6.7974651e-08
6.7787179e-08
6.7614053e-08
6.743477e-08
6.7192693e-08
6.6730293e-08
5.5213693e-08
5.5328884e-08
5.5463472e-08
5.561091e-08
5.5763056e-08
5.5911321e-08
5.6047595e-08
5.6164919e-08
5.625781e-08
5.6322255e-08
5.6355747e-08
5.6357411e-08
5.6328372e-08
5.6272358e-08
5.6196476e-08
5.611207e-08
5.6030776e-08
5.5976664e-08
5.5985155e-08
5.602071e-08
5.603938e-08
5.6040956e-08
5.6010029e-08
5.59044e-08
5.5609808e-08
4.8147037e-08
4.827439e-08
4.8424097e-08
4.859255e-08
4.8775032e-08
4.8966273e-08
4.916095e-08
4.9354031e-08
4.9540977e-08
4.971788e-08
4.9881598e-08
5.0029988e-08
5.016226e-08
5.0279425e-08
5.0384766e-08
5.0484381e-08
5.0583415e-08
5.0695092e-08
5.0840686e-08
5.1013022e-08
5.1152254e-08
5.1256795e-08
5.1313688e-08
5.1288647e-08
5.1086135e-08
4.5413953e-08
4.5555956e-08
4.5722711e-08
4.5911774e-08
4.6119829e-08
4.6342983e-08
4.6577042e-08
4.6817735e-08
4.7060899e-08
4.730265e-08
4.7539594e-08
4.7769076e-08
4.7989475e-08
4.8200488e-08
4.8403365e-08
4.8601027e-08
4.8797816e-08
4.8998918e-08
4.9217488e-08
4.9459506e-08
4.9661031e-08
4.9819591e-08
4.992242e-08
4.9937832e-08
4.9780061e-08
4.500799e-08
4.5157934e-08
4.533348e-08
4.5532573e-08
4.5752416e-08
4.5989663e-08
4.6240606e-08
4.6501358e-08
4.6768032e-08
4.7036932e-08
4.7304771e-08
4.75689e-08
4.7827525e-08
4.8079894e-08
4.8326419e-08
4.856875e-08
4.8809939e-08
4.905247e-08
4.9304428e-08
4.9574988e-08
4.9803644e-08
4.9986504e-08
5.0109582e-08
5.0140924e-08
4.9996099e-08
4.5806197e-08
4.5956634e-08
4.6132116e-08
4.6330702e-08
4.654981e-08
4.6786376e-08
4.7037004e-08
4.7298133e-08
4.7566208e-08
4.7837874e-08
4.8110167e-08
4.8380712e-08
4.8647888e-08
4.891094e-08
4.9170027e-08
4.9426215e-08
4.9681457e-08
4.9938597e-08
5.020142e-08
5.0478328e-08
5.0715105e-08
5.0906038e-08
5.1035395e-08
5.1069438e-08
5.0920141e-08
4.7199742e-08
4.7345248e-08
4.7514334e-08
4.7705117e-08
4.7915174e-08
4.8141677e-08
4.8381528e-08
4.8631516e-08
4.8888474e-08
4.914946e-08
4.9411922e-08
4.9673869e-08
4.9933993e-08
5.0191742e-08
5.0447314e-08
5.0701599e-08
5.0956137e-08
5.1213264e-08
5.1475009e-08
5.1747679e-08
5.1983272e-08
5.217424e-08
5.2303048e-08
5.2333658e-08
5.2172326e-08
4.8869513e-08
4.9006985e-08
4.9166151e-08
4.9345201e-08
4.9541882e-08
4.9753609e-08
4.9977596e-08
5.0210994e-08
5.0451035e-08
5.0695196e-08
5.0941352e-08
5.1187913e-08
5.1433929e-08
5.1679123e-08
5.1923857e-08
5.2169024e-08
5.2415947e-08
5.2666446e-08
5.2921692e-08
5.3185803e-08
5.3416163e-08
5.3603563e-08
5.3728843e-08
5.3753993e-08
5.3580652e-08
5.0654337e-08
5.0782435e-08
5.093025e-08
5.1096072e-08
5.1277828e-08
5.1473184e-08
5.1679659e-08
5.1894748e-08
5.2116063e-08
5.2341474e-08
5.2569251e-08
5.279819e-08
5.3027691e-08
5.3257774e-08
5.3489006e-08
5.3722352e-08
5.3958978e-08
5.4200114e-08
5.444715e-08
5.4701484e-08
5.4925187e-08
5.5107555e-08
5.5227862e-08
5.5245891e-08
5.505693e-08
5.2475754e-08
5.2594214e-08
5.2730507e-08
5.2883035e-08
5.3049905e-08
5.3229021e-08
5.3418183e-08
5.3615204e-08
5.3818033e-08
5.4024893e-08
5.4234411e-08
5.4445732e-08
5.4658586e-08
5.4873283e-08
5.5090613e-08
5.5311653e-08
5.5537507e-08
5.5769094e-08
5.6007272e-08
5.6251876e-08
5.646868e-08
5.6645526e-08
5.6760087e-08
5.6769734e-08
5.6562418e-08
5.4296485e-08
5.4405601e-08
5.4530831e-08
5.4670692e-08
5.482346e-08
5.4987254e-08
5.5160128e-08
5.5340171e-08
5.5525632e-08
5.5715042e-08
5.5907346e-08
5.6102004e-08
5.6299047e-08
5.6499061e-08
5.670306e-08
5.6912249e-08
5.7127715e-08
5.7350124e-08
5.7579726e-08
5.7815258e-08
5.8025437e-08
5.8196715e-08
5.8305131e-08
5.8305572e-08
5.8078899e-08
5.6098449e-08
5.6198753e-08
5.6313629e-08
5.6441704e-08
5.6581411e-08
5.6731061e-08
5.6888927e-08
5.7053342e-08
5.7222815e-08
5.7396149e-08
5.7572569e-08
5.7751816e-08
5.79342e-08
5.8120565e-08
5.8312137e-08
5.8510259e-08
5.8716013e-08
5.8929827e-08
5.9151285e-08
5.9378692e-08
5.9582693e-08
5.9748538e-08
5.9850642e-08
5.9841316e-08
5.9594993e-08
5.7871685e-08
5.7963773e-08
5.8069055e-08
5.8186263e-08
5.8313971e-08
5.8450659e-08
5.8594792e-08
5.8744915e-08
5.8899764e-08
5.9058382e-08
5.9220243e-08
5.9385344e-08
5.9554248e-08
5.9728037e-08
5.9908144e-08
6.0096043e-08
6.029283e-08
6.0498748e-08
6.0712891e-08
6.0932714e-08
6.113089e-08
6.1291468e-08
6.1387301e-08
6.1368171e-08
6.1105295e-08
5.9609062e-08
5.969352e-08
5.9789938e-08
5.9897147e-08
6.0013844e-08
6.013866e-08
6.027023e-08
6.0407285e-08
6.0548759e-08
6.0693909e-08
6.0842432e-08
6.0994557e-08
6.1151078e-08
6.1313299e-08
6.1482843e-08
6.1661315e-08
6.184983e-08
6.2048477e-08
6.2255911e-08
6.2468743e-08
6.2661397e-08
6.281683e-08
6.290645e-08
6.2877576e-08
6.2594903e-08
6.1303933e-08
6.1381316e-08
6.1469547e-08
6.1567548e-08
6.1674131e-08
6.1788058e-08
6.1908115e-08
6.2033196e-08
6.2162414e-08
6.2295217e-08
6.2431501e-08
6.2571704e-08
6.2716834e-08
6.2868398e-08
6.3028196e-08
6.3197954e-08
6.337881e-08
6.3570714e-08
6.3771922e-08
6.3978274e-08
6.4165634e-08
6.4315947e-08
6.4399246e-08
6.4360551e-08
6.4058741e-08
6.2949232e-08
6.3020059e-08
6.310073e-08
6.3190248e-08
6.328753e-08
6.3391457e-08
6.3500947e-08
6.3615043e-08
6.3733015e-08
6.385448e-08
6.3979517e-08
6.4108753e-08
6.4243389e-08
6.4385118e-08
6.4535902e-08
6.4697578e-08
6.4871303e-08
6.5056901e-08
6.5252266e-08
6.5452547e-08
6.5634767e-08
6.5779918e-08
6.5856687e-08
6.5807738e-08
6.5485844e-08
6.4537233e-08
6.4602e-08
6.4675698e-08
6.475741e-08
6.4846146e-08
6.4940892e-08
6.5040688e-08
6.5144705e-08
6.5252356e-08
6.5363413e-08
6.5478115e-08
6.5597261e-08
6.5722225e-08
6.5854869e-08
6.59973e-08
6.6151451e-08
6.6318496e-08
6.6498142e-08
6.6687956e-08
6.6882467e-08
6.7059633e-08
6.7199564e-08
6.7269681e-08
6.7210322e-08
6.6864208e-08
6.6059645e-08
6.6118832e-08
6.6186124e-08
6.6260676e-08
6.634158e-08
6.6427921e-08
6.6518844e-08
6.6613639e-08
6.6711844e-08
6.6813366e-08
6.6918592e-08
6.7028471e-08
6.7144533e-08
6.7268787e-08
6.7403465e-08
6.7550584e-08
6.7711328e-08
6.7885294e-08
6.806976e-08
6.8258689e-08
6.8430796e-08
6.8565404e-08
6.8628819e-08
6.8559307e-08
6.8193274e-08
6.7507857e-08
6.7561942e-08
6.7623385e-08
6.7691406e-08
6.7765174e-08
6.7843862e-08
6.7926708e-08
6.8013105e-08
6.8102706e-08
6.8195538e-08
6.8292113e-08
6.8393516e-08
6.8501408e-08
6.8617925e-08
6.8745404e-08
6.8885928e-08
6.904068e-08
6.9209155e-08
6.9388387e-08
6.9571783e-08
6.9738709e-08
6.9867804e-08
6.9924432e-08
6.9845185e-08
6.9461185e-08
6.8873274e-08
6.8922736e-08
6.8978886e-08
6.9041002e-08
6.9108323e-08
6.9180098e-08
6.9255649e-08
6.9334462e-08
6.9416286e-08
6.9501253e-08
6.9589987e-08
6.9683683e-08
6.9784114e-08
6.9893518e-08
7.0014312e-08
7.0148626e-08
7.0297629e-08
7.0460726e-08
7.0634768e-08
7.0812489e-08
7.0973963e-08
7.1097214e-08
7.1146793e-08
7.1057797e-08
7.0656829e-08
7.0147647e-08
7.0192969e-08
7.0244384e-08
7.0301222e-08
7.0362782e-08
7.0428381e-08
7.0497415e-08
7.0569449e-08
7.0644316e-08
7.0722237e-08
7.0803927e-08
7.0890673e-08
7.0984334e-08
7.1087224e-08
7.1201815e-08
7.1330257e-08
7.1473697e-08
7.163147e-08
7.1800331e-08
7.197198e-08
7.2127523e-08
7.2244435e-08
7.2286594e-08
7.2187878e-08
7.1772403e-08
7.1323321e-08
7.1364992e-08
7.1412231e-08
7.1464416e-08
7.1520899e-08
7.1581054e-08
7.1644341e-08
7.1710393e-08
7.1779114e-08
7.1850797e-08
7.1926229e-08
7.2006767e-08
7.2094332e-08
7.2191283e-08
7.2300119e-08
7.2422986e-08
7.2560998e-08
7.2713446e-08
7.2877029e-08
7.3041971e-08
7.3190876e-08
7.3300785e-08
7.3335118e-08
7.3226984e-08
7.2797621e-08
7.2393288e-08
7.2431791e-08
7.2475408e-08
7.2523557e-08
7.2575634e-08
7.2631063e-08
7.2689357e-08
7.2750205e-08
7.281357e-08
7.2879801e-08
7.2949739e-08
7.3024788e-08
7.3106905e-08
7.3198464e-08
7.3301958e-08
7.3419499e-08
7.3552158e-08
7.3699193e-08
7.3856971e-08
7.4014494e-08
7.4155895e-08
7.4257986e-08
7.4284124e-08
7.4167995e-08
7.3737513e-08
7.3350917e-08
7.3386725e-08
7.3427256e-08
7.3471961e-08
7.3520275e-08
7.3571661e-08
7.3625679e-08
7.3682061e-08
7.3740817e-08
7.3802337e-08
7.38675e-08
7.3937735e-08
7.4015007e-08
7.4101678e-08
7.4200198e-08
7.4312607e-08
7.443992e-08
7.4581601e-08
7.4732028e-08
7.4881377e-08
7.5014315e-08
7.5107585e-08
7.5124794e-08
7.500078e-08
7.4570122e-08
7.4189192e-08
7.422275e-08
7.4260695e-08
7.4302505e-08
7.4347644e-08
7.4395611e-08
7.4446001e-08
7.4498582e-08
7.4553399e-08
7.461087e-08
7.4671896e-08
7.4737912e-08
7.4810871e-08
7.4893093e-08
7.4986948e-08
7.5094334e-08
7.5215966e-08
7.5350448e-08
7.5492748e-08
7.5633285e-08
7.5756775e-08
7.5840026e-08
7.584696e-08
7.5713006e-08
7.5273002e-08
7.4891517e-08
7.4923273e-08
7.4959146e-08
7.4998635e-08
7.5041232e-08
7.5086459e-08
7.5133934e-08
7.5183453e-08
7.5235081e-08
7.5289247e-08
7.5346856e-08
7.540933e-08
7.547858e-08
7.5556844e-08
7.5646377e-08
7.57489e-08
7.5864863e-08
7.5992505e-08
7.6126718e-08
7.6257991e-08
7.6371146e-08
7.6443229e-08
7.6438646e-08
7.6293562e-08
7.5843136e-08
7.5439573e-08
7.5469943e-08
7.5504218e-08
7.5541918e-08
7.5582561e-08
7.5625675e-08
7.5670892e-08
7.5718027e-08
7.5767152e-08
7.5818691e-08
7.5873539e-08
7.5933098e-08
7.5999214e-08
7.6074023e-08
7.6159663e-08
7.6257683e-08
7.6368288e-08
7.6489393e-08
7.661558e-08
7.6737276e-08
7.6839439e-08
7.6899484e-08
7.6882561e-08
7.6726186e-08
7.6268326e-08
7.5801534e-08
7.5830913e-08
7.5864026e-08
7.590043e-08
7.5939682e-08
7.5981267e-08
7.6024826e-08
7.6070186e-08
7.6117419e-08
7.6166923e-08
7.6219581e-08
7.6276778e-08
7.634028e-08
7.6412101e-08
7.6494346e-08
7.6588461e-08
7.6694482e-08
7.6809913e-08
7.6928562e-08
7.7040783e-08
7.713177e-08
7.7179456e-08
7.7149964e-08
7.6982586e-08
7.6519905e-08
7.5913987e-08
7.5942772e-08
7.597514e-08
7.601074e-08
7.6049204e-08
7.6089837e-08
7.6132293e-08
7.6176417e-08
7.6222284e-08
7.6270255e-08
7.6321203e-08
7.6376509e-08
7.6437808e-08
7.6506878e-08
7.6586324e-08
7.667766e-08
7.6781402e-08
7.689416e-08
7.7006904e-08
7.7110536e-08
7.7190985e-08
7.7226971e-08
7.7186018e-08
7.7010347e-08
7.6548061e-08
7.560136e-08
7.562993e-08
7.5661929e-08
7.569723e-08
7.5735634e-08
7.5775886e-08
7.5817689e-08
7.5860996e-08
7.5905892e-08
7.59527e-08
7.6002292e-08
7.6056012e-08
7.6115014e-08
7.617967e-08
7.6256658e-08
7.6347505e-08
7.6460111e-08
7.6585096e-08
7.6696335e-08
7.6793293e-08
7.68649e-08
7.6891273e-08
7.6842107e-08
7.6665994e-08
7.6233663e-08
)
;

boundaryField
{
    Walls
    {
        type            nutUWallFunction;
        Cmu             0.09;
        kappa           0.41;
        E               9.8;
        value           uniform 0;
    }
    Inlet
    {
        type            calculated;
        value           nonuniform List<scalar> 3(2.1926869e-05 1.3083798e-05 8.2906804e-07);
    }
    Outlet
    {
        type            calculated;
        value           nonuniform List<scalar> 
86
(
0
0
0
0
0
0
0
0
0
0
0
0
0
0
0
0
0
0
0
0
0
0
0
0
0
0
0
0
0
0
1.4301793e-05
1.4844286e-05
1.3426809e-05
0
0
0
0
4.4191168e-06
4.2560655e-06
3.6828597e-06
0
0
0
0
9.1275579e-07
6.0230045e-07
3.7548099e-07
2.2682723e-07
1.3874497e-07
9.0847682e-08
6.6730293e-08
5.5609808e-08
5.1086135e-08
4.9780061e-08
4.9996099e-08
5.0920141e-08
5.2172326e-08
5.3580652e-08
5.505693e-08
5.6562418e-08
5.8078899e-08
5.9594993e-08
6.1105295e-08
6.2594903e-08
6.4058741e-08
6.5485844e-08
6.6864208e-08
6.8193274e-08
6.9461185e-08
7.0656829e-08
7.1772403e-08
7.2797621e-08
7.3737513e-08
7.4570122e-08
7.5273002e-08
7.5843136e-08
7.6268326e-08
7.6519905e-08
7.6548061e-08
7.6233663e-08
0
0
0
0
1.3186183e-05
1.4820854e-05
)
;
    }
    Front
    {
        type            wedge;
    }
    Back
    {
        type            wedge;
    }
    defaultFaces
    {
        type            empty;
    }
}


// ************************************************************************* //
