/*--------------------------------*- C++ -*----------------------------------*\
| =========                 |                                                 |
| \\      /  F ield         | OpenFOAM: The Open Source CFD Toolbox           |
|  \\    /   O peration     | Version:  4.0                                   |
|   \\  /    A nd           | Web:      www.OpenFOAM.org                      |
|    \\/     M anipulation  |                                                 |
\*---------------------------------------------------------------------------*/
FoamFile
{
    version     2.0;
    format      ascii;
    class       volScalarField;
    location    "0.38";
    object      omega;
}
// * * * * * * * * * * * * * * * * * * * * * * * * * * * * * * * * * * * * * //

dimensions      [0 0 -1 0 0 0 0];

internalField   nonuniform List<scalar> 
1740
(
57.407775
589.88354
14915.012
148.38463
1227.3698
15022.968
263.25955
1806.1726
15117.657
378.53139
2231.2176
15200.236
504.84017
2536.3638
15269.155
630.4084
2808.6261
15321.659
735.35173
3037.0448
15369.883
830.85356
3194.4806
15416.062
939.6067
3374.0402
15442.701
1049.2653
3496.5917
15471.285
1145.2531
3612.8081
15496.536
1254.4026
3678.9235
15504.63
1330.1881
3752.0249
15522.263
1392.561
3871.251
15539.48
1454.26
3923.3759
15538.377
1518.9545
3921.9891
15548.955
1593.2096
3990.5498
15563.17
1658.6509
4130.2934
15564.886
1718.4301
4146.9008
15565.574
1766.1146
4108.244
15562.386
1794.9809
4106.7038
15566.165
1850.3249
4152.2896
15571.045
1888.1393
4198.8405
15568.805
1920.389
4179.6976
15568.778
1936.4563
4167.9901
15567.567
1948.3987
4168.31
15566.369
1970.5878
4175.9163
15561.908
1997.9784
4230.4554
15559.786
2018.5833
4234.1534
15552.17
2136.5368
4300.6229
15493.649
3195.9152
4559.7891
10704.983
3325.2835
4222.1992
5905.6475
1572.0637
1858.6375
2151.5836
825.2306
900.23387
958.21846
479.67397
497.95264
507.84955
301.10718
304.88101
304.96567
201.50549
201.84061
200.42174
142.31032
141.99167
140.75626
105.23392
104.90493
104.06917
81.061451
80.829452
80.310061
64.840142
64.693391
64.380488
53.767624
53.678212
53.4911
46.187525
46.133498
46.020911
41.068757
41.035988
40.967386
37.719561
37.699605
37.657338
35.63417
35.622228
35.596294
34.42182
34.415246
34.399899
33.773259
33.770272
33.761546
33.39924
33.396248
33.388824
33.12091
33.118252
33.111984
32.891366
32.889239
32.884121
32.684868
32.683366
32.679387
32.487996
32.4872
32.484369
32.296665
32.296537
32.294755
32.11415
32.114484
32.113493
31.947207
31.947741
31.947229
31.801514
31.802053
31.80177
31.679245
31.679693
31.679497
31.579245
31.579579
31.579404
31.498358
31.498587
31.49841
31.432683
31.43283
31.432647
31.378292
31.378376
31.37819
31.3314
31.331441
31.331255
31.288145
31.288156
31.287974
31.244037
31.244027
31.243853
31.193103
31.193081
31.192917
31.126665
31.126637
31.126486
31.03165
31.03162
31.031486
30.888331
30.888303
30.888191
30.667432
30.667411
30.667324
30.326636
30.326626
30.326573
29.806725
29.806732
29.806723
29.027903
29.027935
29.027985
27.887346
27.887414
27.887546
26.259663
26.259782
26.260032
24.004998
24.005203
24.005632
20.978606
20.978937
20.979613
17.060156
17.060629
17.061571
12.204848
12.20539
12.206457
6.5266437
6.527049
6.5278498
13477.784
13533.371
5981.879
5325.1424
2082.4724
1880.9718
921.77957
853.21243
490.64845
463.2562
296.64392
284.58998
196.11266
190.37092
138.40737
135.48033
102.75204
101.18233
79.557882
78.684527
63.944574
63.444261
53.234206
52.939377
45.866361
45.687087
40.872194
40.759536
37.597511
37.524648
35.558346
35.510268
34.375966
34.343859
33.746261
33.724205
33.376412
33.35851
33.101631
33.086591
32.875461
32.862584
32.672206
32.661087
32.47855
32.468984
32.290175
32.282062
32.109962
32.103222
31.944521
31.939044
31.799681
31.795316
31.677867
31.674434
31.578114
31.57543
31.497374
31.495272
31.431801
31.430141
31.377488
31.376159
31.330663
31.329583
31.287468
31.286577
31.243416
31.242672
31.192539
31.191911
31.126159
31.125629
31.031208
31.030763
30.887961
30.887596
30.667147
30.666864
30.326456
30.326262
29.80668
29.80659
29.028037
29.028076
27.887725
27.887935
26.260387
26.260823
24.006233
24.00697
20.980532
20.981649
17.062826
17.064389
12.207894
12.209858
6.528983
6.5307664
12058.212
2043.9482
696.78615
369.18781
281.32746
257.08826
249.94555
246.90158
244.55297
242.15384
239.62381
236.8644
234.01485
231.08611
228.04406
224.82479
221.3154
217.32048
212.50813
206.325
197.85096
185.53465
166.68126
136.26094
82.423039
12058.134
2037.5848
697.83811
374.73605
283.25733
254.40508
242.86045
235.64517
229.5393
223.74557
218.06777
212.43939
206.92899
201.51706
196.18209
190.8959
185.60218
180.19715
174.49401
168.17057
160.67579
151.04283
137.47422
116.27241
78.010371
12058.18
2030.4192
718.57458
430.68458
359.3164
332.38351
315.01628
300.52325
287.2917
274.7486
262.7769
251.1939
240.22249
229.765
219.75967
210.19264
201.04298
192.26448
183.75656
175.34075
166.70324
157.26197
145.8101
129.38929
98.686023
12058.528
2031.6966
817.5948
608.88968
550.01679
512.80373
479.77986
449.26684
421.28711
394.97747
370.30508
347.30118
326.0968
306.23668
287.5776
270.12613
253.86973
238.77647
224.79062
211.82063
199.72529
188.27734
177.03456
164.81036
146.32816
12061.54
2151.0629
1232.7361
1078.7571
989.95516
907.07706
828.55963
757.13421
693.21988
634.11008
579.76269
530.13605
486.03309
445.73683
408.74801
375.07122
344.56915
317.07207
292.39793
270.35299
250.74064
233.38469
218.1699
205.26721
195.75264
12087.236
3818.7377
2808.303
2404.3974
2096.1429
1827.164
1591.6964
1388.256
1212.1918
1060.2605
929.39702
816.76552
719.81754
636.11903
563.74149
501.17342
447.11936
400.4514
360.19621
325.52057
295.71665
270.20936
248.59275
230.96085
218.54817
10355.685
7898.0987
6095.743
4788.2703
3819.5294
3084.4266
2515.0259
2067.5931
1712.5953
1428.7542
1200.2207
1015.1123
864.45792
741.314
640.17012
556.65539
487.32722
429.48757
381.024
340.2787
305.94839
277.02778
252.80031
233.1441
219.33823
4086.428
3304.1454
2842.5711
2468.0809
2148.9802
1868.3444
1623.4175
1411.6626
1230.1427
1074.5588
941.10054
826.34443
727.30484
641.81239
568.0206
504.33549
449.38314
401.98903
361.15271
326.02429
295.88603
270.15743
248.423
230.75769
218.35099
1594.2582
1399.7531
1269.6945
1161.488
1059.2644
961.97784
873.29548
794.21136
722.17399
656.91038
598.53333
546.89241
499.46891
456.13416
416.77153
381.18317
349.13855
320.40463
294.75128
271.96125
251.83537
234.204
218.95439
206.23823
197.01904
770.84111
707.70062
661.52017
620.96358
580.61226
540.47777
502.90337
468.26105
436.15234
406.5466
379.48744
354.69914
331.49573
309.7775
289.53642
270.75857
253.41374
237.45994
222.84576
209.5063
197.34627
186.19722
175.68705
164.74074
148.48872
433.79607
410.02807
391.31074
374.07074
356.31419
338.0146
320.14193
303.1271
287.05148
271.96493
257.87765
244.66521
232.11973
220.19553
208.9225
198.29671
188.31067
178.94291
170.14799
161.83326
153.80386
145.62706
136.26369
122.9186
96.458411
272.15634
261.68294
252.98555
244.79493
236.26195
227.31408
218.31286
209.5189
201.05401
192.97467
185.28904
177.94786
170.87836
164.05669
157.49449
151.19521
145.14938
139.32631
133.65832
128.0083
122.10037
115.36727
106.59131
92.96554
66.92355
184.54865
179.45739
175.03995
170.8079
166.38536
161.70591
156.90295
152.11684
147.43563
142.90453
138.53355
134.30397
130.18589
126.1634
122.23134
118.37945
114.58461
110.80056
106.9413
102.8505
98.243869
92.597342
84.91681
73.176248
52.071122
132.53511
129.88512
127.50625
125.19672
122.78536
120.22364
117.55894
114.86124
112.18466
109.56056
106.99798
104.48931
102.01889
99.572322
97.135605
94.688238
92.196256
89.603016
86.81546
83.682276
79.960631
75.272376
69.079119
60.856463
50.890666
99.605494
98.153892
96.817578
95.507926
94.143085
92.691908
91.169344
89.608826
88.040659
86.484134
84.945665
83.420996
81.898863
80.36447
78.798703
77.174224
75.45004
73.564383
71.425109
68.897469
65.792423
61.870779
56.918595
51.076465
45.871108
77.803656
76.976546
76.199933
75.43362
74.636596
73.789863
72.896552
71.971964
71.031971
70.087139
69.140703
68.188524
67.220182
66.219862
65.165295
64.024869
62.753479
61.287283
59.537479
57.384101
54.673926
51.23504
46.942578
41.915291
36.322801
62.934848
62.44705
61.980757
61.517478
61.036388
60.525915
59.985525
59.421401
58.841194
58.249896
57.647832
57.02994
56.385497
55.697681
54.942101
54.084359
53.076641
51.853657
50.328025
48.385606
45.881458
42.635379
38.410253
32.755697
23.853554
52.634669
52.33641
52.04566
51.753953
51.450821
51.129338
50.78796
50.428748
50.054724
49.66735
49.264925
48.841375
48.385358
47.879143
47.296836
46.601955
45.744352
44.656585
43.249796
41.408642
38.983404
35.771615
31.460523
25.423908
15.973274
45.497927
45.307746
45.117803
44.924367
44.722212
44.507379
44.27832
44.035275
43.778891
43.508592
43.221285
42.910101
42.563154
42.161965
41.679422
41.077209
40.302753
39.285735
37.93415
36.129399
33.718445
30.496789
26.164166
20.204971
11.587057
40.637314
40.510298
40.379536
40.24347
40.099569
39.945652
39.780529
39.603734
39.414728
39.211849
38.991193
38.745365
38.462028
38.12208
37.697341
37.147778
36.41836
35.435663
34.104387
32.303783
29.88352
26.656956
22.386147
16.747614
9.2304364
37.442683
37.354044
37.259414
37.158164
37.049127
36.931184
36.803515
36.665447
36.515922
36.352727
36.171488
35.964463
35.718975
35.415397
35.024618
34.505059
33.799455
32.831668
31.503897
29.694969
27.261011
24.039986
19.861258
14.560192
7.9517731
35.453667
35.389484
35.317999
35.238951
35.15185
35.056164
34.951364
34.836751
34.71104
34.571714
34.414122
34.23026
34.007143
33.724709
33.353145
32.849611
32.155074
31.19151
29.859815
28.039522
25.593147
22.378816
18.274399
13.213001
7.1666028
34.303836
34.255825
34.199748
34.13544
34.062706
33.981308
33.890873
33.790693
33.679345
33.5541
33.410072
33.23901
33.027645
32.755541
32.392542
31.894795
31.201926
30.235079
28.895338
27.063554
24.606277
21.392887
17.325906
12.382258
6.59538
33.69497
33.657887
33.612616
33.558926
33.496616
33.425442
33.344985
33.254423
33.152167
33.035294
32.8987
32.7339
32.527355
32.258214
31.896281
31.396474
30.697019
29.719768
28.368092
26.52503
24.058397
20.841458
16.786455
11.889375
6.2415298
33.334581
33.304064
33.266532
33.221641
33.16907
33.10844
33.039167
32.960233
32.86982
32.764744
32.639619
32.485635
32.288849
32.027738
31.66949
31.167283
30.456901
29.463557
28.096108
26.242563
23.769213
20.548651
16.49537
11.611045
5.9904973
33.066251
33.04003
33.007439
32.968064
32.921519
32.867352
32.804902
32.733059
32.649913
32.552201
32.434516
32.28816
32.099498
31.847601
31.500826
31.01459
30.323242
29.336209
27.957033
26.097029
23.621384
20.400655
16.349019
11.469166
5.8888267
32.844817
32.821525
32.792171
32.756301
32.713495
32.663275
32.604956
32.537435
32.458854
32.366095
32.254022
32.114319
31.933781
31.691872
31.357465
30.884967
30.21125
29.246841
27.876876
26.018559
23.54607
20.330153
16.286331
11.419853
5.8583165
32.645302
32.624155
32.597077
32.563613
32.523357
32.475869
32.420546
32.356419
32.281847
32.194013
32.088125
31.956182
31.785162
31.554506
31.232883
30.774286
30.11639
29.170683
27.822256
25.971244
23.506053
20.298748
16.267105
11.417067
5.8630237
32.454911
32.435575
32.41042
32.379038
32.341117
32.296346
32.244302
32.184246
32.114801
32.033406
31.935456
31.812999
31.652884
31.434264
31.125456
30.680183
30.03612
29.106358
27.778653
25.937864
23.482271
20.285027
16.265571
11.428902
5.9029294
32.269665
32.252206
32.229184
32.200304
32.165396
32.124326
32.076865
32.022468
31.959915
31.886721
31.79824
31.686345
31.537592
31.330799
31.034038
30.60115
29.968288
29.051193
27.739916
25.910893
23.465538
20.277967
16.269212
11.449102
5.9942116
32.092581
32.077294
32.056955
32.031388
32.000559
31.964467
31.922995
31.875668
31.821264
31.757211
31.678678
31.577273
31.439245
31.243129
30.956798
30.534034
29.91086
29.003716
27.704665
25.887549
23.45181
20.272648
16.272075
11.461522
6.0210464
31.930201
31.917337
31.900139
31.878521
31.852521
31.822185
31.787401
31.747647
31.701593
31.646496
31.5773
31.485363
31.356688
31.169611
30.8919
30.47739
29.862433
28.962918
27.673106
25.866832
23.43957
20.267667
16.273802
11.470524
6.0388038
31.788189
31.777758
31.763791
31.746242
31.72516
31.700562
31.672271
31.639652
31.601227
31.554068
31.492921
31.408941
31.287957
31.108178
30.837329
30.42931
29.820671
28.92755
27.645135
25.848236
23.42843
20.263037
16.274188
11.470389
6.026282
31.668819
31.660596
31.649585
31.635752
31.619116
31.599628
31.577014
31.550517
31.518509
31.477904
31.423287
31.345667
31.230753
31.05668
30.791167
30.388193
29.784515
28.89664
27.620285
25.831414
23.418401
20.25963
16.277283
11.478269
6.0342402
31.571063
31.564686
31.556157
31.545433
31.53249
31.517208
31.499215
31.477641
31.450735
31.415285
31.365757
31.293052
31.182803
31.013104
30.751684
30.352618
29.752882
28.869435
27.597998
25.816033
23.409317
20.257396
16.282702
11.489466
6.0425732
31.491887
31.486969
31.480403
31.472134
31.462092
31.450095
31.435689
31.417913
31.39492
31.363403
31.317738
31.248757
31.142035
30.975648
30.717347
30.321298
29.724666
28.844726
27.577625
25.801696
23.400771
20.255546
16.288587
11.498665
6.0368509
31.427503
31.423699
31.418629
31.412226
31.404387
31.394876
31.383177
31.368259
31.348203
31.319633
31.276861
31.210666
31.10659
30.942698
30.686774
30.293068
29.698919
28.821896
27.558602
25.787971
23.392291
20.253221
16.293524
11.506488
6.0247472
31.374082
31.37111
31.367158
31.362148
31.355949
31.348287
31.338601
31.325807
31.307933
31.281552
31.240932
31.176813
31.074716
30.912704
30.658594
30.266726
29.674602
28.800078
27.540221
25.774226
23.383272
20.249564
16.295855
11.511694
6.0172114
31.327923
31.325571
31.322447
31.318468
31.313482
31.307189
31.298991
31.287769
31.271512
31.246756
31.207735
31.145163
31.044546
30.883953
30.631235
30.240817
29.650358
28.777968
27.521095
25.759365
23.372787
20.243827
16.294855
11.513741
6.0403927
31.285231
31.28334
31.280832
31.277617
31.273531
31.268252
31.261159
31.251104
31.236049
31.212503
31.174674
31.113257
31.01375
30.854228
30.602581
30.213314
29.624234
28.753688
27.499476
25.741667
23.359297
20.234984
16.290353
11.510553
6.0329585
31.241565
31.240022
31.237977
31.235335
31.231922
31.227402
31.221135
31.211954
31.1978
31.175159
31.138223
31.077673
30.978999
30.820287
30.569466
30.181119
29.593193
28.724261
27.472462
25.718308
23.340114
20.220682
16.281094
11.504901
6.0284466
31.190991
31.189716
31.188025
31.18582
31.182919
31.178975
31.173335
31.164817
31.151345
31.129391
31.09313
31.033231
30.935184
30.777087
30.526907
30.139305
29.55237
28.684898
27.435373
25.684759
23.31088
20.196731
16.262821
11.491532
6.0196531
31.12486
31.123799
31.122387
31.120523
31.118021
31.114524
31.109371
31.101365
31.088419
31.066991
31.031245
30.971842
30.87427
30.716646
30.466977
30.080012
29.493989
28.627951
27.380755
25.633876
23.2649
20.157106
16.230421
11.465713
5.9771163
31.030122
31.029239
31.028055
31.026469
31.024288
31.02115
31.016384
31.008786
30.996256
30.975242
30.939897
30.880878
30.783678
30.626435
30.377212
29.990863
29.40581
28.541392
27.296919
25.554511
23.191855
20.092834
16.177132
11.424014
5.9481753
30.887072
30.886345
30.885358
30.884008
30.882099
30.879262
30.874819
30.867557
30.855369
30.834692
30.799675
30.740972
30.64409
30.487201
30.238449
29.852834
29.269029
28.406771
27.165977
25.429656
23.076048
19.990255
16.092866
11.363113
5.9148992
30.666452
30.665873
30.665069
30.663933
30.662267
30.659697
30.655538
30.648572
30.636682
30.6163
30.581574
30.523167
30.426611
30.270144
30.022032
29.637497
29.05558
28.196596
26.961318
25.234083
22.894224
19.828806
15.96037
11.269321
5.8687186
30.32597
30.325541
30.324917
30.323991
30.322558
30.320241
30.31635
30.30966
30.298053
30.277961
30.243536
30.185469
30.089346
29.933516
29.686448
29.303711
28.724907
27.871214
26.644652
24.931601
22.613132
19.57917
15.755214
11.124773
5.8128733
29.806432
29.806169
29.805739
29.805031
29.803837
29.801776
29.798155
29.791749
29.78044
29.76067
29.72662
29.669033
29.573601
29.418866
29.173629
28.794007
28.220467
27.375479
26.162936
24.472224
22.187036
19.201271
15.444388
10.902382
5.698124
29.028082
29.028014
29.027805
29.027339
29.026406
29.024621
29.021291
29.015196
29.004235
28.98488
28.951367
28.894547
28.800304
28.647504
28.405487
28.031232
27.466524
26.635777
25.445746
23.789854
21.555824
18.642939
14.985847
10.573582
5.5241635
27.888149
27.888321
27.888378
27.888197
27.887562
27.886089
27.883092
27.877369
27.866853
27.848079
27.815398
27.759854
27.667659
27.518213
27.281718
26.916479
26.36626
25.558262
24.403876
22.801264
20.644376
17.839656
14.328359
10.103243
5.2761645
26.261309
26.261789
26.262176
26.262341
26.262066
26.26097
26.258378
26.25313
26.243224
26.225308
26.193932
26.140487
26.051721
25.907886
25.680514
25.329925
24.802857
24.030888
22.930747
21.407696
19.364284
16.716145
13.412544
9.4504646
4.9343034
24.007806
24.008675
24.009458
24.010027
24.010184
24.009536
24.007431
24.002776
23.993683
23.976972
23.947542
23.897363
23.814039
23.679125
23.466173
23.138432
22.646795
21.928658
20.908385
19.500808
17.619579
15.19174
12.176005
8.5740217
4.4799281
20.982954
20.984371
20.98567
20.98678
20.987581
20.987592
20.986176
20.982364
20.974435
20.959452
20.932872
20.887613
20.812571
20.691194
20.500048
20.206507
19.767038
19.126819
18.220398
16.974989
15.317978
13.189908
10.560166
7.4358657
3.8993592
17.066384
17.068725
17.07082
17.072837
17.074923
17.0761
17.075767
17.073223
17.067006
17.054487
17.031968
16.993818
16.930728
16.828674
16.668964
16.424452
16.058513
15.526402
14.775789
13.7493
12.390396
10.65443
8.5212063
6.0009719
3.1628262
12.212791
12.216604
12.219896
12.223469
12.228065
12.231101
12.232106
12.231197
12.22726
12.218117
12.201209
12.172784
12.125596
12.047735
11.930546
11.752592
11.484808
11.095019
10.547353
9.8025982
8.8219669
7.5759431
6.0539223
4.2674886
2.2616807
6.5338821
6.5382559
6.5419865
6.5465085
6.5530246
6.557035
6.5581702
6.558351
6.556701
6.5517747
6.542277
6.5262497
6.4976792
6.4416922
6.3763604
6.2811429
6.1346909
5.920321
5.6220449
5.2193085
4.6918084
4.0246438
3.214819
2.2746631
1.2336706
)
;

boundaryField
{
    Walls
    {
        Cmu             0.09;
        kappa           0.41;
        E               9.8;
        beta1           0.075;
        type            omegaWallFunction;
        value           nonuniform List<scalar> 
38
(
12058.212
12058.134
12058.18
12058.528
12061.54
12087.236
13477.784
13533.371
14915.012
15022.968
15117.657
15200.236
15269.155
15321.659
15369.883
15416.062
15442.701
15471.285
15496.536
15504.63
15522.263
15539.48
15538.377
15548.955
15563.17
15564.886
15565.574
15562.386
15566.165
15571.045
15568.805
15568.778
15567.567
15566.369
15561.908
15559.786
15552.17
15493.649
)
;
    }
    Inlet
    {
        type            turbulentMixingLengthDissipationRateInlet;
        mixingLength    0.03;
        phi             phi;
        k               k;
        value           nonuniform List<scalar> 3(0.0042877032 0.0046059621 0.0047228484);
    }
    Outlet
    {
        type            inletOutlet;
        inletValue      uniform 1e-05;
        value           nonuniform List<scalar> 
86
(
1e-05
1e-05
1e-05
1e-05
1e-05
1e-05
1e-05
1e-05
1e-05
1e-05
1e-05
1e-05
1e-05
1e-05
1e-05
1e-05
1e-05
1e-05
1e-05
1e-05
1e-05
1e-05
1e-05
1e-05
1e-05
1e-05
1e-05
1e-05
1e-05
1e-05
219.33823
218.35099
197.01904
1e-05
1e-05
1e-05
1e-05
50.890666
45.871108
36.322801
1e-05
1e-05
1e-05
1e-05
7.9517731
7.1666028
6.59538
6.2415298
5.9904973
5.8888267
5.8583165
5.8630237
5.9029294
5.9942116
6.0210464
6.0388038
6.026282
6.0342402
6.0425732
6.0368509
6.0247472
6.0172114
6.0403927
6.0329585
6.0284466
6.0196531
5.9771163
5.9481753
5.9148992
5.8687186
5.8128733
5.698124
5.5241635
5.2761645
4.9343034
4.4799281
3.8993592
3.1628262
2.2616807
1.2336706
1e-05
1e-05
1e-05
1e-05
195.75264
218.54817
)
;
    }
    Front
    {
        type            wedge;
    }
    Back
    {
        type            wedge;
    }
    defaultFaces
    {
        type            empty;
    }
}


// ************************************************************************* //
