/*--------------------------------*- C++ -*----------------------------------*\
| =========                 |                                                 |
| \\      /  F ield         | OpenFOAM: The Open Source CFD Toolbox           |
|  \\    /   O peration     | Version:  4.0                                   |
|   \\  /    A nd           | Web:      www.OpenFOAM.org                      |
|    \\/     M anipulation  |                                                 |
\*---------------------------------------------------------------------------*/
FoamFile
{
    version     2.0;
    format      ascii;
    class       volScalarField;
    location    "0.38";
    object      p;
}
// * * * * * * * * * * * * * * * * * * * * * * * * * * * * * * * * * * * * * //

dimensions      [0 2 -2 0 0 0 0];

internalField   nonuniform List<scalar> 
1740
(
491.71827
491.69349
491.59503
475.59375
475.45328
475.45653
459.28549
459.21011
459.35342
442.2813
442.31583
442.40556
425.17686
425.11403
425.08961
408.27995
408.26296
408.21312
391.4728
391.66609
391.83423
374.80579
374.91383
374.92244
358.1216
358.14908
357.97916
341.36103
341.54416
341.68191
324.67514
324.78114
324.93836
307.81394
307.78046
307.80436
291.27562
291.06624
291.21464
274.89414
274.68413
275.02105
258.46924
258.5792
258.72762
242.20339
242.31539
241.98878
225.71369
225.49102
225.07082
209.25433
209.0052
208.92578
192.96292
193.21592
193.30477
176.86716
177.26148
177.41389
160.87548
160.9465
161.32433
144.68255
144.73435
144.92792
128.40684
128.34124
128.24695
111.71409
111.6454
111.50447
94.715572
94.878971
94.830033
78.335038
78.473346
78.428223
62.476151
62.406815
62.552051
46.788297
46.478284
46.634643
31.21349
30.987857
30.749649
16.308846
16.204703
15.636445
4.1558702
3.6419796
1.7569895
-0.46875993
-0.39748047
-0.27073647
-0.012227204
-0.0092678923
-0.016850341
0.084221468
0.078372085
0.05916623
0.067650463
0.063949474
0.055864765
0.051485831
0.04961921
0.046248557
0.039984398
0.038878289
0.037028459
0.031545413
0.030928395
0.029906333
0.025395779
0.025070748
0.024522683
0.020967719
0.020803076
0.020523414
0.01768919
0.017608386
0.01746797
0.015057384
0.01501872
0.014954573
0.012825255
0.01280675
0.01277963
0.010881828
0.010874423
0.010865433
0.0091688465
0.0091668851
0.0091668354
0.0076562651
0.0076570144
0.007661449
0.0063213637
0.0063235465
0.006330237
0.0051433842
0.0051463781
0.0051542837
0.0041046458
0.004108153
0.004116823
0.0031908328
0.003194707
0.0032039401
0.0023902384
0.0023944001
0.0024040954
0.0016929237
0.0016973229
0.0017074197
0.0010900591
0.0010946594
0.0011051093
0.00057350138
0.00057826967
0.00058902383
0.00013556843
0.00014047415
0.00015148192
-0.00023104318
-0.00022602945
-0.00021482153
-0.00053327383
-0.00052818241
-0.00051683329
-0.00077769596
-0.00077255946
-0.00076113453
-0.00097050513
-0.00096535776
-0.00095392742
-0.0011175104
-0.0011123869
-0.0011010242
-0.0012241256
-0.0012190604
-0.0012078393
-0.0012953636
-0.0012903912
-0.0012793853
-0.0013358385
-0.0013309919
-0.0013202718
-0.0013497663
-0.001345076
-0.0013347081
-0.001340967
-0.0013364613
-0.0013265065
-0.0013128747
-0.001308579
-0.0012990919
-0.00126855
-0.0012644864
-0.0012555152
-0.0012106953
-0.0012068832
-0.0011984696
-0.0011416766
-0.0011381318
-0.0011303104
-0.001063543
-0.0010602787
-0.0010530779
-0.00097805224
-0.0009750791
-0.0009685218
-0.00088669686
-0.00088402292
-0.00087812658
-0.00079072967
-0.00078836097
-0.00078313856
-0.00069119418
-0.00068913504
-0.00068459586
-0.00058895317
-0.0005872066
-0.00058335688
-0.00048470886
-0.00048327697
-0.00048012057
-0.00037899851
-0.00037788245
-0.00037542153
-0.00027220988
-0.00027141004
-0.00026964588
-0.00016439274
-0.00016390976
-0.00016284536
-5.5358638e-05
-5.5196789e-05
-5.4838583e-05
-1.2052806
-0.85191813
-0.22273128
-0.17821087
-0.025968418
-0.034817665
0.046153053
0.035196618
0.050398378
0.04578315
0.043697537
0.041485733
0.03560336
0.034567781
0.028992376
0.02830832
0.02399947
0.02357923
0.020243452
0.020014883
0.017325819
0.017224866
0.014892045
0.014856997
0.012759616
0.01275387
0.010863726
0.010872866
0.0091741046
0.0091908012
0.0076729092
0.0076930241
0.006343593
0.0063647955
0.0051685499
0.0051900491
0.0041316186
0.0041532026
0.0032191469
0.0032408265
0.0024196919
0.0024415584
0.001723404
0.0017455442
0.001121468
0.0011439276
0.00060572586
0.00062851027
0.00016848199
0.00019156502
-0.00019758282
-0.00017425626
-0.0004994297
-0.00047594095
-0.0007436532
-0.00072010531
-0.00093646626
-0.0009129803
-0.0010836879
-0.0010603972
-0.001190736
-0.0011677797
-0.0012626228
-0.0012401416
-0.001303955
-0.0012820855
-0.0013189354
-0.0012978068
-0.0013113685
-0.0012910995
-0.0012846703
-0.0012653682
-0.0012418821
-0.0012236415
-0.0011856869
-0.0011685893
-0.00111843
-0.0011025437
-0.0010421423
-0.0010275229
-0.00095856508
-0.00094525673
-0.00086917468
-0.00085721132
-0.00077521079
-0.00076461762
-0.00067770602
-0.0006685009
-0.00057751406
-0.00056970864
-0.00047532997
-0.00046893086
-0.00037168634
-0.00036669728
-0.00026696831
-0.00026339206
-0.00016123024
-0.00015907312
-5.4294838e-05
-5.3568531e-05
0.030777471
0.030616335
0.03023006
0.029535092
0.028481879
0.027095326
0.025434782
0.02358179
0.021624693
0.019665658
0.017690512
0.015754788
0.013911368
0.012205518
0.010638196
0.009199927
0.0078803498
0.0066698014
0.0055569526
0.0045269654
0.00357547
0.0026912106
0.0018633349
0.0010837315
0.0003479729
0.030828663
0.030660557
0.03019977
0.029343828
0.028074829
0.026448116
0.02455944
0.022520742
0.020425378
0.018325614
0.016320872
0.014436049
0.012683862
0.01105767
0.0095628321
0.008199247
0.0069631647
0.0058481916
0.0048396221
0.0039274971
0.0030948746
0.0023257663
0.0016092767
0.00093940297
0.00031043744
0.027651004
0.027215118
0.026223981
0.024631704
0.022470769
0.019968381
0.017349622
0.014801183
0.012490704
0.010428437
0.0086328259
0.0070759978
0.0057359204
0.0045908861
0.0036305333
0.0028403672
0.0021999549
0.0016858625
0.0012827745
0.00097479952
0.00073860189
0.0005496073
0.00039399241
0.00025834765
0.00012042946
0.013195372
0.012151807
0.0096072899
0.0060643998
0.0024981269
-0.00059883584
-0.0030175594
-0.0047849585
-0.0060594492
-0.00692283
-0.0074322936
-0.0076826033
-0.0077143502
-0.0075427886
-0.007207237
-0.0067398036
-0.006166776
-0.0055114115
-0.0047930896
-0.0040288947
-0.0032470684
-0.0024756609
-0.0017111048
-0.0009667426
-0.00027532877
-0.03569563
-0.038672162
-0.04189988
-0.042682242
-0.042346803
-0.040668378
-0.038252543
-0.035469841
-0.03247829
-0.029405674
-0.026463033
-0.023740452
-0.02114831
-0.018457358
-0.015973123
-0.013717765
-0.011682496
-0.0098504295
-0.0082000231
-0.0067071028
-0.005335762
-0.004048619
-0.0028420879
-0.0016961381
-0.00059756382
-0.19734003
-0.16005739
-0.1448042
-0.11672562
-0.093558952
-0.073032051
-0.055539783
-0.041262391
-0.029871198
-0.02091428
-0.013885437
-0.0084313053
-0.0043375341
-0.0014997677
0.00054634592
0.0019169101
0.0027524468
0.0031643883
0.0032413917
0.0030559071
0.0026726197
0.0021522717
0.0015357947
0.00086526783
0.00013775208
-0.30000052
-0.10761737
-0.060922902
-0.025857468
0.0060857033
0.031243251
0.046803036
0.053817993
0.055537136
0.054548314
0.05206508
0.048708117
0.044833845
0.040695204
0.036486151
0.032329863
0.028296274
0.024417881
0.020705546
0.017154636
0.013752035
0.010481804
0.007317106
0.0042452543
0.001177789
-0.15483299
-0.14108957
-0.12283301
-0.10203126
-0.081316911
-0.062707571
-0.046902159
-0.034093658
-0.023938667
-0.016005256
-0.0099214809
-0.0053204693
-0.0019421541
0.00049880964
0.0021871835
0.0032718546
0.0038777104
0.0040963728
0.0040092546
0.0036829822
0.0031733934
0.0025301192
0.0017953408
0.0010123869
0.00017718335
-0.041692298
-0.047569473
-0.050947049
-0.051730149
-0.050391049
-0.047621005
-0.044257869
-0.040616471
-0.036892671
-0.033276404
-0.029792187
-0.02637013
-0.023105181
-0.020106552
-0.01738428
-0.014920644
-0.012666484
-0.010639873
-0.0088125507
-0.0071607767
-0.0056600316
-0.0042842068
-0.0030088182
-0.001804088
-0.00064460459
0.024792
0.014803746
0.0062277814
-0.00068646639
-0.0058863689
-0.0095291522
-0.011940983
-0.013397971
-0.014145217
-0.014363728
-0.014193357
-0.013742188
-0.013063044
-0.012209401
-0.011233268
-0.010180658
-0.0091116794
-0.0080071851
-0.0068869367
-0.0057609813
-0.0046377371
-0.0035261221
-0.0024369093
-0.0013841809
-0.00040525941
0.042047405
0.037418224
0.031748546
0.02559879
0.019921462
0.015084758
0.011171352
0.0080469175
0.0055659548
0.0036277361
0.0021385896
0.0010123935
0.00018258872
-0.00040732853
-0.00080637911
-0.0010512996
-0.0011744614
-0.0011926752
-0.0011291516
-0.0010032324
-0.00083169222
-0.00063051018
-0.00041566081
-0.00020231738
-1.8785854e-05
0.039568548
0.037172747
0.034345475
0.031308589
0.027964494
0.024569684
0.021329451
0.018347929
0.015636691
0.013280932
0.011269495
0.0095569895
0.0080936898
0.006841693
0.0057722216
0.0048531668
0.0040593863
0.0033704083
0.0027668268
0.0022319172
0.0017517958
0.0013147962
0.00091159843
0.00053711234
0.00018696031
0.033687016
0.032467143
0.03071168
0.028684885
0.026473212
0.024133817
0.02181749
0.019539201
0.017438544
0.015487754
0.013685094
0.012040441
0.010553383
0.0092138817
0.0080081218
0.0069190998
0.0059305096
0.0050279326
0.0041985942
0.0034311346
0.002716093
0.0020459631
0.0014151038
0.00082045498
0.00026268508
0.027792109
0.027146352
0.026218216
0.025010062
0.023552521
0.021881959
0.020073284
0.018303967
0.016610941
0.014999709
0.013440187
0.011964696
0.010586068
0.0093086058
0.0081391432
0.0070673662
0.0060818156
0.0051724881
0.0043303387
0.0035468254
0.0028141776
0.0021256356
0.0014756553
0.0008594305
0.00027450304
0.023236541
0.022844186
0.022309529
0.021584338
0.020644316
0.01950454
0.018227366
0.016887006
0.015520882
0.014147454
0.012822342
0.011548493
0.010347179
0.0092113419
0.0081340595
0.0071181488
0.0061632481
0.0052677719
0.0044277817
0.003638858
0.0028960425
0.0021938044
0.0015274522
0.00089272704
0.00028560609
0.01982361
0.019598845
0.019275041
0.018812967
0.018185334
0.017396647
0.016475649
0.015462923
0.01439485
0.013293533
0.012191219
0.011096808
0.010030255
0.0090018353
0.0080159836
0.0070676205
0.0061606161
0.0052967543
0.0044747998
0.003693242
0.0029501803
0.00224078
0.0015628935
0.00091506647
0.00029397615
0.017139696
0.017026839
0.016833926
0.01652441
0.016084646
0.015517438
0.014839568
0.014069902
0.01323343
0.012350184
0.011453197
0.01054913
0.0096306025
0.0087140539
0.0078019398
0.0069180401
0.0060645122
0.0052434244
0.0044520139
0.0036900772
0.0029576068
0.0022533292
0.0015760994
0.0009248018
0.00029752027
0.014832416
0.014788173
0.014682251
0.014483341
0.014176996
0.013764206
0.013257424
0.01266934
0.012014851
0.011307244
0.010566276
0.0098017167
0.0090182224
0.0082241084
0.0074291171
0.0066360592
0.0058520836
0.0050809869
0.0043294149
0.0035997855
0.0028926959
0.0022081429
0.0015460169
0.00090697337
0.00029051779
0.012756286
0.012745442
0.012694147
0.012575261
0.012372611
0.012081448
0.011707024
0.011258738
0.010747493
0.010184648
0.0095795427
0.008940988
0.0082755908
0.0075907812
0.0068938692
0.0061904056
0.0054862661
0.0047862577
0.0040953566
0.003417073
0.0027536774
0.0021067678
0.0014776402
0.00086743684
0.00027788216
0.010888288
0.010895131
0.010874475
0.0108069
0.010677397
0.010477918
0.010206818
0.0098687327
0.0094718772
0.0090250204
0.008534085
0.0080061055
0.0074479898
0.0068661314
0.0062661822
0.0056530851
0.0050319768
0.0044077449
0.003785087
0.0031679615
0.0025594363
0.0019619508
0.0013775254
0.00080945027
0.00026004036
0.0092132582
0.0092308322
0.0092302444
0.0091966162
0.0091169296
0.0089823992
0.0087890617
0.0085379528
0.0082334137
0.0078805849
0.0074855223
0.0070536683
0.0065905885
0.0061011059
0.0055903304
0.0050625974
0.0045225135
0.0039747677
0.0034237533
0.0028733701
0.0023268348
0.0017867981
0.0012550301
0.00073794079
0.00023913268
0.0077188877
0.0077429847
0.0077552883
0.0077442922
0.0076991551
0.007611519
0.0074765108
0.0072929601
0.0070624071
0.0067878716
0.0064738156
0.0061245556
0.005744102
0.005336576
0.0049062745
0.0044574021
0.0039940539
0.0035203866
0.003040297
0.0025574341
0.0020750751
0.0015961737
0.001123285
0.00066124756
0.00021341136
0.0063920426
0.006419991
0.0064406038
0.0064450768
0.0064243446
0.006370891
0.0062796807
0.0061483173
0.0059766543
0.0057662039
0.0055197382
0.0052403891
0.0049314533
0.0045964206
0.0042388059
0.003862245
0.0034703074
0.0030664982
0.002654313
0.0022371095
0.0018181286
0.0014005444
0.00098745015
0.00058207932
0.00018744067
0.005217646
0.0052475348
0.0052736393
0.0052888247
0.005285664
0.0052575321
0.0051995567
0.0051087722
0.0049840551
0.004825796
0.0046355478
0.0044154926
0.0041681888
0.0038964964
0.0036033439
0.0032918039
0.0029649292
0.0026257549
0.0022773352
0.001922679
0.0015648436
0.0012068314
0.0008515497
0.00050286393
0.00016270096
0.0041808191
0.0042117635
0.0042414747
0.0042641972
0.0042738734
0.004264797
0.0042323962
0.0041735175
0.004086478
0.0039709131
0.0038275134
0.00365771
0.0034634128
0.0032468708
0.0030105216
0.0027569284
0.0024887114
0.0022084909
0.0019189195
0.0016226813
0.0013224681
0.0010209149
0.00072031356
0.0004257915
0.00013883034
0.0032684745
0.0033001245
0.0033323078
0.003360525
0.003379765
0.0033852247
0.0033727464
0.0033392104
0.0032826509
0.0032022143
0.0030979948
0.0029708133
0.0028220293
0.0026533741
0.0024668256
0.002264521
0.0020486852
0.0018215812
0.0015855232
0.0013428615
0.0010959402
0.00084705877
0.00059846939
0.00035350919
0.00011413509
0.0024693371
0.002501589
0.0025356569
0.0025680071
0.0025945827
0.0026113125
0.0026145363
0.0026013055
0.002569561
0.0025181521
0.002446755
0.0023557295
0.0022459624
0.002118744
0.0019756467
0.0018184259
0.0016489497
0.0014691669
0.001281082
0.0010867374
0.00088818693
0.00068747789
0.0004866783
0.00028735077
9.1854466e-05
0.0017735678
0.0018063983
0.0018420158
0.0018776196
0.0019099412
0.001935566
0.0019513024
0.0019544596
0.0019430031
0.0019156291
0.0018717309
0.0018113149
0.0017348965
0.0016433877
0.0015379962
0.001420135
0.0012913554
0.0011533054
0.0010076963
0.00085628356
0.00070084969
0.00054317665
0.00038488887
0.00022735868
7.2414315e-05
0.0011722786
0.0012056934
0.0012426221
0.0012808631
0.0013177648
0.0013504903
0.001376286
0.0013927245
0.00139788
0.0013904012
0.0013694895
0.0013348985
0.0012868492
0.0012259385
0.0011530584
0.001069315
0.00097596766
0.00087438078
0.00076599116
0.00065228114
0.00053475746
0.00041491969
0.00029413168
0.00017388004
5.5546295e-05
0.00065721482
0.00069119528
0.00072925886
0.00076965024
0.00081022544
0.00084863304
0.00088252331
0.00090973998
0.00092847915
0.00093740651
0.00093562159
0.00092269978
0.00089863002
0.00086374976
0.0008186795
0.00076425582
0.00070147275
0.00063143559
0.00055532482
0.00047436587
0.00038980896
0.00030289552
0.00021481095
0.00012715886
4.0884444e-05
0.00022060336
0.0002550945
0.00029410035
0.00033622743
0.00037973161
0.00042266251
0.00046302346
0.00049892375
0.00052872074
0.00055107735
0.00056508933
0.0005702043
0.00056623033
0.0005532925
0.00053178188
0.0005022995
0.00046560428
0.00042256798
0.00037413894
0.00032131348
0.00026512216
0.0002065983
0.00014673839
8.6882986e-05
2.7813722e-05
-0.00014494541
-0.00011004371
-7.0297798e-05
-2.6821857e-05
1.896524e-05
6.5438837e-05
0.00011090195
0.00015370819
0.00019236457
0.00022561851
0.00025253423
0.00027248781
0.00028515686
0.0002904999
0.00028871613
0.00028020273
0.00026551093
0.00024530546
0.00022033007
0.00019138819
0.00015931073
0.00012493741
8.9048111e-05
5.2674221e-05
1.6534196e-05
-0.00044645363
-0.00041128003
-0.00037101752
-0.00032656363
-0.00027908231
-0.00022992717
-0.00018054312
-0.00013236604
-8.6735768e-05
-4.481075e-05
-7.5229858e-06
2.4454716e-05
5.0704679e-05
7.105761e-05
8.5556261e-05
9.4426257e-05
9.8038438e-05
9.6877273e-05
9.1511282e-05
8.2561871e-05
7.0680038e-05
5.6519283e-05
4.0669429e-05
2.4037193e-05
7.2102082e-06
-0.00069056621
-0.00065528882
-0.00061475503
-0.00056969398
-0.00052106587
-0.00047000397
-0.00041774073
-0.00036552862
-0.00031456321
-0.00026591472
-0.00022048355
-0.00017896688
-0.00014184468
-0.00010939059
-8.1686509e-05
-5.864934e-05
-4.0058124e-05
-2.5584116e-05
-1.4816691e-05
-7.2971182e-06
-2.5342919e-06
-3.4454213e-08
6.5849633e-07
3.9842893e-07
-3.8423634e-07
-0.0008835376
-0.00084834696
-0.00080780231
-0.00076250269
-0.00071324443
-0.00066098084
-0.00060676693
-0.00055169545
-0.00049683307
-0.00044316384
-0.00039154407
-0.00034267331
-0.00029707516
-0.00025509776
-0.00021692173
-0.00018257956
-0.00015197584
-0.0001249135
-0.00010112143
-8.0275244e-05
-6.2020713e-05
-4.5989662e-05
-3.1826519e-05
-1.877617e-05
-6.5124378e-06
-0.0010312153
-0.0009963183
-0.00095603278
-0.00091085586
-0.00086145267
-0.00080863057
-0.00075329711
-0.00069640664
-0.00063891085
-0.00058171035
-0.0005256136
-0.00047130736
-0.00041933929
-0.00037011005
-0.00032387579
-0.00028076036
-0.00024077215
-0.00020382416
-0.00016975684
-0.00013835773
-0.00010938039
-8.2560579e-05
-5.7640617e-05
-3.4001178e-05
-1.1370135e-05
-0.0011390314
-0.0011046422
-0.0010648869
-0.0010201825
-0.00097108943
-0.00091829571
-0.00086258522
-0.00080479483
-0.0007457739
-0.00068634409
-0.00062726343
-0.00056919755
-0.00051270147
-0.00045820934
-0.000406033
-0.00035636763
-0.00030930416
-0.00026484477
-0.00022291762
-0.00018339995
-0.00014612973
-0.00011092554
-7.7635487e-05
-4.5786333e-05
-1.5149203e-05
-0.0012120007
-0.0011783326
-0.0011393721
-0.0010954729
-0.0010471118
-0.00099487934
-0.00093945433
-0.00088157373
-0.00082199638
-0.00076147074
-0.000700703
-0.00064033114
-0.0005809061
-0.00052288048
-0.0004666039
-0.00041232473
-0.00036019772
-0.00031029466
-0.00026261711
-0.00021711034
-0.00017367917
-0.00013220736
-9.2633768e-05
-5.4633993e-05
-1.7988975e-05
-0.0012547215
-0.001221981
-0.0011840671
-0.0011412837
-0.0010940405
-0.0010428467
-0.00098829466
-0.00093103385
-0.00087174296
-0.00081110251
-0.00074976724
-0.00068834273
-0.00062736728
-0.00056729958
-0.00050851229
-0.00045129122
-0.0003958386
-0.00034228077
-0.00029067886
-0.00024103393
-0.00019330534
-0.00014742982
-0.00010338622
-6.0981395e-05
-2.0003926e-05
-0.0012713796
-0.0012397605
-0.0012031277
-0.001161745
-0.0011159674
-0.0010662372
-0.0010130728
-0.00095704836
-0.00089877136
-0.00083885922
-0.00077791612
-0.00071651203
-0.00065516574
-0.00059433234
-0.00053439568
-0.00047566533
-0.00041837779
-0.00036270055
-0.0003087397
-0.00025654612
-0.00020612372
-0.00015744701
-0.00011052703
-6.5152478e-05
-2.1193765e-05
-0.0012657564
-0.0012354366
-0.0012002984
-0.0011605727
-0.0011165695
-0.0010686751
-0.0010173445
-0.00096308647
-0.00090644494
-0.00084797908
-0.0007882437
-0.00072777112
-0.0006670554
-0.00060654024
-0.00054661088
-0.00048758965
-0.00042973505
-0.00037324393
-0.00031825588
-0.0002648607
-0.00021309977
-0.00016297774
-0.0001145084
-6.7409395e-05
-2.1690813e-05
-0.0012412415
-0.0012123805
-0.0011789266
-0.0011410839
-0.0010991243
-0.0010533867
-0.0010042718
-0.00095223055
-0.00089775014
-0.00084133573
-0.00078349444
-0.00072471979
-0.00066547744
-0.00060619353
-0.00054724647
-0.00048896166
-0.00043160927
-0.00037540465
-0.00032051084
-0.00026704269
-0.00021506841
-0.00016461423
-0.00011570076
-6.8061333e-05
-2.178437e-05
-0.0012008481
-0.0011735856
-0.0011419814
-0.0011062165
-0.0010665306
-0.0010232224
-0.00097664508
-0.00092719918
-0.00087531886
-0.00082146013
-0.00076608442
-0.00070964605
-0.00065257949
-0.00059528861
-0.00053813831
-0.000481449
-0.00042549342
-0.00037049572
-0.00031663208
-0.00026403236
-0.00021278056
-0.00016291816
-0.0001145041
-6.7363703e-05
-2.1569628e-05
-0.0011472298
-0.0011216859
-0.0010920724
-0.0010585504
-0.0010213319
-0.0009806805
-0.00093690804
-0.00089036882
-0.00084145107
-0.00079056346
-0.00073812382
-0.00068454753
-0.00063023606
-0.00057556746
-0.00052088808
-0.00046650674
-0.00041269125
-0.00035966649
-0.00030761378
-0.00025667204
-0.00020693912
-0.000158481
-0.0001113959
-6.5594323e-05
-2.1095669e-05
-0.0010827023
-0.0010589772
-0.001031472
-0.0010003296
-0.000965738
-0.00092792964
-0.00088717966
-0.00084380191
-0.00079814068
-0.00075056132
-0.00070144011
-0.00065115384
-0.00060006993
-0.00054853812
-0.00049688236
-0.00044539515
-0.00039433368
-0.00034391781
-0.00029432931
-0.00024571259
-0.00019817933
-0.00015182132
-0.00010676376
-6.2920871e-05
-2.0306988e-05
-0.0010092677
-0.00098744262
-0.00096214078
-0.00093348851
-0.00090165241
-0.00086683676
-0.00082928383
-0.00078927025
-0.00074710037
-0.00070309901
-0.00065760252
-0.0006109498
-0.00056347422
-0.00051549519
-0.00046731165
-0.00041919646
-0.00037139272
-0.00032411107
-0.00027753018
-0.00023179754
-0.00018703462
-0.00014334816
-0.00010086613
-5.9473711e-05
-1.9209717e-05
-0.00092864165
-0.00090878002
-0.00088575509
-0.00085968013
-0.00083070002
-0.00079899418
-0.00076477446
-0.00072828353
-0.00068978907
-0.00064957749
-0.00060794706
-0.00056519985
-0.00052163481
-0.00047754067
-0.00043318946
-0.00038883208
-0.00034469447
-0.00030097577
-0.00025784772
-0.00021545644
-0.0001739258
-0.00013336367
-9.3890508e-05
-5.5374684e-05
-1.7876323e-05
-0.00084227778
-0.0008244283
-0.00080373718
-0.00078030429
-0.00075425576
-0.00072574817
-0.00069496486
-0.00066211742
-0.00062743901
-0.00059118007
-0.00055360195
-0.00051497136
-0.00047555345
-0.00043560545
-0.00039537188
-0.00035507979
-0.000314936
-0.00027512485
-0.00023580785
-0.0001971246
-0.00015919428
-0.00012211887
-8.6007238e-05
-5.0734856e-05
-1.6369174e-05
-0.00075139634
-0.0007355953
-0.00071727986
-0.00069653628
-0.00067347409
-0.00064822768
-0.00062095666
-0.00059184171
-0.00056108366
-0.0005288986
-0.00049551368
-0.00046116075
-0.00042607166
-0.00039047245
-0.00035457927
-0.00031859414
-0.00028270281
-0.0002470724
-0.00021185077
-0.00017716675
-0.00014313046
-0.00010983494
-7.7377813e-05
-4.5647628e-05
-1.4720699e-05
-0.00065701346
-0.00064328595
-0.0006273748
-0.00060935363
-0.00058931577
-0.00056737554
-0.00054366859
-0.00051834829
-0.0004915851
-0.00046356235
-0.00043447411
-0.00040451884
-0.00037389544
-0.00034279897
-0.00031141695
-0.00027992573
-0.00024848798
-0.00021725161
-0.00018634817
-0.00015589283
-0.00012598409
-9.6704968e-05
-6.8142722e-05
-4.0199566e-05
-1.2957465e-05
-0.00055996904
-0.00054833105
-0.00053484203
-0.0005195641
-0.00050257523
-0.00048397055
-0.00046386247
-0.00044237875
-0.00041966094
-0.00039586257
-0.00037114465
-0.00034567354
-0.00031961634
-0.00029313721
-0.00026639458
-0.00023953847
-0.00021270783
-0.00018602933
-0.00015961642
-0.0001335687
-0.00010797155
-8.2897274e-05
-5.842309e-05
-3.4466034e-05
-1.1101728e-05
-0.00046094679
-0.00045140718
-0.00044035074
-0.00042782804
-0.00041390237
-0.00039865052
-0.00038216285
-0.00036454235
-0.00034590333
-0.00032636968
-0.0003060728
-0.00028514705
-0.00026372765
-0.00024194855
-0.00021993924
-0.00019782273
-0.00017571355
-0.00015371635
-0.00013192512
-0.00011042263
-8.9280068e-05
-6.8558307e-05
-4.8323059e-05
-2.8507991e-05
-9.1772455e-06
-0.00036047299
-0.00035303658
-0.0003444183
-0.00033465729
-0.00032380248
-0.00031191309
-0.00029905836
-0.0002853173
-0.00027077799
-0.00025553751
-0.000239696
-0.0002233574
-0.00020662606
-0.00018960583
-0.00017239744
-0.0001550968
-0.00013779342
-0.00012056934
-0.00010349838
-8.6645641e-05
-7.0067276e-05
-5.3811481e-05
-3.7931169e-05
-2.237643e-05
-7.2013914e-06
-0.0002589307
-0.00025360095
-0.00024742446
-0.00024042918
-0.00023265003
-0.00022412909
-0.00021491534
-0.0002050647
-0.00019464158
-0.00018371334
-0.00017235121
-0.00016062901
-0.00014862152
-0.00013640253
-0.00012404409
-0.00011161491
-9.9179247e-05
-8.6796125e-05
-7.4518722e-05
-6.2393933e-05
-5.0462268e-05
-3.8758706e-05
-2.7321407e-05
-1.6115875e-05
-5.1854139e-06
-0.00015638222
-0.00015316768
-0.00014944258
-0.00014522369
-0.00014053199
-0.00013539266
-0.00012983527
-0.00012389475
-0.00011760828
-0.00011101605
-0.00010416084
-9.7087025e-05
-8.9839556e-05
-8.2462927e-05
-7.5000365e-05
-6.7493287e-05
-5.9980472e-05
-5.2497608e-05
-4.5076882e-05
-3.7746733e-05
-3.0531689e-05
-2.3452697e-05
-1.6532271e-05
-9.7505658e-06
-3.1360185e-06
-5.2662434e-05
-5.1579959e-05
-5.0325597e-05
-4.8905002e-05
-4.732512e-05
-4.5594495e-05
-4.3723671e-05
-4.1724141e-05
-3.960808e-05
-3.738899e-05
-3.5081277e-05
-3.2699862e-05
-3.0259855e-05
-2.7776277e-05
-2.5263682e-05
-2.2735914e-05
-2.0206041e-05
-1.7686094e-05
-1.5186941e-05
-1.2718204e-05
-1.0288178e-05
-7.9038823e-06
-5.5722867e-06
-3.2863409e-06
-1.0568979e-06
)
;

boundaryField
{
    Walls
    {
        type            zeroGradient;
    }
    Inlet
    {
        type            fixedValue;
        value           uniform 500;
    }
    Outlet
    {
        type            fixedValue;
        value           uniform 0;
    }
    Front
    {
        type            wedge;
    }
    Back
    {
        type            wedge;
    }
    defaultFaces
    {
        type            empty;
    }
}


// ************************************************************************* //
