/*--------------------------------*- C++ -*----------------------------------*\
| =========                 |                                                 |
| \\      /  F ield         | OpenFOAM: The Open Source CFD Toolbox           |
|  \\    /   O peration     | Version:  4.0                                   |
|   \\  /    A nd           | Web:      www.OpenFOAM.org                      |
|    \\/     M anipulation  |                                                 |
\*---------------------------------------------------------------------------*/
FoamFile
{
    version     2.0;
    format      ascii;
    class       surfaceScalarField;
    location    "0.38";
    object      phi;
}
// * * * * * * * * * * * * * * * * * * * * * * * * * * * * * * * * * * * * * //

dimensions      [0 3 -1 0 0 0 0];

internalField   nonuniform List<scalar> 
3364
(
-2.3613803e-11
1.625886e-08
2.0531374e-10
4.7374984e-08
8.8568277e-08
-2.8689201e-11
1.6287531e-08
-5.54827e-10
4.7901109e-08
8.801342e-08
-1.7648343e-11
1.6305183e-08
-1.3815381e-09
4.9265001e-08
8.6631864e-08
6.8996164e-12
1.6298251e-08
-7.6091439e-10
5.0032801e-08
8.5870944e-08
1.7785071e-10
1.612034e-08
2.706196e-10
4.9939994e-08
8.6141545e-08
-5.5003759e-11
1.617532e-08
5.2800535e-10
4.9356956e-08
8.6669518e-08
-5.1894406e-10
1.6694248e-08
-6.0496086e-10
4.9442938e-08
8.6064523e-08
-3.4057715e-10
1.7034793e-08
-1.7411302e-10
4.9276415e-08
8.5890378e-08
-2.1433096e-10
1.7249102e-08
1.6338234e-10
4.8898667e-08
8.6053734e-08
-2.4101105e-10
1.7490078e-08
-8.1308978e-10
4.9470726e-08
8.5240623e-08
-1.4203479e-10
1.7632049e-08
-7.3748301e-10
5.0066128e-08
8.4503108e-08
-2.3687083e-10
1.7868866e-08
-1.3041496e-11
4.9842266e-08
8.4490032e-08
1.9778307e-10
1.7671061e-08
-1.7234223e-10
5.0212351e-08
8.4317643e-08
6.8075579e-10
1.6990267e-08
-1.4452215e-09
5.2338268e-08
8.2872375e-08
4.5003055e-11
1.6945217e-08
-7.55904e-10
5.3139139e-08
8.211644e-08
-2.9236842e-10
1.7237534e-08
1.5223456e-09
5.1324373e-08
8.3638745e-08
1.7145565e-10
1.7066046e-08
1.2126998e-09
5.028307e-08
8.4851397e-08
3.9497197e-10
1.6671069e-08
-8.7504417e-10
5.1553078e-08
8.3976333e-08
-2.1423833e-10
1.6885283e-08
-5.3048645e-10
5.1869358e-08
8.3445841e-08
-2.8916835e-10
1.7174385e-08
4.9717338e-10
5.1083009e-08
8.3942998e-08
4.4920407e-11
1.7129397e-08
-4.7761034e-10
5.1605475e-08
8.3465346e-08
-5.7850439e-10
1.7707848e-08
-1.0598591e-09
5.2086775e-08
8.2405434e-08
-1.7997754e-10
1.7887784e-08
-3.0381969e-10
5.221059e-08
8.2101576e-08
-2.0669374e-11
1.7908447e-08
4.7915947e-10
5.1710723e-08
8.2580701e-08
-1.9515022e-10
1.8103588e-08
5.5637413e-10
5.0959141e-08
8.3137031e-08
3.0001542e-10
1.7803519e-08
4.8310681e-10
5.0776002e-08
8.3620094e-08
5.7433671e-10
1.7229129e-08
3.9978291e-10
5.0950503e-08
8.4019829e-08
6.8716508e-10
1.6541924e-08
-5.5007226e-10
5.2187684e-08
8.3469717e-08
1.6534487e-10
1.6376602e-08
3.1176765e-10
5.204137e-08
8.3781483e-08
1.1162322e-09
1.5260587e-08
5.1238749e-09
4.8033866e-08
8.8905353e-08
1.1118729e-08
4.1412143e-09
4.8434076e-08
1.0716652e-08
1.0636893e-08
1.2669996e-07
4.64978e-09
-5.0902789e-10
1.6661099e-08
-1.2961322e-09
-1.4097556e-09
2.8705906e-08
-4.2539345e-10
-8.3598211e-11
-1.5032994e-09
-2.1815029e-10
-3.5777082e-10
-2.5551728e-09
-1.0256597e-10
1.8983255e-11
-3.705052e-10
4.9826224e-11
1.8809098e-11
-7.4704186e-10
-1.9702271e-12
2.0954962e-11
-1.0174091e-11
5.8034157e-11
6.5754159e-11
-5.7113795e-11
6.1932309e-12
1.4761704e-11
2.2025778e-11
4.2201651e-11
6.0496311e-11
2.7282747e-11
4.4540863e-12
1.0307613e-11
1.6981152e-11
2.9674504e-11
4.4938342e-11
3.2539394e-11
3.23147e-12
7.07634e-12
1.251259e-11
2.0393694e-11
2.901235e-11
2.8438925e-11
2.4160409e-12
4.6604149e-12
9.4385872e-12
1.3371311e-11
2.0538279e-11
1.791288e-11
1.3316134e-12
3.3289152e-12
5.0365903e-12
9.6665312e-12
1.5389567e-11
1.0185598e-11
5.8279615e-13
2.7462292e-12
2.1775012e-12
8.0720396e-12
1.3089936e-11
4.4774661e-12
2.6166924e-13
2.4846536e-12
9.6466021e-13
7.3692349e-12
1.204039e-11
2.0144966e-12
2.203383e-13
2.2643827e-12
7.994811e-13
6.7902261e-12
1.122571e-11
1.614368e-12
2.3196669e-13
2.0324615e-12
8.9518838e-13
6.1270919e-12
1.0171155e-11
1.9498782e-12
2.414976e-13
1.7909936e-12
9.6287288e-13
5.4057707e-12
8.9880543e-12
2.1460555e-12
2.2830383e-13
1.5627095e-12
9.1914523e-13
4.7149628e-12
7.8521285e-12
2.0551207e-12
1.9844079e-13
1.3642823e-12
8.0181632e-13
4.1116091e-12
6.8547417e-12
1.7992349e-12
1.6774646e-13
1.1965455e-12
6.7793844e-13
3.6014315e-12
6.0031068e-12
1.5295938e-12
1.4532639e-13
1.0512256e-12
5.8343718e-13
3.163329e-12
5.2708652e-12
1.3156905e-12
1.2999784e-13
9.2123158e-13
5.2023827e-13
2.7730909e-12
4.6207349e-12
1.1703692e-12
1.1878219e-13
8.0245118e-13
4.7563042e-13
2.4162403e-12
4.0265945e-12
1.0697637e-12
1.0921306e-13
6.9323848e-13
4.3798409e-13
2.0874639e-12
3.479002e-12
9.8556495e-13
1.002735e-13
5.9296432e-13
4.0226687e-13
1.7854632e-12
2.9761699e-12
9.0508458e-13
9.1327424e-14
5.0163555e-13
3.6663307e-13
1.5101491e-12
2.5175109e-12
8.2527628e-13
8.2548344e-14
4.1908538e-13
3.3148532e-13
1.2612031e-12
2.1023103e-12
7.4666923e-13
7.428942e-14
3.4479382e-13
2.9801493e-13
1.0374681e-12
1.7291032e-12
6.7120516e-13
6.6593032e-14
2.7819843e-13
2.6683396e-13
8.3721768e-13
1.3955979e-12
6.0032245e-13
5.9388735e-14
2.1880722e-13
2.3782175e-13
6.5877518e-13
1.0986279e-12
5.3477518e-13
5.265396e-14
1.6615073e-13
2.1074465e-13
5.006752e-13
8.3534798e-13
4.7400852e-13
4.6433836e-14
1.1971437e-13
1.8571003e-13
3.6139001e-13
6.0319382e-13
4.1784875e-13
4.0675254e-14
7.9036651e-14
1.631765e-13
2.3888014e-13
3.9971787e-13
3.6663771e-13
3.5381786e-14
4.3652485e-14
1.4188551e-13
1.3236822e-13
2.2266959e-13
3.1891985e-13
3.0529101e-14
1.3121124e-14
1.2238491e-13
4.0504688e-14
6.9898136e-14
2.7514325e-13
2.6098254e-14
-1.2979255e-14
1.046457e-13
-3.8049965e-14
-6.0739578e-14
2.352712e-13
2.2096336e-14
-3.5077561e-14
8.8594605e-14
-1.0455491e-13
-1.7135202e-13
1.9919579e-13
1.8569922e-14
-5.3649299e-14
7.4427154e-14
-1.6041829e-13
-2.6420671e-13
1.6727159e-13
1.5467597e-14
-6.9118553e-14
6.1978324e-14
-2.0693463e-13
-3.4145629e-13
1.3921864e-13
1.2647516e-14
-8.1767581e-14
5.0818538e-14
-2.4511073e-13
-4.0503357e-13
1.1438747e-13
1.0311701e-14
-9.2080648e-14
4.1435179e-14
-2.7623879e-13
-4.5682767e-13
9.3221783e-14
8.2932725e-15
-1.0037516e-13
3.3353152e-14
-3.0130279e-13
-4.984126e-13
7.4931349e-14
6.594545e-15
-1.0697082e-13
2.6342754e-14
-3.210547e-13
-5.3132682e-13
5.9250941e-14
5.1643202e-15
-1.1213615e-13
2.0658147e-14
-3.3655185e-13
-5.5714251e-13
4.6468426e-14
3.9966429e-15
-1.161337e-13
1.600436e-14
-3.4856256e-13
-5.7712594e-13
3.5982931e-14
3.0578837e-15
-1.1919242e-13
1.2226819e-14
-3.5773422e-13
-5.9238144e-13
2.7477878e-14
2.3225463e-15
-1.2151573e-13
9.2808978e-15
-3.646951e-13
-6.0396747e-13
2.086283e-14
1.7618595e-15
-1.2327834e-13
7.1730319e-15
-3.7010866e-13
-6.130152e-13
1.6216877e-14
1.3640778e-15
-1.2464315e-13
5.6531193e-15
-3.7440004e-13
-6.202054e-13
1.2839541e-14
1.1056364e-15
-1.2574952e-13
4.5961691e-15
-3.7789288e-13
-6.2602077e-13
1.0407826e-14
9.7878646e-16
-1.2672905e-13
3.7352638e-15
-3.8065163e-13
-6.3056269e-13
8.2735462e-15
6.4367686e-16
2.3473466e-15
5.1255887e-15
1.3608186e-07
-9.3871602e-09
-8.6234931e-09
1.4469911e-07
2.078236e-08
-1.4647927e-09
-1.3971357e-09
1.3555485e-08
-3.5617501e-09
-4.5808046e-10
-5.7962478e-10
-4.3791142e-09
-1.1712996e-09
-3.3765724e-11
-1.077618e-10
-1.6430959e-09
-1.6088006e-10
7.0011337e-11
5.15106e-11
-3.2013646e-10
2.1882721e-11
7.5414124e-11
8.1012064e-11
-7.615304e-12
4.9073564e-11
5.8880687e-11
7.1646384e-11
5.8439764e-11
4.6754497e-11
4.0565265e-11
5.1570089e-11
6.6830689e-11
3.0712321e-11
2.7766022e-11
3.4550638e-11
4.7731856e-11
1.6674976e-11
2.1276992e-11
2.5595164e-11
2.56308e-11
7.4983446e-12
1.8256536e-11
2.2408877e-11
1.0685114e-11
3.5848415e-12
1.6686566e-11
2.1217455e-11
4.7767095e-12
2.807354e-12
1.5493857e-11
1.9763881e-11
4.2612609e-12
3.3215488e-12
1.4122364e-11
1.7997011e-11
5.088634e-12
3.7205372e-12
1.2547987e-11
1.5997048e-11
5.7206262e-12
3.6233908e-12
1.0979779e-11
1.411077e-11
5.5097395e-12
3.1846079e-12
9.5944439e-12
1.2343436e-11
4.9519835e-12
2.7177302e-12
8.4063309e-12
1.0816676e-11
4.2445141e-12
2.344482e-12
7.3775521e-12
9.4891872e-12
3.6719816e-12
2.0818223e-12
6.4660958e-12
8.3107126e-12
3.2602886e-12
1.9015417e-12
5.6343048e-12
7.233813e-12
2.9784214e-12
1.7519313e-12
4.8679196e-12
6.2502723e-12
2.7354458e-12
1.6084178e-12
4.1645643e-12
5.3500359e-12
2.5086241e-12
1.4670466e-12
3.5227702e-12
4.5265609e-12
2.2904897e-12
1.3276884e-12
2.9417265e-12
3.7799605e-12
2.0742563e-12
1.1934039e-12
2.4195031e-12
3.1094429e-12
1.8638891e-12
1.0665599e-12
1.9532414e-12
2.5106873e-12
1.6652838e-12
9.4960672e-13
1.5383862e-12
1.9786053e-12
1.481658e-12
8.4167944e-13
1.1706924e-12
1.5073237e-12
1.3129316e-12
7.4201767e-13
8.4650163e-13
1.0919558e-12
1.1573574e-12
6.5066685e-13
5.6245171e-13
7.2852055e-13
1.0140754e-12
5.6625462e-13
3.1509729e-13
4.1218569e-13
8.8256429e-13
4.8803862e-13
1.021835e-13
1.3927023e-13
7.6093053e-13
4.1723638e-13
-7.9798755e-14
-9.3649199e-14
6.501341e-13
3.5333204e-13
-2.339506e-13
-2.9054836e-13
5.5021148e-13
2.9666228e-13
-3.6335542e-13
-4.558841e-13
4.6198017e-13
2.469359e-13
-4.7108542e-13
-5.9355601e-13
3.845917e-13
2.0328478e-13
-5.5999421e-13
-7.0705128e-13
3.1676558e-13
1.6518609e-13
-6.3196882e-13
-7.9912357e-13
2.5724539e-13
1.3270148e-13
-6.8974818e-13
-8.730676e-13
2.0663387e-13
1.0516915e-13
-7.3567467e-13
-9.3180672e-13
1.6389785e-13
8.2509841e-14
-7.7172349e-13
-9.779159e-13
1.2860969e-13
6.386234e-14
-7.9960957e-13
-1.0135755e-12
9.9513527e-14
4.879444e-14
-8.209322e-13
-1.0408768e-12
7.6088147e-14
3.7103936e-14
-8.3717893e-13
-1.0617297e-12
5.7949739e-14
2.8809318e-14
-8.4977669e-13
-1.0779019e-12
4.4974764e-14
2.285164e-14
-8.5979396e-13
-1.0907238e-12
3.5667026e-14
1.8490777e-14
-8.6788198e-13
-1.1010243e-12
2.8784942e-14
1.4550434e-14
-8.741638e-13
-1.1089801e-12
2.2500044e-14
8.9706466e-15
1.386795e-14
6.486229e-13
-6.5482867e-13
1.3253212e-12
-6.857882e-13
8.4878515e-13
4.6759739e-13
-2.7959053e-12
3.641711e-12
-1.1536806e-11
8.7412437e-12
-2.6951344e-11
1.541685e-11
-4.9829736e-11
2.288198e-11
-8.0011761e-11
3.0186437e-11
-1.1690143e-10
3.6894571e-11
-1.612676e-10
4.4371316e-11
-2.097558e-10
4.8493378e-11
-2.594032e-10
4.9652462e-11
-3.0833661e-10
4.8938197e-11
-3.5666279e-10
4.8330618e-11
-4.0437589e-10
4.7717082e-11
-4.5106668e-10
4.6694274e-11
-4.9597278e-10
4.4909013e-11
-5.3809599e-10
4.2125549e-11
-5.7652874e-10
3.8434507e-11
-6.1001618e-10
3.3488665e-11
-6.3795935e-10
2.7943906e-11
-6.6004281e-10
2.2083806e-11
-6.7597782e-10
1.5935017e-11
-6.8536271e-10
9.3847092e-12
2.5273559e-12
-3.7515724e-11
3.6865632e-11
-8.4035123e-11
4.5841011e-11
-1.4079363e-10
5.7234687e-11
-2.112658e-10
7.4122871e-11
-2.9841129e-10
9.5895728e-11
-4.0411873e-10
1.2113304e-10
-5.290828e-10
1.478544e-10
-6.7296251e-10
1.7407396e-10
-8.3262854e-10
1.9656779e-10
-1.0028073e-09
2.1455653e-10
-1.1821777e-09
2.2786959e-10
-1.3688943e-09
2.3637426e-10
-1.5606125e-09
2.4066082e-10
-1.7542941e-09
2.4201598e-10
-1.9475471e-09
2.4097334e-10
-2.1394816e-09
2.3863124e-10
-2.3399094e-09
2.4533875e-10
-2.5304294e-09
2.3264694e-10
-2.7034555e-09
2.1146143e-10
-2.8544746e-09
1.84508e-10
-2.9798738e-09
1.5334295e-10
-3.0769657e-09
1.191751e-10
-3.1433935e-09
8.2361671e-11
-3.1752728e-09
4.1262658e-11
1.066939e-11
-1.1409487e-10
1.5096978e-10
-2.5256467e-10
1.8432546e-10
-4.2204593e-10
2.2673297e-10
-6.2940384e-10
2.8149828e-10
-8.7704335e-10
3.4355225e-10
-1.1644016e-09
4.0850727e-10
-1.4933533e-09
4.7682069e-10
-1.9261992e-09
6.0693286e-10
-2.3923034e-09
6.6268335e-10
-2.8657966e-09
6.8805926e-10
-3.3325116e-09
6.9459256e-10
-3.7849051e-09
6.8877425e-10
-4.217282e-09
6.7304289e-10
-4.6235303e-09
6.4826816e-10
-4.9974336e-09
6.1487923e-10
-5.3333134e-09
5.7451267e-10
-5.6162417e-09
5.282677e-10
-5.8603699e-09
4.7677498e-10
-6.0699162e-09
4.2100668e-10
-6.247266e-09
3.6185606e-10
-6.3944335e-09
3.0050814e-10
-6.5124725e-09
2.3721106e-10
-6.6013943e-09
1.7128001e-10
-6.6632106e-09
1.0307506e-10
3.4196667e-11
-3.5359118e-10
5.045782e-10
-7.661848e-10
5.9694518e-10
-1.2618456e-09
7.2242232e-10
-2.073404e-09
1.0930826e-09
-2.9513979e-09
1.2215686e-09
-3.7854264e-09
1.2425541e-09
-4.5229308e-09
1.2143398e-09
-5.0716998e-09
1.1557137e-09
-5.4838078e-09
1.0748006e-09
-5.7741735e-09
9.784322e-10
-5.958214e-09
8.7863857e-10
-6.0493811e-09
7.7994551e-10
-6.0579077e-09
6.815724e-10
-5.9854473e-09
5.7580975e-10
-5.8480371e-09
4.7747023e-10
-5.6629907e-09
3.8946679e-10
-5.4475573e-09
3.1283434e-10
-5.2187025e-09
2.4791976e-10
-4.992497e-09
1.9480036e-10
-4.7837333e-09
1.530912e-10
-4.6037788e-09
1.2055213e-10
-4.4609127e-09
9.4343168e-11
-4.3599977e-09
7.0362991e-11
-4.3046995e-09
4.7774615e-11
2.5307817e-11
-2.1929573e-09
2.6975623e-09
-3.9590228e-09
2.3630408e-09
-5.4959919e-09
2.2594205e-09
-6.2028468e-09
1.7999583e-09
-6.2985948e-09
1.3173334e-09
-5.8399234e-09
7.8389635e-10
-5.0765403e-09
4.5096798e-10
-4.0850647e-09
1.6424753e-10
-2.9305056e-09
-7.9750416e-11
-1.6729467e-09
-2.7911999e-10
-4.2570282e-10
-3.6860104e-10
8.1242435e-10
-4.5818256e-10
2.1171448e-09
-6.2314914e-10
3.533892e-09
-8.4093739e-10
4.9188764e-09
-9.0751235e-10
6.2316525e-09
-9.2330577e-10
7.4496345e-09
-9.0514232e-10
8.5580748e-09
-8.6051339e-10
9.5468687e-09
-7.9398479e-10
1.0408465e-08
-7.0849484e-10
1.1134786e-08
-6.0575716e-10
1.1717128e-08
-4.8798495e-10
1.2145134e-08
-3.5762833e-10
1.2410004e-08
-2.1708029e-10
-6.4998498e-11
9.8005234e-10
1.7175959e-09
4.1181055e-09
-7.7495926e-10
7.8052183e-09
-1.4276194e-09
1.1478403e-08
-1.8731944e-09
1.5210879e-08
-2.4151171e-09
1.8872811e-08
-2.8780089e-09
2.2474433e-08
-3.1506212e-09
2.5862182e-08
-3.2234652e-09
2.89427e-08
-3.160226e-09
3.1689443e-08
-3.0258168e-09
3.4170495e-08
-2.8496042e-09
3.6350865e-08
-2.6385009e-09
3.814825e-08
-2.4204801e-09
3.9522181e-08
-2.2148131e-09
4.0615867e-08
-2.0011434e-09
4.1480428e-08
-1.7878112e-09
4.2156098e-08
-1.5807573e-09
4.2676584e-08
-1.3809443e-09
4.3071143e-08
-1.1884879e-09
4.336529e-08
-1.0025878e-09
4.3580884e-08
-8.2129605e-10
4.3735232e-08
-6.4227915e-10
4.3840461e-08
-4.6280384e-10
4.3903775e-08
-2.8034062e-10
-8.9050545e-11
1.4877906e-07
-2.3611451e-09
1.4751292e-07
4.921066e-10
1.4503386e-07
1.0522284e-09
1.4162802e-07
1.533339e-09
1.3711229e-07
2.1012262e-09
1.3165215e-07
2.5826494e-09
1.2562279e-07
2.8791905e-09
1.1942166e-07
2.9780493e-09
1.1332128e-07
2.940483e-09
1.0747645e-07
2.8192961e-09
1.0195744e-07
2.6696555e-09
9.6815e-08
2.5041649e-09
9.2080008e-08
2.3147105e-09
8.7751814e-08
2.1135587e-09
8.3841002e-08
1.909829e-09
8.0345331e-08
1.7080052e-09
7.7254047e-08
1.5106606e-09
7.4553616e-08
1.3196096e-09
7.2230102e-08
1.1351391e-09
7.0270955e-08
9.5666511e-10
6.8666781e-08
7.8297682e-10
6.7412417e-08
6.1217813e-10
6.6508361e-08
4.4134015e-10
6.5960353e-08
2.6775196e-10
8.5602569e-11
1.2861227e-08
-1.6667664e-09
1.5185109e-08
-1.8316622e-09
1.7833131e-08
-1.5956805e-09
2.0588132e-08
-1.2215521e-09
2.3438149e-08
-7.486839e-10
2.6380142e-08
-3.5924303e-10
2.932853e-08
-6.9105458e-11
3.2122e-08
1.8466864e-10
3.4717803e-08
3.4476775e-10
3.7083436e-08
4.5375059e-10
3.917739e-08
5.7578722e-10
4.0814651e-08
8.66989e-10
4.2113978e-08
1.0154667e-09
4.3146355e-08
1.0812625e-09
4.3954552e-08
1.1017111e-09
4.4574878e-08
1.0877564e-09
4.5041572e-08
1.0440404e-09
4.5384325e-08
9.7692905e-10
4.5629586e-08
8.8994863e-10
4.5800396e-08
7.8592193e-10
4.5916379e-08
6.6706003e-10
4.5993444e-08
5.3517661e-10
4.6043183e-08
3.9166208e-10
4.6072801e-08
2.3819378e-10
7.2406952e-11
-5.2409153e-09
-8.0497653e-10
-5.9924209e-09
-1.0801667e-09
-6.3857261e-09
-1.2023859e-09
-6.3497113e-09
-1.257577e-09
-5.846889e-09
-1.2515145e-09
-5.008612e-09
-1.197526e-09
-3.9584892e-09
-1.1192316e-09
-2.7497916e-09
-1.0240294e-09
-1.4862258e-09
-9.187959e-10
-2.2091939e-10
-8.1155116e-10
1.0590262e-09
-7.0415145e-10
2.5197925e-09
-5.9376803e-10
4.0218026e-09
-4.8653193e-10
5.4916641e-09
-3.8858528e-10
6.8947474e-09
-3.0135663e-10
8.2069984e-09
-2.2447747e-10
9.4240939e-09
-1.7303666e-10
1.053509e-08
-1.3404711e-10
1.1527415e-08
-1.023561e-10
1.2390897e-08
-7.7539244e-11
1.3116897e-08
-5.8919064e-11
1.3697492e-08
-4.5396772e-11
1.4124706e-08
-3.5530074e-11
1.4389962e-08
-2.7041534e-11
-1.681806e-11
-2.2745119e-09
-1.7356192e-10
-3.0987278e-09
-2.5595339e-10
-3.9526004e-09
-3.4851852e-10
-4.7792942e-09
-4.3089065e-10
-5.5157562e-09
-5.1506184e-10
-6.0568663e-09
-6.5642646e-10
-6.4662693e-09
-7.0983981e-10
-6.7539854e-09
-7.3632463e-10
-6.9273631e-09
-7.4542953e-10
-6.9976297e-09
-7.4129559e-10
-6.9743639e-09
-7.2742784e-10
-6.8614022e-09
-7.0673973e-10
-6.6694474e-09
-6.7849592e-10
-6.4150166e-09
-6.4302458e-10
-6.1148867e-09
-6.0149413e-10
-5.7839662e-09
-5.554048e-10
-5.4493404e-09
-5.0766858e-10
-5.1262609e-09
-4.5713204e-10
-4.8245377e-09
-4.0408403e-10
-4.5535578e-09
-3.4852343e-10
-4.3220544e-09
-2.9042625e-10
-4.1377036e-09
-2.2975105e-10
-4.0067488e-09
-1.6648803e-10
-3.9329719e-09
-1.0082156e-10
-3.397204e-11
-5.2497157e-10
3.1276241e-11
-7.8526019e-10
4.3380034e-12
-1.0903926e-09
-4.3384144e-11
-1.437456e-09
-8.3826109e-11
-1.8228396e-09
-1.296781e-10
-2.3037404e-09
-1.7552675e-10
-2.8002568e-09
-2.1332579e-10
-3.2946419e-09
-2.4194296e-10
-3.7787557e-09
-2.613203e-10
-4.245101e-09
-2.7495579e-10
-4.6876267e-09
-2.8490833e-10
-5.1013884e-09
-2.9298491e-10
-5.4771902e-09
-3.0270148e-10
-5.7939342e-09
-3.2628832e-10
-6.0726635e-09
-3.2277286e-10
-6.3171981e-09
-3.1087849e-10
-6.531971e-09
-2.9290394e-10
-6.7195354e-09
-2.6957603e-10
-6.8819834e-09
-2.4164454e-10
-7.0209243e-09
-2.0959095e-10
-7.1374909e-09
-1.7386803e-10
-7.2322288e-09
-1.3502138e-10
-7.3049534e-09
-9.3771727e-11
-7.3555296e-09
-5.0253556e-11
-1.1509924e-11
-6.3663384e-11
8.7326257e-11
-1.4439765e-10
8.5074273e-11
-2.5674384e-10
6.8963917e-11
-3.917462e-10
5.1177826e-11
-5.5418173e-10
3.2758625e-11
-7.4072548e-10
1.1017749e-11
-9.4190715e-10
-1.2143872e-11
-1.1505848e-09
-3.3265596e-11
-1.3655422e-09
-4.6363527e-11
-1.5825489e-09
-5.7950327e-11
-1.8005687e-09
-6.689008e-11
-2.0205939e-09
-7.2961758e-11
-2.2467387e-09
-7.6559049e-11
-2.4949968e-09
-7.8032974e-11
-2.7401784e-09
-7.7594467e-11
-2.9755928e-09
-7.5467587e-11
-3.1967163e-09
-7.178429e-11
-3.3996522e-09
-6.6644263e-11
-3.5811024e-09
-6.0198593e-11
-3.7380792e-09
-5.2618681e-11
-3.8678761e-09
-4.407573e-11
-3.9681425e-09
-3.4759602e-11
-4.0370549e-09
-2.4864006e-11
-4.0727983e-09
-1.4514798e-11
-4.0246839e-12
6.4470966e-11
8.1295896e-11
6.4573762e-11
8.497224e-11
4.9521029e-11
8.4017303e-11
2.1106986e-11
7.9592393e-11
-1.833469e-11
7.2200687e-11
-6.8957783e-11
6.1641083e-11
-1.2727105e-10
4.6169487e-11
-1.9605121e-10
3.5514506e-11
-2.6823293e-10
2.5818006e-11
-3.4267453e-10
1.6490936e-11
-4.1857953e-10
9.0144658e-12
-4.9474486e-10
3.2029994e-12
-5.7033884e-10
-9.6576132e-13
-6.4469429e-10
-3.6783286e-12
-7.1675342e-10
-5.5362557e-12
-7.8554836e-10
-6.6736801e-12
-8.5013924e-10
-7.1945215e-12
-9.0955832e-10
-7.2263867e-12
-9.6285782e-10
-6.9003598e-12
-1.0091459e-09
-6.3319288e-12
-1.0476255e-09
-5.597504e-12
-1.0776541e-09
-4.7323101e-12
-1.0987814e-09
-3.738016e-12
-1.1108001e-09
-2.4974e-12
-7.8665677e-13
8.8316987e-11
5.9810162e-11
1.0781366e-10
6.5476083e-11
1.2419904e-10
6.763236e-11
1.3632746e-10
6.7464357e-11
1.4290263e-10
6.5625845e-11
1.4426043e-10
6.0283561e-11
1.3802349e-10
5.2406666e-11
1.2875443e-10
4.4783777e-11
1.1737005e-10
3.7202566e-11
1.0528911e-10
2.8572027e-11
9.2186829e-11
2.2116875e-11
7.9454939e-11
1.5934993e-11
6.782205e-11
1.0667215e-11
5.7312681e-11
6.8311143e-12
4.8575263e-11
3.2012264e-12
4.1498943e-11
4.026979e-13
3.5861873e-11
-1.5573954e-12
3.1501429e-11
-2.8658867e-12
2.8148737e-11
-3.5476086e-12
2.5562641e-11
-3.7457702e-12
2.3546624e-11
-3.5814181e-12
2.1930013e-11
-3.115621e-12
2.0604994e-11
-2.4129089e-12
1.9678682e-11
-1.5709944e-12
-5.5254793e-13
6.6619026e-11
4.0923441e-11
8.549907e-11
4.6596482e-11
1.0243598e-10
5.069587e-11
1.1793151e-10
5.1969223e-11
1.3173367e-10
5.1824062e-11
1.4255636e-10
4.9461234e-11
1.5002191e-10
4.4941454e-11
1.5466461e-10
4.0141417e-11
1.5775759e-10
3.4109907e-11
1.5870483e-10
2.7625098e-11
1.5899417e-10
2.1827844e-11
1.5810552e-10
1.6823953e-11
1.5745438e-10
1.1318649e-11
1.5730296e-10
6.9828319e-12
1.5749004e-10
3.014438e-12
1.5798726e-10
-9.4233874e-14
1.5886188e-10
-2.4317146e-12
1.6001661e-10
-4.0203261e-12
1.6139277e-10
-4.923468e-12
1.6285898e-10
-5.2116798e-12
1.6427894e-10
-5.001088e-12
1.654597e-10
-4.2960815e-12
1.6627584e-10
-3.2287559e-12
1.6674161e-10
-2.0364832e-12
-7.5505668e-13
3.5929653e-11
3.0624898e-11
4.6112934e-11
3.6413523e-11
5.6402839e-11
4.0406288e-11
6.5549337e-11
4.2823043e-11
7.3999472e-11
4.3374236e-11
7.9891365e-11
4.3569641e-11
8.421603e-11
4.0617077e-11
8.6889784e-11
3.7467941e-11
8.6791439e-11
3.4208517e-11
8.4972849e-11
2.9443941e-11
8.2363774e-11
2.4437158e-11
7.8434251e-11
2.0753704e-11
7.3664808e-11
1.6088307e-11
6.8473719e-11
1.2174125e-11
6.3437165e-11
8.0511836e-12
5.8404524e-11
4.9385888e-12
5.3573521e-11
2.3994605e-12
4.9196076e-11
3.5728059e-13
4.5362637e-11
-1.089875e-12
4.2113688e-11
-1.9625855e-12
3.9431677e-11
-2.3189398e-12
3.7467483e-11
-2.3317567e-12
3.6279425e-11
-2.0405758e-12
3.5654424e-11
-1.411373e-12
-5.2343133e-13
1.4386624e-11
2.6923575e-11
1.9231005e-11
3.156934e-11
2.3702339e-11
3.5935157e-11
2.7465499e-11
3.9060087e-11
3.0100652e-11
4.0739284e-11
3.2839407e-11
4.083108e-11
3.2095956e-11
4.1360712e-11
3.0554241e-11
3.9009827e-11
2.8347232e-11
3.6415683e-11
2.4057215e-11
3.37341e-11
1.764366e-11
3.085084e-11
1.1191289e-11
2.7206183e-11
4.126959e-12
2.3152729e-11
-3.3126503e-12
1.9613809e-11
-1.1756363e-11
1.6494954e-11
-2.0114632e-11
1.3296901e-11
-2.8236119e-11
1.0520977e-11
-3.5721639e-11
7.8428161e-12
-4.2572833e-11
5.7613234e-12
-4.8709932e-11
4.1745078e-12
-5.3999944e-11
2.9710575e-12
-5.8412035e-11
2.0803122e-12
-6.1930917e-11
1.478276e-12
-6.4565948e-11
1.2236195e-12
4.7714191e-13
6.2955089e-12
2.5404872e-11
8.1145819e-12
2.9750374e-11
1.0246999e-11
3.3802852e-11
1.2213052e-11
3.7094148e-11
1.3561116e-11
3.9391331e-11
1.3741148e-11
4.0651154e-11
1.3719426e-11
4.1382533e-11
1.194119e-11
4.0788152e-11
8.5667295e-12
3.9790221e-11
4.4596148e-12
3.7841279e-11
-2.7518982e-13
3.5585694e-11
-5.8883105e-12
3.281934e-11
-1.2603088e-11
2.9867526e-11
-2.0242102e-11
2.7252828e-11
-2.7716714e-11
2.3969558e-11
-3.5188695e-11
2.0768859e-11
-4.2480569e-11
1.7812816e-11
-4.9604136e-11
1.4966337e-11
-5.6216678e-11
1.2373809e-11
-6.2087481e-11
1.0045247e-11
-6.7058729e-11
7.9422347e-12
-7.0990686e-11
6.0121931e-12
-7.371852e-11
4.2060288e-12
-7.5026279e-11
2.5312902e-12
9.1502832e-13
5.7975599e-12
2.3868612e-11
7.4594386e-12
2.8088546e-11
9.3233573e-12
3.1938992e-11
1.1215721e-11
3.5201847e-11
1.2797062e-11
3.7810052e-11
1.3809699e-11
3.9638577e-11
1.4480597e-11
4.071169e-11
1.4164744e-11
4.1104055e-11
1.318962e-11
4.0765386e-11
1.1194277e-11
3.9836655e-11
8.4355425e-12
3.8344451e-11
5.0854398e-12
3.6169454e-11
9.4468301e-13
3.4008284e-11
-3.3682874e-12
3.1565789e-11
-8.454905e-12
2.9056155e-11
-1.378444e-11
2.6098364e-11
-1.9031366e-11
2.3059701e-11
-2.41271e-11
2.0062023e-11
-2.8912815e-11
1.7159469e-11
-3.3219415e-11
1.4351787e-11
-3.6922063e-11
1.1644816e-11
-3.9924033e-11
9.0140945e-12
-4.2180179e-11
6.4620997e-12
-4.3460402e-11
3.8114342e-12
1.2481368e-12
7.2215397e-12
2.1735707e-11
9.6749003e-12
2.5635201e-11
1.2270708e-11
2.934321e-11
1.4900582e-11
3.2572005e-11
1.7436273e-11
3.5274396e-11
1.9710981e-11
3.7363906e-11
2.163734e-11
3.8785367e-11
2.3149768e-11
3.9591659e-11
2.4107783e-11
3.98074e-11
2.4426641e-11
3.9517819e-11
2.4106375e-11
3.8664734e-11
2.2992594e-11
3.7283246e-11
2.1512145e-11
3.5488735e-11
1.9485759e-11
3.359217e-11
1.7206335e-11
3.1335567e-11
1.4560246e-11
2.8744434e-11
1.1768899e-11
2.5851022e-11
8.8936317e-12
2.2937259e-11
6.047888e-12
2.0005176e-11
3.3997781e-12
1.6999855e-11
1.0332679e-12
1.401128e-11
-9.6418213e-13
1.1011497e-11
-2.501466e-12
7.9993315e-12
-3.5303002e-12
4.8402123e-12
1.4648183e-12
8.018897e-12
1.9437406e-11
1.0855467e-11
2.2798616e-11
1.3952592e-11
2.6246082e-11
1.7204667e-11
2.9319936e-11
2.0485602e-11
3.1993473e-11
2.363177e-11
3.4217754e-11
2.653986e-11
3.5877295e-11
2.9160677e-11
3.697086e-11
3.1438018e-11
3.7530075e-11
3.3340162e-11
3.761569e-11
3.475185e-11
3.7253057e-11
3.5590554e-11
3.644455e-11
3.5877874e-11
3.5201418e-11
3.587046e-11
3.3599582e-11
3.5568895e-11
3.1637124e-11
3.4909834e-11
2.9403483e-11
3.3861939e-11
2.68989e-11
3.2625265e-11
2.4173912e-11
3.1337331e-11
2.1293084e-11
3.0039637e-11
1.8297521e-11
2.8860433e-11
1.5190453e-11
2.7901209e-11
1.197069e-11
2.7309072e-11
8.591433e-12
2.6956466e-11
5.1927814e-12
1.8028106e-12
7.7815391e-12
1.7165551e-11
1.0534047e-11
2.0046066e-11
1.3589403e-11
2.3190696e-11
1.6918709e-11
2.5990611e-11
2.0393475e-11
2.8518695e-11
2.3855373e-11
3.075585e-11
2.7219575e-11
3.251309e-11
3.039137e-11
3.3799065e-11
3.3303692e-11
3.4617754e-11
3.5943806e-11
3.4975576e-11
3.8294841e-11
3.4902023e-11
4.0267599e-11
3.447179e-11
4.1847685e-11
3.3621328e-11
4.3068777e-11
3.2378482e-11
4.3929132e-11
3.0776759e-11
4.4475428e-11
2.8857174e-11
4.4720714e-11
2.6653598e-11
4.4711454e-11
2.4183154e-11
4.456478e-11
2.1439737e-11
4.4289021e-11
1.8573256e-11
4.3959815e-11
1.5519634e-11
4.3641784e-11
1.2288697e-11
4.338536e-11
8.8478296e-12
4.3219367e-11
5.3587469e-12
1.8270895e-12
7.0501699e-12
1.5067291e-11
9.3624786e-12
1.7733696e-11
1.2156595e-11
2.0396529e-11
1.5197376e-11
2.2949788e-11
1.8456933e-11
2.5259105e-11
2.1828288e-11
2.7384468e-11
2.5207803e-11
2.9133554e-11
2.8512158e-11
3.0494692e-11
3.1684e-11
3.1445897e-11
3.4654201e-11
3.2005361e-11
3.7379876e-11
3.2176335e-11
3.9888066e-11
3.1963587e-11
4.2109036e-11
3.1400345e-11
4.4036679e-11
3.0450825e-11
4.5658804e-11
2.9154617e-11
4.6991346e-11
2.7524614e-11
4.8063607e-11
2.5581318e-11
4.8899517e-11
2.3347223e-11
4.9494184e-11
2.0845047e-11
4.989623e-11
1.8171187e-11
5.0175344e-11
1.5240497e-11
5.0324839e-11
1.213918e-11
5.0299103e-11
8.8735423e-12
5.0344239e-11
5.3135872e-12
1.622236e-12
6.0740079e-12
1.3237715e-11
8.1720715e-12
1.563556e-11
1.0610446e-11
1.7958091e-11
1.3319189e-11
2.0240989e-11
1.6223671e-11
2.2354577e-11
1.9320507e-11
2.4287591e-11
2.250778e-11
2.5946246e-11
2.5712002e-11
2.729044e-11
2.8856285e-11
2.8301586e-11
3.1900009e-11
2.8961613e-11
3.4795219e-11
2.9281102e-11
3.7507458e-11
2.9251327e-11
4.0037048e-11
2.8870735e-11
4.233903e-11
2.8148821e-11
4.4410653e-11
2.7082973e-11
4.6227587e-11
2.5707658e-11
4.7804747e-11
2.4004135e-11
4.9143965e-11
2.2007983e-11
5.023819e-11
1.97508e-11
5.1176119e-11
1.7233234e-11
5.1929332e-11
1.4487262e-11
5.2561722e-11
1.1506769e-11
5.2939661e-11
8.4955813e-12
5.3043226e-11
5.2100023e-12
1.6552316e-12
5.2992535e-12
1.161036e-11
7.1876698e-12
1.3747068e-11
9.3202874e-12
1.5825406e-11
1.1767256e-11
1.7793961e-11
1.4397444e-11
1.9724336e-11
1.7218811e-11
2.1466178e-11
2.0166093e-11
2.2998923e-11
2.3179767e-11
2.427673e-11
2.6203e-11
2.5278321e-11
2.9184028e-11
2.5980557e-11
3.2098533e-11
2.6366571e-11
3.4905503e-11
2.6444332e-11
3.7570579e-11
2.6205636e-11
4.0072788e-11
2.564659e-11
4.2378636e-11
2.4777103e-11
4.4488326e-11
2.3597946e-11
4.6377238e-11
2.2115202e-11
4.8035182e-11
2.0350017e-11
4.9473271e-11
1.831269e-11
5.0685612e-11
1.6020873e-11
5.1683535e-11
1.3489318e-11
5.2426598e-11
1.0763689e-11
5.3278453e-11
7.6437074e-12
5.3735005e-11
4.7534324e-12
1.7735465e-12
4.6865801e-12
1.0183989e-11
6.4245352e-12
1.200904e-11
8.404293e-12
1.3845582e-11
1.0577214e-11
1.5620981e-11
1.3006971e-11
1.7294527e-11
1.5606278e-11
1.8866824e-11
1.8345998e-11
2.0259162e-11
2.1177171e-11
2.1445521e-11
2.4057535e-11
2.2397925e-11
2.6947626e-11
2.3090437e-11
2.9801944e-11
2.3512227e-11
3.2602664e-11
2.3643588e-11
3.5312002e-11
2.3496276e-11
3.7892737e-11
2.3065835e-11
4.0325604e-11
2.2344216e-11
4.2586914e-11
2.1336617e-11
4.4645741e-11
2.0056355e-11
4.6493513e-11
1.8502226e-11
4.8116987e-11
1.6689198e-11
4.9505232e-11
1.463261e-11
5.0646271e-11
1.2348262e-11
5.1570444e-11
9.8395008e-12
5.2061944e-11
7.1521922e-12
5.243649e-11
4.3788718e-12
1.5131952e-12
4.3163001e-12
8.8460381e-12
5.8673307e-12
1.0457941e-11
7.6657613e-12
1.2047089e-11
9.6838329e-12
1.3602853e-11
1.1901015e-11
1.5077295e-11
1.4312656e-11
1.6455139e-11
1.6866151e-11
1.7705629e-11
1.953126e-11
1.8780378e-11
2.2267972e-11
1.9661183e-11
2.5038745e-11
2.0319638e-11
2.7813062e-11
2.0737886e-11
3.0545842e-11
2.0910787e-11
3.3217831e-11
2.0824268e-11
3.5802004e-11
2.0481644e-11
3.8264523e-11
1.9881681e-11
4.0573846e-11
1.9027278e-11
4.2713118e-11
1.7917067e-11
4.4655323e-11
1.6560006e-11
4.6376979e-11
1.4967528e-11
4.7855911e-11
1.3153664e-11
4.9070701e-11
1.1133459e-11
4.9988331e-11
8.9218592e-12
5.0615027e-11
6.5254842e-12
5.1024246e-11
3.9696411e-12
1.2458074e-12
3.9542791e-12
7.6271435e-12
5.3918803e-12
9.0202817e-12
7.0299531e-12
1.0408962e-11
8.8870122e-12
1.1745743e-11
1.0931389e-11
1.3032872e-11
1.3151852e-11
1.4234636e-11
1.553628e-11
1.5321165e-11
1.8030768e-11
1.6285859e-11
2.0610528e-11
1.7081397e-11
2.324342e-11
1.7686722e-11
2.5889852e-11
1.8091434e-11
2.8522661e-11
1.827796e-11
3.1108744e-11
1.823817e-11
3.3619936e-11
1.7970436e-11
3.6031564e-11
1.747004e-11
3.8318555e-11
1.6740274e-11
4.0453421e-11
1.5782188e-11
4.2407089e-11
1.4606326e-11
4.4157204e-11
1.3217401e-11
4.568742e-11
1.1623437e-11
4.6982277e-11
9.8385911e-12
4.8025883e-11
7.8782454e-12
4.8923401e-11
5.6279569e-12
4.9363986e-11
3.529047e-12
1.1704519e-12
3.6092643e-12
6.5264489e-12
4.9030995e-12
7.7263954e-12
6.4255898e-12
8.8864237e-12
8.1312439e-12
1.0040046e-11
1.0013997e-11
1.115008e-11
1.2051838e-11
1.2196759e-11
1.4229718e-11
1.3143254e-11
1.654706e-11
1.3968489e-11
1.8964402e-11
1.466403e-11
2.1423081e-11
1.5228023e-11
2.391082e-11
1.5603677e-11
2.6399468e-11
1.5789296e-11
2.8856872e-11
1.5780752e-11
3.1257246e-11
1.557005e-11
3.3570611e-11
1.5156664e-11
3.5770743e-11
1.4540131e-11
3.7830507e-11
1.3722415e-11
3.972672e-11
1.2710104e-11
4.1435233e-11
1.150888e-11
4.2931511e-11
1.0127151e-11