/*--------------------------------*- C++ -*----------------------------------*\
| =========                 |                                                 |
| \\      /  F ield         | OpenFOAM: The Open Source CFD Toolbox           |
|  \\    /   O peration     | Version:  4.0                                   |
|   \\  /    A nd           | Web:      www.OpenFOAM.org                      |
|    \\/     M anipulation  |                                                 |
\*---------------------------------------------------------------------------*/
FoamFile
{
    version     2.0;
    format      ascii;
    class       volVectorField;
    location    "0.38";
    object      U;
}
// * * * * * * * * * * * * * * * * * * * * * * * * * * * * * * * * * * * * * //

dimensions      [0 1 -1 0 0 0 0];

internalField   nonuniform List<vector> 
1740
(
(1.4696981 -0.00052479267 6.3249296e-06)
(1.4386949 0.0017117539 9.4600652e-07)
(1.5897983 0.0015473066 1.0414906e-07)
(1.53943 -0.0029747078 9.3293303e-06)
(1.4752408 -0.008151382 1.7714041e-06)
(1.6795798 -0.0065114912 2.6200862e-07)
(1.4762296 0.0010864105 1.1523146e-05)
(1.473451 -0.022262701 2.5813251e-06)
(1.5903778 -0.017937336 4.2746825e-07)
(1.4958551 0.0059436955 1.3534938e-05)
(1.528392 -0.011987164 3.2925954e-06)
(1.573916 -0.014724828 5.8155886e-07)
(1.4987565 0.0031690359 1.509466e-05)
(1.5487897 0.0070862537 4.3905874e-06)
(1.5696192 0.0017194516 7.7869419e-07)
(1.4852295 -0.0069487484 1.6482579e-05)
(1.5201983 0.0087135006 5.1054025e-06)
(1.6019661 0.0068683259 9.7293606e-07)
(1.4715866 -0.018366745 1.7373075e-05)
(1.4958296 -0.01489705 5.7956736e-06)
(1.6039918 -0.0053952469 1.1177265e-06)
(1.568328 -0.014659507 1.7875554e-05)
(1.5105412 -0.0054394017 6.4788911e-06)
(1.5301859 -0.0045882087 1.3351344e-06)
(1.5816925 -0.0052722476 1.8579509e-05)
(1.5079267 0.00023086958 7.154796e-06)
(1.607529 -0.0037737247 1.5354818e-06)
(1.595348 -0.002850609 1.897961e-05)
(1.4995276 -0.017773116 7.8506184e-06)
(1.5948253 -0.014273954 1.6854501e-06)
(1.6029454 -0.0010245067 1.9393085e-05)
(1.5144615 -0.013030515 8.3453265e-06)
(1.5257502 -0.010171466 1.9064725e-06)
(1.592569 -0.012899249 1.9763236e-05)
(1.5334365 -0.00011318308 9.0351798e-06)
(1.5187497 0.0041022762 2.1150959e-06)
(1.6968037 -0.0056897929 1.9987322e-05)
(1.5081939 0.0053295645 9.460533e-06)
(1.5797456 0.0057189813 2.2165213e-06)
(1.5611173 0.019998554 2.0238363e-05)
(1.5560188 -0.0074090255 9.8930574e-06)
(1.5633901 -0.015583848 2.5147681e-06)
(1.5497244 0.0061836587 2.0398907e-05)
(1.6720032 -0.011596215 1.034277e-05)
(1.4770553 -0.010920224 2.7027e-06)
(1.557036 -0.0091798869 2.0603654e-05)
(1.5914974 0.015468117 1.0767924e-05)
(1.5063744 0.014276863 2.8431872e-06)
(1.5680757 0.0011870346 2.0973542e-05)
(1.487131 0.019032087 1.1181501e-05)
(1.5312134 0.009686424 3.0863883e-06)
(1.5644634 0.018217436 2.1362101e-05)
(1.5540533 -0.010507798 1.1550841e-05)
(1.5881008 -0.01457588 3.2195817e-06)
(1.5112312 0.0011551277 2.1317071e-05)
(1.6540832 -0.01539346 1.2139533e-05)
(1.5206264 -0.010889687 3.4177246e-06)
(1.6169299 -0.00049611577 2.1519477e-05)
(1.5510271 0.0017850996 1.2526796e-05)
(1.5441878 0.0036161923 3.6029706e-06)
(1.5386602 -0.0072116748 2.161532e-05)
(1.5610869 -0.0003244437 1.2813318e-05)
(1.5636574 -0.00015490448 3.7980508e-06)
(1.5528263 -0.021954247 2.1626613e-05)
(1.573274 -0.023087462 1.3162505e-05)
(1.486261 -0.0050929055 3.954751e-06)
(1.7067623 -0.010675555 2.2120711e-05)
(1.6004567 -0.010283755 1.3482115e-05)
(1.5077205 -0.0026251849 4.0988699e-06)
(1.6156545 -0.0065187182 2.2626548e-05)
(1.6202084 0.0067951492 1.3826174e-05)
(1.513335 0.0056835852 4.2615988e-06)
(1.5952143 -0.0062838738 2.2511894e-05)
(1.4908065 0.00421401 1.4123526e-05)
(1.4900855 0.0040411671 4.4109178e-06)
(1.6679221 0.018303961 2.224722e-05)
(1.5650358 0.011322518 1.4348911e-05)
(1.5062298 0.0012064835 4.5516401e-06)
(1.6163341 0.02355877 2.2251028e-05)
(1.5443018 0.016267871 1.4690534e-05)
(1.5615143 0.0056034562 4.6862737e-06)
(1.48586 0.017681485 2.246373e-05)
(1.518797 0.011145946 1.4992427e-05)
(1.5020068 -0.0025461738 4.8502342e-06)
(1.3587583 0.0080803874 2.2113877e-05)
(1.5088647 -0.0014029341 1.5110277e-05)
(1.4728447 0.0049714152 4.8361694e-06)
(1.2490938 0.024488576 2.355278e-05)
(1.2938978 0.091134839 1.5782154e-05)
(1.3849786 0.057551381 5.5297718e-06)
(0.81579144 0.36090593 1.1709683e-05)
(0.80025285 0.925489 1.001903e-05)
(0.73149857 1.2513658 5.4008212e-06)
(0.21243019 0.1062234 1.5043473e-06)
(0.18565102 0.3585109 3.0680956e-06)
(0.088859438 0.49173305 6.7614289e-07)
(-0.028418254 -0.01472204 1.2343012e-06)
(-0.024585251 -0.029312318 1.674963e-06)
(-0.017114361 -0.033743461 5.842198e-07)
(-0.0041147544 -0.0030167222 4.5945742e-07)
(-0.003791797 -0.0075302334 7.4064883e-07)
(-0.0037846131 -0.010124761 3.4184627e-07)
(0.0017154092 -2.210031e-05 1.1852356e-07)
(0.0015128336 -0.00011779631 2.4638284e-07)
(0.000673389 -0.00042595042 1.1518319e-07)
(0.0014451447 0.00018648878 2.4406234e-08)
(0.0013139142 0.00042723351 5.8632434e-08)
(0.00098289612 0.00049072059 4.2608817e-10)
(0.0010393754 0.00012947627 -3.599492e-09)
(0.00097801795 0.00030823031 -8.3119031e-09)
(0.00085386323 0.0004465616 -4.4646761e-08)
(0.00075937068 9.231336e-05 -1.2333067e-08)
(0.00072168863 0.0002231022 -2.9250739e-08)
(0.00065313393 0.00036366614 -5.6254739e-08)
(0.00055011177 7.0366946e-05 -1.2667265e-08)
(0.00052882927 0.00017484358 -3.0821305e-08)
(0.00048987338 0.00025243847 -5.1846184e-08)
(0.00040052502 3.95883e-05 -9.7186733e-09)
(0.00038951518 9.6442849e-05 -2.5093955e-08)
(0.00036819993 0.00014010916 -4.1394606e-08)
(0.00030699901 1.8382857e-05 -6.5830572e-09)
(0.0003017728 4.4229916e-05 -1.8150388e-08)
(0.00029056437 6.1971422e-05 -3.0393115e-08)
(0.00025257037 8.3244077e-06 -4.305657e-09)
(0.00025042934 2.0433811e-05 -1.247438e-08)
(0.00024459251 2.8706489e-05 -2.1267183e-08)
(0.000216814 6.7318698e-06 -2.9900847e-09)
(0.00021612519 1.5975007e-05 -8.5177371e-09)
(0.00021333849 2.451916e-05 -1.4496155e-08)
(0.00018987714 6.7979782e-06 -2.1261021e-09)
(0.00018982394 1.6681198e-05 -5.7747103e-09)
(0.00018850437 2.670264e-05 -9.6777327e-09)
(0.0001675253 6.9267859e-06 -1.5191088e-09)
(0.00016780058 1.749862e-05 -3.8651053e-09)
(0.00016718843 2.8085923e-05 -6.3155457e-09)
(0.00014789858 6.5108707e-06 -1.0585419e-09)
(0.00014829034 1.6611654e-05 -2.5175886e-09)
(0.00014802013 2.6726185e-05 -3.998621e-09)
(0.00013051386 5.6590584e-06 -6.9832989e-10)
(0.00013092641 1.4454631e-05 -1.5682451e-09)
(0.00013081947 2.3353376e-05 -2.435057e-09)
(0.00011511417 4.798658e-06 -4.3644776e-10)
(0.00011550858 1.2184283e-05 -9.2828845e-10)
(0.00011547239 1.9784483e-05 -1.4196444e-09)
(0.00010136989 4.1790534e-06 -2.7214645e-10)
(0.00010173065 1.0500556e-05 -5.325902e-10)
(0.00010172188 1.6997144e-05 -7.9520966e-10)
(8.8974583e-05 3.7512738e-06 -1.7607368e-10)
(8.9297272e-05 9.3689773e-06 -3.0398194e-10)
(8.9298137e-05 1.513315e-05 -4.333563e-10)
(7.7703522e-05 3.4320383e-06 -1.2204882e-10)
(7.7988358e-05 8.5576646e-06 -1.7931526e-10)
(7.7991934e-05 1.3829393e-05 -2.3472159e-10)
(6.7408763e-05 3.1584805e-06 -9.2008308e-11)
(6.7657716e-05 7.8695248e-06 -1.1387409e-10)
(6.7661642e-05 1.2726257e-05 -1.3012022e-10)
(5.7997841e-05 2.9031454e-06 -7.495947e-11)
(5.8213644e-05 7.2252093e-06 -8.058182e-11)
(5.8217666e-05 1.1681192e-05 -7.7263438e-11)
(4.9411541e-05 2.6458282e-06 -6.3144679e-11)
(4.9597137e-05 6.5777234e-06 -6.2293207e-11)
(4.9601724e-05 1.0646416e-05 -5.0861274e-11)
(4.160636e-05 2.3927025e-06 -5.4090018e-11)
(4.1764589e-05 5.9407935e-06 -5.0993981e-11)
(4.177033e-05 9.6288466e-06 -3.7345263e-11)
(3.4543743e-05 2.1540033e-06 -4.7700316e-11)
(3.4677453e-05 5.3407707e-06 -4.3914344e-11)
(3.468513e-05 8.6550541e-06 -3.0183059e-11)
(2.8185601e-05 1.9306262e-06 -4.3398422e-11)
(2.8297667e-05 4.7850968e-06 -3.9735209e-11)
(2.8308249e-05 7.7455859e-06 -2.652093e-11)
(2.2493081e-05 1.720544e-06 -4.0367689e-11)
(2.2586266e-05 4.2666724e-06 -3.7196923e-11)
(2.2600683e-05 6.9018077e-06 -2.4715265e-11)
(1.7426333e-05 1.5235925e-06 -3.8058799e-11)
(1.7503159e-05 3.7817968e-06 -3.531299e-11)
(1.7522131e-05 6.1163888e-06 -2.3693247e-11)
(1.2944544e-05 1.3410582e-06 -3.6324865e-11)
(1.3007278e-05 3.3338731e-06 -3.376045e-11)
(1.3031302e-05 5.3902881e-06 -2.3011713e-11)
(9.0061341e-06 1.1721917e-06 -3.4992869e-11)
(9.0568734e-06 2.9273792e-06 -3.2721226e-11)
(9.0862577e-06 4.7328336e-06 -2.2782063e-11)
(5.5693566e-06 1.0164202e-06 -3.4066274e-11)
(5.6099661e-06 2.5462817e-06 -3.1879518e-11)
(5.6448032e-06 4.1152949e-06 -2.2620135e-11)
(2.5925977e-06 8.7384794e-07 -3.3333175e-11)
(2.6246564e-06 2.1973912e-06 -3.1180643e-11)
(2.6648216e-06 3.5516962e-06 -2.2534136e-11)
(3.4391639e-08 7.4388522e-07 -3.2641366e-11)
(5.9289603e-08 1.8794934e-06 -3.0445653e-11)
(1.045018e-07 3.0368987e-06 -2.2359961e-11)
(-2.146062e-06 6.2661402e-07 -3.1949287e-11)
(-2.1271325e-06 1.591873e-06 -2.9606419e-11)
(-2.0772716e-06 2.5704124e-06 -2.2078568e-11)
(-3.9884226e-06 5.2343561e-07 -3.1437942e-11)
(-3.9744519e-06 1.3383438e-06 -2.8887174e-11)
(-3.9204138e-06 2.1588147e-06 -2.1840112e-11)
(-5.5308699e-06 4.3285502e-07 -3.1016978e-11)
(-5.5209934e-06 1.1155402e-06 -2.8253282e-11)
(-5.4632892e-06 1.7971645e-06 -2.1626851e-11)
(-6.8096474e-06 3.5083813e-07 -3.0412159e-11)
(-6.8031564e-06 9.1417377e-07 -2.7524282e-11)
(-6.7423489e-06 1.4753117e-06 -2.1364137e-11)
(-7.8588511e-06 2.8310835e-07 -3.0132055e-11)
(-7.8551579e-06 7.4626182e-07 -2.7027155e-11)
(-7.7918014e-06 1.2030523e-06 -2.1194554e-11)
(-8.71021e-06 2.2509022e-07 -2.9889037e-11)
(-8.7088096e-06 6.0141782e-07 -2.6612078e-11)
(-8.6433928e-06 9.6778295e-07 -2.1074451e-11)
(-9.3927655e-06 1.7635656e-07 -2.9706678e-11)
(-9.3932471e-06 4.7680964e-07 -2.622943e-11)
(-9.32624e-06 7.6470286e-07 -2.0969014e-11)
(-9.9328513e-06 1.3586339e-07 -2.9529301e-11)
(-9.9348791e-06 3.7430616e-07 -2.5935127e-11)
(-9.866711e-06 5.9961866e-07 -2.0947305e-11)
(-1.0353886e-05 1.0312967e-07 -2.9429761e-11)
(-1.0357174e-05 2.9043692e-07 -2.5745514e-11)
(-1.0288193e-05 4.6443214e-07 -2.0993239e-11)
(-1.0676212e-05 7.7234203e-08 -2.9419523e-11)
(-1.0680516e-05 2.2254535e-07 -2.5677524e-11)
(-1.0611005e-05 3.5468109e-07 -2.1113654e-11)
(-1.0917629e-05 5.7350498e-08 -2.9491948e-11)
(-1.0922729e-05 1.693859e-07 -2.5732548e-11)
(-1.0852914e-05 2.6934098e-07 -2.1296359e-11)
(-1.109512e-05 4.2638797e-08 -2.9600082e-11)
(-1.1100844e-05 1.3010304e-07 -2.5840868e-11)
(-1.1030888e-05 2.0903705e-07 -2.1455946e-11)
(-1.1225061e-05 3.2688362e-08 -2.9764298e-11)
(-1.1231294e-05 1.0198412e-07 -2.5865464e-11)
(-1.116129e-05 1.6525871e-07 -2.1322309e-11)
(-1.1332974e-05 2.6993604e-08 -2.9780599e-11)
(-1.1339633e-05 8.2878476e-08 -2.5358042e-11)
(-1.1269507e-05 1.3407195e-07 -2.0414205e-11)
(-1.1448609e-05 2.527954e-08 -2.9219662e-11)
(-1.1455504e-05 6.9172187e-08 -2.3315644e-11)
(-1.1384981e-05 1.074099e-07 -1.7804875e-11)
(-1.1588956e-05 1.7577409e-08 -2.6245186e-11)
(-1.1596004e-05 4.4069922e-08 -1.7506726e-11)
(-1.1524657e-05 6.6937235e-08 -1.1997824e-11)
(-0.04529852 1.9435962 -3.6074134e-07)
(-0.032559308 1.6886917 -3.4501594e-06)
(-0.059929619 0.33758813 -2.6849806e-07)
(-0.042300635 0.14957554 -1.0182584e-06)
(-0.013945116 -0.040916604 -1.9502183e-07)
(-0.011082297 -0.043123959 -6.2216602e-07)
(-0.0039773431 -0.012774794 -9.5319013e-08)
(-0.0041973677 -0.014502665 -3.8958429e-07)
(0.00012704779 -0.0012932987 -9.5514654e-08)
(-0.00032550754 -0.0023685714 -2.7455779e-07)
(0.00077056333 0.00036282569 -1.0581363e-07)
(0.00058399646 0.00012478623 -2.1117411e-07)
(0.0007672511 0.00053902704 -1.0456195e-07)
(0.00068697856 0.00055699753 -1.681357e-07)
(0.00060559394 0.00048625361 -9.3564127e-08)
(0.00057347755 0.00057402674 -1.3366488e-07)
(0.00045653643 0.00031623812 -7.6993454e-08)
(0.00043281143 0.00039271033 -1.0342309e-07)
(0.00034818067 0.00017512089 -5.9159644e-08)
(0.00033155665 0.00021275858 -7.720451e-08)
(0.00027915475 7.8080472e-05 -4.3090315e-08)
(0.00026908343 9.2163437e-05 -5.5629838e-08)
(0.00023819253 3.7088143e-05 -3.0180047e-08)
(0.00023324431 4.3707837e-05 -3.8830054e-08)
(0.00021016096 3.0085976e-05 -2.0523893e-08)
(0.00020787552 3.5927416e-05 -2.6339431e-08)
(0.00018708985 3.5429028e-05 -1.3601038e-08)
(0.00018593763 4.3109585e-05 -1.7374981e-08)
(0.00016651476 3.9132535e-05 -8.7697144e-09)
(0.00016595887 4.8758725e-05 -1.1125221e-08)
(0.00014771744 3.6983878e-05 -5.4753659e-09)
(0.00014749713 4.7583353e-05 -6.8915101e-09)
(0.00013068813 3.2299029e-05 -3.2940179e-09)
(0.00013062886 4.1765565e-05 -4.1158719e-09)
(0.00011541179 2.7542463e-05 -1.9041933e-09)
(0.00011540318 3.5453977e-05 -2.3655239e-09)
(0.00010168644 2.3695668e-05 -1.0573013e-09)
(0.00010168686 3.0542391e-05 -1.3075604e-09)
(8.9268943e-05 2.1026653e-05 -5.66696e-10)
(8.926282e-05 2.7054872e-05 -6.9597605e-10)
(7.7962895e-05 1.9219707e-05 -2.9625762e-10)
(7.7946441e-05 2.4673314e-05 -3.5788293e-10)
(6.7632338e-05 1.772273e-05 -1.5343436e-10)
(6.7608093e-05 2.2670059e-05 -1.7874213e-10)
(5.8189639e-05 1.6262426e-05 -8.0884938e-11)
(5.8161983e-05 2.0805281e-05 -8.7672334e-11)
(4.9576688e-05 1.4817456e-05 -4.521494e-11)
(4.9549473e-05 1.8998861e-05 -4.3088612e-11)
(4.174982e-05 1.340201e-05 -2.8034378e-11)
(4.172629e-05 1.7197185e-05 -2.190695e-11)
(3.4670695e-05 1.2046123e-05 -1.9840509e-11)
(3.4653804e-05 1.5446689e-05 -1.2188104e-11)
(2.8301405e-05 1.0767916e-05 -1.6110074e-11)
(2.8293718e-05 1.3796292e-05 -8.0838629e-12)
(2.2602761e-05 9.588674e-06 -1.4657513e-11)
(2.2606409e-05 1.2278454e-05 -6.7753175e-12)
(1.7534122e-05 8.4980621e-06 -1.4232262e-11)
(1.7550728e-05 1.0881495e-05 -6.7467879e-12)
(1.3053796e-05 7.4908555e-06 -1.4248218e-11)
(1.3084354e-05 9.592079e-06 -7.2362898e-12)
(9.1194896e-06 6.5715206e-06 -1.4586178e-11)
(9.164411e-06 8.4067433e-06 -7.9470825e-12)
(5.6886631e-06 5.717581e-06 -1.4953777e-11)
(5.7478394e-06 7.3169897e-06 -8.6961486e-12)
(2.7188694e-06 4.9282909e-06 -1.5255299e-11)
(2.7917341e-06 6.3051151e-06 -9.3216823e-12)
(1.6805029e-07 4.213342e-06 -1.5495816e-11)
(2.5368998e-07 5.3868445e-06 -9.8629721e-12)
(-2.0050587e-06 3.5668805e-06 -1.5656646e-11)
(-1.9077711e-06 4.5606382e-06 -1.0337764e-11)
(-3.8404626e-06 2.9954169e-06 -1.5812584e-11)
(-3.7327748e-06 3.8297587e-06 -1.0779337e-11)
(-5.3765845e-06 2.4929201e-06 -1.5948367e-11)
(-5.2598242e-06 3.1877486e-06 -1.1176302e-11)
(-6.6499191e-06 2.0505835e-06 -1.6041526e-11)
(-6.5254458e-06 2.6249578e-06 -1.1519384e-11)
(-7.694632e-06 1.6681689e-06 -1.6136413e-11)
(-7.5637867e-06 2.1317528e-06 -1.1815558e-11)
(-8.5423806e-06 1.3403929e-06 -1.6250274e-11)
(-8.4064175e-06 1.7123195e-06 -1.2110068e-11)
(-9.2222316e-06 1.0610482e-06 -1.6389723e-11)
(-9.0822714e-06 1.3576506e-06 -1.2424679e-11)
(-9.7604545e-06 8.3220103e-07 -1.6579169e-11)
(-9.617477e-06 1.0652131e-06 -1.2761228e-11)
(-1.0180304e-05 6.4417871e-07 -1.6802364e-11)
(-1.003514e-05 8.2430181e-07 -1.3105783e-11)
(-1.0502001e-05 4.9194147e-07 -1.7058472e-11)
(-1.0355349e-05 6.2995745e-07 -1.3452817e-11)
(-1.0743229e-05 3.7372415e-07 -1.7316189e-11)
(-1.059567e-05 4.7904845e-07 -1.3761459e-11)
(-1.0920816e-05 2.9042832e-07 -1.747476e-11)
(-1.0772754e-05 3.7184369e-07 -1.3930603e-11)
(-1.1050976e-05 2.3028166e-07 -1.7257849e-11)
(-1.0902604e-05 2.9507092e-07 -1.3717566e-11)
(-1.1158856e-05 1.8658249e-07 -1.623474e-11)
(-1.1010031e-05 2.3861753e-07 -1.27656e-11)
(-1.1273639e-05 1.4751755e-07 -1.3703565e-11)
(-1.1123891e-05 1.8714144e-07 -1.0567499e-11)
(-1.1411965e-05 9.1192211e-08 -8.7533211e-12)
(-1.1260402e-05 1.154775e-07 -6.563712e-12)
(-0.0032230581 2.4058771e-05 -9.8523319e-08)
(-0.0032101852 -5.8514248e-06 -2.3313359e-07)
(-0.0031660105 1.8740712e-05 -3.2872647e-07)
(-0.0030841799 -8.4442244e-06 -3.8799011e-07)
(-0.0029617457 -3.2444727e-05 -4.1872751e-07)
(-0.0028035964 -8.5038818e-05 -4.2975176e-07)
(-0.0026178026 -0.00015214815 -4.2782539e-07)
(-0.0024142387 -0.00023671971 -4.1775384e-07)
(-0.0022022677 -0.00033369567 -4.0287628e-07)
(-0.0019899192 -0.00043878856 -3.8548572e-07)
(-0.0017816214 -0.00054780161 -3.6715493e-07)
(-0.0015815842 -0.00065110966 -3.4880666e-07)
(-0.0013932772 -0.00074286829 -3.308577e-07)
(-0.0012187544 -0.00082343375 -3.1335001e-07)
(-0.0010583592 -0.00089428113 -2.9612619e-07)
(-0.0009115932 -0.00095597611 -2.7891797e-07)
(-0.0007777177 -0.0010096677 -2.6136221e-07)
(-0.00065589249 -0.0010549575 -2.4294985e-07)
(-0.00054475465 -0.0010894217 -2.231207e-07)
(-0.00044300599 -0.0011129021 -2.0122211e-07)
(-0.00034953668 -0.0011254117 -1.7652648e-07)
(-0.00026291921 -0.0011263568 -1.4799279e-07)
(-0.00018201093 -0.0011175643 -1.1468947e-07)
(-0.00010606504 -0.0011049317 -7.6046724e-08)
(-3.4507217e-05 -0.0010491603 -3.1536595e-08)
(0.00016292149 -0.00010505857 -1.1482646e-07)
(0.00017730822 -0.00044386412 -2.67803e-07)
(0.00020877662 -0.00064181657 -3.7039663e-07)
(0.00025545769 -0.00095128342 -4.2810874e-07)
(0.00031314175 -0.001217611 -4.5353786e-07)
(0.0003713471 -0.0015304197 -4.5897387e-07)
(0.00042141115 -0.0018475415 -4.5229669e-07)
(0.00045779667 -0.0021917679 -4.3856342e-07)
(0.00047634896 -0.002554355 -4.2089989e-07)
(0.00048189189 -0.0029034125 -4.0134016e-07)
(0.00047254783 -0.0032342949 -3.8142746e-07)
(0.00045269525 -0.0035481655 -3.6196055e-07)
(0.00042631139 -0.0038419203 -3.432436e-07)
(0.00039697409 -0.0041123715 -3.2517068e-07)
(0.00036527844 -0.0043565926 -3.0749948e-07)
(0.00033146923 -0.0045759002 -2.8993646e-07)
(0.00029605668 -0.0047819667 -2.7216359e-07)
(0.00025975265 -0.0049685776 -2.5355108e-07)
(0.00022275976 -0.0051131018 -2.3357819e-07)
(0.0001851065 -0.0052086996 -2.1153514e-07)
(0.00014782901 -0.0052535702 -1.8694333e-07)
(0.00011161864 -0.0052501779 -1.5818798e-07)
(7.6602797e-05 -0.0052021481 -1.2399948e-07)
(4.3047006e-05 -0.0050948453 -8.2861588e-08)
(1.1878036e-05 -0.0048636638 -3.59241e-08)
(0.00092055555 -0.00028800912 -1.5366286e-07)
(0.00096727736 -0.0014354216 -3.4518503e-07)
(0.0010753902 -0.0019445778 -4.5798597e-07)
(0.0012144713 -0.0028591825 -5.0758523e-07)
(0.0013334179 -0.0036384403 -5.2029525e-07)
(0.0014096825 -0.0044698028 -5.1407901e-07)
(0.0014371809 -0.0052951236 -4.9794844e-07)
(0.0014229742 -0.0062655322 -4.7733229e-07)
(0.0013801319 -0.0073459753 -4.5454677e-07)
(0.0013155497 -0.0083336391 -4.3082715e-07)
(0.0012374624 -0.0091892667 -4.0796981e-07)
(0.0011521508 -0.0099120505 -3.8644963e-07)
(0.0010623761 -0.010503503 -3.6641647e-07)
(0.00096856641 -0.010972697 -3.4739545e-07)
(0.00087306413 -0.011325938 -3.2898378e-07)
(0.00077750139 -0.011564897 -3.1083697e-07)
(0.00068318047 -0.01168245 -2.9299806e-07)
(0.00059093257 -0.011697282 -2.742277e-07)
(0.00050099386 -0.011638756 -2.5439799e-07)
(0.00041374906 -0.011522617 -2.3282123e-07)
(0.00032975898 -0.011359029 -2.086563e-07)
(0.00024967469 -0.011156938 -1.8055154e-07)
(0.00017271931 -0.010923075 -1.4661251e-07)
(9.9185346e-05 -0.010627587 -1.0361505e-07)
(3.0527846e-05 -0.010221961 -5.1144679e-08)
(0.0033084721 -0.00097410355 -2.3674863e-07)
(0.0034451245 -0.0045411605 -4.8834164e-07)
(0.0035574159 -0.0058754799 -6.0203401e-07)
(0.0035104014 -0.0091944535 -6.2805111e-07)
(0.0033780763 -0.012188057 -6.1739041e-07)
(0.003159059 -0.014832834 -5.9277727e-07)
(0.0028951437 -0.016697879 -5.6256343e-07)
(0.002615215 -0.017678629 -5.3344824e-07)
(0.0023399127 -0.017967246 -5.0478507e-07)
(0.0020733885 -0.017826313 -4.7516207e-07)
(0.0018263512 -0.017365375 -4.4838579e-07)
(0.0016033199 -0.016709209 -4.2398751e-07)
(0.0013984237 -0.015878239 -4.0239275e-07)
(0.0011985861 -0.014925155 -3.8217066e-07)
(0.0010191735 -0.013902428 -3.6276371e-07)
(0.00086058451 -0.012855792 -3.4392306e-07)
(0.00072129616 -0.011824409 -3.2533493e-07)
(0.00059917743 -0.01084181 -3.0660485e-07)
(0.00049237096 -0.0099315179 -2.8725699e-07)
(0.00039875199 -0.0091142236 -2.6669471e-07)
(0.00031526783 -0.0084022266 -2.4414542e-07)
(0.00023864866 -0.0077995582 -2.1847453e-07)
(0.00016798804 -0.0073067572 -1.8795487e-07)
(0.00010149575 -0.0068814609 -1.4966415e-07)
(3.7361235e-05 -0.0065705888 -9.4455539e-08)
(0.010977219 -0.0086353252 -4.2511522e-07)
(0.0089888789 -0.025563965 -7.3075744e-07)
(0.0080351877 -0.028257412 -8.1023178e-07)
(0.0063835976 -0.032710114 -7.9582514e-07)
(0.0050000089 -0.030260455 -7.5499703e-07)
(0.0037694758 -0.026515944 -7.0636772e-07)
(0.0027328187 -0.021796354 -6.5862812e-07)
(0.0018973106 -0.016799415 -6.1429258e-07)
(0.0012383988 -0.011812644 -5.7513562e-07)
(0.00072756721 -0.007196444 -5.3925616e-07)
(0.00033567371 -0.0030151003 -5.0700862e-07)
(3.9175858e-05 0.00056746697 -4.7710171e-07)
(-0.0001751486 0.0038979802 -4.5332473e-07)
(-0.00031355325 0.0070761795 -4.3088196e-07)
(-0.00040226328 0.0099947399 -4.0929561e-07)
(-0.00044901153 0.012527803 -3.8875215e-07)
(-0.0004624897 0.014643719 -3.6895806e-07)
(-0.00044971919 0.016360936 -3.4955625e-07)
(-0.00041633406 0.017707817 -3.3013774e-07)
(-0.0003670018 0.018714498 -3.1023941e-07)
(-0.00030652648 0.019406121 -2.8927948e-07)
(-0.000239572 0.019808314 -2.6642675e-07)
(-0.00016788295 0.019919531 -2.4031586e-07)
(-9.4682083e-05 0.019797532 -2.1493041e-07)
(-2.1462956e-05 0.019104436 -1.8964825e-07)
(0.013766945 0.022882696 -7.9197091e-07)
(0.0035860251 -0.0021308381 -1.1178017e-06)
(0.00098626694 0.047648975 -1.1185975e-06)
(-0.00087507955 0.050281821 -1.0443044e-06)
(-0.0025142107 0.064621795 -9.6647286e-07)
(-0.0037367359 0.075006979 -8.7990135e-07)
(-0.004419002 0.08227557 -8.0226195e-07)
(-0.0046385151 0.08834907 -7.3479564e-07)
(-0.0045720328 0.092843621 -6.7614357e-07)
(-0.0043605839 0.095650564 -6.2586543e-07)
(-0.0040780779 0.097258959 -5.8325436e-07)
(-0.0037421817 0.097780647 -5.3876198e-07)
(-0.0033998179 0.097544507 -5.1328855e-07)
(-0.0030625641 0.096261596 -4.8581855e-07)
(-0.0027218913 0.094121826 -4.5869785e-07)
(-0.0023885094 0.091709105 -4.3441948e-07)
(-0.0020730381 0.089089916 -4.1190227e-07)
(-0.0017763002 0.086349961 -3.9055065e-07)
(-0.0014977537 0.083566903 -3.6990808e-07)
(-0.0012359176 0.080799381 -3.4955278e-07)
(-0.00098828434 0.078084598 -3.2903644e-07)
(-0.0007520573 0.075465208 -3.07806e-07)
(-0.00052566078 0.072913257 -2.8527961e-07)
(-0.00030736392 0.070617072 -2.6224085e-07)
(-9.1998038e-05 0.067139999 -2.3977631e-07)
(-0.0022097926 1.1701568 -2.5246825e-06)
(-0.0009903276 0.95939528 -2.0094397e-06)
(-0.0011446878 0.86421372 -1.6297994e-06)
(-0.00076558632 0.77257951 -1.3381347e-06)
(-0.00063746039 0.67709545 -1.1196604e-06)
(-0.00053745336 0.58598957 -9.5945852e-07)
(-0.00044952644 0.50773693 -8.410524e-07)
(-0.00037303705 0.44410251 -7.5324855e-07)
(-0.00030867347 0.39159689 -6.8254851e-07)
(-0.00025535589 0.34676916 -6.2866432e-07)
(-0.0002061721 0.30807642 -5.8698559e-07)
(-0.00016172286 0.27477641 -5.5012442e-07)
(-0.0001244462 0.2462986 -5.190063e-07)
(-0.00010376668 0.22191728 -4.9153813e-07)
(-8.5136922e-05 0.20097545 -4.6658953e-07)
(-7.0254457e-05 0.18299261 -4.4358901e-07)
(-5.8304244e-05 0.16754013 -4.2194876e-07)
(-4.8254704e-05 0.15425607 -4.0123737e-07)
(-3.9726326e-05 0.14283836 -3.8113838e-07)
(-3.2416537e-05 0.13303804 -3.6136829e-07)
(-2.587443e-05 0.12463919 -3.4161879e-07)
(-1.9513445e-05 0.1175002 -3.2145716e-07)
(-1.3397146e-05 0.11137893 -3.0063959e-07)
(-7.5898395e-06 0.1065598 -2.7895952e-07)
(-2.0322752e-06 0.10054907 -2.5574146e-07)
(-0.01332859 0.088795517 -1.2281878e-06)
(-0.0031016541 0.096673865 -1.2663414e-06)
(-0.00051818602 0.10275587 -1.2194195e-06)
(0.0013419221 0.10466941 -1.1279439e-06)
(0.0029304848 0.10700044 -1.0246836e-06)
(0.004093143 0.10888003 -9.2434722e-07)
(0.0047270383 0.11066146 -8.3467939e-07)
(0.0049027136 0.11229231 -7.574907e-07)
(0.0047989405 0.11317579 -6.7598995e-07)
(0.0045331698 0.11329992 -6.3118603e-07)
(0.0042230869 0.1126442 -5.9034276e-07)
(0.003894557 0.11101407 -5.4666478e-07)
(0.0035264684 0.10852252 -5.0990297e-07)
(0.0031554424 0.10552666 -4.7834733e-07)
(0.0027951139 0.10227171 -4.5059093e-07)
(0.0024509942 0.098883276 -4.2565498e-07)
(0.0021241897 0.095446654 -4.0280784e-07)
(0.0018173666 0.092031253 -3.8147216e-07)
(0.0015296402 0.088688965 -3.6116095e-07)
(0.0012595567 0.085458175 -3.4141841e-07)
(0.0010051767 0.082360885 -3.21743e-07)
(0.0007643297 0.079427045 -3.0147327e-07)
(0.00053434645 0.076619204 -2.8095694e-07)
(0.00031298835 0.074130436 -2.5906231e-07)
(9.4432911e-05 0.070438896 -2.3723005e-07)
(-0.0093401851 -0.041226333 -8.4028286e-07)
(-0.0081059565 -0.039496787 -9.0427122e-07)
(-0.0067111386 -0.037927266 -8.9078993e-07)
(-0.0052700407 -0.034493789 -8.44546e-07)
(-0.0039227957 -0.02950076 -7.8624355e-07)
(-0.0027649313 -0.023806665 -7.2492279e-07)
(-0.0018179153 -0.017931352 -6.681402e-07)
(-0.0010762003 -0.012232132 -6.1624929e-07)
(-0.00050936149 -0.0071298844 -5.6800229e-07)
(-8.5564532e-05 -0.0026225466 -5.3184415e-07)
(0.0002217257 0.0012514634 -4.9862528e-07)
(0.00043728045 0.0050309602 -4.6762411e-07)
(0.00057738682 0.0086291123 -4.3973658e-07)
(0.0006596794 0.011846596 -4.1464759e-07)
(0.00069648333 0.014616989 -3.9179777e-07)
(0.00069795008 0.016939782 -3.7068144e-07)
(0.00067371452 0.018846948 -3.5090962e-07)
(0.00062755005 0.020379161 -3.3204001e-07)
(0.00056474171 0.021561752 -3.1362865e-07)
(0.00048929683 0.022416454 -2.9517312e-07)
(0.00040456851 0.022964727 -2.7597013e-07)
(0.00031360294 0.023227841 -2.5477984e-07)
(0.00021896825 0.023216026 -2.3423404e-07)
(0.00012396132 0.022973675 -2.0971461e-07)
(3.0277366e-05 0.022129679 -1.8578589e-07)
(-0.0043585332 -0.016210005 -5.6051495e-07)
(-0.0044236378 -0.018807463 -6.3481712e-07)
(-0.0043047907 -0.021669008 -6.488056e-07)
(-0.0040232239 -0.023714283 -6.3166662e-07)
(-0.003656392 -0.024967605 -6.0221272e-07)
(-0.0032617514 -0.025336111 -5.6987525e-07)
(-0.0028847244 -0.025018883 -5.309075e-07)
(-0.0025324798 -0.024262603 -4.9441808e-07)
(-0.0022093301 -0.023240072 -4.6134875e-07)
(-0.0019199968 -0.02202236 -4.3318043e-07)
(-0.0016608929 -0.020693551 -4.0765286e-07)
(-0.0014239773 -0.019236385 -3.8417688e-07)
(-0.0012107107 -0.017720491 -3.6270031e-07)
(-0.0010238326 -0.016198458 -3.4303488e-07)
(-0.00086131481 -0.014707157 -3.2468406e-07)
(-0.00072027627 -0.013279793 -3.0724149e-07)
(-0.00059657816 -0.011948568 -2.9065014e-07)
(-0.00049023584 -0.010743298 -2.7437166e-07)
(-0.00039856356 -0.0096726469 -2.5793102e-07)
(-0.00031931287 -0.008737623 -2.4076449e-07)
(-0.00025033078 -0.0079381347 -2.2209498e-07)
(-0.00018942294 -0.0072733332 -2.0084928e-07)
(-0.00013447613 -0.0067394664 -1.7592595e-07)
(-8.3109986e-05 -0.0062955087 -1.4229341e-07)
(-3.255161e-05 -0.0059913512 -9.1555952e-08)
(-0.00076569613 -0.0035065303 -3.9659668e-07)
(-0.0011608473 -0.0046097048 -4.6386103e-07)
(-0.0014608925 -0.0057567602 -4.8955505e-07)
(-0.001663867 -0.0068259081 -4.8941549e-07)
(-0.0017613791 -0.0078580687 -4.7506682e-07)
(-0.0017749333 -0.0089974661 -4.5353025e-07)
(-0.0017321737 -0.010184727 -4.2743209e-07)
(-0.0016529095 -0.011194334 -4.0118147e-07)
(-0.0015505582 -0.012033029 -3.7660529e-07)
(-0.0014391057 -0.012706904 -3.5437294e-07)
(-0.0013252915 -0.013235514 -3.3402136e-07)
(-0.0012123965 -0.013621825 -3.1523275e-07)
(-0.0011005898 -0.013874264 -2.9783825e-07)
(-0.00099079899 -0.013977505 -2.8196807e-07)
(-0.00088419135 -0.01395921 -2.6681276e-07)
(-0.00078138561 -0.013859094 -2.5243039e-07)
(-0.00068437101 -0.01370094 -2.3817203e-07)
(-0.00059101325 -0.013499365 -2.2379418e-07)
(-0.00050134279 -0.013263655 -2.0885874e-07)
(-0.00041501698 -0.013000952 -1.9280249e-07)
(-0.00033174886 -0.012716809 -1.7477701e-07)
(-0.00025138344 -0.012416556 -1.5352188e-07)
(-0.00017396989 -0.012103387 -1.2718097e-07)
(-9.9865139e-05 -0.011738864 -9.1847296e-08)
(-3.0843876e-05 -0.01128026 -4.6688901e-08)
(0.0004370711 -0.00027025549 -2.9290287e-07)
(0.00026108082 -0.00072872215 -3.4534906e-07)
(5.7664839e-05 -0.0012316513 -3.7175359e-07)
(-0.00015753687 -0.0017511005 -3.7917028e-07)
(-0.00033869251 -0.0022713377 -3.7422017e-07)
(-0.00046927559 -0.0028136024 -3.6179523e-07)
(-0.00055290194 -0.0033525842 -3.4504394e-07)
(-0.00059730418 -0.0038387999 -3.2674442e-07)
(-0.00061738579 -0.0042753247 -3.0856511e-07)
(-0.00061691338 -0.0046639132 -2.91298e-07)
(-0.00060067779 -0.0050068522 -2.7509268e-07)
(-0.00057370624 -0.0053114301 -2.5991908e-07)
(-0.00053946872 -0.0055934451 -2.4570912e-07)
(-0.00050040595 -0.0058794318 -2.3239915e-07)
(-0.00045836849 -0.0061598755 -2.1968505e-07)
(-0.00041439562 -0.0063986447 -2.0736381e-07)
(-0.00036933061 -0.0065886505 -1.9507334e-07)
(-0.00032330071 -0.0067282808 -1.8248232e-07)
(-0.00027685595 -0.0068173326 -1.6916705e-07)
(-0.00023041562 -0.0068557309 -1.5472033e-07)
(-0.00018435858 -0.0068446627 -1.3842557e-07)
(-0.00013911719 -0.0067873688 -1.1903104e-07)
(-9.5212167e-05 -0.0066884246 -9.5398125e-08)
(-5.3227309e-05 -0.0065295757 -6.5515337e-08)
(-1.4673168e-05 -0.0062355555 -2.9952693e-08)
(0.00061453008 0.00052014901 -2.2185804e-07)
(0.00052382644 0.00046003331 -2.6023381e-07)
(0.00042531539 0.00035221988 -2.8290917e-07)
(0.00033032782 0.00019248251 -2.9254394e-07)
(0.00023205518 7.7818265e-06 -2.9260389e-07)
(0.00014215365 -0.00018875358 -2.8619345e-07)
(6.7435892e-05 -0.00039111529 -2.7575585e-07)
(4.0862901e-06 -0.00059336437 -2.6326833e-07)
(-4.9233268e-05 -0.0007887068 -2.5008681e-07)
(-8.8282658e-05 -0.00096695233 -2.3699849e-07)
(-0.00011202589 -0.0011262625 -2.2436089e-07)
(-0.00012452701 -0.0012673853 -2.1230637e-07)
(-0.00012905899 -0.0013928211 -2.0085414e-07)
(-0.00012782915 -0.0015043763 -1.8994794e-07)
(-0.00012270651 -0.0016017844 -1.7942855e-07)
(-0.00011482967 -0.0016824201 -1.6910335e-07)
(-0.0001049116 -0.0017472715 -1.5871599e-07)
(-9.3499527e-05 -0.001796814 -1.4798062e-07)
(-8.1134671e-05 -0.001831237 -1.3656071e-07)
(-6.8245587e-05 -0.0018505589 -1.2408217e-07)
(-5.5151786e-05 -0.001854996 -1.1008053e-07)
(-4.2108033e-05 -0.0018452614 -9.3896629e-08)
(-2.9308206e-05 -0.0018240194 -7.4878254e-08)
(-1.6759991e-05 -0.0017901189 -5.2328401e-08)
(-4.5594332e-06 -0.0017006068 -2.5437465e-08)
(0.00054568334 0.00064654153 -1.6925442e-07)
(0.00050283466 0.00069291603 -1.9638746e-07)
(0.00043939886 0.0007113384 -2.1420401e-07)