/*--------------------------------*- C++ -*----------------------------------*\
| =========                 |                                                 |
| \\      /  F ield         | OpenFOAM: The Open Source CFD Toolbox           |
|  \\    /   O peration     | Version:  4.0                                   |
|   \\  /    A nd           | Web:      www.OpenFOAM.org                      |
|    \\/     M anipulation  |                                                 |
\*---------------------------------------------------------------------------*/
FoamFile
{
    version     2.0;
    format      ascii;
    class       volScalarField;
    location    "0.11";
    object      k;
}
// * * * * * * * * * * * * * * * * * * * * * * * * * * * * * * * * * * * * * //

dimensions      [0 2 -2 0 0 0 0];

internalField   nonuniform List<scalar> 
1740
(
0.0088143168
0.0093137946
0.01873594
0.0092617648
0.0099602555
0.027609023
0.0094579726
0.010378592
0.034554239
0.0095712399
0.010589213
0.041778079
0.0097620312
0.010864615
0.048010914
0.0099935542
0.011286293
0.051958343
0.010058464
0.011510043
0.056425192
0.010108888
0.012054336
0.060126022
0.010107297
0.012411375
0.06207852
0.010088845
0.012464124
0.064583563
0.010058908
0.012861397
0.066890803
0.010019401
0.013345869
0.067516873
0.0099090685
0.013340759
0.068834507
0.0097880767
0.013342041
0.070056155
0.0096798486
0.013501217
0.071053774
0.009621745
0.013860785
0.071935201
0.0095085333
0.01393602
0.072015957
0.0094134942
0.014068624
0.072727833
0.0093328064
0.014304051
0.072880145
0.0091919216
0.014439858
0.073003027
0.00905413
0.014380708
0.073157199
0.0089251634
0.014568819
0.073247342
0.0087832723
0.014913754
0.073334181
0.0086709617
0.014888485
0.073210475
0.0085272202
0.014481325
0.072887826
0.0084094506
0.014351851
0.072877562
0.0083866284
0.014703042
0.073112923
0.0083974767
0.015015814
0.072810927
0.0083604871
0.015140543
0.072098118
0.008975999
0.01607472
0.066983983
0.012753904
0.01805707
0.047520299
0.023942992
0.03117919
0.039835706
0.010248441
0.012508425
0.01371344
0.0042233616
0.0045478236
0.0046087195
0.0020147804
0.0020550647
0.002027045
0.0010473085
0.0010466559
0.0010249833
0.00055533977
0.00055100363
0.00053853826
0.0002831581
0.00028003079
0.00027308762
0.0001331891
0.00013141162
0.00012772827
5.7232162e-05
5.6369611e-05
5.4613057e-05
2.3219174e-05
2.2856709e-05
2.2120735e-05
9.7707674e-06
9.6383308e-06
9.3695453e-06
5.0462003e-06
5.0052438e-06
4.9225567e-06
3.6063427e-06
3.5977355e-06
3.5810628e-06
3.291127e-06
3.2928338e-06
3.2972325e-06
3.3315734e-06
3.3361548e-06
3.3463902e-06
3.4773539e-06
3.4825039e-06
3.4938446e-06
3.6533576e-06
3.6584193e-06
3.6695214e-06
3.8387535e-06
3.8435599e-06
3.8540872e-06
4.028206e-06
4.0327263e-06
4.0426202e-06
4.2204425e-06
4.2246804e-06
4.2339537e-06
4.4151404e-06
4.4191082e-06
4.4277893e-06
4.6121458e-06
4.615857e-06
4.6239763e-06
4.8112918e-06
4.8147597e-06
4.8223464e-06
5.0123612e-06
5.0155982e-06
5.02268e-06
5.2150786e-06
5.2180964e-06
5.2246989e-06
5.4191078e-06
5.4219173e-06
5.4280644e-06
5.6240489e-06
5.6266605e-06
5.6323748e-06
5.8294364e-06
5.8318598e-06
5.8371627e-06
6.034737e-06
6.0369815e-06
6.041893e-06
6.2393484e-06
6.2414228e-06
6.2459623e-06
6.4425988e-06
6.4445115e-06
6.4486974e-06
6.6437475e-06
6.6455066e-06
6.6493569e-06
6.8419867e-06
6.8436004e-06
6.8471324e-06
7.0364455e-06
7.0379215e-06
7.0411523e-06
7.2261939e-06
7.2275398e-06
7.2304863e-06
7.4102469e-06
7.4114704e-06
7.4141491e-06
7.5875625e-06
7.5886711e-06
7.5910987e-06
7.7570157e-06
7.7580171e-06
7.7602101e-06
7.9172991e-06
7.9182008e-06
7.9201759e-06
8.0666161e-06
8.0674258e-06
8.0691996e-06
8.2018502e-06
8.2025755e-06
8.204165e-06
8.3165269e-06
8.3171755e-06
8.3185975e-06
8.3962939e-06
8.3968731e-06
8.3981437e-06
8.4099696e-06
8.4104859e-06
8.4116192e-06
8.2941278e-06
8.2945878e-06
8.2955986e-06
7.9313932e-06
7.9318121e-06
7.9327365e-06
7.1303471e-06
7.1307714e-06
7.1317237e-06
5.6347318e-06
5.6352356e-06
5.636399e-06
3.22576e-06
3.2262546e-06
3.227421e-06
0.056282624
0.060848041
0.045959261
0.046484203
0.012459905
0.011327587
0.0043193171
0.0040914283
0.0019359497
0.0018740181
0.0009898775
0.00096661436
0.00052233834
0.00051063987
0.00026453284
0.0002574263
0.00012315417
0.00011889401
5.238821e-05
5.0162162e-05
2.1174282e-05
2.0187957e-05
9.0209911e-06
8.6507896e-06
4.8159966e-06
4.7040057e-06
3.5613866e-06
3.5440497e-06
3.3054342e-06
3.3187481e-06
3.3622471e-06
3.383866e-06
3.5110389e-06
3.5339135e-06
3.6862615e-06
3.7083941e-06
3.8699331e-06
3.8908462e-06
4.057504e-06
4.0771376e-06
4.2479007e-06
4.2662973e-06
4.4408447e-06
4.4580663e-06
4.6361869e-06
4.6522957e-06
4.8337567e-06
4.8488112e-06
5.0333313e-06
5.0473861e-06
5.2346301e-06
5.2477359e-06
5.4373115e-06
5.4495158e-06
5.6409715e-06
5.6523187e-06
5.8451409e-06
5.8556728e-06
6.0492831e-06
6.0590398e-06
6.2527932e-06
6.2618126e-06
6.4549969e-06
6.4633157e-06
6.6551519e-06
6.6628054e-06
6.852449e-06
6.8594717e-06
7.0460162e-06
7.0524418e-06
7.2349227e-06
7.2407846e-06
7.4181832e-06
7.4235143e-06
7.5947552e-06
7.5995886e-06
7.7635141e-06
7.7678826e-06
7.9231524e-06
7.9270892e-06
8.0718739e-06
8.0754123e-06
8.2065625e-06
8.2097364e-06
8.3207435e-06
8.3235865e-06
8.4000623e-06
8.4026066e-06
8.4133312e-06
8.4156029e-06
8.2971226e-06
8.2991358e-06
7.934114e-06
7.9358747e-06
7.1330933e-06
7.134634e-06
5.6379919e-06
5.6393839e-06
3.2289721e-06
3.2301805e-06
2.611816e-06
2.2491341e-05
0.00011076737
0.00024589677
0.00036438936
0.00043919778
0.00047430481
0.00048369986
0.00047785026
0.00046281595
0.00044172432
0.00041615426
0.00038697468
0.00035478549
0.00032018588
0.00028395599
0.00024709175
0.00021075674
0.00017617381
0.00014445733
0.00011636982
9.1978405e-05
7.0247153e-05
4.9057439e-05
2.6488582e-05
2.2839459e-06
5.0730169e-05
0.00022995974
0.00046442883
0.0006424662
0.00074043139
0.00078269785
0.0007932062
0.00078595643
0.00076791596
0.00074233507
0.0007107005
0.00067366261
0.0006314668
0.00058434838
0.00053293217
0.00047826156
0.00042176855
0.00036520558
0.0003104631
0.00025916764
0.00021188128
0.00016668642
0.00011728082
5.2416703e-05
7.8035914e-06
0.00015804559
0.0006037333
0.0010473974
0.0013061003
0.0014223285
0.0014626537
0.001464344
0.0014467533
0.0014172337
0.0013789518
0.0013332797
0.0012805733
0.0012202877
0.0011516944
0.0010750072
0.00099102644
0.00090107807
0.00080706037
0.00071136829
0.00061643241
0.00052337396
0.00042884151
0.00031891492
0.00016150427
3.7610661e-05
0.00058059219
0.0016853412
0.0024282287
0.0027534375
0.0028527919
0.0028442682
0.0027921522
0.0027270136
0.0026525608
0.0025712906
0.0024846259
0.0023930794
0.0022943842
0.0021850453
0.0020649625
0.0019344735
0.0017942307
0.0016454944
0.001490308
0.001331319
0.0011706528
0.0010058749
0.00081768707
0.00052450433
0.00028036494
0.0024464972
0.004921223
0.0060487797
0.0063997837
0.0063392878
0.0061050491
0.0058299424
0.0055684978
0.0053043825
0.0050408051
0.0047834549
0.0045384626
0.0042994969
0.0040531779
0.0038030016
0.0035500472
0.0032942747
0.0030356968
0.0027749896
0.0025137904
0.0022550371
0.0020026595
0.001765951
0.0015696588
0.00235149
0.010494255
0.01656612
0.018546619
0.018115271
0.016582586
0.014781145
0.013102029
0.011623455
0.010342703
0.0092399623
0.0082932658
0.0074794585
0.0067729167
0.0061509797
0.0055977991
0.0051004208
0.0046475063
0.004229498
0.0038389458
0.0034705569
0.0031219122
0.0027934788
0.0024976405
0.0022660219
0.044949746
0.034015115
0.026495503
0.02134436
0.01770859
0.015024782
0.012957761
0.011322301
0.010008249
0.0089382666
0.0080540318
0.0073116442
0.0066778151
0.0061267162
0.0056381062
0.0051967203
0.0047912721
0.0044131359
0.0040556038
0.0037136949
0.0033840899
0.0030657101
0.0027600716
0.0024791538
0.0022575765
0.037233594
0.030960725
0.027769674
0.025160441
0.022314356
0.019359701
0.016658427
0.014366959
0.012484779
0.01093668
0.0096545352
0.0085834361
0.0076783097
0.0069054563
0.0062386423
0.0056562905
0.0051403274
0.0046757958
0.004250702
0.0038559757
0.0034852298
0.0031352702
0.0028058237
0.0025087799
0.0022756344
0.010192161
0.0095325512
0.009203384
0.0088914725
0.0084344598
0.0078684324
0.0073009514
0.0067992397
0.0063375812
0.005921121
0.0055470407
0.0052117778
0.0048940277
0.0045864178
0.0042891212
0.0040002814
0.0037174603
0.0034383875
0.0031615026
0.0028862553
0.0026131859
0.0023443042
0.002082648
0.0018368173
0.0016313173
0.0039313848
0.0038574843
0.0038328766
0.0037874592
0.0036849026
0.00353712
0.0033799538
0.0032309112
0.0030895693
0.0029571452
0.0028323479
0.0027122773
0.0025911425
0.0024657066
0.0023346641
0.0021970347
0.0020521332
0.0018998479
0.0017408342
0.0015766164
0.001409349
0.001240643
0.0010673605
0.00086866921
0.00055818418
0.0018515972
0.0018577567
0.0018735095
0.001876273
0.0018541388
0.0018100482
0.0017549788
0.0016962381
0.0016360665
0.001575276
0.0015134723
0.0014494013
0.0013811882
0.0013074998
0.0012277802
0.0011419421
0.0010503906
0.00095414237
0.00085469663
0.00075411225
0.00065448177
0.00055649723
0.00045613246
0.00033852238
0.00017097852
0.00096096608
0.00096765616
0.00097762036
0.00098152906
0.00097421825
0.00095593669
0.00093017485
0.00089995905
0.00086678715
0.0008312523
0.00079333482
0.00075263135
0.00070856955
0.00066076921
0.00060925598
0.00055444584
0.00049714602
0.00043858932
0.00038033391
0.00032409238
0.00027131445
0.00022234226
0.00017491631
0.00012228846
5.3491167e-05
0.00050617881
0.00050703715
0.00050918908
0.00050849677
0.00050244315
0.00049070686
0.00047444259
0.00045500155
0.00043329974
0.00040983318
0.00038480568
0.00035825875
0.00033018631
0.00030067718
0.00027001836
0.00023870384
0.00020740985
0.00017695284
0.00014820391
0.00012195306
9.8707286e-05
7.8386535e-05
5.9880335e-05
4.0592135e-05
1.6663733e-05
0.00025308093
0.00025089137
0.00024919005
0.00024617601
0.00024066618
0.0002323933
0.00022178291
0.00020947828
0.00019602245
0.00018178885
0.00016701711
0.00015187067
0.00013649066
0.00012104447
0.00010575798
9.0912829e-05
7.6823849e-05
6.3805891e-05
5.2132549e-05
4.1987636e-05
3.3409602e-05
2.6223403e-05
1.997058e-05
1.3980895e-05
8.2946786e-06
0.00011556907
0.00011304502
0.00011070863
0.00010784594
0.00010396737
9.8949056e-05
9.2967997e-05
8.6326607e-05
7.9308642e-05
7.2129134e-05
6.4939053e-05
5.7847866e-05
5.0944647e-05
4.4314112e-05
3.8045242e-05
3.2229219e-05
2.6951322e-05
2.2280143e-05
1.8256297e-05
1.4880661e-05
1.2102052e-05
9.8042157e-06
7.8047186e-06
5.9298873e-06
4.3520096e-06
4.821325e-05
4.6542181e-05
4.4955612e-05
4.3205894e-05
4.1118252e-05
3.8650804e-05
3.5875519e-05
3.2916568e-05
2.9894546e-05
2.6902119e-05
2.4003453e-05
2.1242289e-05
1.865015e-05
1.625191e-05
1.4068475e-05
1.2116856e-05
1.0408388e-05
8.9461524e-06
7.7217806e-06
6.711255e-06
5.8687516e-06
5.1188833e-06
4.353088e-06
3.4494377e-06
2.281088e-06
1.9275301e-05
1.8456553e-05
1.7680696e-05
1.6872362e-05
1.5976411e-05
1.4980226e-05
1.3909015e-05
1.2806014e-05
1.1713323e-05
1.0662758e-05
9.6749132e-06
8.7625116e-06
7.9330689e-06
7.1908513e-06
6.5377893e-06
5.9736919e-06
5.4958793e-06
5.0982025e-06
4.7690504e-06
4.4875218e-06
4.2165948e-06
3.8929072e-06
3.415444e-06
2.6396678e-06
1.3659504e-06
8.300779e-06
7.9839266e-06
7.6893724e-06
7.3964794e-06
7.0892068e-06
6.763529e-06
6.4266334e-06
6.0911703e-06
5.7694389e-06
5.4703938e-06
5.1992217e-06
4.9584253e-06
4.7487562e-06
4.5697907e-06
4.4202385e-06
4.2979886e-06
4.1998245e-06
4.1205431e-06
4.0508697e-06
3.9731623e-06
3.853697e-06
3.6311362e-06
3.2042008e-06
2.4300638e-06
1.1586242e-06
4.6006103e-06
4.5114685e-06
4.4347229e-06
4.3649742e-06
4.2974762e-06
4.2305104e-06
4.1653794e-06
4.1049086e-06
4.0518457e-06
4.0079733e-06
3.9739836e-06
3.9497458e-06
3.9346387e-06
3.9277069e-06
3.9277237e-06
3.933115e-06
3.9416039e-06
3.9492442e-06
3.9481875e-06
3.9221381e-06
3.8383332e-06
3.6359604e-06
3.2152356e-06
2.4425237e-06
1.2040204e-06
3.5332725e-06
3.5309261e-06
3.5365865e-06
3.5485853e-06
3.5651845e-06
3.5853083e-06
3.6086276e-06
3.6352197e-06
3.6651615e-06
3.6982961e-06
3.7341949e-06
3.7722277e-06
3.8116517e-06
3.8516662e-06
3.8913787e-06
3.9296748e-06
3.9648205e-06
3.993449e-06
4.0082683e-06
3.9934557e-06
3.9166452e-06
3.7176665e-06
3.2988492e-06
2.5328233e-06
1.3194542e-06
3.3381756e-06
3.3640546e-06
3.3960098e-06
3.4332181e-06
3.4747338e-06
3.5197154e-06
3.5674846e-06
3.6174667e-06
3.669103e-06
3.7217974e-06
3.7749091e-06
3.8277708e-06
3.8797055e-06
3.9300445e-06
3.9780731e-06
4.0228792e-06
4.0629397e-06
4.0950893e-06
4.1122098e-06
4.0986116e-06
4.0220411e-06
3.8225768e-06
3.4034659e-06
2.6401225e-06
1.4528277e-06
3.4112766e-06
3.4442927e-06
3.4824757e-06
3.525208e-06
3.5717829e-06
3.6214811e-06
3.6736049e-06
3.7274789e-06
3.7824399e-06
3.83783e-06
3.8930001e-06
3.9473148e-06
4.0001565e-06
4.0509184e-06
4.0989579e-06
4.1434369e-06
4.1828996e-06
4.2142292e-06
4.2303148e-06
4.2153824e-06
4.1369019e-06
3.9343229e-06
3.5098403e-06
2.7381788e-06
1.5430486e-06
3.5622343e-06
3.5956683e-06
3.6337647e-06
3.6759797e-06
3.7217079e-06
3.7703101e-06
3.8211354e-06
3.8735318e-06
3.9268518e-06
3.9804583e-06
4.0337302e-06
4.0860663e-06
4.1368867e-06
4.18562e-06
4.2316528e-06
4.274174e-06
4.3117426e-06
4.3412263e-06
4.3554237e-06
4.3382952e-06
4.2566653e-06
4.0486264e-06
3.613924e-06
2.8231518e-06
1.5943916e-06
3.7356297e-06
3.7676123e-06
3.8039099e-06
3.8440251e-06
3.887414e-06
3.9334966e-06
3.9816731e-06
4.0313345e-06
4.0818712e-06
4.1326809e-06
4.1831748e-06
4.2327828e-06
4.2809534e-06
4.3271407e-06
4.3707504e-06
4.4109831e-06
4.446392e-06
4.473796e-06
4.4858389e-06
4.4660869e-06
4.3804825e-06
4.1653795e-06
3.7175592e-06
2.9031654e-06
1.6404312e-06
3.9165381e-06
3.9466655e-06
3.9808242e-06
4.0185568e-06
4.0593641e-06
4.1027137e-06
4.1480507e-06
4.1948082e-06
4.2424151e-06
4.2903043e-06
4.3379195e-06
4.3847194e-06
4.4301786e-06
4.4737734e-06
4.5149278e-06
4.5528484e-06
4.5860738e-06
4.611355e-06
4.6211441e-06
4.598549e-06
4.5085393e-06
4.2856304e-06
3.8236453e-06
2.985399e-06
1.6891855e-06
4.1012475e-06
4.1295112e-06
4.1615537e-06
4.1969525e-06
4.2352454e-06
4.2759404e-06
4.318522e-06
4.362461e-06
4.4072225e-06
4.4522728e-06
4.4970868e-06
4.5411513e-06
4.5839663e-06
4.6250301e-06
4.6637836e-06
4.6994386e-06
4.7305146e-06
4.7536853e-06
4.7611951e-06
4.7356777e-06
4.6411327e-06
4.4102844e-06
3.9341004e-06
3.0720444e-06
1.7405681e-06
4.2888873e-06
4.3153698e-06
4.3453973e-06
4.3785779e-06
4.4144833e-06
4.4526552e-06
4.4926141e-06
4.5338654e-06
4.5759073e-06
4.6182378e-06
4.6603613e-06
4.7017925e-06
4.7420561e-06
4.780672e-06
4.8170975e-06
4.8505503e-06
4.8795278e-06
4.9006227e-06
4.9058681e-06
4.8774295e-06
4.7783755e-06
4.5397467e-06
4.0498904e-06
3.1656987e-06
1.8033526e-06
4.4792158e-06
4.5040126e-06
4.532134e-06
4.5632162e-06
4.596861e-06
4.6326411e-06
4.6701089e-06
4.7088021e-06
4.74825e-06
4.7879803e-06
4.8275258e-06
4.8664277e-06
4.9042353e-06
4.9404898e-06
4.9746646e-06
5.0059823e-06
5.0329187e-06
5.0519836e-06
5.0549975e-06
5.0236583e-06
4.9201089e-06
4.6736878e-06
4.1698516e-06
3.2614677e-06
1.8537573e-06
4.6720817e-06
4.6952838e-06
4.7216014e-06
4.7506965e-06
4.7821982e-06
4.8157079e-06
4.8508073e-06
4.8870637e-06
4.9240357e-06
4.9612796e-06
4.998355e-06
5.0348288e-06
5.0702739e-06
5.1042526e-06
5.1362539e-06
5.1655053e-06
5.1904607e-06
5.2075468e-06
5.2083681e-06
5.1741448e-06
5.0660678e-06
4.8117091e-06
4.2934043e-06
3.3590581e-06
1.9094009e-06
4.8673053e-06
4.8889964e-06
4.9136043e-06
4.9408145e-06
4.9702811e-06
5.0016324e-06
5.0344769e-06
5.0684096e-06
5.1030169e-06
5.137882e-06
5.1725902e-06
5.2067332e-06
5.239907e-06
5.2716938e-06
5.3015981e-06
5.328852e-06
5.3518877e-06
5.3670477e-06
5.3657162e-06
5.3286192e-06
5.2159528e-06
4.9534527e-06
4.4203411e-06
3.4600169e-06
1.9608925e-06
5.0646547e-06
5.0849119e-06
5.1078968e-06
5.1333163e-06
5.1608479e-06
5.1901445e-06
5.2208402e-06
5.2525556e-06
5.2849032e-06
5.3174916e-06
5.3499313e-06
5.3818375e-06
5.412828e-06
5.4425051e-06
5.470388e-06
5.4957126e-06
5.5168891e-06
5.5301742e-06
5.5267254e-06
5.4867517e-06
5.3693912e-06
5.0984358e-06
4.5500728e-06
3.5648384e-06
2.0321799e-06
5.2638407e-06
5.2827355e-06
5.3041779e-06
5.3278944e-06
5.3535843e-06
5.3809234e-06
5.4095698e-06
5.4391684e-06
5.469356e-06
5.4997657e-06
5.5300316e-06
5.5597915e-06
5.5886848e-06
5.6163324e-06
5.6422678e-06
5.6657302e-06
5.6851063e-06
5.6965651e-06
5.6910289e-06
5.6481627e-06
5.5259694e-06
5.246097e-06
4.6812168e-06
3.6678358e-06
2.1008959e-06
5.4645147e-06
5.4821141e-06
5.502089e-06
5.5241845e-06
5.5481203e-06
5.5735936e-06
5.6002849e-06
5.6278621e-06
5.655985e-06
5.6843098e-06
5.7124933e-06
5.740195e-06
5.7670745e-06
5.7927711e-06
5.8168317e-06
5.8384976e-06
5.8561307e-06
5.8658087e-06
5.8582116e-06
5.8124434e-06
5.6853355e-06
5.3963464e-06
4.8146327e-06
3.7723638e-06
2.1618913e-06
5.6662658e-06
5.6826331e-06
5.7012112e-06
5.7217632e-06
5.7440275e-06
5.7677218e-06
5.7925478e-06
5.8181947e-06
5.8443443e-06
5.8706746e-06
5.896864e-06
5.9225928e-06
5.9475401e-06
5.9713625e-06
5.9936195e-06
6.0135535e-06
6.0294992e-06
6.0374398e-06
6.0278071e-06
5.9791367e-06
5.8470887e-06
5.548971e-06
4.9505884e-06
3.8802947e-06
2.2248556e-06
5.8686195e-06
5.8838142e-06
5.9010628e-06
5.9201446e-06
5.9408162e-06
5.9628143e-06
5.9858605e-06
6.0096645e-06
6.0339286e-06
6.0583518e-06
6.0826328e-06
6.1064717e-06
6.1295666e-06
6.1515902e-06
6.1721138e-06
6.1903793e-06
6.2046923e-06
6.2109371e-06
6.1992919e-06
6.1477195e-06
6.0107139e-06
5.7034517e-06
5.0883419e-06
3.9892116e-06
2.2804519e-06
6.0710345e-06
6.0851135e-06
6.1010964e-06
6.1187783e-06
6.1379325e-06
6.1583139e-06
6.1796626e-06
6.2017077e-06
6.2241713e-06
6.246772e-06
6.2692279e-06
6.2912582e-06
6.3125786e-06
6.3328775e-06
6.3517367e-06
6.3683966e-06
6.3811307e-06
6.3857204e-06
6.3720835e-06
6.3176022e-06
6.1755965e-06
5.8590728e-06
5.2267447e-06
4.0968136e-06
2.3384805e-06
6.2729021e-06
6.2859196e-06
6.3006982e-06
6.3170475e-06
6.334757e-06
6.3535981e-06
6.3733288e-06
6.3936965e-06
6.414442e-06
6.4353025e-06
6.4560147e-06
6.4763158e-06
6.4959384e-06
6.5145856e-06
6.5318487e-06
6.5469652e-06
6.558174e-06
6.5611489e-06
6.5455392e-06
6.4881367e-06
6.3410872e-06
6.0152829e-06
5.3660282e-06
4.2067107e-06
2.4009159e-06
6.4735448e-06
6.4855532e-06
6.4991867e-06
6.5142686e-06
6.5306033e-06
6.5479783e-06
6.5661683e-06
6.584938e-06
6.6040458e-06
6.6232467e-06
6.6422949e-06
6.6609449e-06
6.6789451e-06
6.6960127e-06
6.7117476e-06
6.7253826e-06
6.7351199e-06
6.7365204e-06
6.7189554e-06
6.6586102e-06
6.506434e-06
6.171182e-06
5.5047195e-06
4.3156002e-06
2.462848e-06
6.6722175e-06
6.6832676e-06
6.6958133e-06
6.7096911e-06
6.7247193e-06
6.7407005e-06
6.7574253e-06
6.7746746e-06
6.7922236e-06
6.809844e-06
6.8273068e-06
6.8443826e-06
6.8608352e-06
6.8763947e-06
6.8906688e-06
6.9028844e-06
6.9112047e-06
6.9110727e-06
6.8915715e-06
6.8282584e-06
6.6708486e-06
6.3259083e-06
5.641889e-06
4.4231069e-06
2.5256527e-06
6.8681091e-06
6.8782505e-06
6.8897643e-06
6.9024998e-06
6.9162883e-06
6.9309467e-06
6.9462803e-06
6.9620856e-06
6.9781534e-06
6.9942715e-06
7.0102267e-06
7.0258047e-06
7.0407839e-06
7.0549065e-06
7.0677872e-06
7.0786461e-06
7.0856055e-06
7.0839868e-06
7.0625761e-06
6.9962853e-06
6.8335618e-06
6.4787354e-06
5.7768338e-06
4.5285729e-06
2.5910206e-06
7.060346e-06
7.0696272e-06
7.0801643e-06
7.0918182e-06
7.1044327e-06
7.1178382e-06
7.1318537e-06
7.1462905e-06
7.1609542e-06
7.1756475e-06
7.1901721e-06
7.2043284e-06
7.2179082e-06
7.2306653e-06
7.2422204e-06
7.2517862e-06
7.257443e-06
7.2543892e-06
7.2311105e-06
7.1618659e-06
6.9938279e-06
6.6291189e-06
5.9096011e-06
4.6333309e-06
2.658748e-06
7.2479964e-06
7.2564654e-06
7.2660802e-06
7.2767126e-06
7.2882182e-06
7.3004398e-06
7.3132099e-06
7.3263533e-06
7.3396894e-06
7.3530352e-06
7.3662063e-06
7.3790169e-06
7.3912714e-06
7.4027346e-06
7.4130324e-06
7.4213699e-06
7.425785e-06
7.4213538e-06
7.3962627e-06
7.3241224e-06
7.1508416e-06
6.7763812e-06
6.0396131e-06
4.7361638e-06
2.7239373e-06
7.4300743e-06
7.4377786e-06
7.4465252e-06
7.4561958e-06
7.4666573e-06
7.4777641e-06
7.4893611e-06
7.5012858e-06
7.5133709e-06
7.5254466e-06
7.5373415e-06
7.5488826e-06
7.5598866e-06
7.5701279e-06
7.5792378e-06
7.5864126e-06
7.5896491e-06
7.583902e-06
7.5570643e-06
7.4821102e-06
7.3037139e-06
6.9197206e-06
6.1659775e-06
4.8350935e-06
2.7836118e-06
7.6055373e-06
7.6125243e-06
7.6204566e-06
7.6292251e-06
7.6387072e-06
7.6487683e-06
7.6592646e-06
7.6700458e-06
7.6809568e-06
7.6918401e-06
7.7025366e-06
7.7128853e-06
7.7227139e-06
7.7318065e-06
7.7397983e-06
7.7458776e-06
7.7479997e-06
7.7410011e-06
7.7124869e-06
7.6348118e-06
7.451455e-06
7.0582173e-06
6.287952e-06
4.9303594e-06
2.8438851e-06
7.7732604e-06
7.7795778e-06
7.7867498e-06
7.7946763e-06
7.803244e-06
7.8123287e-06
7.8217974e-06
7.8315108e-06
7.8413252e-06
7.8510944e-06
7.8606712e-06
7.8699052e-06
7.8786349e-06
7.8866527e-06
7.8935978e-06
7.8986497e-06
7.8997237e-06
7.8915403e-06
7.8614249e-06
7.7811299e-06
7.5929767e-06
7.1907957e-06
6.4045529e-06
5.0206731e-06
2.8958424e-06
7.9319369e-06
7.9376326e-06
7.9440988e-06
7.9512436e-06
7.9589626e-06
7.9671411e-06
7.9756558e-06
7.9843779e-06
7.9931742e-06
8.0019091e-06
8.0104457e-06
8.0186442e-06
8.0263524e-06
8.0333707e-06
8.0393417e-06
8.0434363e-06
8.0435307e-06
8.0342348e-06
8.0026052e-06
7.9198184e-06
7.7270896e-06
7.3163703e-06
6.5148823e-06
5.1056162e-06
2.940701e-06
8.0797712e-06
8.0848938e-06
8.0907095e-06
8.097134e-06
8.104071e-06
8.1114143e-06
8.1190501e-06
8.1268587e-06
8.1347166e-06
8.1424982e-06
8.1500759e-06
8.1573194e-06
8.1640853e-06
8.1701809e-06
8.1752519e-06
8.178461e-06
8.1776475e-06
8.1673171e-06
8.1342758e-06
8.0491642e-06
7.8521735e-06
7.4335158e-06
6.6178084e-06
5.184694e-06
2.9837575e-06
8.2136481e-06
8.218247e-06
8.2234687e-06
8.2292359e-06
8.2354594e-06
8.2420408e-06
8.2488743e-06
8.2558491e-06
8.2628507e-06
8.269762e-06
8.2764641e-06
8.2828351e-06
8.2887392e-06
8.2939905e-06
8.2982371e-06
8.3006337e-06
8.2989861e-06
8.2877039e-06
8.2533643e-06
8.1661222e-06
7.965254e-06
7.5394677e-06
6.7113398e-06
5.2586058e-06
3.0293228e-06
8.3270933e-06
8.331219e-06
8.3359055e-06
8.3410814e-06
8.3466635e-06
8.3525597e-06
8.3586714e-06
8.3648959e-06
8.3711266e-06
8.377254e-06
8.3831668e-06
8.38875e-06
8.3938751e-06
8.3983613e-06
8.4018589e-06
8.4035157e-06
8.4011068e-06
8.3889562e-06
8.3534365e-06
8.2642749e-06
8.059959e-06
7.6279432e-06
6.7891207e-06
5.3187155e-06
3.0574155e-06
8.4057494e-06
8.4094531e-06
8.4136665e-06
8.4183234e-06
8.4233441e-06
8.4286402e-06
8.4341189e-06
8.4396846e-06
8.4452378e-06
8.4506747e-06
8.4558897e-06
8.460774e-06
8.4652047e-06
8.4690048e-06
8.4718255e-06
8.472809e-06
8.4697053e-06
8.4567651e-06
8.420189e-06
8.329357e-06
8.1221582e-06
7.6851975e-06
6.8384653e-06
5.356459e-06
3.078485e-06
8.4184166e-06
8.4217471e-06
8.4255538e-06
8.4297766e-06
8.4343335e-06
8.4391344e-06
8.4440887e-06
8.4491081e-06
8.4540978e-06
8.4589546e-06
8.4635764e-06
8.4678592e-06
8.4716847e-06
8.4748754e-06
8.4770807e-06
8.4774419e-06
8.4736934e-06
8.4600356e-06
8.422553e-06
8.3304266e-06
8.121318e-06
7.6818105e-06
6.8325712e-06
5.3498032e-06
3.0741995e-06
8.3016381e-06
8.3046313e-06
8.3080985e-06
8.3119958e-06
8.3162232e-06
8.3206776e-06
8.325261e-06
8.3298957e-06
8.3344875e-06
8.3389193e-06
8.3430862e-06
8.34689e-06
8.3502168e-06
8.3528736e-06
8.3545045e-06
8.3542669e-06
8.3499024e-06
8.3356101e-06
8.297482e-06
8.2048058e-06
7.9957723e-06
7.5585939e-06
6.7177108e-06
5.2556538e-06
3.0187957e-06
7.9380493e-06
7.9406973e-06
7.9438652e-06
7.9475799e-06
7.9516809e-06
7.9560265e-06
7.960473e-06
7.9649732e-06
7.9694442e-06
7.9737098e-06
7.977637e-06
7.9811505e-06
7.984144e-06
7.986355e-06
7.9874248e-06
7.9865888e-06
7.9816498e-06
7.9669248e-06
7.928801e-06
7.837316e-06
7.6327478e-06
7.208167e-06
6.3976496e-06
4.9988094e-06
2.8718782e-06
7.1364138e-06
7.1385908e-06
7.1413655e-06
7.1450377e-06
7.149297e-06
7.1539009e-06
7.1585201e-06
7.1632262e-06
7.1681041e-06
7.1727191e-06
7.1767396e-06
7.18026e-06
7.1832119e-06
7.1851087e-06
7.1856181e-06
7.1842219e-06
7.178919e-06
7.1644308e-06
7.1280836e-06
7.0419033e-06
6.8513135e-06
6.460153e-06
5.7223123e-06
4.4659838e-06
2.5828941e-06
5.6407613e-06
5.6421368e-06
5.6440917e-06
5.6476175e-06
5.6521679e-06
5.6573005e-06
5.6622192e-06
5.6674507e-06
5.6741386e-06
5.680514e-06
5.6850309e-06
5.6887962e-06
5.6920124e-06
5.6937433e-06
5.6937582e-06
5.6920536e-06
5.6871082e-06
5.6746716e-06
5.6442775e-06
5.5721045e-06
5.414059e-06
5.0941503e-06
4.5002131e-06
3.5068948e-06
2.0472865e-06
3.244585e-06
3.2450181e-06
3.2456425e-06
3.2481533e-06
3.2519639e-06
3.2565204e-06
3.2607258e-06
3.2661648e-06
3.276974e-06
3.2873853e-06
3.2922386e-06
3.2955626e-06
3.298461e-06
3.2998422e-06
3.299641e-06
3.2983181e-06
3.2951593e-06
3.2878423e-06
3.2700791e-06
3.22622e-06
3.1302358e-06
2.9384071e-06
2.5885313e-06
2.0183643e-06
1.2124859e-06
)
;

boundaryField
{
    Walls
    {
        type            kqRWallFunction;
        value           nonuniform List<scalar> 
38
(
2.611816e-06
2.2839459e-06
7.8035914e-06
3.7610661e-05
0.00028036494
0.00235149
0.056282624
0.060848041
0.01873594
0.027609023
0.034554239
0.041778079
0.048010914
0.051958343
0.056425192
0.060126022
0.06207852
0.064583563
0.066890803
0.067516873
0.068834507
0.070056155
0.071053774
0.071935201
0.072015957
0.072727833
0.072880145
0.073003027
0.073157199
0.073247342
0.073334181
0.073210475
0.072887826
0.072877562
0.073112923
0.072810927
0.072098118
0.066983983
)
;
    }
    Inlet
    {
        type            turbulentIntensityKineticEnergyInlet;
        intensity       0.05;
        value           nonuniform List<scalar> 3(0.0078367722 0.0095266041 0.0097421287);
    }
    Outlet
    {
        type            inletOutlet;
        inletValue      uniform 0;
        value           nonuniform List<scalar> 
86
(
3.22576e-06
3.2262546e-06
3.227421e-06
3.2289721e-06
3.2301805e-06
3.244585e-06
3.2450181e-06
3.2456425e-06
3.2481533e-06
3.2519639e-06
3.2565204e-06
3.2607258e-06
3.2661648e-06
3.276974e-06
3.2873853e-06
3.2922386e-06
3.2955626e-06
3.298461e-06
3.2998422e-06
3.299641e-06
3.2983181e-06
3.2951593e-06
3.2878423e-06
3.2700791e-06
3.22622e-06
3.1302358e-06
2.9384071e-06
2.5885313e-06
2.0183643e-06
1.2124859e-06
0.0022575765
0.0022756344
0.0016313173
0
0
0
0
8.2946786e-06
4.3520096e-06
2.281088e-06
0
0
1.2040204e-06
1.3194542e-06
1.4528277e-06
1.5430486e-06
1.5943916e-06
1.6404312e-06
1.6891855e-06
1.7405681e-06
1.8033526e-06
1.8537573e-06
1.9094009e-06
0
0
0
0
0
0
0
0
0
0
0
0
0
0
0
0
0
0
0
0
0
0
0
0
0
0
0
0
0
0
0
0.0015696588
0.0022660219
)
;
    }
    Front
    {
        type            wedge;
    }
    Back
    {
        type            wedge;
    }
    defaultFaces
    {
        type            empty;
    }
}


// ************************************************************************* //
