/*--------------------------------*- C++ -*----------------------------------*\
| =========                 |                                                 |
| \\      /  F ield         | OpenFOAM: The Open Source CFD Toolbox           |
|  \\    /   O peration     | Version:  4.0                                   |
|   \\  /    A nd           | Web:      www.OpenFOAM.org                      |
|    \\/     M anipulation  |                                                 |
\*---------------------------------------------------------------------------*/
FoamFile
{
    version     2.0;
    format      ascii;
    class       volScalarField;
    location    "0.11";
    object      nut;
}
// * * * * * * * * * * * * * * * * * * * * * * * * * * * * * * * * * * * * * //

dimensions      [0 2 -1 0 0 0 0];

internalField   nonuniform List<scalar> 
1740
(
1.3709957e-05
1.3591305e-05
1.2553566e-06
9.0474574e-06
6.808658e-06
1.8366447e-06
1.4112528e-05
5.3668244e-06
2.2858877e-06
2.4445478e-05
4.7447875e-06
2.7480921e-06
1.266072e-05
4.3161312e-06
3.142721e-06
8.6407402e-06
4.0124556e-06
3.3904883e-06
1.0957505e-05
3.8268721e-06
3.6693548e-06
1.0778227e-05
3.7117539e-06
3.8990147e-06
1.0765219e-05
3.6300858e-06
4.0196084e-06
9.7688143e-06
3.5651967e-06
4.1736185e-06
8.7753073e-06
3.5383471e-06
4.3149109e-06
8.004835e-06
3.5331604e-06
4.3535179e-06
7.5104332e-06
3.5074691e-06
4.4343883e-06
7.0979568e-06
3.4898269e-06
4.5087865e-06
6.6617899e-06
3.4823935e-06
4.5693837e-06
6.198572e-06
3.4966623e-06
4.6232942e-06
5.8928396e-06
3.4935602e-06
4.6274483e-06
5.6292575e-06
3.5018436e-06
4.6711425e-06
5.3985339e-06
3.5183675e-06
4.6807601e-06
5.2109138e-06
3.5267614e-06
4.6879368e-06
5.0357127e-06
3.5197771e-06
4.6970626e-06
4.8857229e-06
3.53596e-06
4.7032725e-06
4.749585e-06
3.5616696e-06
4.7083617e-06
4.614724e-06
3.5548124e-06
4.7007319e-06
4.4989157e-06
3.5198422e-06
4.6816164e-06
4.3948963e-06
3.5086411e-06
4.6802102e-06
4.2826312e-06
3.5379068e-06
4.6941161e-06
4.1907791e-06
3.5632602e-06
4.6765992e-06
4.1418283e-06
3.5775235e-06
4.6332355e-06
2.433285e-06
3.665346e-06
4.3208751e-06
1.8562285e-06
2.1581511e-06
4.4132284e-06
7.1369515e-06
7.3303117e-06
6.664225e-06
6.5173706e-06
6.7272366e-06
6.3617549e-06
5.1303403e-06
5.06859e-06
4.8245459e-06
4.1983516e-06
4.128909e-06
3.9923263e-06
3.4262365e-06
3.3828842e-06
3.3101845e-06
2.6352845e-06
2.6097907e-06
2.5660626e-06
1.7915604e-06
1.7742838e-06
1.7418058e-06
1.0210156e-06
1.0089356e-06
9.8501517e-07
4.8558369e-07
4.7856768e-07
4.6449011e-07
2.0512572e-07
2.0187186e-07
1.9535374e-07
8.7492921e-08
8.6282197e-08
8.3858279e-08
4.5726685e-08
4.5338979e-08
4.4576984e-08
3.3039545e-08
3.2948707e-08
3.2786369e-08
3.0421622e-08
3.0429597e-08
3.0464316e-08
3.0997542e-08
3.1035723e-08
3.1128269e-08
3.2505348e-08
3.2551351e-08
3.2656989e-08
3.4268628e-08
3.4315398e-08
3.4420606e-08
3.6105826e-08
3.6151169e-08
3.625209e-08
3.7975108e-08
3.8018344e-08
3.8113991e-08
3.9869562e-08
3.9910499e-08
4.0000726e-08
4.1789258e-08
4.1827874e-08
4.1912788e-08
4.3734681e-08
4.3771018e-08
4.3850803e-08
4.5705485e-08
4.5739615e-08
4.5814478e-08
4.7700404e-08
4.7732408e-08
4.7802562e-08
4.9717326e-08
4.9747289e-08
4.9812939e-08
5.1753351e-08
5.1781356e-08
5.18427e-08
5.3804803e-08
5.3830934e-08
5.3888161e-08
5.5867234e-08
5.5891571e-08
5.5944863e-08
5.7935414e-08
5.7958035e-08
5.8007564e-08
6.0003317e-08
6.0024296e-08
6.0070229e-08
6.2064111e-08
6.2083522e-08
6.2126019e-08
6.4110164e-08
6.4128077e-08
6.4167295e-08
6.6133056e-08
6.6149541e-08
6.6185634e-08
6.8123611e-08
6.8138737e-08
6.8171857e-08
7.0071947e-08
7.0085783e-08
7.0116081e-08
7.1967553e-08
7.1980169e-08
7.2007795e-08
7.379939e-08
7.3810854e-08
7.3835962e-08
7.5556036e-08
7.556642e-08
7.5589164e-08
7.7225915e-08
7.723529e-08
7.7255827e-08
7.8797694e-08
7.8806133e-08
7.8824625e-08
8.0261022e-08
8.0268602e-08
8.0285215e-08
8.1607815e-08
8.1614615e-08
8.1629524e-08
8.2834054e-08
8.2840159e-08
8.285355e-08
8.3941243e-08
8.3946745e-08
8.3958817e-08
8.493499e-08
8.4939988e-08
8.4950962e-08
8.5816383e-08
8.5820988e-08
8.5831103e-08
8.656084e-08
8.6565172e-08
8.6574697e-08
8.7075753e-08
8.707994e-08
8.7089161e-08
8.7080773e-08
8.7084936e-08
8.7094126e-08
4.1752698e-06
4.4960522e-06
6.586663e-06
8.2923987e-06
5.9808307e-06
6.0240519e-06
4.6843748e-06
4.7857679e-06
3.9337134e-06
4.0207099e-06
3.2792523e-06
3.3290324e-06
2.5378759e-06
2.5488427e-06
1.710162e-06
1.6935407e-06
9.5703962e-07
9.3288101e-07
4.4696288e-07
4.2973258e-07
1.8706901e-07
1.7852515e-07
8.0752405e-08
7.7490856e-08
4.3615521e-08
4.2624243e-08
3.2607578e-08
3.24627e-08
3.0541892e-08
3.0675357e-08
3.1278561e-08
3.1488475e-08
3.2821309e-08
3.3043005e-08
3.4581746e-08
3.4796676e-08
3.6405532e-08
3.6609197e-08
3.8258834e-08
3.8450628e-08
4.0137042e-08
4.031732e-08
4.2040894e-08
4.2210196e-08
4.3971065e-08
4.4129937e-08
4.5927259e-08
4.6076214e-08
4.7908209e-08
4.8047725e-08
4.9911783e-08
5.0042306e-08
5.1935049e-08
5.2056993e-08
5.3974306e-08
5.408806e-08
5.602508e-08
5.6131011e-08
5.8082117e-08
5.8180574e-08
6.013937e-08
6.0230686e-08
6.2189991e-08
6.2274488e-08
6.4226336e-08
6.4304325e-08
6.6239974e-08
6.6311763e-08
6.8221726e-08
6.8287616e-08
7.0161706e-08
7.0221998e-08
7.2049404e-08
7.21044e-08
7.3873786e-08
7.3923787e-08
7.5623433e-08
7.5668749e-08
7.728678e-08
7.7327723e-08
7.8852504e-08
7.8889396e-08
8.0310272e-08
8.0343446e-08
8.1652022e-08
8.1681826e-08
8.2873769e-08
8.2900575e-08
8.3977061e-08
8.4001268e-08
8.4967556e-08
8.4989593e-08
8.5846407e-08
8.5866728e-08
8.6589099e-08
8.6608165e-08
8.7103067e-08
8.7121315e-08
8.7107906e-08
8.7125706e-08
2.1660164e-10
1.1009306e-08
1.6083153e-07
6.8000806e-07
1.3545705e-06
1.8267667e-06
2.0695587e-06
2.1776593e-06
2.2152161e-06
2.2133223e-06
2.185096e-06
2.1352266e-06
2.0647362e-06
1.973339e-06
1.8607414e-06
1.7276677e-06
1.5766124e-06
1.4124393e-06
1.2426906e-06
1.0772648e-06
9.2696326e-07
8.0037667e-07
6.9831544e-07
6.042046e-07
4.7866708e-07
1.894113e-10
2.4901181e-08
3.3042519e-07
1.2501844e-06
2.3106099e-06
2.9820699e-06
3.327765e-06
3.5069535e-06
3.601822e-06
3.6485047e-06
3.660837e-06
3.6424117e-06
3.5920319e-06
3.5067059e-06
3.3832961e-06
3.220287e-06
3.0189237e-06
2.7844402e-06
2.5272668e-06
2.2635369e-06
2.0138311e-06
1.7986689e-06
1.6285619e-06
1.4832878e-06
1.2465375e-06
6.4716179e-10
7.7858249e-08
8.411298e-07
2.4355082e-06
3.6360253e-06
4.28266e-06
4.6475658e-06
4.8823172e-06
5.0537974e-06
5.1875171e-06
5.2917229e-06
5.3663851e-06
5.4063275e-06
5.4048814e-06
5.3547047e-06
5.2500227e-06
5.0873563e-06
4.867161e-06
4.5961157e-06
4.2893648e-06
3.9712539e-06
3.6714104e-06
3.4095148e-06
3.1519594e-06
2.6492406e-06
3.1190098e-09
2.8586122e-07
2.062429e-06
3.9840898e-06
4.993135e-06
5.5409307e-06
5.8975509e-06
6.1768401e-06
6.4258911e-06
6.6568881e-06
6.8731237e-06
7.0724617e-06
7.2449894e-06
7.3811324e-06
7.4687217e-06
7.4976901e-06
7.4583269e-06
7.342859e-06
7.1481282e-06
6.8786843e-06
6.5493628e-06
6.1844848e-06
5.8046219e-06
5.3733085e-06
4.5390471e-06
2.3244585e-08
1.1376811e-06
3.9949003e-06
5.6077853e-06
6.4599727e-06
6.9764407e-06
7.3484072e-06
7.6737677e-06
7.9952065e-06
8.3086037e-06
8.6169353e-06
8.9241865e-06
9.2150144e-06
9.4795279e-06
9.6989019e-06
9.8643795e-06
9.9632198e-06
9.981205e-06
9.9056899e-06
9.7288654e-06
9.4512532e-06
9.0854806e-06
8.6574774e-06
8.2133437e-06
7.8272855e-06
1.9454469e-07
2.7386157e-06
5.8957347e-06
7.7170895e-06
8.6481662e-06
9.0789762e-06
9.2846324e-06
9.4274885e-06
9.5677935e-06
9.7215607e-06
9.8937512e-06
1.0086915e-05
1.0297907e-05
1.0517575e-05
1.073392e-05
1.0932857e-05
1.1097677e-05
1.1208942e-05
1.1246246e-05
1.1191117e-05
1.1030308e-05
1.0760685e-05
1.0393079e-05
9.9726001e-06
9.5898217e-06
4.3306529e-06
4.2994221e-06
4.3453153e-06
4.4608097e-06
4.641308e-06
4.8760096e-06
5.1555182e-06
5.4770287e-06
5.8413978e-06
6.2485692e-06
6.6960831e-06
7.1785235e-06
7.6862756e-06
8.2052096e-06
8.7175881e-06
9.2036439e-06
9.6424369e-06
1.0011866e-05
1.0289428e-05
1.0454324e-05
1.0490345e-05
1.039019e-05
1.0159765e-05
9.8370068e-06
9.5155604e-06
9.0943871e-06
9.3596341e-06
9.7747765e-06
1.0206312e-05
1.0394136e-05
1.036742e-05
1.0257659e-05
1.0164133e-05
1.0125814e-05
1.0142733e-05
1.0208812e-05
1.031692e-05
1.0458191e-05
1.0622717e-05
1.0797951e-05
1.0968412e-05
1.1115224e-05
1.1216873e-05
1.1251082e-05
1.1197684e-05
1.1041837e-05
1.0778787e-05
1.0417345e-05
1.0000775e-05
9.6187543e-06
6.3969598e-06
6.8108023e-06
7.2463784e-06
7.6491402e-06
7.9502474e-06
8.1603625e-06
8.3366661e-06
8.524351e-06
8.7229753e-06
8.9417012e-06
9.1757063e-06
9.4119992e-06
9.6378768e-06
9.8428272e-06
1.0017975e-05
1.0150587e-05
1.0225457e-05
1.0226735e-05
1.0140397e-05
9.9572183e-06
9.6759644e-06
9.307149e-06
8.8739809e-06
8.4196442e-06
8.0168474e-06
5.0899846e-06
5.4359732e-06
5.7728591e-06
6.0703853e-06
6.3081179e-06
6.495561e-06
6.6613278e-06
6.8242297e-06
6.9894833e-06
7.1585684e-06
7.3254885e-06
7.4812671e-06
7.6161652e-06
7.7200111e-06
7.7824073e-06
7.7922017e-06
7.7384698e-06
7.6124568e-06
7.4100316e-06
7.1346237e-06
6.7996209e-06
6.4273077e-06
6.0347818e-06
5.5774346e-06
4.6790882e-06
4.232858e-06
4.48541e-06
4.7321583e-06
4.9487991e-06
5.1242343e-06
5.2623667e-06
5.3754607e-06
5.4733942e-06
5.5601841e-06
5.6355396e-06
5.6950555e-06
5.7321961e-06
5.7395787e-06
5.709605e-06
5.6351571e-06
5.5100669e-06
5.3304289e-06
5.0965351e-06
4.8145041e-06
4.4988949e-06
4.1733088e-06
3.8662848e-06
3.5952041e-06
3.3202622e-06
2.772089e-06
3.4518651e-06
3.606706e-06
3.7608652e-06
3.8936923e-06
3.9952619e-06
4.0653684e-06
4.109546e-06
4.1331908e-06
4.1389071e-06
4.1265075e-06
4.0934184e-06
4.0356475e-06
3.9486328e-06
3.8280547e-06
3.6707526e-06
3.4754668e-06
3.2438409e-06
2.9817583e-06
2.7002312e-06
2.4158075e-06
2.1493443e-06
1.9219387e-06
1.7462149e-06
1.6084023e-06
1.4019083e-06
2.5990407e-06
2.6704177e-06
2.7428493e-06
2.8004233e-06
2.8338637e-06
2.8408751e-06
2.8239047e-06
2.7865254e-06
2.7311882e-06
2.6587916e-06
2.5689655e-06
2.4606493e-06
2.3326733e-06
2.1844636e-06
2.0167753e-06
1.8321584e-06
1.6352795e-06
1.4330758e-06
1.2344591e-06
1.0493997e-06
8.8727505e-07
7.544145e-07
6.5059215e-07
5.6349464e-07
4.5097545e-07
1.695425e-06
1.7091991e-06
1.7240521e-06
1.7295841e-06
1.7188457e-06
1.6895118e-06
1.642913e-06
1.5818485e-06
1.5089215e-06
1.4260184e-06
1.3344173e-06
1.235094e-06
1.1290533e-06
1.0176592e-06
9.0290883e-07
7.8748459e-07
6.7463725e-07
5.6793403e-07
4.7088084e-07
3.8642948e-07
3.1639464e-07
2.6071371e-07
2.1626009e-07
1.7485709e-07
1.2615264e-07
9.1605499e-07
9.0491587e-07
8.9470689e-07
8.800785e-07
8.5721459e-07
8.2482292e-07
7.8380102e-07
7.3610757e-07
6.8375035e-07
6.2838083e-07
5.7128555e-07
5.1351062e-07
4.5598658e-07
3.9963969e-07
3.4545848e-07
2.9447668e-07
2.47704e-07
2.0603241e-07
1.7014062e-07
1.4039616e-07
1.1675578e-07
9.8639824e-08
8.4746938e-08
7.29813e-08
6.24208e-08
4.1496934e-07
4.0260504e-07
3.9098459e-07
3.7797888e-07
3.6201805e-07
3.4261041e-07
3.2022856e-07
2.9583243e-07
2.7041379e-07
2.4478127e-07
2.1954524e-07
1.951762e-07
1.7203966e-07
1.5043516e-07
1.306195e-07
1.1281014e-07
9.7174482e-08
8.3813741e-08
7.2747093e-08
6.3915085e-08
5.7163022e-08
5.223102e-08
4.8745144e-08
4.6302573e-08
4.488568e-08
1.707282e-07
1.6386994e-07
1.5748756e-07
1.5088581e-07
1.4353456e-07
1.3527203e-07
1.2627328e-07
1.1688575e-07
1.0746675e-07
9.8304904e-08
8.9568995e-08
8.1398995e-08
7.3899103e-08
6.7138169e-08
6.1157971e-08
5.597775e-08
5.1596009e-08
4.7991547e-08
4.5125162e-08
4.2941165e-08
4.136704e-08
4.0312435e-08
3.9670811e-08
3.9337786e-08
3.9325778e-08
7.445055e-08
7.1750026e-08
6.9289638e-08
6.6877951e-08
6.4360195e-08
6.1684572e-08
5.889627e-08
5.6089814e-08
5.3362635e-08
5.0791576e-08
4.8427585e-08
4.6300809e-08
4.4432024e-08
4.28272e-08
4.1482429e-08
4.038668e-08
3.9523738e-08
3.8874095e-08
3.8416835e-08
3.8130982e-08
3.7995144e-08
3.7984425e-08
3.8065214e-08
3.8178888e-08
3.8228338e-08
4.173235e-08
4.0994362e-08
4.0393427e-08
3.9877832e-08
3.9398842e-08
3.8932415e-08
3.8480543e-08
3.8060065e-08
3.7690314e-08
3.7385841e-08
3.7154755e-08
3.6996105e-08
3.6909428e-08
3.6889757e-08
3.692934e-08
3.7018951e-08
3.714906e-08
3.7311178e-08
3.7499327e-08
3.7711068e-08
3.7946773e-08
3.8205622e-08
3.8477858e-08
3.8723114e-08
3.8843661e-08
3.2392239e-08
3.2416422e-08
3.2531246e-08
3.2719087e-08
3.2959893e-08
3.3238498e-08
3.3546384e-08
3.3879676e-08
3.4236147e-08
3.4613202e-08
3.5007131e-08
3.5412871e-08
3.5823896e-08
3.6235257e-08
3.6641083e-08
3.7035575e-08
3.741389e-08
3.7773268e-08
3.8114371e-08
3.8442209e-08
3.876525e-08
3.9090923e-08
3.941683e-08
3.9708674e-08
3.9875042e-08
3.0875313e-08
3.1147126e-08
3.1487002e-08
3.1885431e-08
3.2330754e-08
3.2811834e-08
3.3319186e-08
3.3844922e-08
3.438219e-08
3.4924674e-08
3.5466344e-08
3.6001476e-08
3.6523151e-08
3.7026677e-08
3.7507313e-08
3.796086e-08
3.838441e-08
3.8777419e-08
3.9143032e-08
3.948896e-08
3.9826359e-08
4.0164843e-08
4.0502814e-08
4.0805457e-08
4.0981728e-08
3.1759141e-08
3.2090241e-08
3.2477388e-08
3.2913531e-08
3.3390232e-08
3.3898757e-08
3.4430719e-08
3.497831e-08
3.5534302e-08
3.609196e-08
3.6644992e-08
3.7187484e-08
3.7713781e-08
3.8218355e-08
3.8696986e-08
3.9146094e-08
3.9563479e-08
3.9949415e-08
4.0307978e-08
4.0647833e-08
4.0980875e-08
4.1316765e-08
4.1652585e-08
4.1951041e-08
4.2115576e-08
3.3320387e-08
3.3651185e-08
3.4030973e-08
3.4453857e-08
3.4913057e-08
3.5401377e-08
3.5911587e-08
3.6436635e-08
3.6969747e-08
3.7504474e-08
3.8034705e-08
3.8554675e-08
3.9058963e-08
3.9542599e-08
4.0000925e-08
4.0430696e-08
4.0830032e-08
4.1199583e-08
4.1543855e-08
4.1871928e-08
4.2195879e-08
4.2524977e-08
4.2854871e-08
4.3145799e-08
4.3294237e-08
3.5062954e-08
3.5377733e-08
3.5736822e-08
3.6135067e-08
3.6566684e-08
3.702549e-08
3.7505135e-08
3.7999269e-08
3.850165e-08
3.9006218e-08
3.950715e-08
3.9998901e-08
4.0476257e-08
4.0934465e-08
4.1368963e-08
4.177659e-08
4.2155666e-08
4.2507103e-08
4.2835725e-08
4.3150928e-08
4.3464968e-08
4.3786893e-08
4.4111345e-08
4.439681e-08
4.45363e-08
3.6860517e-08
3.7156544e-08
3.7493379e-08
3.7866409e-08
3.8270509e-08
3.8700193e-08
3.9149758e-08
3.9613419e-08
4.0085406e-08
4.0560042e-08
4.1031811e-08
4.1495413e-08
4.1945837e-08
4.2378455e-08
4.2789167e-08
4.3174662e-08
4.35335e-08
4.3866856e-08
4.4179879e-08
4.4482345e-08
4.4786833e-08
4.5102451e-08
4.5423207e-08
4.5706291e-08
4.5841173e-08
3.8686862e-08
3.8964648e-08
3.9280373e-08
3.9629838e-08
4.0008396e-08
4.0411078e-08
4.0832675e-08
4.1267861e-08
4.1711272e-08
4.2157585e-08
4.2601589e-08
4.3038245e-08
4.3462765e-08
4.3870718e-08
4.4258239e-08
4.4622184e-08
4.4961282e-08
4.5276982e-08
4.5574799e-08
4.5864963e-08
4.6160518e-08
4.6470809e-08
4.6789409e-08
4.7072238e-08
4.7204594e-08
4.0539161e-08
4.0799796e-08
4.109587e-08
4.1423519e-08
4.1778481e-08
4.215618e-08
4.2551819e-08
4.2960456e-08
4.3377082e-08
4.3796701e-08
4.4214393e-08
4.4625384e-08
4.5025117e-08
4.5409369e-08
4.5774448e-08
4.6117569e-08
4.6437524e-08
4.6736076e-08
4.7019145e-08
4.7297468e-08
4.7584612e-08
4.7890194e-08
4.8207313e-08
4.8490383e-08
4.862006e-08
4.2418432e-08
4.2662971e-08
4.2940688e-08
4.3248005e-08
4.358098e-08
4.3935371e-08
4.4306723e-08
4.4690432e-08
4.5081811e-08
4.5476164e-08
4.5868849e-08
4.625535e-08
4.6631345e-08
4.6992826e-08
4.7336307e-08
4.7659241e-08
4.7960635e-08
4.8242552e-08
4.8511325e-08
4.8778212e-08
4.9057293e-08
4.9358374e-08
4.9673841e-08
4.995586e-08
5.0076412e-08
4.4325299e-08
4.455467e-08
4.4815127e-08
4.5103347e-08
4.5415663e-08
4.5748129e-08
4.6096587e-08
4.6456735e-08
4.6824183e-08
4.7194514e-08
4.756335e-08
4.7926424e-08
4.8279647e-08
4.8619226e-08
4.8941883e-08
4.9245284e-08
4.9528701e-08
4.9794488e-08
5.0049395e-08
5.0305201e-08
5.057647e-08
5.0873125e-08
5.1186735e-08
5.1467205e-08
5.1580274e-08
4.6259364e-08
4.6474378e-08
4.6718521e-08
4.6988695e-08
4.7281483e-08
4.75932e-08
4.7919961e-08
4.8257735e-08
4.8602405e-08
4.8949819e-08
4.9295851e-08
4.9636472e-08
4.996782e-08
5.0286314e-08
5.0588878e-08
5.0873375e-08
5.1139406e-08
5.1389559e-08
5.1631015e-08
5.1876063e-08
5.2139721e-08
5.2431974e-08
5.2743535e-08
5.3022345e-08
5.3130088e-08
4.8219264e-08
4.8420644e-08
4.8649306e-08
4.8902358e-08
4.9176608e-08
4.9468611e-08
4.9774731e-08
5.0091188e-08
5.0414118e-08
5.0739619e-08
5.1063806e-08
5.138288e-08
5.1693196e-08
5.1991383e-08
5.2274567e-08
5.2540819e-08
5.2789997e-08
5.3025e-08
5.3253409e-08
5.3488005e-08
5.3744231e-08
5.4032064e-08
5.4341253e-08
5.461759e-08
5.4718798e-08
5.0202787e-08
5.0391188e-08
5.0605121e-08
5.0841879e-08
5.109848e-08
5.13717e-08
5.1658133e-08
5.1954235e-08
5.2256379e-08
5.2560896e-08
5.2864134e-08
5.3162512e-08
5.3452597e-08
5.3731223e-08
5.3995711e-08
5.4244341e-08
5.4477203e-08
5.4697547e-08
5.4913317e-08
5.5137781e-08
5.5386789e-08
5.5670297e-08
5.5977033e-08
5.6250184e-08
5.6341927e-08
5.2206932e-08
5.2382959e-08
5.2582848e-08
5.2804072e-08
5.3043837e-08
5.3299128e-08
5.3566753e-08
5.3843391e-08
5.4125636e-08
5.4410042e-08
5.4693175e-08
5.4971667e-08
5.5242289e-08
5.550207e-08
5.5748529e-08
5.5980146e-08
5.619725e-08
5.6403403e-08
5.6606944e-08
5.6821616e-08
5.706369e-08
5.7343173e-08
5.7647981e-08
5.7919061e-08
5.8002421e-08
5.4227935e-08
5.4392154e-08
5.4578638e-08
5.4785028e-08
5.5008712e-08
5.5246868e-08
5.5496508e-08
5.5754517e-08
5.6017699e-08
5.6282819e-08
5.6546653e-08
5.6806035e-08
5.7057934e-08
5.7299568e-08
5.7528644e-08
5.7743844e-08
5.794573e-08
5.8138165e-08
5.8329892e-08
5.8535123e-08
5.8770559e-08
5.90463e-08
5.934951e-08
5.9618886e-08
5.9693251e-08
5.6261273e-08
5.6414213e-08
5.6587893e-08
5.678011e-08
5.6988422e-08
5.7210192e-08
5.7442622e-08
5.7682792e-08
5.7927706e-08
5.817433e-08
5.8419638e-08
5.866066e-08
5.8894551e-08
5.9118716e-08
5.9331043e-08
5.9530411e-08
5.9717608e-08
5.9896794e-08
6.0077125e-08
6.0273262e-08
6.0502328e-08
6.0774483e-08
6.1076008e-08
6.1342737e-08
6.140331e-08
5.8301651e-08
5.8443814e-08
5.8605259e-08
5.8783928e-08
5.8977544e-08
5.918364e-08
5.9399597e-08
5.9622685e-08
5.9850093e-08
6.0078981e-08
6.0306512e-08
6.05299e-08
6.0746483e-08
6.0953842e-08
6.1150043e-08
6.1334153e-08
6.1507189e-08
6.1673602e-08
6.1842938e-08
6.2030316e-08
6.2253252e-08
6.2521918e-08
6.282163e-08
6.3085278e-08
6.3133351e-08
6.0342989e-08
6.0474856e-08
6.0624609e-08
6.079033e-08
6.0969896e-08
6.1161001e-08
6.1361198e-08
6.156793e-08
6.1778571e-08
6.199046e-08
6.220094e-08
6.2407405e-08
6.2607365e-08
6.2798571e-08
6.297926e-08
6.3148684e-08
6.330808e-08
6.3462187e-08
6.3620933e-08
6.3799881e-08
6.4016914e-08
6.4282184e-08
6.4580066e-08
6.4840825e-08
6.487777e-08
6.2378413e-08
6.2500446e-08
6.2639032e-08
6.2792385e-08
6.2958526e-08
6.3135302e-08
6.3320427e-08
6.3511514e-08
6.3706107e-08
6.3901717e-08
6.409586e-08
6.4286099e-08
6.4470111e-08
6.4645808e-08
6.4811595e-08
6.49669e-08
6.5113177e-08
6.5255445e-08
6.5404002e-08
6.5574853e-08
6.57862e-08
6.6048097e-08
6.6343819e-08
6.6600674e-08
6.6624524e-08
6.4400256e-08
6.4512907e-08
6.4640836e-08
6.4782385e-08
6.4935709e-08
6.5098802e-08
6.5269531e-08
6.5445667e-08
6.5624918e-08
6.5804959e-08
6.5983468e-08
6.6158173e-08
6.6326906e-08
6.6487736e-08
6.6639227e-08
6.6780981e-08
6.691466e-08
6.704556e-08
6.7184344e-08
6.7347432e-08
6.755333e-08
6.7811936e-08
6.8105349e-08
6.8357934e-08
6.8368822e-08
6.6400076e-08
6.6503786e-08
6.6621558e-08
6.6751856e-08
6.6892961e-08
6.7043007e-08
6.7200006e-08
6.7361878e-08
6.7526485e-08
6.7691659e-08
6.7855235e-08
6.8015091e-08
6.8169214e-08
6.831582e-08
6.8453624e-08
6.8582397e-08
6.8704002e-08
6.882401e-08
6.8953439e-08
6.9109119e-08
6.9309851e-08
6.9565366e-08
6.9856593e-08
7.0105141e-08
7.0104659e-08
6.8368681e-08
6.8463886e-08
6.8571997e-08
6.869159e-08
6.8821069e-08
6.8958699e-08
6.9102627e-08
6.9250917e-08
6.9401578e-08
6.9552587e-08
6.9701929e-08
6.9847626e-08
6.9987809e-08
7.0120837e-08
7.0245569e-08
7.0361935e-08
7.0471997e-08
7.058159e-08
7.0702083e-08
7.0850711e-08
7.1046572e-08
7.1299251e-08
7.1588587e-08
7.1833662e-08
7.1822688e-08
7.0296186e-08
7.038332e-08
7.0482262e-08
7.0591695e-08
7.071014e-08
7.0835982e-08
7.09675e-08
7.1102893e-08
7.1240304e-08
7.1377854e-08
7.1513665e-08
7.1645898e-08
7.177282e-08
7.1892922e-08
7.2005204e-08
7.2109747e-08
7.2208803e-08
7.2308459e-08
7.2420427e-08
7.2562335e-08
7.2753576e-08
7.3003601e-08
7.3291173e-08
7.3532646e-08
7.3509432e-08
7.217208e-08
7.2251577e-08
7.2341845e-08
7.2441666e-08
7.2549669e-08
7.2664357e-08
7.278413e-08
7.2907313e-08
7.3032181e-08
7.3156985e-08
7.3279977e-08
7.339945e-08
7.3513798e-08
7.3621642e-08
7.3722107e-08
7.3815422e-08
7.3904016e-08
7.3994219e-08
7.4098064e-08
7.4233551e-08
7.4420362e-08
7.466781e-08
7.4953563e-08
7.5190994e-08
7.5154112e-08
7.3985334e-08
7.4057633e-08
7.4139725e-08
7.4230486e-08
7.4328648e-08
7.4432823e-08
7.4541524e-08
7.4653196e-08
7.4766235e-08
7.4879016e-08
7.4989915e-08
7.5097347e-08
7.5199825e-08
7.5296089e-08
7.5385388e-08
7.5468085e-08
7.5546777e-08
7.562802e-08
7.5724148e-08
7.5853513e-08
7.603605e-08
7.6280925e-08
7.6564714e-08
7.6797931e-08
7.6748332e-08
7.572454e-08
7.5790086e-08
7.5864508e-08
7.5946771e-08
7.6035703e-08
7.6130016e-08
7.6228332e-08
7.6329205e-08
7.6431146e-08
7.6532645e-08
7.6632193e-08
7.6728319e-08
7.6819649e-08
7.6905033e-08
7.6983835e-08
7.7056544e-08
7.7125914e-08
7.7198711e-08
7.7287554e-08
7.7411117e-08
7.7589571e-08
7.7831916e-08
7.8113646e-08
7.8342414e-08
7.8278391e-08
7.7378144e-08
7.7437391e-08
7.7504661e-08
7.7579001e-08
7.7659326e-08
7.7744446e-08
7.7833079e-08
7.7923885e-08
7.8015479e-08
7.8106457e-08
7.8195418e-08
7.8280997e-08
7.8361924e-08
7.8437152e-08
7.850615e-08
7.8569526e-08
7.8630179e-08
7.8695073e-08
7.8777092e-08
7.8895216e-08
7.9069838e-08
7.9309802e-08
7.9589561e-08
7.9813882e-08
7.9734585e-08
7.8934843e-08
7.8988259e-08
7.9048909e-08
7.9115916e-08
7.918828e-08
7.9264895e-08
7.9344573e-08
7.9426067e-08
7.9508091e-08
7.9589338e-08
7.9668506e-08
7.9744327e-08
7.9815627e-08
7.9881453e-08
7.9941373e-08
7.99961e-08
8.004867e-08
8.0106229e-08
8.0181908e-08
8.0294973e-08
8.046602e-08
8.0703757e-08
8.0981671e-08
8.1201911e-08
8.1109562e-08
8.0384331e-08
8.0432399e-08
8.0486982e-08
8.0547274e-08
8.0612348e-08
8.0681179e-08
8.0752661e-08
8.0825634e-08
8.08989e-08
8.0971243e-08
8.1041451e-08
8.1108344e-08
8.1170834e-08
8.1228054e-08
8.1279658e-08
8.1326459e-08
8.1371612e-08
8.1422431e-08
8.1492262e-08
8.160062e-08
8.1768274e-08
8.2003787e-08
8.2279808e-08
8.2496379e-08
8.2393038e-08
8.1718581e-08
8.1761812e-08
8.1810911e-08
8.1865139e-08
8.1923635e-08
8.1985444e-08
8.2049536e-08
8.2114828e-08
8.2180201e-08
8.2244521e-08
8.2306656e-08
8.2365506e-08
8.2420058e-08
8.2469522e-08
8.2513627e-08
8.2553271e-08
8.2591713e-08
8.2636404e-08
8.2700868e-08
8.2804806e-08
8.2969088e-08
8.3202086e-08
8.34756e-08
8.3687355e-08
8.3569086e-08
8.2933658e-08
8.2972597e-08
8.3016838e-08
8.30657e-08
8.3118384e-08
8.3173996e-08
8.3231568e-08
8.3290085e-08
8.3348499e-08
8.3405746e-08
8.3460768e-08
8.3512534e-08
8.3560097e-08
8.3602727e-08
8.3640215e-08
8.3673529e-08
8.3706009e-08
8.3745203e-08
8.3804744e-08
8.3904422e-08
8.4065092e-08
8.4294849e-08
8.4564694e-08
8.4770526e-08
8.4639359e-08
8.4031173e-08
8.4066405e-08
8.4106465e-08
8.4150723e-08
8.419843e-08
8.4248741e-08
8.4300743e-08
8.4353475e-08
8.4405949e-08
8.4457163e-08
8.4506119e-08
8.4551847e-08
8.4593453e-08
8.4630252e-08
8.4662083e-08
8.4689957e-08
8.4717266e-08
8.4751595e-08
8.4806583e-08
8.4901949e-08
8.5058331e-08
8.5283391e-08
8.5547364e-08
8.574475e-08
8.5599014e-08
8.5016849e-08
8.5049002e-08
8.5085606e-08
8.5126083e-08
8.5169719e-08
8.5215706e-08
8.5263168e-08
8.5311191e-08
8.5358833e-08
8.5405137e-08
8.5449159e-08
8.5489979e-08
8.5526742e-08
8.5558789e-08
8.558598e-08
8.5609357e-08
8.5632313e-08
8.5662388e-08
8.5713074e-08
8.5803762e-08
8.5954545e-08
8.6172338e-08
8.6426548e-08
8.6610842e-08
8.6446977e-08
8.5891881e-08
8.5921599e-08
8.5955496e-08
8.5993057e-08
8.6033581e-08
8.6076279e-08
8.6120287e-08
8.6164733e-08
8.6208716e-08
8.6251299e-08
8.6291571e-08
8.632866e-08
8.6361739e-08
8.6390139e-08
8.6413728e-08
8.6433559e-08
8.6452974e-08
8.6479359e-08
8.6525847e-08
8.6611138e-08
8.6754284e-08
8.6960965e-08
8.7199577e-08
8.7363951e-08
8.7178154e-08
8.6631747e-08
8.6659638e-08
8.6691536e-08
8.6727038e-08
8.676542e-08
8.6805881e-08
8.684752e-08
8.6889521e-08
8.6931061e-08
8.6971151e-08
8.7008849e-08
8.7043366e-08
8.7073901e-08
8.7099717e-08
8.7120677e-08
8.7137854e-08
8.7154492e-08
8.7177702e-08
8.7220019e-08
8.7298954e-08
8.7431904e-08
8.7622634e-08
8.7838386e-08
8.7974916e-08
8.7768058e-08
8.7143807e-08
8.7170353e-08
8.720081e-08
8.723502e-08
8.7272177e-08
8.7311415e-08
8.7351689e-08
8.7392348e-08
8.7432902e-08
8.7471952e-08
8.7508206e-08
8.7541209e-08
8.7570242e-08
8.7594403e-08
8.7613554e-08
8.7628842e-08
8.7643389e-08
8.7663957e-08
8.7702258e-08
8.7774017e-08
8.7894377e-08
8.8064542e-08
8.8250265e-08
8.8350315e-08
8.8119091e-08
8.7152571e-08
8.7178004e-08
8.7207248e-08
8.7240672e-08
8.7277328e-08
8.7316194e-08
8.7355925e-08
8.7396473e-08
8.7438765e-08
8.7479405e-08
8.7515414e-08
8.7547755e-08
8.7576116e-08
8.7599309e-08
8.7617223e-08
8.7631182e-08
8.7644231e-08
8.7662814e-08
8.7697696e-08
8.7762202e-08
8.7868959e-08
8.8016461e-08
8.8169367e-08
8.8233927e-08
8.8007163e-08
)
;

boundaryField
{
    Walls
    {
        type            nutUWallFunction;
        Cmu             0.09;
        kappa           0.41;
        E               9.8;
        value           uniform 0;
    }
    Inlet
    {
        type            calculated;
        value           nonuniform List<scalar> 3(1.1976516e-05 2.8904617e-05 7.814865e-07);
    }
    Outlet
    {
        type            calculated;
        value           nonuniform List<scalar> 
86
(
8.7080773e-08
8.7084936e-08
8.7094126e-08
8.7107906e-08
8.7125706e-08
8.7152571e-08
8.7178004e-08
8.7207248e-08
8.7240672e-08
8.7277328e-08
8.7316194e-08
8.7355925e-08
8.7396473e-08
8.7438765e-08
8.7479405e-08
8.7515414e-08
8.7547755e-08
8.7576116e-08
8.7599309e-08
8.7617223e-08
8.7631182e-08
8.7644231e-08
8.7662814e-08
8.7697696e-08
8.7762202e-08
8.7868959e-08
8.8016461e-08
8.8169367e-08
8.8233927e-08
8.8007163e-08
9.5155604e-06
9.6187543e-06
8.0168474e-06
0
0
0
0
1.2615264e-07
6.24208e-08
4.488568e-08
0
0
3.8843661e-08
3.9875042e-08
4.0981728e-08
4.2115576e-08
4.3294237e-08
4.45363e-08
4.5841173e-08
4.7204594e-08
4.862006e-08
5.0076412e-08
5.1580274e-08
0
0
0
0
0
0
0
0
0
0
0
0
0
0
0
0
0
0
0
0
0
0
0
0
0
0
0
0
0
0
0
7.8272855e-06
9.5898217e-06
)
;
    }
    Front
    {
        type            wedge;
    }
    Back
    {
        type            wedge;
    }
    defaultFaces
    {
        type            empty;
    }
}


// ************************************************************************* //
