/*--------------------------------*- C++ -*----------------------------------*\
| =========                 |                                                 |
| \\      /  F ield         | OpenFOAM: The Open Source CFD Toolbox           |
|  \\    /   O peration     | Version:  4.0                                   |
|   \\  /    A nd           | Web:      www.OpenFOAM.org                      |
|    \\/     M anipulation  |                                                 |
\*---------------------------------------------------------------------------*/
FoamFile
{
    version     2.0;
    format      ascii;
    class       volScalarField;
    location    "0.11";
    object      omega;
}
// * * * * * * * * * * * * * * * * * * * * * * * * * * * * * * * * * * * * * //

dimensions      [0 0 -1 0 0 0 0];

internalField   nonuniform List<scalar> 
1740
(
54.776437
685.27594
14924.795
173.1822
1462.8809
15032.316
294.88385
1933.8424
15116.333
391.53417
2231.757
15202.576
516.44156
2517.2114
15276.861
643.78939
2812.8145
15324.737
737.92154
3007.6895
15377.415
839.99932
3247.612
15420.825
938.88449
3419.0307
15443.922
1032.7604
3496.0552
15474.237
1146.2742
3634.8602
15502.244
1251.6686
3777.3178
15508.578
1319.3738
3803.5285
15522.887
1378.9992
3823.1239
15537.696
1453.0402
3876.9933
15549.969
1552.2519
3964.0046
15559.295
1613.5741
3989.0596
15562.78
1672.2444
4017.4906
15569.603
1728.7669
4065.5364
15570.152
1763.975
4094.3677
15572.528
1797.9838
4085.6871
15575.095
1826.7846
4120.1878
15573.697
1849.2715
4187.2928
15575.308
1878.9773
4188.2616
15574.271
1895.3945
4114.1973
15568.945
1913.4582
4090.4299
15571.429
1958.2887
4155.8592
15575.44
2003.7985
4214.066
15569.204
2018.5499
4232.1296
15561.074
2142.7495
4281.4966
15502.411
3213.426
4565.7318
10767.695
3354.7926
4253.4603
5977.5453
1572.481
1859.3704
2155.6064
823.21275
897.25615
955.26493
479.89797
497.72584
507.73531
305.67313
309.39749
309.64537
210.73238
211.12943
209.8695
158.05111
157.82751
156.7842
130.44767
130.24778
129.67137
117.86261
117.78817
117.57636
113.19484
113.22385
113.23425
111.67495
111.70706
111.73071
110.3557
110.39604
110.42821
109.15231
109.19201
109.22413
108.18381
108.21155
108.23261
107.47863
107.49402
107.50325
106.9779
106.98493
106.98612
106.60939
106.61159
106.60828
106.3195
106.31911
106.31352
106.07491
106.07317
106.06657
105.85625
105.85386
105.84692
105.65252
105.64984
105.64292
105.4574
105.45464
105.44793
105.26727
105.26454
105.25813
105.08006
105.07742
105.07136
104.89459
104.89208
104.88638
104.71028
104.7079
104.70258
104.52689
104.52467
104.51971
104.34446
104.34238
104.33778
104.16318
104.16125
104.15699
103.98339
103.98161
103.97767
103.80554
103.8039
103.80027
103.63017
103.62866
103.62533
103.45789
103.45651
103.45345
103.28938
103.28811
103.28532
103.12535
103.12419
103.12166
102.9665
102.96545
102.96315
102.81335
102.8124
102.81032
102.66573
102.66488
102.663
102.52127
102.5205
102.51882
102.37122
102.37053
102.36902
102.1897
102.18909
102.18774
101.90846
101.90792
101.90673
101.36283
101.36235
101.3613
100.18877
100.18835
100.18744
97.652661
97.652331
97.651615
92.422832
92.422754
92.422632
82.37382
82.3746
82.376536
64.710687
64.713362
64.719868
37.04331
37.047218
37.056701
13479.997
13533.66
6008.7519
5336.4629
2083.3068
1880.3933
922.06908
854.91573
492.14304
466.09135
301.86073
290.35896
205.81714
200.34186
154.68291
152.00479
128.68241
127.44821
117.20931
116.72878
113.18968
113.08187
111.71173
111.63626
110.41933
110.35986
109.2196
109.17298
108.22624
108.18939
107.49367
107.46364
106.97437
106.94891
106.59559
106.57323
106.30069
106.28057
106.05404
106.03566
105.83492
105.81798
105.63155
105.61586
105.43722
105.42267
105.2481
105.23458
105.06198
105.04943
104.87764
104.86599
104.69445
104.68364
104.51216
104.50215
104.33079
104.32153
104.15053
104.14197
103.97171
103.96383
103.79479
103.78754
103.6203
103.61364
103.44885
103.44276
103.28112
103.27556
103.11783
103.11277
102.95967
102.95508
102.80718
102.80302
102.66016
102.65642
102.51627
102.5129
102.36674
102.36372
102.18571
102.18303
101.90493
101.90255
101.35972
101.35764
100.18606
100.18424
97.650479
97.648847
92.422203
92.420835
82.378653
82.378306
64.727823
64.730243
37.068646
37.074942
12058.155
2042.9391
688.71672
361.60861
269.00731
240.42358
229.18162
222.11916
215.7127
209.10464
202.15328
194.89935
187.42088
179.78943
172.07436
164.35799
156.72321
149.21472
141.76804
134.09639
125.53876
114.9189
100.59516
81.193421
55.338216
12058.129
2037.2595
695.95099
371.48825
278.05048
248.29444
235.20226
226.18098
218.21079
210.47416
202.77742
195.11812
187.54361
180.07407
172.71571
165.49213
158.42122
151.47337
144.50615
137.1584
128.69383
117.79893
102.35191
79.06815
42.049842
12058.177
2029.9145
717.76473
430.05291
359.211
332.11334
314.71393
299.92807
286.27053
273.20077
260.58654
248.45025
236.86566
225.7751
215.08085
204.76239
194.80185
185.13422
175.59618
165.84467
155.22362
142.55392
125.77787
101.17989
60.962477
12058.526
2031.0282
817.16327
609.48142
551.44464
514.8579
482.27955
452.03569
424.37906
398.46858
374.108
351.30991
330.3082
310.84448
292.55948
275.41315
259.37098
244.35043
230.19933
216.65596
203.27458
189.28866
173.28862
152.17572
115.55384
12061.516
2150.4245
1231.8763
1078.6397
990.68278
908.67078
830.79896
759.7236
696.47955
638.42044
584.98815
536.01019
492.50738
453.55602
417.9007
385.52872
356.31525
330.04779
306.45991
285.2326
265.97429
248.20229
231.32137
215.01
200.53681
12087.145
3831.9559
2809.8483
2403.3179
2094.695
1826.4819
1592.0011
1389.7688
1214.8521
1063.8932
933.91901
822.18061
726.30859
643.9618
573.04134
512.01614
459.59356
414.6249
376.08088
343.03508
314.63825
290.12206
268.7826
250.45028
236.29447
10379.439
7911.5551
6097.4868
4784.8622
3815.4309
3081.3685
2513.377
2067.2341
1713.3311
1430.4501
1202.7975
1018.5443
868.79725
746.68613
646.7507
564.63727
496.89431
440.79057
394.15251
355.23051
322.5909
295.05813
271.66688
252.02319
237.25103
4094.129
3307.8991
2840.9523
2465.1845
2146.8216
1867.3596
1623.9988
1413.4958
1232.9654
1078.2774
945.70604
831.9766
734.19101
650.06497
577.76166
515.68911
462.45827
416.85375
377.80384
344.35475
315.63859
290.87413
269.34154
250.85854
236.58307
1593.282
1399.6224
1270.0667
1162.4146
1060.9053
964.22585
875.76392
797.62551
726.53893
662.19178
604.53555
553.73759
507.79106
465.96549
428.14253
394.09359
363.54955
336.21558
311.77306
289.86562
270.06981
251.8821
234.69151
218.15854
203.48614
772.37657
709.62166
663.94772
623.92402
584.15247
544.54419
507.3994
473.44701
442.03114
413.0917
386.64288
362.5425
340.21616
319.39159
299.99253
281.953
265.18592
249.57093
234.92939
220.98102
207.26876
193.02685
176.86812
155.74709
119.29337
437.43428
414.17769
395.91015
379.13702
361.83723
343.96086
326.4797
309.90608
294.24682
279.52532
265.75197
252.85271
240.64278
229.00005
217.87861
207.2465
197.05554
187.21393
177.52537
167.62166
156.82563
143.93591
126.87248
101.95652
61.678584
278.3904
268.29361
259.9456
252.08182
243.8434
235.14147
226.34492
217.73954
209.42416
201.44209
193.80741
186.49581
179.44681
172.61227
165.97577
159.53133
153.25845
147.09084
140.85235
134.15488
126.23127
115.68645
100.16883
76.031015
38.155967
194.75602
189.87185
185.64238
181.57854
177.29968
172.73088
168.00942
163.28635
158.6488
154.14265
149.79013
145.59521
141.54846
137.64348
133.88619
130.28559
126.83449
123.47766
120.05575
116.21221
111.24767
103.9038
92.039745
72.036418
36.950421
149.27285
146.78885
144.53742
142.33249
140.01616
137.55056
134.99371
132.42626
129.90898
127.48002
125.16108
122.96284
120.88948
118.94401
117.1303
115.44712
113.87431
112.34736
110.71283
108.65537
105.59471
100.58314
92.345193
79.956121
65.751129
126.15953
124.92324
123.73732
122.54128
121.28512
119.964
118.61173
117.27445
115.99064
114.7857
113.67179
112.65174
111.72401
110.88516
110.12971
109.44574
108.80455
108.13902
107.30122
105.99051
103.6527
99.394091
92.094402
81.252147
69.720503
116.18509
115.60258
114.98052
114.30769
113.58067
112.8127
112.03098
111.26761
110.55112
109.90268
109.3326
108.83647
108.40611
108.03266
107.70578
107.40928
107.1103
106.73849
106.14556
105.00268
102.66692
98.004659
89.303007
74.497753
50.819948
112.90051
112.62928
112.26725
111.82206
111.30706
110.74149
110.15011
109.56009
108.99485
108.46619
108.01632
107.64889
107.35
107.10526
106.90004
106.71547
106.51753
106.23126
105.68495
104.50396
101.93127
96.568396
86.094636
67.102603
34.734225
111.49386
111.2742
110.97435
110.59668
110.14893
109.64701
109.11783
108.59673
108.11758
107.70278
107.36075
107.09155
106.87688
106.703
106.55689
106.42095
106.26081
105.99715
105.44517
104.19774
101.42604
95.595398
84.176613
63.649412
30.307993
110.24086
110.05095
109.78823
109.45866
109.07621
108.66293
108.24638
107.85343
107.50363
107.20565
106.9576
106.76112
106.60254
106.47148
106.35781
106.24599
106.10239
105.84614
105.28689
104.00496
101.15045
95.168204
83.560669
63.076633
30.996574
109.07775
108.92399
108.71353
108.45612
108.16736
107.86614
107.57128
107.29795
107.05531
106.8464
106.66955
106.52137
106.3997
106.29609
106.20261
106.10541
105.97189
105.72156
105.16423
103.88206
101.03495
95.103061
83.691388
63.785139
33.089727
108.11795
108.0053
107.85434
107.67357
107.47457
107.2697
107.06998
106.88359
106.71522
106.56642
106.43638
106.32261
106.22592
106.14089
106.06127
105.9744
105.8487
105.605
105.05599
103.79133
100.98942
95.172207
84.030357
64.700231
35.45062
107.41086
107.33147
107.2277
107.10513
106.97089
106.83227
106.69556
106.56544
106.44475
106.33476
106.23553
106.14633
106.06618
105.99406
105.92447
105.84548
105.72628
105.48913
104.94981
103.70497
100.94714
95.223401
84.264644
65.27082
36.63843
106.90855
106.85116
106.77816
106.69283
106.59931
106.50179
106.40397
106.30871
106.21798
106.13289
106.05393
105.98109
105.91389
105.85091
105.78887
105.71606
105.60223
105.37064
104.83918
103.60868
100.8787
95.205844
84.329365
65.432832
36.826879
106.54064
106.49671
106.44231
106.37936
106.31027
106.23753
106.16341
106.08979
106.01809
105.94928
105.88399
105.82248
105.76456
105.70898
105.65289
105.58504
105.47555
105.2482
104.72191
103.49921
100.78191
95.128456
84.276714
65.391305
36.833576
106.25293
106.21724
106.17406
106.12458
106.07029
106.01275
105.95342
105.89362
105.8344
105.77662
105.72089
105.66757
105.61665
105.56717
105.51567
105.45186
105.34585
105.12162
104.59839
103.3792
100.66662
95.0199
84.178233
65.317027
36.848653
106.01138
105.98097
105.94486
105.90385
105.85891
105.8111
105.76143
105.71086
105.66023
105.61024
105.56148
105.51432
105.46882
105.42408
105.37662
105.3162
105.21307
104.99121
104.46991
103.25262
100.54334
94.904404
84.081002
65.262339
36.872854
105.79616
105.7694
105.73806
105.7027
105.66405
105.62283
105.57984
105.53578
105.49136
105.44716
105.40371
105.36139
105.32024
105.27942
105.23551
105.17793
105.07726
104.85738
104.33767
103.12242
100.4185
94.794913
84.009875
65.285084
37.090711
105.59598
105.57194
105.54405
105.51276
105.4786
105.44218
105.40407
105.36488
105.32518
105.28549
105.24628
105.20789
105.17036
105.13285
105.09194
105.03697
104.93853
104.72049
104.20242
102.9898
100.29312
94.688854
83.944617
65.28699
37.018573
105.4044
105.38253
105.35731
105.32914
105.29843
105.26568
105.23138
105.19602
105.1601
105.12408
105.08837
105.0533
105.01887
104.98424
104.94598
104.8934
104.79703
104.58079
104.06456
102.85507
100.1665
94.582534
83.877284
65.265989
37.018044
105.21773
105.19767
105.17466
105.149
105.12109
105.09132
105.06012
105.02792
104.99515
104.96223
104.92952
104.89733
104.86563
104.83357
104.7977
104.74736
104.65291
104.43848
103.92428
102.71827
100.03799
94.473893
83.808207
65.255826
36.907384
105.03384
105.01537
104.99424
104.97073
104.94518
104.91793
104.88937
104.85987
104.82982
104.7996
104.76954
104.7399
104.71065
104.68091
104.64722
104.59891
104.50633
104.29371
103.78163
102.5791
99.906374
94.359449
83.731467
65.269053
37.138607
104.85156
104.83451
104.81504
104.79342
104.76993
104.7449
104.71865
104.69153
104.66389
104.63607
104.60838
104.58105
104.55404
104.52642
104.49474
104.44832
104.35753
104.14663
103.63659
102.43725
99.770532
94.235117
83.627454
65.205757
37.288321
104.67029
104.65453
104.63657
104.61664
104.595
104.57195
104.54778
104.5228
104.49734
104.47171
104.44618
104.42097
104.39601
104.37036
104.34054
104.29586
104.20671
103.99742
103.48928
102.29282
99.631404
94.10617
83.517802
65.131646
37.272433
104.4898
104.47524
104.45866
104.44027
104.42032
104.39907
104.3768
104.35378
104.33032
104.30669
104.28317
104.25992
104.23686
104.21305
104.18496
104.1419
104.05425
103.84641
103.33993
102.14614
99.490097
93.976609
83.414141
65.084991
37.271477
104.31011
104.29666
104.28137
104.26441
104.24602
104.22643
104.20591
104.1847
104.16309
104.14132
104.11966
104.09825
104.07697
104.05487
104.0284
103.98684
103.90055
103.69398
103.18889
101.99746
99.34682
93.846158
83.311632
65.031523
37.138908
104.13143
104.11903
104.10493
104.08931
104.07237
104.05433
104.03543
104.01591
103.99602
103.976
103.95607
103.93637
103.91677
103.89628
103.87134
103.83116
103.74609
103.54058
103.03656
101.84701
99.201188
93.712301
83.199763
64.940883
37.040335
103.95412
103.9427
103.92971
103.91534
103.89975
103.88316
103.86578
103.84784
103.82956
103.81117
103.79288
103.7748
103.75678
103.7378
103.71428
103.6754
103.59142
103.38674
102.88342
101.69512
99.053309
93.576205
83.091091
64.877502
37.006757
103.77861
103.76811
103.75618
103.74297
103.72866
103.71342
103.69747
103.68101
103.66425
103.6474
103.63064
103.61408
103.59754
103.58
103.55782
103.52014
103.43713
103.23308
102.73003
101.54213
98.902718
93.434667
82.972604
64.798147
36.966087
103.60545
103.59582
103.58488
103.57277
103.55965
103.54569
103.53108
103.51601
103.50068
103.48527
103.46996
103.45483
103.4397
103.42351
103.40259
103.36602
103.28387
103.08024
102.57704
101.38855
98.749367
93.286058
82.840614
64.705098
36.941586
103.43526
103.42645
103.41644
103.40536
103.39336
103.38061
103.36726
103.3535
103.3395
103.32546
103.31151
103.29773
103.28392
103.269
103.24928
103.21375
103.13235
102.929
102.42529
101.23534
98.59438
93.131623
82.695614
64.596874
36.959321
103.26872
103.26068
103.25154
103.24143
103.23049
103.21886
103.20669
103.19416
103.18143
103.16866
103.156
103.1435
103.13093
103.11721
103.09861
103.06405
102.98336
102.78019
102.27578
101.0839
98.440046
92.975997
82.549487
64.50083
37.018219
103.10654
103.09922
103.09091
103.08171
103.07176
103.06118
103.05013
103.03875
103.0272
103.01564
103.00418
102.99287
102.98148
102.96889
102.95134
102.91771
102.83767
102.63465
102.12951
100.9356
98.288524
92.82256
82.405736
64.408995
37.055616
102.94943
102.94278
102.93524
102.9269
102.91787
102.90828
102.89827
102.88797
102.87754
102.8671
102.85677
102.84658
102.83629
102.82476
102.80821
102.77544
102.69603
102.49317
101.98734
100.79149
98.141338
92.67341
82.263967
64.304158
37.038716
102.7979
102.79189
102.78507
102.77752
102.76935
102.76069
102.75165
102.74236
102.73296
102.72357
102.7143
102.70516
102.6959
102.68537
102.66974
102.63779
102.55897
102.35626
101.84977
100.65205
97.998975
92.529257
82.125977
64.199118
37.054683
102.6518
102.64638
102.64022
102.63341
102.62605
102.61825
102.61011
102.60176
102.59332
102.58491
102.57662
102.56846
102.56015
102.55054
102.53578
102.50459
102.42632
102.22373
101.71657
100.51696
97.86079
92.388779
81.990192
64.086271
36.994148
102.50875
102.50387
102.49834
102.49222
102.4856
102.47859
102.47129
102.46381
102.45626
102.44875
102.44137
102.43411
102.42669
102.41793
102.40397
102.37349
102.29572
102.09324
101.58544
100.38401
97.72487
92.250517
81.855989
63.969025
36.881123
102.36001
102.35564
102.35068
102.3452
102.33927
102.333
102.32647
102.31979
102.31307
102.30639
102.29985
102.29341
102.2868
102.27882
102.26559
102.23575
102.15844
101.95608
101.44777
100.24493
97.583719
92.108671
81.71983
63.849408
36.786754
102.17972
102.17583
102.17141
102.16654
102.16126
102.15568
102.14988
102.14395
102.13799
102.13209
102.12631
102.12063
102.11475
102.10746
102.09488
102.0656
101.98871
101.7865
101.27789
100.07427
97.412525
91.940482
81.567276
63.743474
36.766733
101.89963
101.89621
101.89234
101.88808
101.88346
101.87857
101.87348
101.86828
101.86306
101.8579
101.85284
101.84785
101.84262
101.83594
101.8239
101.79507
101.71852
101.51647
101.00785
99.80429
97.144119
91.679711
81.330601
63.554589
36.585485
101.3551
101.35217
101.34891
101.34536
101.34153
101.33745
101.33317
101.3288
101.32441
101.32005
101.31574
101.31143
101.30678
101.30058
101.2889
101.26033
101.18396
100.98208
100.47389
99.271966
96.617491
91.17043
80.866671
63.187752
36.37179
100.18207
100.1797
100.17724
100.17474
100.1721
100.16926
100.16624
100.16313
100.15998
100.15675
100.15342
100.1499
100.14587
100.14002
100.12842
100.09973
100.02322
99.82155
99.314848
98.118202
95.479395
90.073934
79.868869
62.392196
35.913959
97.646975
97.645253
97.643995
97.643349
97.642957
97.642536
97.641938
97.641301
97.640598
97.639551
97.638013
97.635888
97.632818
97.627301
97.615339
97.585909
97.50878
97.307701
96.805325
95.622915
93.023264
87.714852
77.727399
60.681246
34.920778
92.419088
92.417941
92.418351
92.421181
92.425316
92.429955
92.434353
92.4389
92.443602
92.447417
92.449782
92.450764
92.450015
92.445215
92.43236
92.40148
92.323599
92.12516
91.635057
90.488546
87.98122
82.889685
73.367896
57.218216
32.942636
82.376427
82.375036
82.376733
82.385354
82.397999
82.412629
82.426305
82.440622
82.45734
82.472395
82.48287
82.490606
82.495578
82.492905
82.478906
82.446624
82.37004
82.181918
81.725316
80.664235
78.361711
73.726989
65.145918
50.764286
29.428635
64.729342
64.72541
64.725221
64.740256
64.764833
64.794512
64.820948
64.850651
64.897063
64.940977
64.965689
64.984209
64.999391
65.001223
64.987185
64.956394
64.889187
64.732095
64.357265
63.482392
61.597331
57.845646
50.993763
39.693064
23.233178
37.228793
37.222899
37.217578
37.232098
37.260123
37.295721
37.326899
37.371814
37.477359
37.578963
37.618957
37.643028
37.663933
37.669729
37.659731
37.638636
37.596991
37.505553
37.288085
36.760928
35.623909
33.384745
29.358623
22.87515
13.777128
)
;

boundaryField
{
    Walls
    {
        Cmu             0.09;
        kappa           0.41;
        E               9.8;
        beta1           0.075;
        type            omegaWallFunction;
        value           nonuniform List<scalar> 
38
(
12058.155
12058.129
12058.177
12058.526
12061.516
12087.145
13479.997
13533.66
14924.795
15032.316
15116.333
15202.576
15276.861
15324.737
15377.415
15420.825
15443.922
15474.237
15502.244
15508.578
15522.887
15537.696
15549.969
15559.295
15562.78
15569.603
15570.152
15572.528
15575.095
15573.697
15575.308
15574.271
15568.945
15571.429
15575.44
15569.204
15561.074
15502.411
)
;
    }
    Inlet
    {
        type            turbulentMixingLengthDissipationRateInlet;
        mixingLength    0.03;
        phi             phi;
        k               k;
        value           nonuniform List<scalar> 3(0.0042877849 0.0043127206 0.0055742782);
    }
    Outlet
    {
        type            inletOutlet;
        inletValue      uniform 1e-05;
        value           nonuniform List<scalar> 
86
(
37.04331
37.047218
37.056701
37.068646
37.074942
37.228793
37.222899
37.217578
37.232098
37.260123
37.295721
37.326899
37.371814
37.477359
37.578963
37.618957
37.643028
37.663933
37.669729
37.659731
37.638636
37.596991
37.505553
37.288085
36.760928
35.623909
33.384745
29.358623
22.87515
13.777128
237.25103
236.58307
203.48614
1e-05
1e-05
1e-05
1e-05
65.751129
69.720503
50.819948
1e-05
1e-05
30.996574
33.089727
35.45062
36.63843
36.826879
36.833576
36.848653
36.872854
37.090711
37.018573
37.018044
1e-05
1e-05
1e-05
1e-05
1e-05
1e-05
1e-05
1e-05
1e-05
1e-05
1e-05
1e-05
1e-05
1e-05
1e-05
1e-05
1e-05
1e-05
1e-05
1e-05
1e-05
1e-05
1e-05
1e-05
1e-05
1e-05
1e-05
1e-05
1e-05
1e-05
1e-05
200.53681
236.29447
)
;
    }
    Front
    {
        type            wedge;
    }
    Back
    {
        type            wedge;
    }
    defaultFaces
    {
        type            empty;
    }
}


// ************************************************************************* //
