/*--------------------------------*- C++ -*----------------------------------*\
| =========                 |                                                 |
| \\      /  F ield         | OpenFOAM: The Open Source CFD Toolbox           |
|  \\    /   O peration     | Version:  4.0                                   |
|   \\  /    A nd           | Web:      www.OpenFOAM.org                      |
|    \\/     M anipulation  |                                                 |
\*---------------------------------------------------------------------------*/
FoamFile
{
    version     2.0;
    format      ascii;
    class       volScalarField;
    location    "0.11";
    object      p;
}
// * * * * * * * * * * * * * * * * * * * * * * * * * * * * * * * * * * * * * //

dimensions      [0 2 -2 0 0 0 0];

internalField   nonuniform List<scalar> 
1740
(
491.94045
491.89517
491.85722
475.57011
475.73449
475.50441
458.94269
459.17511
458.93191
442.26854
442.3346
442.30568
425.5734
425.74289
425.81723
409.10532
409.21861
409.17506
392.89681
392.73915
392.62987
376.44224
376.30715
376.35853
359.41567
359.57882
359.76061
342.34274
342.55751
342.69514
325.69432
325.5944
325.50017
309.03427
308.86994
308.68019
292.24259
292.2176
292.2577
275.77634
275.71023
275.95188
259.88421
259.78045
259.8127
244.0246
243.99867
243.76125
227.69929
227.46579
227.34803
211.21044
210.90742
210.89605
194.67444
194.86487
194.75421
178.14168
178.39596
178.27814
161.75675
161.61422
161.62017
145.21424
145.02993
145.16928
128.86539
128.78928
128.81582
112.70559
112.83545
112.62716
96.305797
96.593536
96.625408
79.924623
79.934442
80.063809
63.092383
63.12261
62.930421
46.346235
46.562695
46.48872
30.852693
30.85018
31.06182
16.48487
16.071904
15.880771
4.367255
3.6140706
1.74087
-0.56261156
-0.55139986
-0.35170357
-0.14706243
-0.14206586
-0.10091843
-0.0090041229
-0.0074969843
-0.0016999255
0.018502894
0.019571619
0.020591236
0.024215535
0.024124925
0.023279963
0.023929782
0.023278099
0.021621581
0.021964292
0.021184961
0.019436724
0.019913558
0.019174927
0.017591155
0.018166737
0.017523631
0.016170991
0.016630641
0.01609171
0.014965855
0.01522235
0.014778195
0.01384983
0.013919688
0.013555192
0.012791014
0.012725879
0.012426121
0.011795361
0.01164876
0.01140115
0.010878246
0.010690479
0.010484765
0.010048779
0.0098447812
0.0096727165
0.009306811
0.009100128
0.0089551815
0.0086460268
0.0084433358
0.0083203864
0.008057461
0.0078618237
0.0077568427
0.0075318193
0.0073444963
0.0072542964
0.0070605561
0.0068818176
0.006803863
0.0066361172
0.0064655918
0.0063978524
0.0062518474
0.0060887107
0.006029547
0.0059018402
0.0057449688
0.0056930508
0.005580839
0.0054289547
0.0053831972
0.0052841844
0.0051359786
0.0050954875
0.0050077795
0.0048619831
0.0048260193
0.0047480465
0.0046034631
0.0045714154
0.0045018723
0.0043574169
0.0043287766
0.0042665787
0.0041213032
0.0040956445
0.0040398825
0.0038929898
0.0038699561
0.0038198666
0.0036707054
0.0036499971
0.0036049379
0.0034529934
0.003434358
0.0033937879
0.0032386695
0.0032218943
0.0031853565
0.0030267854
0.0030116909
0.0029787994
0.0028165945
0.0028030288
0.0027734568
0.0026075197
0.002595354
0.0025688245
0.0023991239
0.0023882491
0.0023645272
0.0021910833
0.0021814071
0.0021602934
0.0019831643
0.0019746083
0.0019559341
0.001775204
0.0017677021
0.0017513249
0.0015670949
0.0015605916
0.0015463916
0.001358775
0.0013532241
0.0013411015
0.0011502225
0.0011455857
0.0011354581
0.00094145473
0.00093770103
0.00092950135
0.00073252876
0.00072963345
0.00072330831
0.000523532
0.0005214763
0.00051698491
0.00031459344
0.00031336429
0.00031067754
0.00010512167
0.00010471236
0.00010381675
-1.2619143
-0.88951569
-0.28588259
-0.21901233
-0.076686824
-0.070612505
-0.0013226992
-0.0058287792
0.018483613
0.014317534
0.020678032
0.016987515
0.018780706
0.015255386
0.016846062
0.013841672
0.015364331
0.01283127
0.014304536
0.012178573
0.013416584
0.011635389
0.012566173
0.011072154
0.011726571
0.010471276
0.010910148
0.0098531019
0.010138971
0.0092460319
0.0094281174
0.0086706995
0.0087826797
0.0081372408
0.0082007436
0.0076480413
0.0076769146
0.0072012676
0.0072047281
0.006793383
0.0067778691
0.0064204468
0.0063905408
0.006078561
0.0060374664
0.0057639717
0.0057138329
0.0054730894
0.0054152532
0.0052025182
0.0051377688
0.0049490956
0.0048778364
0.0047099425
0.0046323294
0.0044824581
0.0043985095
0.0042643468
0.0041740034
0.0040536044
0.0039567816
0.003848511
0.0037451338
0.0036476076
0.0035376404
0.0034496874
0.0033331379
0.0032537668
0.0031306881
0.0030590584
0.0029295487
0.002864947
0.0027291458
0.0026709659
0.0025290475
0.0024767742
0.0023289396
0.0022821346
0.0021286028
0.0020868932
0.0019278925
0.001890962
0.0017267227
0.0016943037
0.0015250528
0.0014969201
0.0013228788
0.0012988443
0.0011202304
0.0011001385
0.00091716988
0.00090089453
0.00071379456
0.00070123524
0.00051022875
0.00050130896
0.00030663568
0.00030129977
0.00010246921
0.00010069042
0.011357383
0.010640276
0.0095822054
0.0085467411
0.0077037452
0.007086824
0.0066035362
0.0061998659
0.0058464951
0.005510755
0.0051713473
0.0048183098
0.0044496508
0.0040678733
0.0036774466
0.0032836223
0.0028915386
0.0025056188
0.0021293419
0.00176513
0.0014143515
0.0010773976
0.0007536705
0.00044253413
0.00014331379
0.011796879
0.010990507
0.0098672292
0.0088033877
0.0079907976
0.0074232212
0.0069359816
0.0064917887
0.006081878
0.0056723026
0.0052520291
0.0048208503
0.0043829593
0.0039436945
0.0035090404
0.0030845377
0.0026747977
0.0022833159
0.0019124466
0.0015634258
0.0012364964
0.00093182001
0.0006469025
0.00037959194
0.00012836626
0.0086498399
0.0077281873
0.0066587708
0.0058004889
0.0050682918
0.0043329548
0.0035903554
0.002817679
0.0020597519
0.0013791966
0.0008062232
0.00034214889
-2.2002001e-05
-0.00029622465
-0.00048940608
-0.00061075529
-0.00067006603
-0.00067734449
-0.000642547
-0.00057526513
-0.00048453307
-0.00037955208
-0.00026592846
-0.00014468411
-2.3774631e-05
-0.0066889831
-0.0077685013
-0.0088507448
-0.0098557185
-0.010857132
-0.011726378
-0.012374642
-0.012729406
-0.012819582
-0.012683663
-0.012320241
-0.011782695
-0.011117113
-0.010350149
-0.0094976909
-0.0085812557
-0.0076232079
-0.0066439902
-0.0056611643
-0.0046897318
-0.0037420744
-0.0028276038
-0.0019520738
-0.0011161574
-0.000330718
-0.05882298
-0.057779922
-0.056758118
-0.053823203
-0.050618664
-0.047095439
-0.043574426
-0.040054704
-0.036571399
-0.033195203
-0.029877236
-0.026706605
-0.023686397
-0.020779807
-0.018040769
-0.015514098
-0.013199043
-0.011084715
-0.0091563648
-0.0073976001
-0.0057918226
-0.0043224051
-0.002974728
-0.001730146
-0.00058006456
-0.22020058
-0.17362388
-0.15128663
-0.12058816
-0.095832102
-0.074877308
-0.057489743
-0.043605685
-0.032648667
-0.023989773
-0.017297337
-0.012183116
-0.0083342283
-0.0054583604
-0.0033245313
-0.0017851194
-0.00071787856
-1.8891371e-05
0.00039740065
0.0005999287
0.00064366592
0.00057433689
0.00042416461
0.0002293162
-3.4339122e-05
-0.30977124
-0.10378249
-0.057071859
-0.025096323
0.0045610475
0.027931368
0.042285918
0.048553936
0.049798135
0.048526006
0.045883978
0.042455364
0.038602237
0.03458781
0.030587717
0.026707206
0.023006981
0.019519617
0.016261454
0.013232196
0.010418371
0.0078021967
0.005352297
0.0030614212
0.00081690659
-0.17553187
-0.15047266
-0.12573313
-0.1020536
-0.080865473
-0.062577812
-0.047449364
-0.035363154
-0.025917092
-0.018471887
-0.012746956
-0.0084149664
-0.0052597971
-0.0029056226
-0.0012018178
-2.4153443e-05
0.00073493851
0.0011619828
0.0013440488
0.0013463471
0.0012158545
0.00099288477
0.00070569546
0.00038819977
1.0114686e-05
-0.071224764
-0.068240526
-0.063696379
-0.058998319
-0.054472489
-0.050059936
-0.045812423
-0.041696939
-0.037683089
-0.033979261
-0.030448112
-0.027058653
-0.023762929
-0.020725321
-0.01794674
-0.015413071
-0.013109484
-0.011035461
-0.0091378009
-0.0073904894
-0.0057913056
-0.0043270372
-0.0029825713
-0.0017390239
-0.00058845571
-0.010480409
-0.012734359
-0.014004129
-0.01509876
-0.016012761
-0.016600029
-0.016874601
-0.016846961
-0.016543528
-0.016048227
-0.015373631
-0.014547846
-0.01359848
-0.012550501
-0.011430254
-0.010262906
-0.0090684327
-0.0078480579
-0.006651441
-0.0054991697
-0.0043859434
-0.0033158031
-0.0022919528
-0.0013141207
-0.00039456436
0.010537981
0.0078734439
0.0063807449
0.0052292911
0.0040166962
0.0027092305
0.0015927892
0.00060907091
-0.00023693009
-0.00093497011
-0.0014805338
-0.0018790184
-0.0021434423
-0.0022867966
-0.0023234328
-0.0022687364
-0.0021448887
-0.0019575491
-0.0017304745
-0.0014795098
-0.0012119743
-0.00093510333
-0.00065409417
-0.00036981464
-9.1458089e-05
0.013633167
0.011194895
0.0094765541
0.0084812529
0.0078444076
0.0073628843
0.006781228
0.0061563937
0.0055449185
0.0049389133
0.0043423561
0.0037726082
0.0032416253
0.0027556981
0.0023172613
0.0019268625
0.0015913448
0.0013032667
0.0010525926
0.00083345639
0.00064169622
0.00047205623
0.00032101947
0.00018778566
6.9808213e-05
0.011987288
0.0097275353
0.0081194461
0.0070734232
0.0064482739
0.0060294416
0.0056505096
0.0052830888
0.0049081486
0.0045164714
0.004121583
0.0037285573
0.0033434873
0.0029724278
0.0026204653
0.0022886492
0.0019741846
0.0016793213
0.001404408
0.0011484561
0.00091013932
0.00068820367
0.00047981938
0.00028163191
9.2209936e-05
0.010998885
0.0086357781
0.0069536811
0.0058906132
0.0052234752
0.0047821656
0.0044349882
0.0041391266
0.0038605611
0.0035818659
0.0033010306
0.0030164798
0.0027296551
0.0024438242
0.0021630676
0.0018934895
0.001642027
0.0014074645
0.0011860227
0.00097641791
0.00077813595
0.00059079559
0.00041291086
0.00024266919
7.8477214e-05
0.010372136
0.0082549451
0.0066240999
0.0054667497
0.004676957
0.0041185483
0.0037152517
0.0034178509
0.0031670635
0.0029375073
0.0027215612
0.0025069517
0.0022892349
0.0020692573
0.0018492161
0.0016354565
0.0014316268
0.0012364246
0.0010485915
0.00086840182
0.00069575469
0.00053050596
0.00037192287
0.00021916639
7.1243126e-05
0.010064654
0.008174329
0.0066262712
0.0054417204
0.0045783028
0.0039603085
0.0035150669
0.0031630813
0.0028763569
0.0026312677
0.0024144788
0.0022149654
0.002025162
0.0018424998
0.0016635983
0.001486047
0.0013108662
0.0011400832
0.00097429184
0.00081283155
0.00065555376
0.00050264584
0.00035400112
0.00020999957
6.9630587e-05
0.0098221516
0.0081418172
0.0066975179
0.0055274669
0.0046200969
0.0039345075
0.0034206463
0.0030254551
0.0027140649
0.0024579213
0.0022329346
0.0020330014
0.0018500687
0.001676799
0.0015117656
0.0013523684
0.0011967753
0.0010450655
0.00089652888
0.00075043782
0.00060688655
0.00046621897
0.00032897239
0.00019533752
6.5819503e-05
0.0095183314
0.008033946
0.0067077918
0.00558427
0.0046706172
0.0039478145
0.0033833913
0.0029411059
0.0025901364
0.0023051354
0.0020666113
0.0018634632
0.0016810545
0.0015123597
0.0013561435
0.0012087598
0.0010676644
0.00093118929
0.00079833671
0.00066830726
0.00054083007
0.00041587478
0.00029368753
0.00017493662
5.893185e-05
0.0091400145
0.0078348346
0.0066312744
0.0055743272
0.0046811465
0.0039472079
0.0033543451
0.0028781758
0.0024945505
0.0021819637
0.001922601
0.0017033507
0.0015187122
0.0013557524
0.0012055028
0.0010665684
0.00093621092
0.00081254169
0.00069396924
0.00057932491
0.00046792916
0.00035945871
0.00025353362
0.00015120763
5.1455689e-05
0.0087119815
0.0075676291
0.0064841703
0.0055042326
0.0046496482
0.0039249647
0.0033223573
0.0028268807
0.002420858
0.0020869479
0.0018096145
0.0015759477
0.0013777712
0.0012117673
0.0010682036
0.00093726404
0.0008155564
0.0007025596
0.00059623805
0.00049504776
0.00039812304
0.00030485419
0.00021463884
0.00012777085
4.3353628e-05
0.0082668756
0.0072657106
0.0062961374
0.0053972203
0.0045924209
0.0038915527
0.0032938353
0.0027914101
0.002372485
0.0020239218
0.0017332279
0.0014890954
0.0012829061
0.001107595
0.00095743011
0.00082790163
0.00071434718
0.0006108149
0.0005144844
0.00042409319
0.00033905846
0.00025858945
0.000181781
0.00010794548
3.6748631e-05
0.0078288329
0.0069535643
0.0060894532
0.0052710635
0.0045217068
0.0038539934
0.0032716899
0.0027720403
0.0023481101
0.0019907648
0.0016903376
0.0014375689
0.0012243566
0.0010437999
0.00089001286
0.00075787597
0.00064266439
0.00054096553
0.00045038514
0.00036849866
0.00029302321
0.00022253886
0.00015610981
9.264178e-05
3.1836528e-05
0.0074113294
0.0066457307
0.0058772713
0.0051360098
0.0044439193
0.0038147738
0.0032551348
0.0027658349
0.0023436268
0.0019827233
0.0016760976
0.0014164348
0.0011967746
0.0010107679
0.00085282904
0.00071800105
0.00060194792
0.00050112268
0.00041265895
0.00033406361
0.0002631777
0.00019832549
0.00013805356
8.1933251e-05
2.8498417e-05
0.0070200109
0.0063493657
0.005666484
0.0049972493
0.0043617159
0.003773763
0.0032414887
0.0027681135
0.0023531024
0.0019933077
0.001683991
0.001419646
0.0011945887
0.0010033317
0.00084078495
0.00070232491
0.00058387739
0.00048191774
0.00039345504
0.00031590466
0.00024705394
0.00018508042
0.00012835134
7.5972263e-05
2.6607311e-05
0.0066559289
0.0060672438
0.0054603071
0.0048572276
0.0042759673
0.0037298535
0.0032276547
0.0027740754
0.002370495
0.0020157816
0.0017070769
0.001440475
0.001211553
0.0010157527
0.00084863606
0.00070602208
0.00058413174
0.00047955157
0.0003893366
0.00031086359
0.00024187008
0.00018041926
0.00012459392
7.3632434e-05
2.5947509e-05
0.0063180544
0.0058000612
0.0052601737
0.004717196
0.0041870129
0.0036820385
0.0032111348
0.0027798316
0.0023907899
0.002044364
0.0017391868
0.0014727086
0.001241656
0.0010423901
0.00087117092
0.00072434167
0.00059845288
0.00049033765
0.00039710919
0.00031622201
0.00024540765
0.00018267282
0.00012557002
7.415571e-05
2.6311265e-05
0.0060045661
0.0055475852
0.0050667197
0.0045779456
0.004095177
0.0036297626
0.0031902803
0.0027826241
0.0024102509
0.0020745665
0.0017753459
0.0015111514
0.0012797121
0.0010782421
0.00090369289
0.00075294391
0.00062294067
0.00051078423
0.0004137754
0.00032946185
0.00025560736
0.0001904678
0.00013004366
7.6959086e-05
2.7608553e-05
0.0057133383
0.0053090833
0.0048801024
0.0044399647
0.0040007887
0.0035728025
0.0031640942
0.0027805948
0.0024262043
0.0021030322
0.0018116985
0.0015516483
0.0013214543
0.0011190882
0.00094214889
0.00078804527
0.00065413516
0.00053782533
0.00043663667
0.00034824809
0.00027050643
0.00020144962
0.0001384795
8.2028769e-05
2.9385066e-05
0.0054420772
0.0050834689
0.0047000834
0.0043034404
0.0039040632
0.0035110754
0.0031319652
0.0027724935
0.0024367457
0.0021272711
0.0018452889
0.0015909222
0.0013634314
0.0011614389
0.0009831268
0.00082640296
0.00068903469
0.0005687512
0.00046331777
0.00037058637
0.00028852281
0.00021522615
0.00014866148
8.8160654e-05
3.1138295e-05
0.0051883886
0.0048693897
0.0045260849
0.0041682623
0.0038050368
0.0034444991
0.0030934841
0.0027574585
0.0024405145
0.0021454422
0.0018738659
0.0016264106
0.0014028821
0.0012024454
0.0010237913
0.00086528189
0.00072507463
0.00060122141
0.00049174529
0.00039469692
0.00030819318
0.00023044899
0.00015965059
9.4693931e-05
3.3113983e-05
0.0049498661
0.0046653254
0.004357286
0.0040340766
0.0037035845
0.0033729483
0.0030483501
0.0027348897
0.0024365457
0.0021562048
0.0018957445
0.0016561486
0.0014376421
0.0012398306
0.0010618361
0.0009024235
0.00076010993
0.00063325751
0.00052014877
0.00041904463
0.00032822932
0.00024604807
0.00017082929
0.00010131305
3.5147209e-05
0.0047241734
0.0044696924
0.0041927273
0.0039003778
0.0035994638
0.0032962671
0.0029963394
0.0027043805
0.0024241803
0.0021586187
0.0019097102
0.001678682
0.0014660707
0.0012718305
0.0010954421
0.00093601773
0.00079239773
0.0006632336
0.00054705858
0.00044234552
0.0003475533
0.00026116956
0.00018165275
0.00010771893
3.713223e-05
0.0045091005
0.0042809285
0.0040313999
0.0037665831
0.0034923771
0.0032142966
0.0029373035
0.0026656898
0.002403013
0.0021520753
0.0019149419
0.0016929909
0.0014869824
0.0012971388
0.001123232
0.00096466908
0.00082057322
0.00068985872
0.00057129519
0.00046356134
0.00036529299
0.0002751255
0.00019165791
0.00011364762
3.8981418e-05
0.004302622
0.0040975501
0.0038723103
0.003632096
0.0033820133
0.0031268981
0.0028711687
0.0026187182
0.0023728496
0.0021362405
0.0019109445
0.0016984205
0.0014995793
0.0013148446
0.0011442189
0.000987353
0.00084361417
0.00071215056
0.0005919489
0.00048188457
0.00038076708
0.00028738118
0.00020046721
0.00011887375
4.0617109e-05
0.0041029116
0.0039182022
0.0037145298
0.0034963486
0.0032680818
0.0030339669
0.0027979287
0.0025634815
0.0023336641
0.0021110002
0.0018974885
0.0016946154
0.0015033868
0.0013243706
0.0011577475
0.0010033663
0.0008608004
0.00072940259
0.00060835555
0.0004967177
0.00039346559
0.00029753287
0.00020778993
0.00012321234
4.1969596e-05
0.0039083663
0.0037416796
0.0035572258
0.0033588327
0.0031503356
0.0029354468
0.0027176461
0.0025000927
0.0022855629
0.0020764118
0.0018745527
0.001681461
0.0014981926
0.0013254141
0.00116344
0.0010122769
0.00087166961
0.00074114664
0.0006200643
0.00050764787
0.00040303066
0.00030528757
0.0002134255
0.00012655391
4.2995219e-05
0.0037176005
0.0035669412
0.003399681
0.00321912
0.0030285876
0.002831336
0.0026304449
0.002428745
0.0022287596
0.0020326682
0.0018422798
0.0016590305
0.0014839926
0.0013178937
0.0011611456
0.0010138779
0.00087597531
0.00074711494
0.00062680483
0.00051442002
0.00040923819
0.0003104694
0.00021725508
0.00012883134
4.3665109e-05
0.0035294422
0.0033931053
0.0032413
0.0030768734
0.0029027203
0.0027216904
0.0025365072
0.0023497005
0.0021635543
0.0019800692
0.0018009406
0.0016275454
0.0014609463
0.0013019031
0.0011508945
0.0010081434
0.00087364618
0.00074720414
0.00062845574
0.00051690895
0.00041197244
0.00031298279
0.00021920789
0.00013000047
4.3965358e-05
0.0033429198
0.0032194515
0.0030816063
0.0029318449
0.0027726853
0.002606625
0.0024360708
0.0022632801
0.002090313
0.0019189967
0.0017509043
0.0015873409
0.0014293404
0.0012776732
0.0011328599
0.00099519112
0.00086475105
0.00074144274
0.00062501578
0.00051509386
0.0004112028
0.00031279507
0.00021925514
0.00013004018
4.3891648e-05
0.0031572517
0.0030454079
0.0029202376
0.0027838702
0.0026384968
0.0024863052
0.0023294207
0.0021698539
0.002009458
0.0018498946
0.001692613
0.0015388367
0.0013895576
0.0012455392
0.0011073243
0.0009752506
0.00084946886
0.00072996453
0.00061658006
0.00050903865
0.0004069693
0.00030992849
0.000217407
0.00012895559
4.3448188e-05
0.0029718217
0.0028705391
0.0027569386
0.0026328655
0.0025002274
0.0023609402
0.0022168779
0.0020698273
0.0019214499
0.0017732511
0.0016265597
0.0014825125
0.0013420491
0.0012059123
0.0010746518
0.00094863543
0.00082806317
0.00071298508
0.00060331997
0.00049887551
0.00039937017
0.00030445267
0.00021370872
0.00012677318
4.2646082e-05
0.0027861591
0.0026945291
0.00259155
0.0024788217
0.0023580054
0.0022307786
0.0020987914
0.0019636278
0.0018267717
0.001689582
0.0015532703
0.0014188862
0.0012873112
0.0011592557
0.0010352642
0.00091572078
0.00080085981
0.00069078108
0.00058546474
0.00048478894
0.00038854869
0.00029647333
0.00020823188
0.00012353474
4.1499326e-05
0.00259992
0.0025171665
0.0024239951
0.002321793
0.0022120065
0.0020961027
0.0019755327
0.0018516975
0.0017259187
0.0015994166
0.001473289
0.0013484993
0.001225867
0.0011060646
0.0009896206
0.00087692277
0.00076822816
0.00066367304
0.00056328586
0.00046700245
0.0003746824
0.00028612413
0.00020106967
0.00011929468
4.0026211e-05
0.002412868
0.0023383272
0.0022542656
0.002161885
0.0020624431
0.0019572209
0.0018474915
0.001734491
0.0016193933
0.0015032887
0.0013871664
0.0012719037
0.001158256
0.0010468537
0.00093820155
0.00083268264
0.00073056511
0.00063201016
0.00053708347
0.00044576699
0.00035797349
0.00027355971
0.00019233037
0.0001141176
3.824842e-05
0.0022248547
0.0021579593
0.0020824092
0.0019992439
0.001909555
0.0018144581
0.0017150668
0.0016124681
0.0015076999
0.0014017322
0.0012954519
0.0011896515
0.0010850212
0.0009821452
0.00088149967
0.00078345545
0.00068828288
0.00059615866
0.00050717524
0.00042135042
0.00033863971
0.00025894798
0.00018213237
0.00010807406
3.6189399e-05
0.0020358022
0.001976068
0.0019085174
0.0018340471
0.0017536012
0.0016681483
0.0015786587
0.0014860837
0.0013913362
0.0012952744
0.0011986881
0.0011022886
0.0010067008
0.00091245982
0.00082000898
0.00072970086
0.00064180096
0.0005564934
0.00047388818
0.00039402968
0.00031690687
0.00024246343
0.00017059987
0.00010123729
3.3873027e-05
0.0018456881
0.0017927027
0.0017327143
0.0016664932
0.0015948524
0.0015186286
0.0014386629
0.001355783
0.0012707865
0.0011844276
0.0010974042
0.001010349
0.00092382275
0.00083831012
0.00075421798
0.00067187595
0.00059153877
0.0005133909
0.00043755227
0.00036408556
0.00029300485
0.00022428415
0.00015785892
9.3681683e-05
3.1323088e-05
0.001654532
0.0016079451
0.0015551469
0.001496795
0.0014335849
0.0013662344
0.0012954674
0.0012219985
0.0011465194
0.0010696865
0.00099211075
0.00091434939
0.00083689978
0.00076019552
0.00068460464
0.00061042983
0.00053791015
0.0004672244
0.00039849599
0.00033179872
0.00026716431
0.00020458934
0.00014403665
8.5482694e-05
2.8564408e-05
0.001462385
0.0014219011
0.0013759785
0.0013251736
0.0012700762
0.0012112962
0.0011494502
0.0010851493
0.0010189864
0.00095152681
0.00088329885
0.00081478695
0.0007464262
0.00067859882
0.00061163235
0.00054579943
0.00048131918
0.00041835982
0.00035704254
0.00029744621
0.00023961357
0.00018355712
0.00012925962
7.6715952e-05
2.562172e-05
0.0012693239
0.0012346956
0.001195385
0.0011518567
0.0011046043
0.0010541393
0.0010009799
0.00094564076
0.0008886233
0.00083040676
0.00077144089
0.00071213993
0.00065287793
0.00059398564
0.00053574874
0.00047840751
0.00042215775
0.0003671529
0.00031350704
0.00026129879
0.00021057627
0.0001613619
0.00011365225
6.7455458e-05
2.2519181e-05
0.0010754492
0.001046472
0.0010135549
0.00097707898
0.00093744927
0.00089508647
0.00085041778
0.00080386824
0.00075585294
0.00070676982
0.00065699357
0.00060687057
0.00055671503
0.00050680628
0.00045738724
0.00040866394
0.00036080621
0.00031394922
0.00026819588
0.00022361998
0.00018027014
0.00013817363
9.7336024e-05
5.777302e-05
1.9279865e-05
0.00088088712
0.00085739412
0.00083069255
0.00080108572
0.00076889685
0.00073446211
0.00069812341
0.00066022161
0.00062109018
0.0005810496
0.00054040242
0.00049942922
0.00045838547
0.00041749928
0.00037697009
0.00033696828
0.00029763553
0.00025908599
0.00022140813
0.00018466711
0.00014890801
0.00011415873
8.0429549e-05
4.7738917e-05
1.5926082e-05
0.00068579086
0.00066764939
0.0006470211
0.00062413698
0.00059924349
0.0005725972
0.00054445942
0.00051509104
0.0004847477
0.00045367549
0.00042210728
0.00039025954
0.00035832997
0.00032649567
0.00029491219
0.00026371311
0.0002330103
0.00020289472
0.0001734378
0.0001446932
0.0001166992
8.9480903e-05
6.3049734e-05
3.742282e-05
1.2479938e-05
0.00049033837
0.00047744678
0.00046278223
0.00044650772
0.00042879701
0.00040983087
0.00038979353
0.00036886912
0.00034723828
0.00032507518
0.00030254485
0.00027980103
0.00025698438
0.00023422132
0.00021162316
0.0001892859
0.00016729035
0.00014570266
0.00012457527
0.0001039481
8.3850254e-05
6.4301589e-05
4.5311581e-05
2.6893893e-05
8.9646658e-06
0.00029473797
0.00028702158
0.00027824061
0.00026849304
0.00025788253
0.00024651667
0.0002345051
0.00022195745
0.00020898146
0.00019568107
0.00018215487
0.00016849485
0.00015478527
0.00014110201
0.00012751205
0.00011407326
0.00010083456
8.7836141e-05
7.5110082e-05
6.2681017e-05
5.0567147e-05
3.8781242e-05
2.7329212e-05
1.6220502e-05
5.405406e-06
9.8504022e-05
9.5929735e-05
9.2999587e-05
8.9746758e-05
8.6205776e-05
8.2412365e-05
7.8402928e-05
7.4213916e-05
6.9881209e-05
6.5439431e-05
6.0921424e-05
5.635785e-05
5.177684e-05
4.7203734e-05
4.2660924e-05
3.816779e-05
3.3740724e-05
2.9393233e-05
2.5136114e-05
2.0977683e-05
1.6924136e-05
1.2979908e-05
9.1471919e-06
5.4291483e-06
1.8088946e-06
)
;

boundaryField
{
    Walls
    {
        type            zeroGradient;
    }
    Inlet
    {
        type            fixedValue;
        value           uniform 500;
    }
    Outlet
    {
        type            fixedValue;
        value           uniform 0;
    }
    Front
    {
        type            wedge;
    }
    Back
    {
        type            wedge;
    }
    defaultFaces
    {
        type            empty;
    }
}


// ************************************************************************* //
