/*--------------------------------*- C++ -*----------------------------------*\
| =========                 |                                                 |
| \\      /  F ield         | OpenFOAM: The Open Source CFD Toolbox           |
|  \\    /   O peration     | Version:  4.0                                   |
|   \\  /    A nd           | Web:      www.OpenFOAM.org                      |
|    \\/     M anipulation  |                                                 |
\*---------------------------------------------------------------------------*/
FoamFile
{
    version     2.0;
    format      ascii;
    class       surfaceScalarField;
    location    "0.11";
    object      phi;
}
// * * * * * * * * * * * * * * * * * * * * * * * * * * * * * * * * * * * * * //

dimensions      [0 3 -1 0 0 0 0];

internalField   nonuniform List<scalar> 
3364
(
-1.7149917e-10
1.5938176e-08
-2.7660559e-10
5.225611e-08
8.7619435e-08
-8.6342508e-10
1.6801587e-08
-6.1587397e-10
5.2008605e-08
8.7003601e-08
-7.9850158e-10
1.7600072e-08
4.5105386e-11
5.1165068e-08
8.7048733e-08
-8.1298809e-11
1.7681314e-08
5.0260794e-10
5.0581139e-08
8.7551319e-08
-5.8108998e-10
1.8262359e-08
-2.1220208e-10
5.0212171e-08
8.7339067e-08
-5.4467554e-10
1.8807e-08
-2.4402628e-10
4.9911475e-08
8.7095004e-08
2.2123425e-10
1.8585748e-08
3.0482262e-10
4.982786e-08
8.7399806e-08
4.521002e-10
1.8133624e-08
-3.6692367e-10
5.0646844e-08
8.7032857e-08
3.0292513e-11
1.810329e-08
-6.9312553e-10
5.1370223e-08
8.6339711e-08
-4.3637718e-12
1.8107586e-08
-2.1361191e-12
5.1367928e-08
8.633754e-08
7.5581555e-11
1.8031966e-08
7.7280108e-11
5.1366167e-08
8.6414781e-08
4.5780112e-11
1.7986189e-08
4.5527714e-10
5.0956672e-08
8.6870037e-08
2.746609e-10
1.7711519e-08
3.9135935e-10
5.0839965e-08
8.7261377e-08
5.9958462e-10
1.7111878e-08
-4.2538275e-10
5.1864854e-08
8.6835943e-08
1.3330777e-10
1.6978511e-08
-9.9687708e-11
5.2097746e-08
8.6736188e-08
-4.7505599e-10
1.7453536e-08
6.4276326e-11
5.1558369e-08
8.6800427e-08
3.3521375e-10
1.7118312e-08
5.0798977e-11
5.1842774e-08
8.6851196e-08
6.3168565e-10
1.6486619e-08
2.9166888e-10
5.2182771e-08
8.7142832e-08
-5.9602116e-10
1.7082612e-08
2.2006185e-10
5.1366668e-08
8.7362859e-08
-5.4221852e-10
1.7624777e-08
1.7336452e-10
5.065105e-08
8.7536194e-08
4.8450768e-10
1.7140232e-08
5.3735322e-10
5.0598151e-08
8.8073508e-08
7.3739409e-10
1.6402817e-08
3.1494426e-11
5.130401e-08
8.8104952e-08
2.988781e-10
1.6103884e-08
-6.1573154e-10
5.2218573e-08
8.7489203e-08
-5.6149827e-10
1.6665321e-08
-1.4776107e-10
5.180481e-08
8.7341432e-08
-7.4719218e-10
1.7412463e-08
-1.021002e-10
5.1159696e-08
8.7239298e-08
-5.4844215e-11
1.7467261e-08
-2.9077417e-10
5.1395573e-08
8.6948472e-08
-2.1463352e-10
1.7681868e-08
4.3353798e-10
5.0747352e-08
8.7381958e-08
-6.9320423e-10
1.8375077e-08
-2.1864047e-10
5.0272785e-08
8.716329e-08
8.8445421e-11
1.8286688e-08
-1.0532047e-09
5.1414531e-08
8.6110102e-08
2.1272632e-09
1.6159633e-08
4.693582e-09
4.8848322e-08
9.0803655e-08
1.1536299e-08
4.622694e-09
4.9216572e-08
1.1166171e-08
1.1338449e-08
1.286792e-07
5.1015109e-09
-4.7930651e-10
1.7689235e-08
-1.4230869e-09
-1.4358977e-09
3.046164e-08
-3.5163527e-10
-1.276428e-10
-1.3970975e-09
-3.7756937e-10
-4.5472133e-10
-2.3781992e-09
-1.0404242e-10
-2.3586088e-11
-4.1555957e-10
-6.6017807e-11
-8.2323649e-11
-7.8791798e-10
-2.0773184e-11
-2.8109622e-12
-8.3285463e-11
-3.5001215e-12
4.5684766e-12
-1.7017002e-10
-5.1961281e-12
2.3852524e-12
-1.8537138e-11
9.841129e-12
2.1326378e-11
-3.529444e-11
-6.1767821e-13
3.0028018e-12
-5.3995273e-13
9.7630149e-12
1.7054128e-11
3.7318338e-12
8.4162256e-13
2.1610898e-12
4.3508425e-12
6.2535219e-12
9.5931324e-12
1.1811491e-11
5.1855343e-13
1.6425157e-12
2.1850132e-12
4.5870529e-12
6.2453584e-12
5.532921e-12
7.0433869e-15
1.6355032e-12
1.3459508e-14
4.5807327e-12
6.2020225e-12
5.704605e-14
-1.0263783e-13
1.7381755e-12
-4.0177609e-13
4.8799635e-12
6.8625382e-12
-1.062113e-12
4.314116e-14
1.695056e-12
1.3400821e-13
4.7891505e-12
6.9423e-12
5.4342499e-14
1.4517423e-13
1.549894e-12
5.0910063e-13
4.4252524e-12
6.5499529e-12
9.0149528e-13
1.7638432e-13
1.3735174e-12
6.4608599e-13
3.9555677e-12
5.9228298e-12
1.273234e-12
1.7678119e-13
1.1967409e-12
6.7221855e-13
3.4601401e-12
5.2251408e-12
1.3699201e-12
1.5442347e-13
1.0423206e-12
5.9958962e-13
3.01498e-12
4.5868476e-12
1.2378904e-12
1.3003585e-13
9.122871e-13
5.0095723e-13
2.6440632e-12
4.0570382e-12
1.0307726e-12
1.0809903e-13
8.0418989e-13
4.1463038e-13
2.3375352e-12
3.6135855e-12
8.5808751e-13
9.112148e-14
7.1306971e-13
3.5009518e-13
2.0785637e-12
3.2348467e-12
7.2883666e-13
7.7760247e-14
6.3531033e-13
3.0031291e-13
1.8560122e-12
2.9053642e-12
6.2979643e-13
6.6531736e-14
5.6877915e-13
2.5772607e-13
1.6648183e-12
2.6177835e-12
5.4530686e-13
5.7266445e-14
5.1151307e-13
2.2107367e-13
1.5010112e-12
2.3686439e-12
4.7021286e-13
4.8857865e-14
4.6265546e-13
1.8939748e-13
1.3604715e-12
2.1557846e-12
4.0225615e-13
4.0815858e-14
4.2183986e-13
1.5849101e-13
1.2427963e-12
1.9772489e-12
3.3702632e-13
3.3886902e-14
3.8795328e-13
1.3100565e-13
1.1456778e-12
1.8297486e-12
2.7850599e-13
2.8453542e-14
3.595001e-13
1.1021185e-13
1.06392e-12
1.7055912e-12
2.3436979e-13
2.4575486e-14
3.3492502e-13
9.3645611e-14
9.9485064e-13
1.6014869e-12
1.977508e-13
1.8212095e-14
3.167134e-13
7.3303472e-14
9.3976027e-13
1.5125759e-12
1.6221598e-13
1.5243837e-14
3.0147013e-13
6.0071628e-14
8.9493378e-13
1.4455221e-12
1.2712738e-13
1.2400054e-14
2.8907072e-13
4.8106056e-14
8.5922937e-13
1.3919738e-12
1.016568e-13
9.8841598e-15
2.7918729e-13
3.8303619e-14
8.3081176e-13
1.3492179e-12
8.1062444e-14
7.7676489e-15
2.7142043e-13
3.0149687e-14
8.0843179e-13
1.3161117e-12
6.3259228e-14
5.9707343e-15
2.6545055e-13
2.3060209e-14
7.913446e-13
1.2912677e-12
4.7907955e-14
4.4495832e-15
2.6100188e-13
1.7092517e-14
7.7870411e-13
1.2731712e-12
3.5193006e-14
3.2286769e-15
2.5777416e-13
1.2320116e-14
7.6961526e-13
1.260444e-12
2.5051546e-14
2.2796e-15
2.5549555e-13
8.5979878e-15
7.6329956e-13
1.2519422e-12
1.7104184e-14
1.5512258e-15
2.5394533e-13
5.7380045e-15
7.5911556e-13
1.2466474e-12
1.1037365e-14
9.9500223e-16
2.5295135e-13
3.619407e-15
7.5649398e-13
1.2437378e-12
6.5337484e-15
5.8619747e-16
2.5236617e-13
2.0142459e-15
7.5506878e-13
1.2424782e-12
3.278627e-15
2.9857195e-16
2.5206862e-13
9.0898251e-16
7.5446124e-13
1.2425982e-12
7.9377456e-16
7.6587075e-17
2.5199304e-13
7.3455817e-17
7.5446723e-13
1.2435353e-12
-8.5879727e-16
-6.9669766e-17
2.520637e-13
-5.1780114e-16
7.5491819e-13
1.2450239e-12
-2.0016738e-15
-1.7359368e-16
2.5223826e-13
-9.0525318e-16
7.5565265e-13
1.2468643e-12
-2.7410099e-15
-2.3433106e-16
2.5247354e-13
-1.120498e-15
7.5654156e-13
1.2488659e-12
-3.117416e-15
-2.4719045e-16
2.5272165e-13
-1.142164e-15
7.5743923e-13
1.250788e-12
-3.0597687e-15
-1.9434725e-16
2.529169e-13
-8.9379381e-16
7.5814132e-13
1.2523314e-12
-2.4327853e-15
-7.9401708e-17
2.529972e-13
-3.9502824e-16
7.5845958e-13
1.2532326e-12
-1.2917724e-15
3.3361455e-17
2.5296474e-13
2.0349208e-16
7.582921e-13
1.2529393e-12
5.012425e-16
2.5516317e-16
2.527105e-13
9.6981691e-16
7.5758016e-13
1.2518539e-12
2.0597082e-15
3.475225e-16
1.3193134e-15
2.842647e-15
1.3832413e-07
-9.6502751e-09
-8.880597e-09
1.4719837e-07
2.2248872e-08
-1.4387514e-09
-1.3669007e-09
1.4734603e-08
-3.3307243e-09
-4.8611753e-10
-5.6606444e-10
-4.1314223e-09
-1.1668941e-09
-1.0709789e-10
-1.5626881e-10
-1.5766345e-09
-2.8304432e-10
5.7852489e-12
-6.8927257e-12
-4.3240669e-10
-5.9163251e-11
2.9655775e-11
2.9392627e-11
-9.5446501e-11
1.1899895e-11
2.1488489e-11
2.0931392e-11
2.0360487e-11
2.3115129e-11
1.0184932e-11
7.8931422e-12
3.6152521e-11
1.0168189e-11
5.5496888e-12
2.8027847e-12
1.5258295e-11
-2.3774618e-13
5.8447326e-12
3.5567415e-12
-9.9151751e-13
-2.3221454e-12
7.1050499e-12
5.8061976e-12
-4.5713045e-12
-5.262639e-13
7.6858048e-12
7.2094168e-12
-1.929279e-12
9.8009176e-13
7.6072794e-12
7.436011e-12
7.5358727e-13
1.8838004e-12
6.9967429e-12
7.1404324e-12
2.179412e-12
2.0753346e-12
6.2913409e-12
6.542627e-12
2.6731502e-12
1.9191671e-12
5.6100706e-12
5.9619747e-12
2.4998232e-12
1.6306935e-12
5.0101546e-12
5.4278318e-12
2.1648383e-12
1.3668776e-12
4.5013681e-12
4.9531453e-12
1.8415648e-12
1.1629603e-12
4.0672462e-12
4.5284759e-12
1.5876291e-12
1.0109887e-12
3.6860542e-12
4.1472054e-12
1.3922573e-12
8.8251322e-13
3.3488469e-12
3.8041497e-12
1.2255661e-12
7.6810252e-13
3.0509557e-12
3.5002625e-12
1.0719864e-12
6.59207e-13
2.7940032e-12
3.2371141e-12
9.2235238e-13
5.5493251e-13
2.5760959e-12
3.0097798e-12
7.8226449e-13
4.5547079e-13
2.3991307e-12
2.8101493e-12
6.5509992e-13
3.8754941e-13
2.2459513e-12
2.6587772e-12
5.3892114e-13
3.245891e-13
2.1191139e-12
2.5272015e-12
4.5616549e-13
2.6629808e-13
2.0150335e-12
2.4206898e-12
3.7281164e-13
2.1028182e-13
1.9318816e-12
2.332373e-12
2.9860149e-13
1.6567628e-13
1.8678654e-12
2.2700697e-12
2.2798338e-13
1.3169712e-13
1.8172346e-12
2.2186611e-12
1.8311058e-13
1.0145171e-13
1.7790467e-12
2.1823933e-12
1.3772508e-13
7.5753287e-14
1.7512064e-12
2.1577929e-12
1.0035997e-13
5.4712167e-14
1.7316926e-12
2.1419697e-12
7.054217e-14
3.8064373e-14
1.7186857e-12
2.1331967e-12
4.6844711e-14
2.4913557e-14
1.7108825e-12
2.1297309e-12
2.8387313e-14
1.5003344e-14
1.7069229e-12
2.1303343e-12
1.4408098e-14
7.6284745e-15
1.7058348e-12
2.133714e-12
4.2571684e-15
2.4957036e-15
1.7066244e-12
2.1389027e-12
-2.684453e-15
-1.4320553e-15
1.708857e-12
2.145145e-12
-7.6657297e-15
-3.900069e-15
1.711905e-12
2.1519067e-12
-1.0653209e-14
-5.5450583e-15
1.715455e-12
2.1589305e-12
-1.2560368e-14
-6.5653032e-15
1.7192859e-12
2.1659173e-12
-1.3543699e-14
-6.9528281e-15
1.7231277e-12
2.1725354e-12
-1.356269e-14
-6.572364e-15
1.7266467e-12
2.1784021e-12
-1.243093e-14
-5.1797413e-15
1.7293998e-12
2.1830031e-12
-9.7728096e-15
-2.7915556e-15
1.7309058e-12
2.185777e-12
-5.5575811e-15
3.3580582e-16
1.7310775e-12
2.1866246e-12
-5.0378178e-16
3.2471418e-15
1.7298964e-12
2.185667e-12
4.2128892e-15
4.8485292e-15
7.3543068e-15
5.7719528e-12
-5.7720571e-12
1.1219031e-11
-5.4432639e-12
1.6300055e-11
-5.0760231e-12
2.1445323e-11
-5.1417174e-12
2.7861656e-11
-6.4143069e-12
3.6188317e-11
-8.3257739e-12
4.5208193e-11
-9.0197754e-12
5.3820041e-11
-8.6122536e-12
6.1325786e-11
-7.50644e-12
6.6864739e-11
-5.5397991e-12
6.9828078e-11
-2.9642425e-12
6.9937462e-11
-1.1028965e-13
6.7190162e-11
2.7464435e-12
6.1771076e-11
5.4183013e-12
5.401841e-11
7.7519822e-12
4.4378644e-11
9.6391801e-12
3.3367887e-11
1.1010284e-11
2.1545581e-11
1.1821923e-11
9.4948884e-12
1.2050407e-11
-2.1915084e-12
1.1686181e-11
-1.2918963e-11
1.0727312e-11
-2.2045427e-11
9.1263711e-12
-2.8992395e-11
6.94692e-12
-3.3237086e-11
4.2446651e-12
1.0428369e-12
-3.4127797e-11
2.8357503e-11
-7.7100777e-11
3.7532283e-11
-1.2923463e-10
4.7060774e-11
-1.9094127e-10
5.6567982e-11
-2.6208048e-10
6.4727968e-11
-3.4174284e-10
7.1339584e-11
-4.3232389e-10
8.1564154e-11
-5.3480494e-10
9.387152e-11
-6.4860307e-10
1.0629417e-10
-7.7284397e-10
1.1870331e-10
-9.0579082e-10
1.2998449e-10
-1.0453064e-09
1.3940688e-10
-1.1890653e-09
1.4650651e-10
-1.334601e-09
1.5095493e-10
-1.4793806e-09
1.5253207e-10
-1.6208656e-09
1.511245e-10
-1.7565687e-09
1.4671329e-10
-1.8841059e-09
1.3935885e-10
-2.0012672e-09
1.292112e-10
-2.1061332e-09
1.1655149e-10
-2.1974283e-09
1.0202152e-10
-2.2751351e-09
8.6832124e-11
-2.3322466e-09
6.4057267e-11
-2.365575e-09
3.7571935e-11
9.2815386e-12
-1.2456436e-10
1.529273e-10
-2.7459238e-10
1.875684e-10
-4.4854897e-10
2.2102653e-10
-6.4574451e-10
2.5377265e-10
-8.689196e-10
2.8791168e-10
-1.1232427e-09
3.2567053e-10
-1.4138931e-09
3.7222147e-10
-1.7999583e-09
4.7994245e-10
-2.2414619e-09
5.4780239e-10
-2.7003314e-09
5.7757622e-10
-3.1594343e-09
5.890897e-10
-3.6080014e-09
5.8797527e-10
-4.0386809e-09
5.771863e-10
-4.4459526e-09
5.5822611e-10
-4.8246269e-09
5.3120506e-10
-5.1704444e-09
4.9694009e-10
-5.480344e-09
4.5661034e-10
-5.7524032e-09
4.1141494e-10
-5.9855409e-09
3.6234546e-10
-6.1793095e-09
3.1031623e-10
-6.3333797e-09
2.5608764e-10
-6.4467353e-09
2.0018342e-10
-6.5257935e-09
1.43111e-10
-6.5735272e-09
8.5301239e-11
2.7626925e-11
-3.8266042e-10
5.3560014e-10
-8.1001594e-10
6.1494226e-10
-1.291414e-09
7.0244414e-10
-2.0508559e-09
1.0132313e-09
-2.8817538e-09
1.1188229e-09
-3.6934822e-09
1.1374089e-09
-4.4357424e-09
1.1144885e-09
-5.0204384e-09
1.0646429e-09
-5.4701851e-09
9.9755172e-10
-5.8122075e-09
9.195998e-10
-6.0571195e-09
8.340016e-10
-6.2154601e-09
7.4631483e-10
-6.2964321e-09
6.581566e-10
-6.3073811e-09
5.691728e-10
-6.2597984e-09
4.8361963e-10
-6.1680574e-09
4.0519608e-10
-6.0463942e-09
3.3494375e-10
-5.9080263e-09
2.730435e-10
-5.7649082e-09
2.1922371e-10
-5.6274903e-09
1.728946e-10
-5.5046161e-09
1.3320951e-10
-5.4035696e-09
9.9132997e-11
-5.3302589e-09
6.9796331e-11
-5.288926e-09
4.3964243e-11
2.0599729e-11
-2.2395326e-09
2.7751538e-09
-3.9311024e-09
2.3065347e-09
-5.338834e-09
2.1101969e-09
-5.9658736e-09
1.6402845e-09
-6.0004365e-09
1.1533964e-09
-5.5480827e-09
6.850633e-10
-4.8093732e-09
3.7578588e-10
-3.8489715e-09
1.0424716e-10
-2.7271514e-09
-1.242627e-10
-1.5069913e-09
-3.0055494e-10
-2.9487776e-10
-3.781069e-10
9.0174661e-10
-4.5030611e-10
2.089016e-09
-5.2911161e-10
3.3994754e-09
-7.4128458e-10
4.6980245e-09
-8.1492615e-10
5.9282984e-09
-8.2507287e-10
7.0633427e-09
-8.0009404e-10
8.0863913e-09
-7.4999716e-10
8.9864508e-09
-6.808264e-10
9.7562569e-09
-5.9690096e-10
1.0391025e-08
-5.015473e-10
1.0887704e-08
-3.9753219e-10
1.1244182e-08
-2.8666826e-10
1.1459632e-08
-1.7147239e-10
-4.9697929e-11
1.2221602e-09
1.5530789e-09
4.5954973e-09
-1.0667548e-09
8.440111e-09
-1.7343502e-09
1.2175821e-08
-2.0953962e-09
1.5885814e-08
-2.5565701e-09
1.9537561e-08
-2.9666534e-09
2.31168e-08
-3.2034183e-09
2.6474681e-08
-3.2535933e-09
2.9523884e-08
-3.1734205e-09
3.2245529e-08
-3.022151e-09
3.4701871e-08
-2.8343964e-09
3.6868637e-08
-2.6170173e-09
3.8734329e-08
-2.3947473e-09
4.0169807e-08
-2.1767046e-09
4.1307937e-08
-1.9529979e-09
4.2214334e-08
-1.7314113e-09
4.2931382e-08
-1.5170839e-09
4.3492904e-08
-1.3114606e-09
4.3927246e-08
-1.1151109e-09
4.4258249e-08
-9.2784662e-10
4.450546e-08
-7.4870171e-10
4.4684222e-08
-5.7623755e-10
4.4805811e-08
-4.0820176e-10
4.4877646e-08
-2.4325298e-10
-7.5398025e-11
1.5099278e-07
-2.2400981e-09
1.4921734e-07
7.0960851e-10
1.4627585e-07
1.2079296e-09
1.4256561e-07
1.6155473e-09
1.3788994e-07
2.119707e-09
1.3235992e-07
2.5638879e-09
1.263168e-07
2.8401565e-09
1.2013632e-07
2.9272645e-09
1.1409174e-07
2.871497e-09
1.0831941e-07
2.7504591e-09
1.0288065e-07
2.6046245e-09
9.7836988e-08
2.4268646e-09
9.3210181e-08
2.2322604e-09
8.9006084e-08
2.0275721e-09
8.5232727e-08
1.820522e-09
8.1885298e-08
1.6161658e-09
7.8950783e-08
1.4175674e-09
7.641281e-08
1.2266382e-09
7.4253796e-08
1.0440191e-09
7.2456641e-08
8.6941764e-10
7.1005938e-08
7.0210369e-10
6.9888973e-08
5.4082446e-10
6.9097385e-08
3.8347767e-10
6.8625434e-08
2.2878736e-10
7.12099e-11
1.4014644e-08
-1.5200107e-09
1.6355248e-08
-1.630879e-09
1.8957146e-08
-1.3938523e-09
2.1626614e-08
-1.053808e-09
2.4367967e-08
-6.2153853e-10
2.7240263e-08
-3.0830582e-10
3.0124654e-08
-4.4140137e-11
3.2866275e-08
1.8573426e-10
3.5403054e-08
3.3480736e-10
3.7728922e-08
4.2467948e-10
3.9809085e-08
5.2454941e-10
4.1544741e-08
6.9129466e-10
4.2874567e-08
9.0251896e-10
4.3942501e-08
9.5972115e-10
4.4791762e-08
9.7134136e-10
4.5457628e-08
9.5037844e-10
4.5971368e-08
9.0390325e-10
4.6360744e-08
8.373363e-10
4.665076e-08
7.5407406e-10
4.6863267e-08
6.5698072e-10
4.701595e-08
5.4948735e-10
4.7123021e-08
4.3381923e-10
4.7194093e-08
3.1246873e-10
4.7235836e-08
1.8710546e-10
5.4774455e-11
-4.8499076e-09
-8.0153661e-10
-5.4776874e-09
-1.0031091e-09
-5.7879237e-09
-1.0836263e-09
-5.7212935e-09
-1.1204481e-09
-5.2226101e-09
-1.1202302e-09
-4.439802e-09
-1.0911201e-09
-3.444963e-09
-1.0389827e-09
-2.2909975e-09
-9.68232e-10
-1.0715898e-09
-8.8459838e-10
1.5066408e-10
-7.9756989e-10
1.3823695e-09
-7.0714936e-10
2.688339e-09
-6.1466593e-10
4.1108078e-09
-5.1993873e-10
5.5025326e-09
-4.3199048e-10
6.8265954e-09
-3.5270654e-10
8.0597716e-09
-2.8278144e-10
9.1860824e-09
-2.2238995e-10
1.0196231e-08
-1.7279365e-10
1.1087477e-08
-1.3715326e-10
1.1853279e-08
-1.0880102e-10
1.2486957e-08
-8.4170678e-11
1.2983719e-08
-6.2923519e-11
1.3340815e-08
-4.4606712e-11
1.3556398e-08
-2.8458742e-11
-1.4999105e-11
-2.1637116e-09
-2.144622e-10
-2.9131849e-09
-2.5364001e-10
-3.704917e-09
-2.91901e-10
-4.4881743e-09
-3.3719985e-10
-5.2105654e-09
-3.9785023e-10
-5.7731563e-09
-5.2854129e-10
-6.2234206e-09
-5.8873118e-10
-6.5692305e-09
-6.2243526e-10
-6.8140447e-09
-6.3979724e-10
-6.96624e-09
-6.4538754e-10
-7.0326759e-09
-6.4072597e-10
-7.0199814e-09
-6.2737234e-10
-6.9334703e-09
-6.0646122e-10
-6.7875592e-09
-5.7791226e-10
-6.5972652e-09
-5.4301041e-10
-6.3771266e-09
-5.0292927e-10
-6.141556e-09
-4.5796906e-10
-5.9052299e-09
-4.0912763e-10
-5.68456e-09
-3.5783045e-10
-5.4881837e-09
-3.0518416e-10
-5.3212664e-09
-2.5109438e-10
-5.1883164e-09
-1.9587963e-10
-5.0930396e-09
-1.3988934e-10
-5.0380327e-09
-8.347135e-11
-2.7501443e-11
-6.1929114e-10
-2.7577243e-11
-8.3162547e-10
-4.1305327e-11
-1.0687724e-09
-5.4754226e-11
-1.340787e-09
-6.5186219e-11
-1.6599603e-09
-7.8678754e-11
-2.0956168e-09
-9.2887562e-11
-2.5725716e-09
-1.117804e-10
-3.0657505e-09
-1.2926141e-10
-3.5595532e-09
-1.4600066e-10
-4.0434489e-09
-1.6149886e-10
-4.5097041e-09
-1.7447845e-10
-4.952536e-09
-1.8454886e-10
-5.3672221e-09
-1.9178397e-10
-5.7487594e-09
-1.9638427e-10
-6.0926804e-09
-1.9909895e-10
-6.388443e-09
-2.0717653e-10
-6.6397074e-09
-2.0671463e-10
-6.8554414e-09
-1.9340359e-10
-7.0381984e-09
-1.7508344e-10
-7.1899936e-09
-1.5339895e-10
-7.3120387e-09
-1.2905916e-10
-7.405447e-09
-1.0248096e-10
-7.4713833e-09
-7.3962389e-11
-7.5113347e-09
-4.3528841e-11
-1.0602567e-11
-1.4504342e-10
2.2019708e-11
-2.0932897e-10
2.2980259e-11
-2.8840716e-10
2.4323925e-11
-3.8206825e-10
2.8474683e-11
-4.9227552e-10
3.1528132e-11
-6.1844909e-10
3.3285365e-11
-7.6111624e-10
3.0885784e-11
-9.1626541e-10
2.5886464e-11
-1.0826445e-09
2.0376781e-11
-1.2586892e-09
1.4543886e-11
-1.441334e-09
8.1640921e-12
-1.6276861e-09
1.8006965e-12
-1.8153453e-09
-4.1276553e-12
-2.0023405e-09
-9.3921852e-12
-2.1875483e-09
-1.3894485e-11
-2.3772715e-09
-1.7456814e-11
-2.5645998e-09
-1.9390113e-11
-2.7380661e-09
-1.9941191e-11
-2.8936624e-09
-1.9491249e-11
-3.0288644e-09
-1.8201083e-11
-3.141777e-09
-1.6150765e-11
-3.2310395e-09
-1.3222655e-11
-3.2953181e-09
-9.6878974e-12
-3.3330577e-09
-5.793253e-12
-1.5595585e-12
2.3231062e-11
1.9148952e-11
2.8198021e-11
1.8013047e-11
3.163556e-11
2.0886074e-11
3.2804096e-11
2.7305805e-11
3.0054238e-11
3.4277638e-11
2.4284913e-11
3.9054333e-11
1.3457126e-11
4.1713211e-11
-3.0789091e-12
4.2422135e-11
-2.4515112e-11
4.1812611e-11
-5.001635e-11
4.0044739e-11
-7.9249459e-11
3.7396801e-11
-1.1158441e-10
3.4135224e-11
-1.4625883e-10
3.0546326e-11
-1.8253657e-10
2.6885105e-11
-2.1979106e-10
2.3359524e-11
-2.5710624e-10
1.9857861e-11
-2.9347336e-10
1.6976495e-11
-3.2796101e-10
1.4545914e-11
-3.5966086e-10
1.2208043e-11
-3.8789147e-10
1.0028962e-11
-4.1205354e-10
8.010719e-12
-4.3142104e-10
6.1442628e-12
-4.4549014e-10
4.3806168e-12
-4.5392848e-10
2.6444984e-12
9.6350351e-13
5.0189389e-11
5.1121604e-12
6.5040827e-11
3.1616823e-12
8.2175471e-11
3.7515056e-12
1.0230832e-10
7.1730502e-12
1.2445032e-10
1.2135753e-11
1.4746995e-10
1.6034857e-11
1.694903e-10
1.9693044e-11
1.8986793e-10
2.2044736e-11
2.0822459e-10
2.34562e-11
2.2458467e-10
2.3684948e-11
2.3913305e-10
2.2848723e-11
2.5189125e-10
2.1377353e-11
2.627841e-10
1.9653832e-11
2.7193423e-10
1.7735335e-11
2.7949898e-10
1.5795139e-11
2.8564424e-10
1.3712984e-11
2.9086848e-10
1.1752637e-11
2.9541195e-10
1.0002828e-11
2.9925131e-10
8.3690676e-12
3.024212e-10
6.8594504e-12
3.0496622e-10
5.4660657e-12
3.0694805e-10
4.1627959e-12
3.0839328e-10
2.9357424e-12
3.0928926e-10
1.7488674e-12
5.5848467e-13
2.1129675e-11
-7.5911655e-13
2.8045593e-11
-3.7541199e-12
3.6671995e-11
-4.874772e-12
4.7454392e-11
-3.6092098e-12
6.0668372e-11
-1.0780761e-12
7.4875432e-11
1.827965e-12
8.9072741e-11
5.4959186e-12
1.0354561e-10
7.5720704e-12
1.1768408e-10
9.3179374e-12
1.3083217e-10
1.0537088e-11
1.4297845e-10
1.0702684e-11
1.5381495e-10
1.0541097e-11
1.6339113e-10
1.00779e-11
1.7185167e-10
9.2750466e-12
1.7928173e-10
8.3653367e-12
1.857259e-10
7.2690655e-12
1.9131419e-10
6.1645979e-12
1.9616739e-10
5.1498857e-12
2.0038589e-10
4.1508179e-12
2.0400683e-10
3.2387585e-12
2.070328e-10
2.4403342e-12
2.0943706e-10
1.7587777e-12
2.1119816e-10
1.1748815e-12
2.1232395e-10
6.2331211e-13
9.8688064e-14
-2.1699892e-12
4.1937003e-13
-3.4117202e-12
-2.5123771e-12
-3.9527596e-12
-4.3337234e-12
-2.9525409e-12
-4.6094205e-12
-5.6760184e-13
-3.463006e-12
2.7140207e-12
-1.4536459e-12
7.5689085e-12
6.410446e-13
1.261645e-11
2.5245453e-12
1.7585558e-11
4.3488496e-12
2.212652e-11
5.9961471e-12
2.6129155e-11
6.7000722e-12
2.9528657e-11
7.1416185e-12
3.2321956e-11
7.2846256e-12
3.4505815e-11
7.0912121e-12
3.6089297e-11
6.7818777e-12
3.7055873e-11
6.3025129e-12
3.7546737e-11
5.6737566e-12
3.7672922e-11
5.0237215e-12
3.7475876e-11
4.3478848e-12
3.7076046e-11
3.6386077e-12
3.6561037e-11
2.9553617e-12
3.6019983e-11
2.29985e-12
3.5554637e-11
1.6402434e-12
3.518778e-11
9.9018993e-13
2.6909017e-13
-7.7180294e-12
3.5660637e-12
-1.1279382e-11
1.048931e-12
-1.4710087e-11
-9.0307103e-13
-1.7861422e-11
-1.4581444e-12
-1.9926769e-11
-1.3977234e-12
-2.0764545e-11
-6.1593596e-13
-2.0888965e-11
7.6539656e-13
-2.0638141e-11
2.2736537e-12
-2.0064832e-11
3.7754727e-12
-1.9185278e-11
5.1165241e-12
-1.8540565e-11
6.0552912e-12
-1.8063696e-11
6.6646822e-12
-1.7961267e-11
7.1821294e-12
-1.835721e-11
7.487089e-12
-1.9048402e-11
7.473003e-12
-2.0027471e-11
7.2815147e-12
-2.118759e-11
6.8338092e-12
-2.255555e-11
6.3916159e-12
-2.4012131e-11
5.8043991e-12
-2.5479793e-11
5.1062043e-12
-2.6816977e-11
4.2924808e-12
-2.793365e-11
3.4164588e-12
-2.8789052e-11
2.4955825e-12
-2.9277267e-11
1.478346e-12
5.3769725e-13
-4.174057e-12
5.8108178e-12
-7.1143599e-12
3.9891974e-12
-1.0287501e-11
2.2700236e-12
-1.2917201e-11
1.1715021e-12
-1.5072344e-11
7.5736157e-13
-1.6708572e-11
1.0202317e-12
-1.7695841e-11
1.7526021e-12
-1.8197235e-11
2.7749827e-12
-1.8327212e-11
3.9053835e-12
-1.8197688e-11
4.9869328e-12
-1.7984457e-11
5.8419942e-12
-1.7630708e-11
6.3108661e-12
-1.7300156e-11
6.851511e-12
-1.72203e-11
7.4071679e-12
-1.7381069e-11
7.6337088e-12
-1.7733926e-11
7.6343088e-12
-1.8339732e-11
7.4395532e-12
-1.8996037e-11
7.0478592e-12
-1.9676921e-11
6.4852222e-12
-2.0341672e-11
5.7708954e-12
-2.097313e-11
4.9238807e-12
-2.1514911e-11
3.9581813e-12
-2.1940016e-11
2.9206305e-12
-2.2250434e-11
1.7887122e-12
5.6217471e-13
3.3263167e-14
6.5311281e-12
-1.2632098e-12
5.2856503e-12
-2.8455446e-12
3.8523325e-12
-4.3254777e-12
2.6514044e-12
-5.5019177e-12
1.9337674e-12
-6.2340465e-12
1.7523236e-12
-6.5066486e-12
2.0251655e-12
-6.2836308e-12
2.551925e-12
-5.6479733e-12
3.2696856e-12
-4.7718105e-12
4.1107297e-12
-3.8325404e-12
4.9026843e-12
-3.0489874e-12
5.5272742e-12
-2.0918473e-12
5.8943331e-12
-1.039518e-12
6.3548023e-12
-1.7912416e-13
6.77328e-12
5.6842804e-13
6.8867229e-12
1.1960465e-12
6.8119022e-12
1.7100669e-12
6.5338072e-12
2.1127061e-12
6.0825522e-12
2.4014527e-12
5.4821188e-12
2.5895762e-12
4.7357282e-12
2.6911016e-12
3.8566272e-12
2.7501639e-12
2.8615397e-12
2.759105e-12
1.7797476e-12
6.2267338e-13
2.2863403e-12
6.42419e-12
2.1404752e-12
5.4315022e-12
1.7249122e-12
4.2678794e-12
1.2625055e-12
3.1137926e-12
9.6047855e-13
2.2357743e-12
9.5588165e-13
1.7568995e-12
1.3220772e-12
1.6589486e-12
2.0430534e-12
1.8309275e-12
3.1423545e-12
2.170364e-12
4.4805275e-12
2.7725371e-12
6.0310022e-12
3.3521912e-12
7.5596653e-12
3.9985942e-12
8.9534749e-12
4.5005082e-12
1.0398835e-11
4.9094283e-12
1.2012248e-11
5.1598546e-12
1.3550838e-11
5.3481222e-12
1.4891631e-11
5.4710993e-12
1.6116148e-11
5.3092812e-12
1.7209236e-11
4.9894567e-12
1.8156767e-11
4.5345809e-12
1.8956498e-11
3.93599e-12
1.9609423e-11
3.2036964e-12
2.0138806e-11
2.33215e-12
2.0442615e-11
1.4759361e-12
5.1487185e-13
2.9840099e-12
6.1133227e-12
3.2535643e-12
5.1619375e-12
3.314941e-12
4.206491e-12
3.3177369e-12
3.1109839e-12
3.3922143e-12
2.1612833e-12
3.6712305e-12
1.4778695e-12
4.2226108e-12
1.1075549e-12
4.99944e-12
1.0540857e-12
5.9884727e-12
1.1813196e-12
7.2825097e-12
1.4784895e-12
8.78319e-12
1.8515019e-12
1.0458624e-11
2.3231524e-12
1.2205099e-11
2.7540284e-12
1.3920928e-11
3.1935954e-12
1.5562999e-11
3.5177809e-12
1.716008e-11
3.7510403e-12
1.8803497e-11
3.8276821e-12
2.0359618e-11
3.7531621e-12
2.1755106e-11
3.5939707e-12
2.2945861e-11
3.343828e-12
2.3937459e-11
2.944396e-12
2.4724294e-11
2.4168646e-12
2.5265548e-11
1.7908988e-12
2.5640027e-11
1.1014637e-12
3.6024563e-13
2.930264e-12
5.6828755e-12
3.1464444e-12
4.9457482e-12
3.3212062e-12
4.0317186e-12
3.4156677e-12
3.0165107e-12
3.526429e-12
2.0505098e-12
3.7393913e-12
1.2648951e-12
4.1213237e-12
7.2561073e-13
4.7414602e-12
4.3393824e-13
5.545497e-12
3.7727287e-13
6.5426149e-12
4.8136294e-13
7.701459e-12
6.9265053e-13
9.0601411e-12
9.6446446e-13
1.058358e-11
1.2305858e-12
1.2192323e-11
1.5848494e-12
1.3779111e-11
1.9309919e-12
1.5359449e-11
2.1707028e-12
1.6878423e-11
2.3087101e-12
1.8284791e-11
2.346797e-12
1.9574386e-11
2.3043793e-12
2.0746849e-11
2.1713687e-12
2.1754489e-11
1.9367613e-12
2.2557987e-11
1.6133716e-12
2.3140107e-11
1.208783e-12
2.3486191e-11
7.5538728e-13
2.2173981e-13
2.5392903e-12
5.3084172e-12
2.7354409e-12
4.7495888e-12
2.8760391e-12
3.89111e-12
2.9215683e-12
2.97097e-12
2.9443095e-12
2.0277563e-12
3.0152573e-12
1.1939349e-12
3.2009355e-12
5.3992033e-13
3.542132e-12
9.2730205e-14
4.0693057e-12
-1.4991143e-13
4.7765216e-12
-2.258625e-13
5.6341831e-12
-1.6501927e-13
6.5993686e-12
-7.2795124e-16
7.6765312e-12
1.5341759e-13
8.9253528e-12
3.3602387e-13
1.0247576e-11
6.0876669e-13
1.1562383e-11
8.5589429e-13
1.2841247e-11
1.0298462e-12
1.4049535e-11
1.1385101e-12
1.5173982e-11
1.1799343e-12
1.6188027e-11
1.1573259e-12
1.7058156e-11
1.0666356e-12
1.7762737e-11
9.0879407e-13
1.8289249e-11
6.8227333e-13
1.8596997e-11
4.4764564e-13
1.5073339e-13
2.1875624e-12
4.9624132e-12
2.3991323e-12
4.5380103e-12
2.4642161e-12
3.8260159e-12
2.4654626e-12
2.9697118e-12
2.4169003e-12
2.0763063e-12
2.3784815e-12
1.232341e-12
2.4036584e-12
5.1473089e-13
2.5390501e-12
-4.2673682e-14
2.8143307e-12
-4.2520356e-13
3.222381e-12
-6.3392325e-13
3.786655e-12
-7.2930275e-13
4.5015502e-12
-7.1563125e-13
5.2720082e-12
-6.1704714e-13
6.1075547e-12
-4.9952808e-13
7.0379935e-12
-3.2167618e-13
8.0663143e-12
-1.724294e-13
9.0698703e-12
2.6288641e-14
1.0030831e-11
1.7754909e-13
1.0933384e-11
2.7738148e-13
1.1751436e-11
3.3927426e-13
1.2455901e-11
3.6217154e-13
1.3017705e-11
3.4699212e-13
1.3428263e-11
2.717161e-13
1.3691675e-11
1.8423807e-13
5.2249083e-14
1.9291995e-12
4.6208363e-12
2.1433787e-12
4.3238229e-12
2.2203238e-12
3.7490609e-12
2.2067779e-12
2.9832466e-12
2.1294647e-12
2.1536075e-12
2.0249603e-12
1.336833e-12
1.9518131e-12
5.8786552e-13
1.9427657e-12
-3.3638635e-14
2.0342934e-12
-5.1674301e-13
2.2525678e-12
-8.5220854e-13
2.5795428e-12
-1.0562877e-12
3.0079064e-12
-1.1440037e-12
3.5423591e-12
-1.1515073e-12
4.1439262e-12
-1.1011015e-12
4.8351975e-12
-1.0129525e-12
5.499936e-12
-8.3717164e-13
6.2430046e-12
-7.1678266e-13
6.9609835e-12
-5.4043159e-13
7.6567911e-12
-4.1842701e-13
8.2891767e-12
-2.9311165e-13
8.8373545e-12
-1.8600591e-13
9.3055045e-12
-1.211576e-13
9.6317867e-12
-5.4566007e-14
9.8456552e-12
-2.9626888e-14
-1.2001799e-14
1.7303277e-12
4.2827597e-12
1.9474139e-12
4.1067289e-12
2.0543293e-12
3.6421362e-12
2.0463341e-12
2.9912314e-12
1.9909982e-12
2.2089321e-12
1.8665648e-12
1.4612545e-12
1.7386077e-12
7.1581055e-13
1.6413143e-12
6.3642794e-14
1.6188654e-12
-4.9430569e-13
1.6804977e-12
-9.1385172e-13
1.8335706e-12
-1.2093706e-12
2.0620588e-12
-1.3725008e-12
2.3812289e-12
-1.4706853e-12
2.765482e-12
-1.4853613e-12
3.1898101e-12
-1.4372859e-12
3.7208254e-12
-1.3681912e-12
4.2331186e-12
-1.2290791e-12
4.7521146e-12
-1.0594297e-12
5.2648429e-12
-9.3115679e-13
5.7205531e-12
-7.4882258e-13
6.1274832e-12
-5.9293611e-13
6.4814551e-12
-4.7512965e-13
6.7050769e-12
-2.7818812e-13
6.857786e-12
-1.8233292e-13
-9.0174319e-14
1.5365123e-12
3.9718076e-12
1.7646056e-12
3.8786284e-12
1.8918252e-12
3.514908e-12
1.9140734e-12
2.9689735e-12
1.8398489e-12
2.2831461e-12
1.7451269e-12
1.5559655e-12
1.5926947e-12
8.6823143e-13
1.4528367e-12
2.0348955e-13
1.3395428e-12
-3.8102283e-13
1.2842118e-12
-8.5853133e-13
1.2936953e-12
-1.2188638e-12
1.3927486e-12
-1.471563e-12
1.5543314e-12
-1.6322759e-12
1.7719912e-12
-1.7030277e-12
2.0335492e-12
-1.6988495e-12
2.3092362e-12
-1.6438826e-12
2.630702e-12
-1.5505482e-12
2.9973542e-12
-1.4260845e-12
3.3353928e-12
-1.2691971e-12
3.6636809e-12
-1.0771117e-12
3.9582289e-12
-8.874844e-13
4.1733939e-12
-6.9029498e-13
4.4406887e-12
-5.454833e-13
4.6012034e-12
-3.4284479e-13
-1.3191308e-13
1.3445046e-12
3.6992843e-12
1.5677207e-12
3.6554059e-12
1.6935632e-12
3.3890579e-12
1.7297172e-12
2.9328109e-12
1.6649911e-12
2.3478627e-12
1.5627081e-12
1.6582383e-12
1.4144249e-12
1.0165042e-12
1.2357627e-12
3.8214112e-13
1.0668079e-12
-2.1207844e-13
9.270049e-13
-7.1873839e-13
8.3569618e-13
-1.1275646e-12
8.015302e-13
-1.4374057e-12
8.1823366e-13
-1.648987e-12
8.8855032e-13
-1.7733511e-12
1.0096873e-12
-1.8199921e-12
1.1638931e-12
-1.7980929e-12
1.337466e-12
-1.7241247e-12
1.5205451e-12
-1.6091662e-12
1.7133633e-12
-1.4620172e-12
1.9165559e-12
-1.2803054e-12
2.1076563e-12
-1.0785853e-12
2.2765859e-12
-8.5922497e-13
2.3888731e-12
-6.5777107e-13
2.4586205e-12
-4.1258968e-13
-1.2826879e-13
1.1612966e-12
3.4603358e-12
1.3548081e-12
3.4618889e-12
1.4718754e-12
3.2719839e-12
1.5043188e-12
2.9003599e-12
1.4637664e-12
2.3884066e-12
1.3306945e-12
1.7913011e-12
1.1760021e-12
1.171187e-12
9.8321132e-13
5.7492224e-13
7.6917144e-13
1.951775e-15
5.6395078e-13
-5.1352715e-13
3.8850498e-13
-9.5212775e-13
2.4822543e-13
-1.2971345e-12
1.5230257e-13
-1.5530717e-12
9.8603583e-14
-1.7196587e-12
8.6209305e-14
-1.8076034e-12
1.1188643e-13
-1.8237747e-12
1.6712803e-13
-1.7793699e-12
2.4226705e-13
-1.684308e-12
3.2441219e-13