/*--------------------------------*- C++ -*----------------------------------*\
| =========                 |                                                 |
| \\      /  F ield         | OpenFOAM: The Open Source CFD Toolbox           |
|  \\    /   O peration     | Version:  4.0                                   |
|   \\  /    A nd           | Web:      www.OpenFOAM.org                      |
|    \\/     M anipulation  |                                                 |
\*---------------------------------------------------------------------------*/
FoamFile
{
    version     2.0;
    format      ascii;
    class       volScalarField;
    location    "0.58";
    object      k;
}
// * * * * * * * * * * * * * * * * * * * * * * * * * * * * * * * * * * * * * //

dimensions      [0 2 -2 0 0 0 0];

internalField   nonuniform List<scalar> 
1740
(
0.0088851067
0.0093524418
0.018339375
0.0092227404
0.0098272239
0.02729424
0.0096286447
0.010422715
0.034817652
0.0098335857
0.010916975
0.041452778
0.009967439
0.011133185
0.047184262
0.010107034
0.011552299
0.052314682
0.010121917
0.011936671
0.056512232
0.010199277
0.012129638
0.059026519
0.010191644
0.012351706
0.062114901
0.010176031
0.012899206
0.064971487
0.010177175
0.013305089
0.066567354
0.010032918
0.013373287
0.067552767
0.0098863702
0.013194608
0.068801354
0.009769803
0.013403687
0.070108774
0.0096714046
0.01366739
0.070173717
0.0095918298
0.013586339
0.070932804
0.0094145803
0.013624828
0.071992529
0.0092956283
0.014109576
0.073209603
0.0092516443
0.015221917
0.073558594
0.0091504415
0.015073823
0.072771314
0.0090234641
0.014686224
0.072617548
0.0089027727
0.014624945
0.073132504
0.0088508652
0.014629651
0.07313941
0.0087280961
0.014515483
0.072962228
0.0085944621
0.014467951
0.073461475
0.0084917159
0.014676522
0.073816255
0.0084656266
0.015209513
0.073366646
0.0084375754
0.015515698
0.073036123
0.008469697
0.015566648
0.071927956
0.0090970188
0.01639456
0.066785058
0.012941127
0.018344557
0.047459736
0.024099648
0.031374013
0.040018268
0.010301348
0.012564736
0.013748646
0.0042602636
0.0045878671
0.0046526614
0.0020754697
0.0021173193
0.0020922478
0.0011442754
0.0011450906
0.0011268633
0.00069289668
0.00069032419
0.00068213579
0.00045116658
0.00044982325
0.00044705736
0.00031050202
0.00031016453
0.00030979632
0.00022255197
0.00022268859
0.00022322353
0.00016397255
0.00016427205
0.00016505131
0.00012279135
0.00012310895
0.0001238651
9.256761e-05
9.2846743e-05
9.3487131e-05
6.9696315e-05
6.9920817e-05
7.0426229e-05
5.2078164e-05
5.2248753e-05
5.2628881e-05
3.8430245e-05
3.855427e-05
3.8829077e-05
2.7913674e-05
2.8000387e-05
2.8191851e-05
1.9925481e-05
1.9983874e-05
2.0112481e-05
1.3985072e-05
1.4022957e-05
1.410624e-05
9.6795915e-06
9.7032904e-06
9.7553108e-06
6.645351e-06
6.659648e-06
6.6910179e-06
4.5689335e-06
4.5772945e-06
4.5956393e-06
3.1914525e-06
3.1962467e-06
3.2067506e-06
2.306147e-06
2.3088754e-06
2.3148424e-06
1.7557414e-06
1.7573151e-06
1.7607526e-06
1.4268017e-06
1.4277537e-06
1.4298317e-06
1.2405148e-06
1.2411424e-06
1.2425125e-06
1.143825e-06
1.1442865e-06
1.1452949e-06
1.1020101e-06
1.1023857e-06
1.1032071e-06
1.0929107e-06
1.0932387e-06
1.0939566e-06
1.1026904e-06
1.102988e-06
1.1036396e-06
1.1228531e-06
1.1231275e-06
1.1237284e-06
1.1482195e-06
1.1484736e-06
1.1490299e-06
1.17559e-06
1.175825e-06
1.1763394e-06
1.2028795e-06
1.2030963e-06
1.2035705e-06
1.2285616e-06
1.2287609e-06
1.2291968e-06
1.251308e-06
1.2514908e-06
1.2518904e-06
1.2697471e-06
1.2699145e-06
1.27028e-06
1.2822928e-06
1.2824457e-06
1.2827795e-06
1.2870161e-06
1.2871555e-06
1.2874598e-06
1.2815493e-06
1.2816763e-06
1.2819532e-06
1.2630258e-06
1.2631412e-06
1.2633925e-06
1.2280724e-06
1.2281768e-06
1.2284042e-06
1.1728908e-06
1.1729847e-06
1.1731892e-06
1.093462e-06
1.0935457e-06
1.0937279e-06
9.8594599e-07
9.860192e-07
9.8617867e-07
8.4728382e-07
8.4734582e-07
8.4748101e-07
6.7603037e-07
6.7607977e-07
6.7618781e-07
4.7358408e-07
4.7361903e-07
4.7369614e-07
2.4595078e-07
2.459693e-07
2.4601108e-07
0.056419841
0.061062742
0.046220842
0.046663695
0.012492437
0.011354687
0.0043549632
0.0041248501
0.0020014082
0.0019422537
0.0010969929
0.0010813479
0.00067287207
0.00067068601
0.00044517209
0.00044709389
0.00031048318
0.00031336874
0.00022464755
0.00022743561
0.00016652251
0.00016888895
0.00012514631
0.00012703934
9.4519916e-05
9.5980797e-05
7.1220271e-05
7.2316418e-05
5.3217405e-05
5.4018333e-05
3.9250886e-05
3.9819958e-05
2.848416e-05
2.8876316e-05
2.0308118e-05
2.0569549e-05
1.4232592e-05
1.440093e-05
9.8340666e-06
9.9387397e-06
6.7384471e-06
6.8013652e-06
4.6233438e-06
4.6600252e-06
3.2225831e-06
3.2434954e-06
2.3238174e-06
2.3356421e-06
1.7659141e-06
1.7726992e-06
1.4329484e-06
1.4370394e-06
1.244567e-06
1.2472634e-06
1.1468082e-06
1.1487964e-06
1.1044414e-06
1.1060657e-06
1.0950365e-06
1.0964593e-06
1.1046203e-06
1.1059133e-06
1.1246327e-06
1.1258249e-06
1.1498667e-06
1.1509695e-06
1.1771127e-06
1.1781309e-06
1.204283e-06
1.20522e-06
1.2298511e-06
1.2307106e-06
1.2524897e-06
1.2532758e-06
1.2708276e-06
1.2715449e-06
1.283279e-06
1.2839322e-06
1.2879147e-06
1.2885084e-06
1.2823666e-06
1.2829053e-06
1.2637674e-06
1.264255e-06
1.228743e-06
1.2291828e-06
1.1734937e-06
1.1738883e-06
1.093999e-06
1.0943499e-06
9.8641605e-07
9.8672331e-07
8.4768261e-07
8.4794447e-07
6.7635017e-07
6.7656519e-07
4.7381544e-07
4.7398959e-07
2.4608321e-07
2.4626501e-07
3.9430017e-06
2.7023884e-05
0.00013461093
0.00030537989
0.00046278587
0.00057385411
0.00064420804
0.00068784076
0.00071654959
0.00073748052
0.00075468575
0.0007712161
0.00078669171
0.00080088493
0.00081348854
0.00082395361
0.00083129593
0.00083384838
0.00082889046
0.00081213897
0.00077704347
0.00071393002
0.000609321
0.00044610775
0.00020346388
2.511879e-06
5.4783296e-05
0.00025124936
0.00051633161
0.00072842153
0.00086005138
0.00093606224
0.00098059827
0.001009113
0.0010296532
0.001046478
0.0010621412
0.0010764904
0.0010892686
0.0011000841
0.0011083147
0.0011128293
0.0011117131
0.0011017635
0.001077853
0.0010319807
0.00095188797
0.00081930583
0.00060864405
0.00028838
7.9268218e-06
0.00015997933
0.00061618286
0.0010802014
0.0013634016
0.0015062784
0.0015738109
0.0016054202
0.0016211003
0.0016293341
0.0016345108
0.0016375336
0.0016396434
0.0016401817
0.0016386609
0.0016346101
0.001626972
0.0016139526
0.0015921342
0.0015559155
0.0014962693
0.0013984787
0.0012378321
0.00097135055
0.00052322282
3.7519501e-05
0.00057911753
0.0016854855
0.0024364904
0.0027732633
0.00288722
0.0028967201
0.0028666775
0.0028267724
0.0027820058
0.0027374609
0.002695018
0.0026551756
0.0026147528
0.0025732315
0.002531027
0.0024876413
0.0024416511
0.0023903106
0.0023288434
0.0022493381
0.002138508
0.0019720195
0.0016968984
0.0011560439
0.00028096648
0.002446728
0.0049137163
0.0060341463
0.006380274
0.0063187345
0.0060897751
0.0058274834
0.0055783495
0.005327572
0.005087574
0.0048634854
0.0046602573
0.0044631248
0.0042717416
0.0040907674
0.003921114
0.0037621983
0.0036122189
0.0034676783
0.0033229152
0.0031696753
0.0029969333
0.0027963178
0.0025861702
0.0023614408
0.010537043
0.016585046
0.01853165
0.018068349
0.016509565
0.014693944
0.013005479
0.011523812
0.010247851
0.0091566633
0.0082275906
0.0074352437
0.0067558395
0.0061717069
0.0056695073
0.0052378665
0.0048664687
0.0045459183
0.0042673887
0.0040220324
0.0038008736
0.00359531
0.0034046363
0.0032442916
0.045135581
0.034195969
0.026643457
0.021442349
0.01776105
0.015044226
0.012954761
0.011303201
0.0099770421
0.0088985624
0.0080098168
0.0072673548
0.0066385225
0.0060990354
0.0056310132
0.0052219094
0.0048630205
0.0045478226
0.0042708354
0.0040268415
0.0038102664
0.0036151381
0.0034357317
0.0032734036
0.0031433312
0.037333331
0.031014857
0.027794129
0.025152676
0.022272437
0.019293118
0.016572978
0.01427378
0.012393094
0.010852635
0.009582623
0.0085262906
0.0076402243
0.0068946253
0.0062656804
0.0057338576
0.0052828062
0.0048988307
0.0045701998
0.0042863837
0.0040373082
0.0038131777
0.0036048268
0.0034114132
0.0032488127
0.010216989
0.0095435164
0.0092033692
0.0088828468
0.0084203551
0.0078558156
0.0072998964
0.0068041349
0.0063535578
0.0059559819
0.005608357
0.0053044753
0.0050190788
0.0047553448
0.0045146593
0.0042962436
0.0040980761
0.0039172134
0.0037497444
0.0035906186
0.0034330993
0.0032682246
0.003084513
0.0028734026
0.0026534848
0.0039664341
0.0038933394
0.0038708419
0.0038300568
0.0037358461
0.0036013041
0.0034622453
0.0033333879
0.0032173212
0.0031161625
0.0030289237
0.0029524686
0.0028812186
0.0028146087
0.0027524497
0.0026938958
0.00263727
0.0025799549
0.0025181557
0.0024463614
0.0023562503
0.0022344017
0.0020564605
0.001768721
0.0012087473
0.0019253562
0.0019388454
0.0019640506
0.0019790658
0.0019729129
0.0019491179
0.00191862
0.0018883664
0.0018614244
0.0018391018
0.0018211841
0.0018064132
0.0017931149
0.001780621
0.0017685504
0.0017556709
0.0017400864
0.001718987
0.0016882975
0.0016420415
0.0015711639
0.0014612807
0.0012881872
0.0010089471
0.00054610526
0.0010855242
0.0011040691
0.0011278898
0.0011482399
0.0011605469
0.001165568
0.0011668822
0.0011674758
0.0011690871
0.0011724571
0.0011775368
0.0011837469
0.0011902889
0.0011964648
0.0012014941
0.0012041417
0.0012025657
0.0011941215
0.0011750766
0.0011401458
0.0010817387
0.00098876599
0.00084489273
0.00062665065
0.00030318271
0.00067796287
0.00069237746
0.00070987152
0.00072660466
0.00074042957
0.00075129244
0.00076040978
0.00076908351
0.00077820148
0.00078818359
0.00079902507
0.00081040993
0.0008218348
0.00083268209
0.00084213231
0.0008490113
0.00085167537
0.00084787384
0.00083457503
0.00080773673
0.0007620206
0.00069048844
0.00058438533
0.00043287608
0.00021841637
0.00045381079
0.0004643439
0.00047684755
0.00048953339
0.00050132293
0.0005120125
0.00052199842
0.00053183396
0.00054194646
0.00055254859
0.00056362102
0.00057494489
0.00058613945
0.00059667387
0.00060581786
0.00061256685
0.00061556843
0.00061304887
0.0006027455
0.0005818687
0.00054716393
0.00049526387
0.00042387519
0.00033550828
0.00024906548
0.00031886695
0.00032654933
0.00033555706
0.00034502254
0.00035437177
0.0003634198
0.00037227687
0.00038116108
0.00039026094
0.00039966203
0.00040931886
0.00041905195
0.00042855064
0.00043736669
0.00044488453
0.00045028144
0.00045248993
0.00045017184
0.00044172044
0.0004253264
0.0003991883
0.00036204587
0.00031444422
0.00026164697
0.0002195088
0.00023175567
0.00023740957
0.00024398349
0.0002510387
0.00025826211
0.00026551422
0.00027280207
0.00028019881
0.00028777268
0.00029553782
0.00030342835
0.00031128558
0.00031884935
0.00032574732
0.00033147602
0.00033538051
0.00033663958
0.0003342663
0.00032713907
0.00031409019
0.00029409889
0.0002666694
0.00023253759
0.00019497544
0.00016047768
0.00017221705
0.0001764066
0.00018124984
0.00018651648
0.00019202759
0.00019768598
0.00020346531
0.00020937624
0.00021542821
0.00022159876
0.00022781345
0.00023393136
0.00023973531
0.00024492079
0.00024908474
0.00025171566
0.00025219046
0.0002497844
0.00024370288
0.00023314507
0.00021740423
0.00019597775
0.00016854392
0.00013424202
8.6915838e-05
0.00012956776
0.00013267661
0.00013625619
0.00014018098
0.00014434532
0.00014868136
0.0001531559
0.00015775425
0.00016245965
0.00016723407
0.00017200371
0.00017664674
0.00018098434
0.00018477216
0.00018769321
0.00018935347
0.00018928299
0.000186946
0.00018176248
0.00017314034
0.0001605039
0.00014326762
0.00012061404
9.0747641e-05
4.9056771e-05
9.7875513e-05
0.00010017176
0.00010280871
0.00010571466
0.00010882549
0.00011209377
0.00011548835
0.00011898622
0.00012256119
0.00012617188
0.00012975126
0.0001331974
0.00013636639
0.00013906598
0.00014105108
0.00014202165
0.00014162475
0.00013946161
0.00013509973
0.00012808566
0.0001179455
0.00010414254
8.593748e-05
6.210254e-05
3.0696003e-05
7.3713619e-05
7.5391655e-05
7.7315195e-05
7.9441669e-05
8.1730721e-05
8.4149105e-05
8.6670755e-05
8.9272103e-05
9.1926052e-05
9.4594176e-05
9.7219389e-05
9.9719485e-05
0.00010198169
0.00010385813
0.00010516268
0.00010566991
0.00010511666
0.00010320658
9.9616517e-05
9.4002408e-05
8.5998155e-05
7.5199325e-05
6.113114e-05
4.3258694e-05
2.1289817e-05
5.5028507e-05
5.6234657e-05
5.7615244e-05
5.9144435e-05
6.0796018e-05
6.2546561e-05
6.4375359e-05
6.6261892e-05
6.8182045e-05
7.0103219e-05
7.1979456e-05
7.3746878e-05
7.5319658e-05
7.6586807e-05
7.7410019e-05
7.7622915e-05
7.7031993e-05
7.5419465e-05
7.2547513e-05
6.8163169e-05
6.2003201e-05
5.3801521e-05
4.3314428e-05
3.0429194e-05
1.5464604e-05
4.0532915e-05
4.1380831e-05
4.2350144e-05
4.342458e-05
4.4587109e-05
4.5821113e-05
4.7110866e-05
4.8439828e-05
4.978835e-05
5.113065e-05
5.2431427e-05
5.3642901e-05
5.4701873e-05
5.5527426e-05
5.6019392e-05
5.6057702e-05
5.5502941e-05
5.4198281e-05
5.1972888e-05
4.8647359e-05
4.4042819e-05
3.7998693e-05
3.0412164e-05
2.1337295e-05
1.124439e-05
2.9365405e-05
2.9945393e-05
3.0607561e-05
3.1341427e-05
3.2135743e-05
3.297903e-05
3.3859652e-05
3.4765036e-05
3.568017e-05
3.6585689e-05
3.7455751e-05
3.8255933e-05
3.8941315e-05
3.9454782e-05
3.97259e-05
3.9670372e-05
3.9190313e-05
3.8175658e-05
3.6507081e-05
3.4061386e-05
3.0721261e-05
2.6393151e-05
2.1039867e-05
1.4743197e-05
7.8670458e-06
2.0894507e-05
2.1278937e-05
2.1717169e-05
2.2202386e-05
2.2727144e-05
2.3283553e-05
2.3863396e-05
2.4457508e-05
2.5054975e-05
2.564194e-05
2.6200254e-05
2.6706085e-05
2.712862e-05
2.742888e-05
2.7558904e-05
2.7461273e-05
2.7069224e-05
2.6307679e-05
2.5095626e-05
2.3350724e-05
2.0997509e-05
1.7981166e-05
1.4288976e-05
9.9826693e-06
5.2972729e-06
1.4609583e-05
1.4855859e-05
1.5136073e-05
1.5445788e-05
1.578009e-05
1.613367e-05
1.6500836e-05
1.6875234e-05
1.7249249e-05
1.7613365e-05
1.7955314e-05
1.8259192e-05
1.8504577e-05
1.8665736e-05
1.8711022e-05
1.8602475e-05
1.8295868e-05
1.7741408e-05
1.6885533e-05
1.5674426e-05
1.4060029e-05
1.2009363e-05
9.5174903e-06
6.6245116e-06
3.4868951e-06
1.0068146e-05
1.0220524e-05
1.0393498e-05
1.05842e-05
1.0789419e-05
1.1005645e-05
1.1229051e-05
1.1455339e-05
1.1679421e-05
1.1894989e-05
1.2094014e-05
1.2266199e-05
1.2398412e-05
1.2474146e-05
1.2473082e-05
1.2370777e-05
1.213868e-05
1.1744545e-05
1.1153726e-05
1.0331663e-05
9.2479554e-06
7.8823001e-06
6.232193e-06
4.3226806e-06
2.2427635e-06
6.8789692e-06
6.9701291e-06
7.0733345e-06
7.1867607e-06
7.3083346e-06
7.4357784e-06
7.5665815e-06
7.6979149e-06
7.8264567e-06
7.9481348e-06
8.0578351e-06
8.1490324e-06
8.2134474e-06
8.2406899e-06
8.2179482e-06
8.1297811e-06
7.958093e-06
7.6823389e-06
7.280407e-06
6.730331e-06
6.0129632e-06
5.1157051e-06
4.0372809e-06
2.7939296e-06
1.4443948e-06
4.7051609e-06
4.7580324e-06
4.8176947e-06
4.8830038e-06
4.9526506e-06
5.0251844e-06
5.0989983e-06
5.1722775e-06
5.242903e-06
5.3083e-06
5.3652595e-06
5.4097219e-06
5.4365329e-06
5.4391785e-06
5.4095286e-06
5.3377264e-06
5.2123756e-06
5.0205064e-06
4.7480254e-06
4.3809594e-06
3.9072104e-06
3.3189338e-06
2.6156608e-06
1.8084363e-06
9.3316563e-07
3.269154e-06
3.2991021e-06
3.3327533e-06
3.3693963e-06
3.4082152e-06
3.4482974e-06
3.4886262e-06
3.5280499e-06
3.5652243e-06
3.5985264e-06
3.6259386e-06
3.6449185e-06
3.6522401e-06
3.6438158e-06
3.6145121e-06
3.5579782e-06
3.4665924e-06
3.3319958e-06
3.1451132e-06
2.896918e-06
2.5796314e-06
2.1882913e-06
1.7228802e-06
1.1911716e-06
6.161833e-07
2.3501052e-06
2.36692e-06
2.3857219e-06
2.4060697e-06
2.4274535e-06
2.4492974e-06
2.4709526e-06
2.4916777e-06
2.5106021e-06
2.5266703e-06
2.5385701e-06
2.5446422e-06
2.5427793e-06
2.530312e-06
2.5038968e-06
2.4593698e-06
2.3915532e-06
2.2945949e-06
2.1623797e-06
1.9888376e-06
1.768758e-06
1.4988765e-06
1.1793739e-06
8.1575522e-07
4.216936e-07
1.7809743e-06
1.7905601e-06
1.8012286e-06
1.8127031e-06
1.8246603e-06
1.8367295e-06
1.8484856e-06
1.8594342e-06
1.8689849e-06
1.8764128e-06
1.8808074e-06
1.8810087e-06
1.8755317e-06
1.8624837e-06
1.8394804e-06
1.803569e-06
1.7511576e-06
1.6779252e-06
1.5793837e-06
1.4511428e-06
1.2894575e-06
1.0920259e-06
8.5910864e-07
5.9478965e-07
3.0838805e-07
1.4420193e-06
1.4477739e-06
1.4541575e-06
1.4609914e-06
1.468063e-06
1.4751229e-06
1.4818777e-06
1.4879761e-06
1.4929878e-06
1.4963731e-06
1.4974427e-06
1.4953072e-06
1.4888183e-06
1.4765028e-06
1.4564971e-06
1.4264885e-06
1.3836896e-06
1.3247773e-06
1.2461649e-06
1.1443789e-06
1.016472e-06
8.6065679e-07
6.7721053e-07
4.6940779e-07
2.4414086e-07
1.2505449e-06
1.2543358e-06
1.2585387e-06
1.2630316e-06
1.2676662e-06
1.2722629e-06
1.2766027e-06
1.2804145e-06
1.283356e-06
1.2849868e-06
1.2847337e-06
1.2818475e-06
1.2753525e-06
1.2639911e-06
1.2461681e-06
1.2199034e-06
1.1828105e-06
1.132105e-06
1.0647077e-06
9.7762907e-07
8.6833155e-07
7.3527781e-07
5.7871597e-07
4.0144042e-07
2.0910381e-07
1.1512196e-06
1.1540242e-06
1.1571401e-06
1.1604778e-06
1.1639251e-06
1.1673412e-06
1.1705483e-06
1.1733185e-06
1.1753554e-06
1.176269e-06
1.1755434e-06
1.172497e-06
1.166236e-06
1.1556048e-06
1.1391357e-06
1.1150078e-06
1.0810284e-06
1.0346656e-06
9.7310923e-07
8.9360832e-07
7.9381591e-07
6.7229628e-07
5.2927015e-07
3.6743468e-07
1.924739e-07
1.1080495e-06
1.1103517e-06
1.1129176e-06
1.1156756e-06
1.1185333e-06
1.1213711e-06
1.1240331e-06
1.1263137e-06
1.1279392e-06
1.1285432e-06
1.127635e-06
1.1245612e-06
1.1184616e-06
1.1082209e-06
1.0924218e-06
1.0693076e-06
1.0367659e-06
9.9236455e-07
9.3341792e-07
8.572747e-07
7.6165727e-07
6.4514934e-07
5.0792332e-07
3.5255821e-07
1.8451368e-07
1.0982001e-06
1.1002245e-06
1.1024863e-06
1.1049237e-06
1.1074551e-06
1.1099723e-06
1.1123305e-06
1.114335e-06
1.1157225e-06
1.1161357e-06
1.1150925e-06
1.1119474e-06
1.1058477e-06
1.0956861e-06
1.0800551e-06
1.0572108e-06
1.0250588e-06
9.8119076e-07
9.2295993e-07
8.4773864e-07
7.5325524e-07
6.3807565e-07
5.0233598e-07
3.4859993e-07
1.823446e-07
1.1074964e-06
1.1093393e-06
1.1114002e-06
1.113623e-06
1.1159318e-06
1.1182243e-06
1.1203615e-06
1.1221536e-06
1.1233408e-06
1.123568e-06
1.122353e-06
1.1190478e-06
1.112794e-06
1.102476e-06
1.0866747e-06
1.0636324e-06
1.0312399e-06
9.8707398e-07
9.2848025e-07
8.5281432e-07
7.5777812e-07
6.419019e-07
5.0529251e-07
3.5055262e-07
1.8333077e-07
1.1272846e-06
1.1289835e-06
1.1308827e-06
1.132929e-06
1.1350498e-06
1.137146e-06
1.1390814e-06
1.1406679e-06
1.1416463e-06
1.1416597e-06
1.1402217e-06
1.1366765e-06
1.130154e-06
1.1195217e-06
1.1033385e-06
1.0798197e-06
1.0468251e-06
1.0018973e-06
9.4235039e-07
8.6550343e-07
7.6901751e-07
6.5138381e-07
5.1270193e-07
3.5573389e-07
1.8685175e-07
1.1523187e-06
1.1538873e-06
1.1556382e-06
1.15752e-06
1.1594622e-06
1.1613673e-06
1.1631004e-06
1.1644737e-06
1.1652267e-06
1.1649991e-06
1.1632982e-06
1.159458e-06
1.1525937e-06
1.1415522e-06
1.1248659e-06
1.1007172e-06
1.0669272e-06
1.0209958e-06
9.6019511e-07
8.8179919e-07
7.8342405e-07
6.6352257e-07
5.2218062e-07
3.6222924e-07
1.9092525e-07
1.1793751e-06
1.1808194e-06
1.1824276e-06
1.1841496e-06
1.1859162e-06
1.187631e-06
1.1891595e-06
1.1903134e-06
1.19083e-06
1.1903448e-06
1.1883579e-06
1.1841922e-06
1.1769469e-06
1.1654474e-06
1.1481977e-06
1.1233454e-06
1.0886711e-06
1.0416293e-06
9.7944683e-07
8.9935156e-07
7.9891537e-07
6.7655308e-07
5.3231239e-07
3.689537e-07
1.9379092e-07
1.2063633e-06
1.2076876e-06
1.2091576e-06
1.2107242e-06
1.2123191e-06
1.2138465e-06
1.2151719e-06
1.2161059e-06
1.2163835e-06
1.2156355e-06
1.2133543e-06
1.2088517e-06
1.2012108e-06
1.1892354e-06
1.171402e-06
1.1458239e-06
1.1102421e-06
1.062067e-06
9.9848207e-07
9.1667222e-07
8.1417097e-07
6.8936023e-07
5.422343e-07
3.7536467e-07
1.951271e-07
1.2317574e-06
1.2329669e-06
1.2343044e-06
1.2357218e-06
1.2371512e-06
1.2384973e-06
1.2396253e-06
1.2403447e-06
1.2403875e-06
1.2393801e-06
1.2368073e-06
1.2319698e-06
1.2239355e-06
1.2114878e-06
1.1930772e-06
1.1667855e-06
1.1303174e-06
1.0810438e-06
1.0161098e-06
9.3266472e-07
8.2821408e-07
7.011239e-07
5.513781e-07
3.8152659e-07
1.9802115e-07
1.2542313e-06
1.2553321e-06
1.2565442e-06
1.2578201e-06
1.2590924e-06
1.260266e-06
1.2612056e-06
1.2617195e-06
1.2615369e-06
1.2602795e-06
1.2574251e-06
1.2522642e-06
1.2438505e-06
1.2309493e-06
1.2119882e-06
1.1850216e-06
1.1477237e-06
1.0974331e-06
1.0312649e-06
9.4634345e-07
8.4015877e-07
7.1107581e-07
5.5909126e-07
3.8680761e-07
2.0089135e-07
1.2724148e-06
1.2734138e-06
1.2745084e-06
1.2756516e-06
1.2767765e-06
1.277788e-06
1.2785503e-06
1.2788703e-06
1.2784748e-06
1.2769811e-06
1.2738606e-06
1.2683948e-06
1.2596257e-06
1.2463031e-06
1.2268362e-06
1.1992586e-06
1.1612216e-06
1.1100421e-06
1.0428174e-06
9.566606e-07
8.4906065e-07
7.1839158e-07
5.6465265e-07
3.9042908e-07
2.0255893e-07
1.2847225e-06
1.2856267e-06
1.286612e-06
1.2876318e-06
1.2886195e-06
1.2894801e-06
1.2900773e-06
1.2902169e-06
1.2896232e-06
1.2879102e-06
1.284544e-06
1.278799e-06
1.2697082e-06
1.2560106e-06
1.2361032e-06
1.2080068e-06
1.1693616e-06
1.1174762e-06
1.0494467e-06
9.6239335e-07
8.538224e-07
7.2213371e-07
5.673508e-07
3.9209207e-07
2.0333755e-07
1.2892249e-06
1.2900415e-06
1.2909256e-06
1.2918312e-06
1.2926921e-06
1.2934134e-06
1.2938585e-06
1.2938322e-06
1.2930575e-06
1.2911458e-06
1.2875599e-06
1.2815699e-06
1.2722038e-06
1.258196e-06
1.2379394e-06
1.2094535e-06
1.1703819e-06
1.1180435e-06
1.0495547e-06
9.620668e-07
8.5312681e-07
7.2117935e-07
5.6627703e-07
3.9103918e-07
2.0253561e-07
1.2835535e-06
1.284289e-06
1.2850798e-06
1.2858802e-06
1.2866246e-06
1.2872182e-06
1.2875248e-06
1.287349e-06
1.2864134e-06
1.2843285e-06
1.2805566e-06
1.2743675e-06
1.26479e-06
1.2505617e-06
1.2300827e-06
1.201386e-06
1.1621379e-06
1.1096908e-06
1.0412089e-06
9.5390513e-07
8.4539714e-07
7.141999e-07
5.6040733e-07
3.8660448e-07
1.9985426e-07
1.2648399e-06
1.2655004e-06
1.2662051e-06
1.2669089e-06
1.2675468e-06
1.268025e-06
1.2682079e-06
1.2679013e-06
1.266829e-06
1.2646036e-06
1.2606905e-06
1.2543649e-06
1.2446642e-06
1.2303399e-06
1.2098138e-06
1.1811514e-06
1.1420664e-06
1.0899734e-06
1.0221189e-06
9.3581481e-07
8.2878377e-07
6.9963829e-07
5.4852839e-07
3.7801269e-07
1.9511358e-07
1.2297088e-06
1.2302998e-06
1.2309251e-06
1.2315404e-06
1.2320819e-06
1.2324572e-06
1.232533e-06
1.2321178e-06
1.2309393e-06
1.2286163e-06
1.2246225e-06
1.2182461e-06
1.2085439e-06
1.1942953e-06
1.1739623e-06
1.1456672e-06
1.1071997e-06
1.0560741e-06
9.8966098e-07
9.0541281e-07
8.0119747e-07
6.7575423e-07
5.2930428e-07
3.6441739e-07
1.881987e-07
1.1743589e-06
1.174885e-06
1.1754367e-06
1.175971e-06
1.176426e-06
1.1767121e-06
1.1766996e-06
1.1762028e-06
1.1749571e-06
1.1725923e-06
1.1685987e-06
1.1622876e-06
1.1527488e-06
1.1388079e-06
1.1189907e-06
1.0915055e-06
1.0542548e-06
1.004896e-06
9.4096969e-07
8.6011674e-07
7.6039374e-07
6.4069678e-07
5.0131696e-07
3.447221e-07
1.7703338e-07
1.0947675e-06
1.0952319e-06
1.0957147e-06
1.0961747e-06
1.0965531e-06
1.0967643e-06
1.0966855e-06
1.0961397e-06
1.0948757e-06
1.0925416e-06
1.088654e-06
1.0825613e-06
1.0734043e-06
1.0600773e-06
1.0411991e-06
1.0150996e-06
9.7983697e-07
9.332588e-07
8.7312735e-07
7.9732235e-07
7.0413305e-07
5.9264221e-07
4.6322154e-07
3.1822514e-07
1.6330696e-07
9.8708846e-07
9.8749316e-07
9.8791012e-07
9.8830162e-07
9.8861307e-07
9.8876492e-07
9.8864422e-07
9.8808829e-07
9.8686574e-07
9.8465233e-07
9.8100359e-07
9.7532301e-07
9.6682485e-07
9.5450043e-07
9.3709579e-07
9.1310386e-07
8.8078552e-07
8.3823083e-07
7.8347672e-07
7.146916e-07
6.3043569e-07
5.2999903e-07
4.1383405e-07
2.8415462e-07
1.4596788e-07
8.4825728e-07
8.4860419e-07
8.4895806e-07
8.4928686e-07
8.4954277e-07
8.4965281e-07
8.4951916e-07
8.4899712e-07
8.4788605e-07
8.4590019e-07
8.4264869e-07
8.3761137e-07
8.3010314e-07
8.1924521e-07
8.0395428e-07
7.8293167e-07
7.5469148e-07
7.176188e-07
6.700757e-07
6.1056371e-07
5.379422e-07
4.5171428e-07
3.5238866e-07
2.4195472e-07
1.2454586e-07
6.7683218e-07
6.771255e-07
6.7742285e-07
6.7769895e-07
6.7791749e-07
6.7801257e-07
6.7790792e-07
6.7746405e-07
6.7654178e-07
6.7490367e-07
6.7222689e-07
6.6808982e-07
6.6193556e-07
6.5305127e-07
6.405863e-07
6.234969e-07
6.006011e-07
5.7063171e-07
5.3230455e-07
4.8449302e-07
4.2637003e-07
3.5763768e-07
2.7881417e-07
1.9158006e-07
9.907375e-08
4.7427556e-07
4.7446845e-07
4.7471136e-07
4.749463e-07
4.7515091e-07
4.7527333e-07
4.7525638e-07
4.7487241e-07
4.7420352e-07
4.7303309e-07
4.7111173e-07
4.6813374e-07
4.6368944e-07
4.5726555e-07
4.4833792e-07
4.3615872e-07
4.1990932e-07
3.9874527e-07
3.716529e-07
3.3793575e-07
2.9708641e-07
2.4896945e-07
1.940453e-07
1.3365457e-07
7.0383676e-08
2.4711873e-07
2.4690482e-07
2.4701603e-07
2.4718125e-07
2.47351e-07
2.4749843e-07
2.4753619e-07
2.4693744e-07
2.465158e-07
2.4589927e-07
2.448849e-07
2.4329479e-07
2.4088499e-07
2.3737191e-07
2.3260769e-07
2.2616795e-07
2.1771513e-07
2.0695934e-07
1.9284638e-07
1.7522742e-07
1.5392698e-07
1.2891803e-07
1.0050861e-07
6.9594886e-08
3.7942374e-08
)
;

boundaryField
{
    Walls
    {
        type            kqRWallFunction;
        value           nonuniform List<scalar> 
38
(
3.9430017e-06
2.511879e-06
7.9268218e-06
3.7519501e-05
0.00028096648
0.0023614408
0.056419841
0.061062742
0.018339375
0.02729424
0.034817652
0.041452778
0.047184262
0.052314682
0.056512232
0.059026519
0.062114901
0.064971487
0.066567354
0.067552767
0.068801354
0.070108774
0.070173717
0.070932804
0.071992529
0.073209603
0.073558594
0.072771314
0.072617548
0.073132504
0.07313941
0.072962228
0.073461475
0.073816255
0.073366646
0.073036123
0.071927956
0.066785058
)
;
    }
    Inlet
    {
        type            turbulentIntensityKineticEnergyInlet;
        intensity       0.05;
        value           nonuniform List<scalar> 3(0.0092990428 0.0093845116 0.0096288035);
    }
    Outlet
    {
        type            inletOutlet;
        inletValue      uniform 0;
        value           nonuniform List<scalar> 
86
(
2.4595078e-07
2.459693e-07
2.4601108e-07
2.4608321e-07
2.4626501e-07
2.4711873e-07
2.4690482e-07
2.4701603e-07
2.4718125e-07
2.47351e-07
2.4749843e-07
2.4753619e-07
2.4693744e-07
2.465158e-07
2.4589927e-07
2.448849e-07
2.4329479e-07
2.4088499e-07
2.3737191e-07
2.3260769e-07
2.2616795e-07
2.1771513e-07
2.0695934e-07
1.9284638e-07
1.7522742e-07
1.5392698e-07
1.2891803e-07
1.0050861e-07
6.9594886e-08
3.7942374e-08
0.0031433312
0.0032488127
0.0026534848
0
0
0
0
0.00024906548
0.0002195088
0.00016047768
8.6915838e-05
4.9056771e-05
3.0696003e-05
2.1289817e-05
1.5464604e-05
1.124439e-05
7.8670458e-06
5.2972729e-06
3.4868951e-06
2.2427635e-06
1.4443948e-06
9.3316563e-07
6.161833e-07
4.216936e-07
3.0838805e-07
2.4414086e-07
2.0910381e-07
1.924739e-07
1.8451368e-07
1.823446e-07
1.8333077e-07
1.8685175e-07
1.9092525e-07
1.9379092e-07
1.951271e-07
1.9802115e-07
2.0089135e-07
2.0255893e-07
2.0333755e-07
2.0253561e-07
1.9985426e-07
1.9511358e-07
1.881987e-07
1.7703338e-07
1.6330696e-07
1.4596788e-07
1.2454586e-07
9.907375e-08
7.0383676e-08
3.7942374e-08
0
0
0
0
0.0025861702
0.0032442916
)
;
    }
    Front
    {
        type            wedge;
    }
    Back
    {
        type            wedge;
    }
    defaultFaces
    {
        type            empty;
    }
}


// ************************************************************************* //
