/*--------------------------------*- C++ -*----------------------------------*\
| =========                 |                                                 |
| \\      /  F ield         | OpenFOAM: The Open Source CFD Toolbox           |
|  \\    /   O peration     | Version:  4.0                                   |
|   \\  /    A nd           | Web:      www.OpenFOAM.org                      |
|    \\/     M anipulation  |                                                 |
\*---------------------------------------------------------------------------*/
FoamFile
{
    version     2.0;
    format      ascii;
    class       volScalarField;
    location    "0.58";
    object      nut;
}
// * * * * * * * * * * * * * * * * * * * * * * * * * * * * * * * * * * * * * //

dimensions      [0 2 -1 0 0 0 0];

internalField   nonuniform List<scalar> 
1740
(
6.7615396e-05
1.5376005e-05
1.2292126e-06
2.0385818e-05
7.7075904e-06
1.8160743e-06
1.1417108e-05
5.6086178e-06
2.3028213e-06
1.7107215e-05
4.7709158e-06
2.7273417e-06
1.9943154e-05
4.3782694e-06
3.0908945e-06
1.4188403e-05
4.0833251e-06
3.4132239e-06
1.3562117e-05
3.878637e-06
3.6747048e-06
1.1561252e-05
3.7386527e-06
3.8305553e-06
1.0347914e-05
3.6389479e-06
4.0219439e-06
9.4183548e-06
3.5895972e-06
4.197782e-06
8.5016176e-06
3.5618996e-06
4.2951137e-06
7.9452158e-06
3.5254855e-06
4.3557069e-06
7.4443047e-06
3.4843967e-06
4.432698e-06
6.9395477e-06
3.4803295e-06
4.5125001e-06
6.5142481e-06
3.4848859e-06
4.5163503e-06
6.1698745e-06
3.4703117e-06
4.5615915e-06
5.9068976e-06
3.46819e-06
4.6263248e-06
5.6282486e-06
3.5032636e-06
4.7009334e-06
5.3547975e-06
3.5879937e-06
4.7214964e-06
5.1613851e-06
3.5736025e-06
4.6740761e-06
5.0063152e-06
3.5403837e-06
4.6640825e-06
4.8590603e-06
3.5327947e-06
4.6954384e-06
4.7108568e-06
3.5343821e-06
4.6967147e-06
4.6084964e-06
3.5314797e-06
4.6851501e-06
4.5229635e-06
3.5354053e-06
4.7153066e-06
4.4221471e-06
3.5538812e-06
4.7371052e-06
4.3194464e-06
3.5943025e-06
4.7100286e-06
4.2289492e-06
3.615925e-06
4.6907627e-06
4.1791497e-06
3.6232284e-06
4.6227163e-06
2.838286e-06
3.6722478e-06
4.3086006e-06
1.8820154e-06
2.1590935e-06
4.4181912e-06
7.1974097e-06
7.3768183e-06
6.7153605e-06
6.5416578e-06
6.745759e-06
6.3750267e-06
5.1769495e-06
5.1123317e-06
4.8675932e-06
4.3417695e-06
4.2690801e-06
4.1341339e-06
3.802831e-06
3.7598451e-06
3.6995373e-06
3.4385077e-06
3.4210735e-06
3.4060271e-06
3.1776871e-06
3.1760803e-06
3.1857644e-06
2.9726072e-06
2.9792625e-06
3.0007997e-06
2.7891373e-06
2.7993228e-06
2.8251483e-06
2.6028697e-06
2.6139151e-06
2.6398416e-06
2.3976692e-06
2.4081721e-06
2.4320251e-06
2.1652182e-06
2.1745106e-06
2.1952828e-06
1.9050068e-06
1.9128268e-06
1.9301658e-06
1.6241045e-06
1.6304085e-06
1.6443271e-06
1.3359604e-06
1.3408309e-06
1.3515623e-06
1.0576678e-06
1.0612666e-06
1.0691874e-06
8.058759e-07
8.0841225e-07
8.1399091e-07
5.9269012e-07
5.9439232e-07
5.9813564e-07
4.233397e-07
4.2442787e-07
4.2682277e-07
2.9644911e-07
2.9711307e-07
2.9857875e-07
2.0631405e-07
2.0670768e-07
2.0757648e-07
1.4537593e-07
1.4560581e-07
1.4611089e-07
1.0577409e-07
1.0590697e-07
1.0619825e-07
8.0996476e-08
8.1074396e-08
8.124509e-08
6.6163947e-08
6.6211914e-08
6.6317089e-08
5.7807825e-08
5.7839901e-08
5.7910483e-08
5.3558306e-08
5.3582002e-08
5.3634516e-08
5.1847507e-08
5.186665e-08
5.1909502e-08
5.1664698e-08
5.1681176e-08
5.1718449e-08
5.237183e-08
5.2386568e-08
5.2420173e-08
5.3573249e-08
5.3586708e-08
5.3617522e-08
5.5027767e-08
5.5040179e-08
5.5068612e-08
5.6590852e-08
5.6602341e-08
5.6628605e-08
5.8177208e-08
5.8187848e-08
5.8212086e-08
5.973691e-08
5.9746756e-08
5.9769095e-08
6.1240548e-08
6.1249652e-08
6.1270227e-08
6.2670303e-08
6.267872e-08
6.2697672e-08
6.4014841e-08
6.4022627e-08
6.4040105e-08
6.526657e-08
6.5273785e-08
6.528994e-08
6.6420325e-08
6.6427031e-08
6.6442014e-08
6.7472869e-08
6.7479132e-08
6.7493095e-08
6.8423028e-08
6.8428926e-08
6.8442033e-08
6.9271179e-08
6.9276824e-08
6.9289253e-08
6.9987413e-08
6.99928e-08
7.0004623e-08
7.0566293e-08
7.0571453e-08
7.0582763e-08
7.0996369e-08
7.100134e-08
7.1012232e-08
7.1254466e-08
7.1259285e-08
7.1269842e-08
7.1290592e-08
7.1295287e-08
7.1305574e-08
7.0951372e-08
7.0955949e-08
7.096598e-08
4.1847903e-06
4.510935e-06
6.6375366e-06
8.3565078e-06
5.9914668e-06
6.0336074e-06
4.7254315e-06
4.8306894e-06
4.0865004e-06
4.1948886e-06
3.7016175e-06
3.8027858e-06
3.4351397e-06
3.5287099e-06
3.2280067e-06
3.3137717e-06
3.0475596e-06
3.125178e-06
2.8713017e-06
2.9404836e-06
2.6825177e-06
2.7431004e-06
2.4697658e-06
2.5217849e-06
2.2274931e-06
2.2711833e-06
1.9567682e-06
1.9925411e-06
1.6655627e-06
1.6939887e-06
1.3678872e-06
1.3896886e-06
1.0812182e-06
1.0972651e-06
8.2245724e-07
8.3374159e-07
6.0381447e-07
6.113798e-07
4.304566e-07
4.3529656e-07
3.0080517e-07
3.0377057e-07
2.0889486e-07
2.1064831e-07
1.4687498e-07
1.4788878e-07
1.0663803e-07
1.072205e-07
8.1502654e-08
8.1843551e-08
6.6475955e-08
6.6686462e-08
5.8017465e-08
5.8159723e-08
5.3714606e-08
5.3821707e-08
5.197537e-08
5.2064013e-08
5.1776168e-08
5.185427e-08
5.2472491e-08
5.2543534e-08
5.3665618e-08
5.3731022e-08
5.511299e-08
5.5173321e-08
5.6669526e-08
5.6725072e-08
5.8249745e-08
5.8300757e-08
5.9803698e-08
5.9850457e-08
6.1301998e-08
6.1344829e-08
6.2726855e-08
6.2766111e-08
6.4066951e-08
6.4102993e-08
6.5314701e-08
6.5347888e-08
6.6464936e-08
6.6495612e-08
6.7514417e-08
6.754291e-08
6.8461995e-08
6.8488618e-08
6.9308077e-08
6.9333102e-08
7.0022484e-08
7.0046183e-08
7.0599828e-08
7.0622446e-08
7.1028656e-08
7.1050411e-08
7.1285759e-08
7.1306844e-08
7.132109e-08
7.1341684e-08
7.098115e-08
7.1001608e-08
3.2699835e-10
1.3227825e-08
1.9328412e-07
8.2728582e-07
1.6447906e-06
2.2315464e-06
2.5765809e-06
2.7849274e-06
2.9289413e-06
3.0442446e-06
3.1479851e-06
3.2542156e-06
3.359643e-06
3.4632214e-06
3.5641739e-06
3.6611521e-06
3.7517005e-06
3.8316816e-06
3.8943916e-06
3.9292447e-06
3.9196278e-06
3.8393102e-06
3.6458355e-06
3.2625567e-06
2.4530573e-06
2.0831411e-10
2.6894048e-08
3.6012373e-07
1.3780034e-06
2.5716503e-06
3.3804486e-06
3.8538178e-06
4.1605722e-06
4.395255e-06
4.6006433e-06
4.7973471e-06
4.9978602e-06
5.1998951e-06
5.4024827e-06
5.6039634e-06
5.801597e-06
5.9906413e-06
6.1633206e-06
6.3069124e-06
6.4011045e-06
6.4135337e-06
6.2917944e-06
5.9480517e-06
5.2214255e-06
3.6832351e-06
6.5738135e-10
7.8781818e-08
8.5735797e-07
2.5076945e-06
3.7939296e-06
4.5310307e-06
4.9950646e-06
5.3409957e-06
5.6414402e-06
5.9288225e-06
6.2184713e-06
6.5171383e-06
6.8233608e-06
7.1360042e-06
7.4536505e-06
7.7732348e-06
8.0885359e-06
8.3895916e-06
8.6587212e-06
8.8671796e-06
8.968279e-06
8.8843339e-06
8.4798026e-06
7.4960982e-06
5.289502e-06
3.1114501e-09
2.8498876e-07
2.0613821e-06
4.0018922e-06
5.0427917e-06
5.630955e-06
6.0382375e-06
6.3813101e-06
6.7103075e-06
7.0438501e-06
7.3927491e-06
7.7600317e-06
8.1422288e-06
8.5380678e-06
8.9474203e-06
9.3689284e-06
9.7976188e-06
1.0223968e-05
1.0631307e-05
1.0991709e-05
1.1258903e-05
1.1354364e-05
1.1134282e-05
1.0289441e-05
7.8898164e-06
2.3294436e-08
1.1374056e-06
3.9862542e-06
5.5941781e-06
6.4458007e-06
6.9670264e-06
7.3509731e-06
7.6978916e-06
8.0480925e-06
8.4033388e-06
8.7773347e-06
9.17672e-06
9.5909827e-06
1.0015741e-05
1.045369e-05
1.0909464e-05
1.1382375e-05
1.1867822e-05
1.2355889e-05
1.2828332e-05
1.3254007e-05
1.3582669e-05
1.3737591e-05
1.3622911e-05
1.3210328e-05
1.9536589e-07
2.752416e-06
5.8977732e-06
7.7009023e-06
8.6162236e-06
9.0342533e-06
9.2312284e-06
9.3685203e-06
9.507633e-06
9.6669288e-06
9.854429e-06
1.0076401e-05
1.0333295e-05
1.0625204e-05
1.0953232e-05
1.1318366e-05
1.1720767e-05
1.2158497e-05
1.2626552e-05
1.3115113e-05
1.3606491e-05
1.4071816e-05
1.4467916e-05
1.4746116e-05
1.4849064e-05
4.3513601e-06
4.3231553e-06
4.3662816e-06
4.4749654e-06
4.6481948e-06
4.8768184e-06
5.1511655e-06
5.467514e-06
5.826467e-06
6.2289023e-06
6.6743534e-06
7.1603147e-06
7.6814643e-06
8.2306609e-06
8.8008025e-06
9.3867072e-06
9.9856179e-06
1.059605e-05
1.1216081e-05
1.1841151e-05
1.2461023e-05
1.3056647e-05
1.3597378e-05
1.4046497e-05
1.4336492e-05
9.1152156e-06
9.3716511e-06
9.7709634e-06
1.0188471e-05
1.0364019e-05
1.0327423e-05
1.0210171e-05
1.011317e-05
1.0076619e-05
1.0102109e-05
1.0185512e-05
1.0322194e-05
1.0510073e-05
1.0748769e-05
1.1038056e-05
1.137729e-05
1.1764512e-05
1.2195827e-05
1.2664221e-05
1.3157471e-05
1.3655026e-05
1.4124852e-05
1.4520634e-05
1.4792327e-05
1.4886177e-05
6.4066523e-06
6.8164802e-06
7.2480155e-06
7.6480577e-06
7.95018e-06
8.1677872e-06
8.360869e-06
8.5690731e-06
8.8006209e-06
9.0702964e-06
9.3745902e-06
9.7043266e-06
1.0054736e-05
1.0432045e-05
1.0840098e-05
1.1279488e-05
1.17473e-05
1.2236263e-05
1.2732861e-05
1.3214328e-05
1.3644078e-05
1.3965822e-05
1.4097091e-05
1.3939105e-05
1.3470902e-05
5.1435554e-06
5.5004433e-06
5.8512935e-06
6.1685228e-06
6.4354586e-06
6.6647248e-06
6.8864523e-06
7.1209878e-06
7.3794412e-06
7.6683831e-06
7.9857497e-06
8.328839e-06
8.6975229e-06
9.0929139e-06
9.514554e-06
9.9587788e-06
1.0417446e-05
1.0876244e-05
1.1312102e-05
1.1689038e-05
1.1951216e-05
1.2009732e-05
1.1710833e-05
1.0734995e-05
8.1265598e-06
4.4381585e-06
4.7284434e-06
5.0197981e-06
5.2918313e-06
5.5387096e-06
5.7685129e-06
5.9956527e-06
6.2328841e-06
6.4887498e-06
6.7673967e-06
7.0685123e-06
7.3908958e-06
7.7342119e-06
8.0974293e-06
8.4776532e-06
8.86791e-06
9.2560639e-06
9.6229206e-06
9.9395058e-06
1.0162949e-05
1.022991e-05
1.0045031e-05
9.4574579e-06
8.2013205e-06
5.6401891e-06
3.9916001e-06
4.2223003e-06
4.4618028e-06
4.6944446e-06
4.9165128e-06
5.1327323e-06
5.3511914e-06
5.5796337e-06
5.8237603e-06
6.0864154e-06
6.3678175e-06
6.667083e-06
6.98294e-06
7.3126529e-06
7.6508383e-06
7.9883755e-06
8.3110292e-06
8.5978244e-06
8.8189491e-06
8.932892e-06
8.8823337e-06
8.5875594e-06
7.9334003e-06
6.7314295e-06
4.4971186e-06
3.6805419e-06
3.8662504e-06
4.0646553e-06
4.264197e-06
4.4615615e-06
4.6589455e-06
4.8609604e-06
5.0724118e-06
5.2969947e-06
5.5366697e-06
5.7916526e-06
6.0609802e-06
6.3426739e-06
6.6330198e-06
6.9256315e-06
7.2105723e-06
7.4733991e-06
7.6940457e-06
7.8455883e-06
7.8928853e-06
7.7910297e-06
7.4830959e-06
6.8942897e-06
5.9050331e-06
4.1411643e-06
3.4396813e-06
3.5924639e-06
3.7589979e-06
3.9311195e-06
4.1058606e-06
4.2839134e-06
4.4677831e-06
4.6603438e-06
4.8638662e-06
5.0795118e-06
5.3071795e-06
5.545609e-06
5.7922801e-06
6.0429192e-06
6.2908338e-06
6.5262734e-06
6.7357968e-06
6.9016884e-06
7.0015361e-06
7.0081685e-06
6.8903223e-06
6.6148629e-06
6.1532439e-06
5.5047282e-06
4.8008125e-06
3.2316992e-06
3.3596675e-06
3.5010201e-06
3.6501161e-06
3.8044079e-06
3.9637695e-06
4.1294189e-06
4.3029295e-06
4.4855518e-06
4.6777681e-06
4.8790852e-06
5.0879255e-06
5.3014363e-06
5.5151318e-06
5.7224427e-06
5.9143004e-06
6.078799e-06
6.2010301e-06
6.2632267e-06
6.2454921e-06
6.1276368e-06
5.8933415e-06
5.5401736e-06
5.1065168e-06
4.7389685e-06
3.0314108e-06
3.1397295e-06
3.2604103e-06
3.3895656e-06
3.5251024e-06
3.6664768e-06
3.8141037e-06
3.9687057e-06
4.130809e-06
4.3003747e-06
4.4765629e-06
4.6575658e-06
4.8404043e-06
5.0206638e-06
5.1922023e-06
5.3469204e-06
5.4746347e-06
5.5631597e-06
5.5987119e-06
5.5668389e-06
5.454205e-06
5.251883e-06
4.9618335e-06
4.6115087e-06
4.2707984e-06
2.820659e-06
2.9125208e-06
3.0154698e-06
3.1267937e-06
3.2447909e-06
3.3687424e-06
3.49858e-06
3.6344752e-06
3.7764621e-06
3.924137e-06
4.0764406e-06
4.2314707e-06
4.3863114e-06
4.5368393e-06
4.6775501e-06
4.8014464e-06
4.9000396e-06
4.9635244e-06
4.9811896e-06
4.9421168e-06
4.836128e-06
4.6545648e-06
4.389083e-06
4.0206337e-06
3.4284036e-06
2.5873675e-06
2.6647946e-06
2.7519447e-06
2.8468922e-06
2.948265e-06
3.055296e-06
3.1676506e-06
3.2851607e-06
3.4075542e-06
3.5342149e-06
3.6639921e-06
3.7950333e-06
3.9246418e-06
4.0491448e-06
4.1637945e-06
4.2627283e-06
4.3390208e-06
4.3848541e-06
4.3918072e-06
4.3511988e-06
4.2542023e-06
4.0908199e-06
3.8448041e-06
3.4739865e-06
2.8079665e-06
2.3257978e-06
2.3901907e-06
2.4629243e-06
2.5426083e-06
2.628148e-06
2.7188069e-06
2.8141256e-06
2.9137526e-06
3.017254e-06
3.123929e-06
3.2326515e-06
3.3417327e-06
3.4488108e-06
3.5507618e-06
3.6436463e-06
3.7227041e-06
3.7824127e-06
3.8166089e-06
3.8186375e-06
3.7814091e-06
3.6970448e-06
3.5552563e-06
3.3381104e-06
3.0030514e-06
2.3976116e-06
2.0370608e-06
2.0895452e-06
2.1490042e-06
2.214428e-06
2.2849534e-06
2.359923e-06
2.43885e-06
2.5213091e-06
2.6068139e-06
2.6946761e-06
2.7838803e-06
2.8729811e-06
2.9600201e-06
3.0424665e-06
3.1171875e-06
3.1804562e-06
3.227996e-06
3.255047e-06
3.2564031e-06
3.2263108e-06
3.1579697e-06
3.0420559e-06
2.8628195e-06
2.5870314e-06
2.1117426e-06
1.7292918e-06
1.7709327e-06
1.8182241e-06
1.870442e-06
1.9269176e-06
1.9870963e-06
2.0505233e-06
2.11678e-06
2.1854001e-06
2.2557714e-06
2.3270455e-06
2.3980615e-06
2.4672861e-06
2.532775e-06
2.5921581e-06
2.6426476e-06
2.6810607e-06
2.7038419e-06
2.7070337e-06
2.6861138e-06
2.6355323e-06
2.5476219e-06
2.4101159e-06
2.1999893e-06
1.8559112e-06
1.4167418e-06
1.4486766e-06
1.4850187e-06
1.5252536e-06
1.5688844e-06
1.6154635e-06
1.6646035e-06
1.7159358e-06
1.7690584e-06
1.8234725e-06
1.8785166e-06
1.9333183e-06
1.9867514e-06
2.0374114e-06
2.0836077e-06
2.123367e-06
2.1544411e-06
2.1743001e-06
2.180074e-06
2.1683895e-06
2.135009e-06
2.0741144e-06
1.9768484e-06
1.8279286e-06
1.5931727e-06
1.1171721e-06
1.1406887e-06
1.1674921e-06
1.1972232e-06
1.2295227e-06
1.264052e-06
1.3005008e-06
1.3385714e-06
1.3779453e-06
1.4182441e-06
1.4589892e-06
1.4995681e-06
1.5392103e-06
1.5769695e-06
1.6117192e-06
1.642152e-06
1.6667772e-06
1.6839038e-06
1.6915807e-06
1.6874628e-06
1.6685587e-06
1.6307866e-06
1.5681216e-06
1.4705146e-06
1.3162379e-06
8.4773824e-07
8.642815e-07
8.8315541e-07
9.0411463e-07
9.269073e-07
9.5128666e-07
9.7702223e-07
1.003888e-06
1.0316483e-06
1.0600355e-06
1.0887264e-06
1.1173226e-06
1.1453352e-06
1.172174e-06
1.1971431e-06
1.2194361e-06
1.2381312e-06
1.2521752e-06
1.2603395e-06
1.2611279e-06
1.2526139e-06
1.2321752e-06
1.1959771e-06
1.137513e-06
1.0417758e-06
6.2076137e-07
6.3185198e-07
6.4451003e-07
6.5857152e-07
6.7386445e-07
6.902168e-07
7.0746346e-07
7.254448e-07
7.4399613e-07
7.6293933e-07
7.8207062e-07
8.0115017e-07
8.1989285e-07
8.3796069e-07
8.5495681e-07
8.7041739e-07
8.8380696e-07
8.9451057e-07
9.01812e-07
9.0483989e-07
9.0247161e-07
8.9317699e-07
8.7470268e-07
8.4306919e-07
7.8853824e-07
4.4129635e-07
4.4838834e-07
4.5648146e-07
4.6546854e-07
4.7523501e-07
4.8566493e-07
4.9664529e-07
5.0806708e-07
5.1982238e-07
5.3179931e-07
5.4387745e-07
5.5592383e-07
5.6778774e-07
5.7929451e-07
5.9023646e-07
6.0036194e-07
6.0937048e-07
6.1691432e-07
6.2259847e-07
6.2595606e-07
6.2639265e-07
6.2309253e-07
6.1482302e-07
5.9929587e-07
5.703381e-07
3.0744496e-07
3.1178667e-07
3.1673842e-07
3.2223199e-07
3.2819312e-07
3.3454615e-07
3.4121682e-07
3.4813394e-07
3.5522933e-07
3.6243636e-07
3.6968933e-07
3.7692117e-07
3.8406208e-07
3.9103386e-07
3.9773938e-07
4.0404844e-07
4.0978731e-07
4.1475165e-07
4.1872559e-07
4.2147446e-07
4.227092e-07
4.2202656e-07
4.1878661e-07
4.1173081e-07
3.9746561e-07
2.1281741e-07
2.1537564e-07
2.1828743e-07
2.2151051e-07
2.2499869e-07
2.2870488e-07
2.3258305e-07
2.365897e-07
2.4068474e-07
2.4483157e-07
2.4899781e-07
2.5315588e-07
2.5728216e-07
2.6135212e-07
2.6532852e-07
2.6914267e-07
2.7267788e-07
2.7579685e-07
2.7837593e-07
2.803039e-07
2.8145198e-07
2.8163299e-07
2.8052706e-07
2.7746967e-07
2.7067302e-07
1.4913989e-07
1.5061115e-07
1.5228056e-07
1.5412199e-07
1.5610697e-07
1.5820632e-07
1.6039162e-07
1.6263635e-07
1.6491673e-07
1.6721243e-07
1.6950725e-07
1.7179057e-07
1.740592e-07
1.7632042e-07
1.7859383e-07
1.8087725e-07
1.8305522e-07
1.8499021e-07
1.8660432e-07
1.8785188e-07
1.886831e-07
1.8901529e-07
1.8869016e-07
1.8736673e-07
1.8416135e-07
1.0793789e-07
1.0877956e-07
1.0973202e-07
1.1077939e-07
1.1190434e-07
1.1308906e-07
1.1431621e-07
1.1556977e-07
1.1683573e-07
1.181026e-07
1.1936218e-07
1.2061035e-07
1.2184849e-07
1.2308542e-07
1.2434039e-07
1.2564412e-07
1.2699295e-07
1.2821877e-07
1.292354e-07
1.300276e-07
1.3058133e-07
1.3086088e-07
1.3078498e-07
1.3017363e-07
1.2857739e-07
8.2263076e-08
8.275482e-08
8.3310659e-08
8.3921048e-08
8.4575512e-08
8.526328e-08
8.5973869e-08
8.6697653e-08
8.7426333e-08
8.8153377e-08
8.8874505e-08
8.9588253e-08
9.0296779e-08
9.1007122e-08
9.1733171e-08
9.2498528e-08
9.3336743e-08
9.41526e-08
9.4827095e-08
9.5353e-08
9.5729638e-08
9.5941451e-08
9.5944314e-08
9.5635617e-08
9.4747342e-08
6.6945852e-08
6.7250351e-08
6.7595122e-08
6.7974433e-08
6.8381943e-08
6.8811088e-08
6.9255457e-08
6.9709146e-08
7.0167086e-08
7.062534e-08
7.1081419e-08
7.1534661e-08
7.1986807e-08
7.244286e-08
7.2912551e-08
7.3412657e-08
7.3970982e-08
7.4562654e-08
7.5053898e-08
7.543892e-08
7.5720873e-08
7.5892367e-08
7.5927746e-08
7.5765535e-08
7.5237246e-08
5.8335711e-08
5.854325e-08
5.8779462e-08
5.9040855e-08
5.9323501e-08
5.9623274e-08
5.9936079e-08
6.0258083e-08
6.0585928e-08
6.091693e-08
6.1249289e-08
6.158238e-08
6.1917201e-08
6.2257087e-08
6.2608835e-08
6.298437e-08
6.3403532e-08
6.3877406e-08
6.4274669e-08
6.4590044e-08
6.4826903e-08
6.4980484e-08
6.5033341e-08
6.494348e-08
6.4587092e-08
5.3955e-08
5.4113264e-08
5.4294751e-08
5.4497245e-08
5.4718175e-08
5.4954765e-08
5.5204181e-08
5.546368e-08
5.573075e-08
5.6003256e-08
5.6279598e-08
5.6558963e-08
5.6841705e-08
5.7129982e-08
5.7428721e-08
5.774704e-08
5.8100147e-08
5.8509239e-08
5.8857323e-08
5.9138392e-08
5.9354498e-08
5.9500926e-08
5.9562962e-08
5.9506516e-08
5.9229634e-08
5.2175036e-08
5.2307782e-08
5.2461133e-08
5.2633566e-08
5.2823238e-08
5.3028085e-08
5.3245929e-08
5.3474577e-08
5.371193e-08
5.3956095e-08
5.4205533e-08
5.4459267e-08
5.4717233e-08
5.4980831e-08
5.5253798e-08
5.5543514e-08
5.5862912e-08
5.6232064e-08
5.6551546e-08
5.6813562e-08
5.7018568e-08
5.7160881e-08
5.7225923e-08
5.7182041e-08
5.6937545e-08
5.1952587e-08
5.2070782e-08
5.2208068e-08
5.236328e-08
5.2534951e-08
5.2721384e-08
5.2920745e-08
5.3131138e-08
5.3350703e-08
5.3577712e-08
5.3810699e-08
5.4048651e-08
5.4291301e-08
5.4539604e-08
5.4796504e-08
5.506812e-08
5.536555e-08
5.5706645e-08
5.6005571e-08
5.6253882e-08
5.6450417e-08
5.658818e-08
5.6651655e-08
5.6608828e-08
5.6369145e-08
5.2633245e-08
5.274144e-08
5.28675e-08
5.3010443e-08
5.3168997e-08
5.3341679e-08
5.3526865e-08
5.3722871e-08
5.3928034e-08
5.414081e-08
5.435988e-08
5.458431e-08
5.4813795e-08
5.5049053e-08
5.5292479e-08
5.5549194e-08
5.5828682e-08
5.6146519e-08
5.6427734e-08
5.6663702e-08
5.6851771e-08
5.6983601e-08
5.7042435e-08
5.6995059e-08
5.6749807e-08
5.3813707e-08
5.3913549e-08
5.4030005e-08
5.4162196e-08
5.4308979e-08
5.4469024e-08
5.4640887e-08
5.482308e-08
5.5014158e-08
5.5212796e-08
5.5417883e-08
5.562865e-08
5.5844853e-08
5.60671e-08
5.6297386e-08
5.654e-08
5.6802977e-08
5.7099684e-08
5.7364276e-08
5.7588111e-08
5.7767169e-08
5.789184e-08
5.7944098e-08
5.7889331e-08
5.7635031e-08
5.5249565e-08
5.5341601e-08
5.5448924e-08
5.5570727e-08
5.5705979e-08
5.5853494e-08
5.6012006e-08
5.618024e-08
5.6356984e-08
5.6541162e-08
5.6731908e-08
5.6928653e-08
5.7131274e-08
5.7340331e-08
5.7557515e-08
5.7786404e-08
5.8033724e-08
5.8310757e-08
5.8559534e-08
5.8771385e-08
5.894108e-08
5.9057819e-08
5.9102276e-08
5.9037856e-08
5.8769018e-08
5.6795174e-08
5.6879686e-08
5.697813e-08
5.7089767e-08
5.7213673e-08
5.7348811e-08
5.7494101e-08
5.7648484e-08
5.7810992e-08
5.7980805e-08
5.8157307e-08
5.8340145e-08
5.852933e-08
5.8725414e-08
5.8929841e-08
5.9145574e-08
5.9378166e-08
5.9636986e-08
5.9870886e-08
6.0071146e-08
6.023145e-08
6.0339905e-08
6.0375878e-08
6.0300372e-08
6.0010664e-08
5.8365011e-08
5.8442335e-08
5.8532273e-08
5.8634155e-08
5.8747168e-08
5.8870424e-08
5.9003024e-08
5.9144126e-08
5.9292997e-08
5.9449064e-08
5.9611948e-08
5.9781504e-08
5.9957876e-08
6.0141624e-08
6.033399e-08
6.05374e-08
6.0756372e-08
6.0998557e-08
6.1218668e-08
6.1407924e-08
6.155905e-08
6.1659171e-08
6.1686461e-08
6.1599757e-08
6.1286477e-08
5.990923e-08
5.997982e-08
6.0061797e-08
6.0154558e-08
6.02574e-08
6.0369577e-08
6.0490364e-08
6.0619119e-08
6.0755327e-08
6.089864e-08
6.1048898e-08
6.1206142e-08
6.137064e-08
6.1542965e-08
6.1724186e-08
6.1916271e-08
6.2122834e-08
6.2350009e-08
6.2557457e-08
6.2736368e-08
6.2878632e-08
6.2970498e-08
6.2989122e-08
6.2891828e-08
6.2562483e-08
6.1398554e-08
6.1462958e-08
6.1537639e-08
6.1622063e-08
6.1715625e-08
6.1817712e-08
6.1927759e-08
6.2045301e-08
6.217002e-08
6.2301766e-08
6.2440568e-08
6.2586632e-08
6.2740337e-08
6.2902268e-08
6.3073351e-08
6.3255158e-08
6.345052e-08
6.3664257e-08
6.3860093e-08
6.4029278e-08
6.4162984e-08
6.424667e-08
6.4256488e-08
6.4148129e-08
6.3801678e-08
6.2815257e-08
6.2874071e-08
6.294218e-08
6.3019111e-08
6.3104353e-08
6.3197411e-08
6.3297858e-08
6.3405387e-08
6.3519846e-08
6.3641258e-08
6.3769815e-08
6.3905864e-08
6.4049877e-08
6.4202453e-08
6.4364395e-08
6.4536936e-08
6.4722234e-08
6.4923964e-08
6.5109065e-08
6.526902e-08
6.5394399e-08
6.5469949e-08
6.5470849e-08
6.5351047e-08
6.4986234e-08
6.4148041e-08
6.4201868e-08
6.4264132e-08
6.4334418e-08
6.4412295e-08
6.4497371e-08
6.458934e-08
6.4688027e-08
6.4793424e-08
6.4905696e-08
6.5025174e-08
6.5152323e-08
6.5287698e-08
6.5431911e-08
6.558566e-08
6.5749889e-08
6.5926165e-08
6.6117048e-08
6.6292022e-08
6.6443058e-08
6.6560232e-08
6.662768e-08
6.661973e-08
6.6488873e-08
6.6107036e-08
6.5389305e-08
6.5438732e-08
6.5495851e-08
6.5560299e-08
6.5631717e-08
6.5709798e-08
6.5794339e-08
6.5885278e-08
6.5982723e-08
6.608696e-08
6.6198436e-08
6.6317719e-08
6.6445441e-08
6.6582233e-08
6.6728706e-08
6.6885588e-08
6.7053999e-08
6.7234498e-08
6.7399518e-08
6.7541697e-08
6.7650655e-08
6.771e-08
6.7693352e-08
6.7551844e-08
6.7153226e-08
6.6533846e-08
6.6579421e-08
6.6632045e-08
6.66914e-08
6.6757186e-08
6.682917e-08
6.6907234e-08
6.6991409e-08
6.7081901e-08
6.7179095e-08
6.7283543e-08
6.7395917e-08
6.7516936e-08
6.7647249e-08
6.7787388e-08
6.7938086e-08
6.8101327e-08
6.8269285e-08
6.8423822e-08
6.8556916e-08
6.8657504e-08
6.8708701e-08
6.868365e-08
6.8532723e-08
6.812124e-08
6.7578375e-08
6.76206e-08
6.7669316e-08
6.7724241e-08
6.7785127e-08
6.7851803e-08
6.7924221e-08
6.8002491e-08
6.8086905e-08
6.8177943e-08
6.8276268e-08
6.8382684e-08
6.8498012e-08
6.8622869e-08
6.875755e-08
6.8902549e-08
6.9059444e-08
6.9214301e-08
6.935792e-08
6.9481622e-08
6.9573598e-08
6.9616523e-08
6.958335e-08
6.9425096e-08
6.9015765e-08
6.8521701e-08
6.8561032e-08
6.8606358e-08
6.8657429e-08
6.8714042e-08
6.8776082e-08
6.8843568e-08
6.8916685e-08
6.8995815e-08
6.9081553e-08
6.9174705e-08
6.9276236e-08
6.9387057e-08
6.9507639e-08
6.9637627e-08
6.9775743e-08
6.9919506e-08
7.0061877e-08
7.0194843e-08
7.0309089e-08
7.0392234e-08
7.0426624e-08
7.0385062e-08
7.0218772e-08
6.9804853e-08
6.936412e-08
6.9400904e-08
6.944321e-08
6.9490815e-08
6.954355e-08
6.9601345e-08
6.9664263e-08
6.9732537e-08
6.9806577e-08
6.9886982e-08
6.9974511e-08
7.0070025e-08
7.0174309e-08
7.0287739e-08
7.0409878e-08
7.0539159e-08
7.06725e-08
7.0804425e-08
7.0927587e-08
7.1032559e-08
7.1106726e-08
7.1132274e-08
7.1081895e-08
7.0906474e-08
7.0477842e-08
7.0075507e-08
7.0110226e-08
7.0150106e-08
7.0194943e-08
7.0244593e-08
7.0299016e-08
7.0358312e-08
7.0422744e-08
7.0492747e-08
7.0568922e-08
7.0651986e-08
7.0742699e-08
7.0841693e-08
7.0949198e-08
7.1064674e-08
7.1186449e-08
7.1311373e-08
7.1434428e-08
7.1548613e-08
7.1644579e-08
7.1709696e-08
7.1726158e-08
7.1666705e-08
7.1482182e-08
7.1043392e-08
7.0650403e-08
7.0683469e-08
7.0721419e-08
7.076406e-08
7.0811267e-08
7.086302e-08
7.091944e-08
7.0980809e-08
7.1047576e-08
7.1120334e-08
7.1199771e-08
7.1286572e-08
7.1381252e-08
7.1483904e-08
7.159387e-08
7.1709384e-08
7.1827237e-08
7.1942531e-08
7.2048425e-08
7.2135687e-08
7.2191787e-08
7.2199074e-08
7.2130538e-08
7.193745e-08
7.1490953e-08
7.1077288e-08
7.1109058e-08
7.1145493e-08
7.1186414e-08
7.123171e-08
7.1281365e-08
7.1335517e-08
7.139445e-08
7.1458619e-08
7.1528605e-08
7.1605065e-08
7.1688638e-08
7.1779763e-08
7.1878445e-08
7.1983946e-08
7.2094371e-08
7.2206307e-08
7.2314793e-08
7.2413062e-08
7.2492024e-08
7.2539338e-08
7.2537638e-08
7.2460396e-08
7.2259739e-08
7.1808003e-08
7.1332903e-08
7.1363686e-08
7.1398963e-08
7.1438568e-08
7.14824e-08
7.1530442e-08
7.1582842e-08
7.1639838e-08
7.1701928e-08
7.1769666e-08
7.1843678e-08
7.1924576e-08
7.201278e-08
7.2108303e-08
7.2210498e-08
7.2317371e-08
7.2424801e-08
7.2527598e-08
7.2619068e-08
7.2690365e-08
7.2729446e-08
7.2719369e-08
7.2634343e-08
7.2427981e-08
7.1976043e-08
7.1367283e-08
7.1397278e-08
7.1431696e-08
7.1470324e-08
7.1513084e-08
7.1559958e-08
7.1611084e-08
7.1666393e-08
7.172677e-08
7.1792657e-08
7.1864616e-08
7.1943249e-08
7.2029009e-08
7.2122149e-08
7.2222798e-08
7.2329566e-08
7.2435055e-08
7.2533964e-08
7.2619815e-08
7.2684445e-08
7.2716318e-08
7.2699072e-08
7.2607968e-08
7.2399457e-08
7.1964072e-08
7.1029159e-08
7.1057631e-08
7.109122e-08
7.1129066e-08
7.1171029e-08
7.1217118e-08
7.1267219e-08
7.131959e-08
7.1378097e-08
7.1442205e-08
7.1512179e-08
7.1588563e-08
7.1671854e-08
7.1763048e-08
7.1866028e-08
7.1989367e-08
7.2100331e-08
7.2199353e-08
7.2281325e-08
7.2340676e-08
7.2366957e-08
7.2344608e-08
7.2250459e-08
7.2046567e-08
7.1651549e-08
)
;

boundaryField
{
    Walls
    {
        type            nutUWallFunction;
        Cmu             0.09;
        kappa           0.41;
        E               9.8;
        value           uniform 0;
    }
    Inlet
    {
        type            calculated;
        value           nonuniform List<scalar> 3(6.2722434e-05 5.1130095e-05 7.8205309e-07);
    }
    Outlet
    {
        type            calculated;
        value           nonuniform List<scalar> 
86
(
7.0951372e-08
7.0955949e-08
7.096598e-08
7.098115e-08
7.1001608e-08
7.1029159e-08
7.1057631e-08
7.109122e-08
7.1129066e-08
7.1171029e-08
7.1217118e-08
7.1267219e-08
7.131959e-08
7.1378097e-08
7.1442205e-08
7.1512179e-08
7.1588563e-08
7.1671854e-08
7.1763048e-08
7.1866028e-08
7.1989367e-08
7.2100331e-08
7.2199353e-08
7.2281325e-08
7.2340676e-08
7.2366957e-08
7.2344608e-08
7.2250459e-08
7.2046567e-08
7.1651549e-08
1.4336492e-05
1.4886177e-05
1.3470902e-05
0
0
0
0
4.8008125e-06
4.7389685e-06
4.2707984e-06
3.4284036e-06
2.8079665e-06
2.3976116e-06
2.1117426e-06
1.8559112e-06
1.5931727e-06
1.3162379e-06
1.0417758e-06
7.8853824e-07
5.703381e-07
3.9746561e-07
2.7067302e-07
1.8416135e-07
1.2857739e-07
9.4747342e-08
7.5237246e-08
6.4587092e-08
5.9229634e-08
5.6937545e-08
5.6369145e-08
5.6749807e-08
5.7635031e-08
5.8769018e-08
6.0010664e-08
6.1286477e-08
6.2562483e-08
6.3801678e-08
6.4986234e-08
6.6107036e-08
6.7153226e-08
6.812124e-08
6.9015765e-08
6.9804853e-08
7.0477842e-08
7.1043392e-08
7.1490953e-08
7.1808003e-08
7.1976043e-08
7.1964072e-08
7.1651549e-08
0
0
0
0
1.3210328e-05
1.4849064e-05
)
;
    }
    Front
    {
        type            wedge;
    }
    Back
    {
        type            wedge;
    }
    defaultFaces
    {
        type            empty;
    }
}


// ************************************************************************* //
