/*--------------------------------*- C++ -*----------------------------------*\
| =========                 |                                                 |
| \\      /  F ield         | OpenFOAM: The Open Source CFD Toolbox           |
|  \\    /   O peration     | Version:  4.0                                   |
|   \\  /    A nd           | Web:      www.OpenFOAM.org                      |
|    \\/     M anipulation  |                                                 |
\*---------------------------------------------------------------------------*/
FoamFile
{
    version     2.0;
    format      ascii;
    class       surfaceScalarField;
    location    "0.58";
    object      phi;
}
// * * * * * * * * * * * * * * * * * * * * * * * * * * * * * * * * * * * * * //

dimensions      [0 3 -1 0 0 0 0];

internalField   nonuniform List<scalar> 
3364
(
1.4588704e-10
1.7028877e-08
5.7618693e-11
5.1848874e-08
8.7440934e-08
4.6468619e-10
1.6564177e-08
-2.9846053e-10
5.2612017e-08
8.7142445e-08
4.9243618e-10
1.6071743e-08
6.1845386e-10
5.2486016e-08
8.7760892e-08
-1.2156943e-10
1.6193307e-08
1.6213977e-09
5.0743064e-08
8.9382294e-08
-3.503247e-10
1.6543583e-08
5.4621748e-11
5.0338105e-08
8.9436902e-08
-4.2355915e-10
1.6967078e-08
-1.7715449e-09
5.1686027e-08
8.7665312e-08
-3.0822815e-10
1.7275266e-08
-1.0031978e-09
5.2380932e-08
8.6662079e-08
2.5200325e-10
1.7023234e-08
6.7783643e-10
5.1955057e-08
8.7339873e-08
3.9125686e-10
1.6631969e-08
4.4200209e-10
5.1904261e-08
8.7781803e-08
-2.002046e-10
1.6832155e-08
-8.5664526e-10
5.2560608e-08
8.692511e-08
-6.0569335e-10
1.7437804e-08
2.9590563e-10
5.1658967e-08
8.7221009e-08
-9.0862157e-11
1.7528618e-08
1.6714482e-09
4.9896666e-08
8.889245e-08
4.2926242e-10
1.7099317e-08
5.2795451e-10
4.9797958e-08
8.9420379e-08
4.1278813e-10
1.6686508e-08
-9.7144943e-10
5.118214e-08
8.8448884e-08
-5.0207009e-10
1.7188557e-08
-1.0447055e-09
5.1724722e-08
8.7404133e-08
-9.2747868e-10
1.8116007e-08
5.8526342e-11
5.0738657e-08
8.7462615e-08
1.6272651e-10
1.7953223e-08
1.1329281e-09
4.976835e-08
8.859547e-08
4.2669379e-10
1.7526486e-08
-7.6184655e-10
5.095681e-08
8.7833534e-08
-4.717559e-11
1.7573638e-08
-1.7870908e-09
5.2696707e-08
8.6046427e-08
3.7446748e-11
1.7536154e-08
-2.3059268e-10
5.296476e-08
8.5815849e-08
2.6031576e-10
1.7275787e-08
6.0366588e-10
5.2621397e-08
8.6419508e-08
-7.3550079e-11
1.7349275e-08
4.5847038e-10
5.2089309e-08
8.6877942e-08
-2.4803031e-10
1.7597284e-08
-3.0766413e-10
5.2148904e-08
8.6570248e-08
2.1475452e-10
1.7382538e-08
-1.3267156e-10
5.2496321e-08
8.6437544e-08
2.4366341e-10
1.713883e-08
1.0834713e-09
5.1656446e-08
8.752096e-08
1.628579e-11
1.7122484e-08
3.0329705e-10
5.1369347e-08
8.782421e-08
-6.2560599e-11
1.7185005e-08
-1.3261915e-11
5.1320015e-08
8.7810906e-08
-2.7117882e-10
1.7456163e-08
-6.9982903e-10
5.1748682e-08
8.7111056e-08
-1.9737076e-10
1.7653568e-08
-1.4907128e-09
5.3042146e-08
8.562035e-08
1.5739018e-09
1.6079871e-08
4.8795925e-09
4.9736579e-08
9.0499916e-08
1.1509077e-08
4.5701377e-09
4.9697283e-08
1.1546486e-08
1.1549369e-08
1.2864526e-07
4.9542478e-09
-3.8459012e-10
1.7539726e-08
-1.040497e-09
-1.0567335e-09
3.0143931e-08
-3.5299566e-10
-3.1562903e-11
-1.2990894e-09
-9.4339423e-11
-1.3699689e-10
-2.2187355e-09
-7.9255677e-11
4.7707642e-11
-3.0146249e-10
1.2790305e-10
1.5959896e-10
-5.9801839e-10
1.6877434e-12
4.6022055e-11
6.2468422e-13
1.2897186e-10
1.8141922e-10
-2.1188951e-11
8.6294143e-12
3.7392923e-11
3.1713365e-11
1.0588864e-10
1.54862e-10
5.8271837e-11
8.087096e-12
2.9305882e-11
3.01313e-11
8.3844548e-11
1.245937e-10
6.0399784e-11
6.8881655e-12
2.2417679e-11
2.6183541e-11
6.4549021e-11
9.7348054e-11
5.3428929e-11
5.1542475e-12
1.7263423e-11
1.9835597e-11
4.9867611e-11
7.596181e-11
4.1221715e-11
3.4705923e-12
1.3792862e-11
1.3280491e-11
4.0057771e-11
6.1700342e-11
2.7542049e-11
2.2674178e-12
1.1525501e-11
8.6873986e-12
3.3637925e-11
5.2315e-11
1.807295e-11
1.6584678e-12
9.8670869e-12
6.3766025e-12
2.8919921e-11
4.544798e-11
1.3243828e-11
1.3586252e-12
8.5084995e-12
5.2046906e-12
2.5073948e-11
3.9801587e-11
1.0851232e-11
1.1292694e-12
7.3792561e-12
4.3857791e-12
2.1817501e-11
3.4871418e-11
9.3160469e-12
9.6315638e-13
6.4161171e-12
3.7740355e-12
1.9006662e-11
3.0518086e-11
8.1274285e-12
8.1969756e-13
5.5964315e-12
3.2295348e-12
1.6596851e-11
2.6747902e-11
6.9997587e-12
6.880476e-13
4.9083927e-12
2.7124958e-12
1.4572422e-11
2.3554457e-11
5.9059699e-12
5.7570037e-13
4.3326993e-12
2.2720767e-12
1.287606e-11
2.0866493e-11
4.9600628e-12
4.863796e-13
3.846325e-12
1.9199473e-12
1.1442503e-11
1.8588507e-11
4.1979492e-12
4.1620178e-13
3.4301272e-12
1.6433907e-12
1.0215322e-11
1.6631367e-11
3.600541e-12
3.59927e-13
3.0702031e-12
1.4230631e-12
9.1521906e-12
1.4929013e-11
3.1254239e-12
3.139777e-13
2.7562273e-12
1.2434379e-12
8.2227332e-12
1.3435422e-11
2.7370318e-12
2.7446906e-13
2.4817596e-12
1.0889181e-12
7.4082855e-12
1.2120574e-11
2.4037672e-12
2.403881e-13
2.2413723e-12
9.5464932e-13
6.6940248e-12
1.0963506e-11
2.1117176e-12
2.1113597e-13
2.030237e-12
8.3748697e-13
6.067674e-12
9.94594e-12
1.855052e-12
1.8588436e-13
1.8443531e-12
7.3865461e-13
5.5149035e-12
9.0529783e-12
1.6316153e-12
1.6283227e-13
1.6815212e-12
6.4821777e-13
5.0295179e-12
8.2644898e-12
1.4367054e-12
1.4281353e-13
1.538708e-12
5.6840217e-13
4.6039294e-12
7.5704845e-12
1.262407e-12
1.2525079e-13
1.4134577e-12
4.9851899e-13
4.2306615e-12
6.9621863e-12
1.1068174e-12
1.0958684e-13
1.3038713e-12
4.3645285e-13
3.9037962e-12
6.429532e-12
9.6910791e-13
9.6395168e-14
1.2074767e-12
3.8417163e-13
3.6160207e-12
5.9576878e-12
8.5601714e-13
8.4674441e-14
1.1228029e-12
3.3734649e-13
3.3633499e-12
5.5438342e-12
7.5120204e-13
7.388428e-14
1.0489194e-12
2.9456369e-13
3.1426721e-12
5.1825783e-12
6.5582198e-13
6.5364561e-14
9.8355559e-13
2.6083605e-13
2.9472024e-12
4.862139e-12
5.8127815e-13
5.7561649e-14
9.2599478e-13
2.2949814e-13
2.7752679e-12
4.5808869e-12
5.1075344e-13
5.0600965e-14
8.7539469e-13
2.0177681e-13
2.6240942e-12
4.3331535e-12
4.4951367e-13
4.4506622e-14
8.3088898e-13
1.7757145e-13
2.4910317e-12
4.1148134e-12
3.9591534e-13
3.9133553e-14
7.9175636e-13
1.5619719e-13
2.3739704e-12
3.9226464e-12
3.4836827e-13
3.43606e-14
7.573967e-13
1.3707574e-13
2.2712578e-12
3.7538491e-12
3.0587721e-13
3.0088273e-14
7.2730936e-13
1.2005028e-13
2.1812983e-12
3.6059689e-12
2.6793479e-13
2.623265e-14
7.0107765e-13
1.046863e-13
2.1028472e-12
3.4769967e-12
2.3366277e-13
2.2735772e-14
6.7834279e-13
9.0745657e-14
2.0348399e-12
3.3651523e-12
2.0259439e-13
1.9524945e-14
6.5881876e-13
7.7946592e-14
1.9764208e-12
3.269037e-12
1.7406622e-13
1.6521032e-14
6.4229861e-13
6.5949318e-14
1.926995e-12
3.1876735e-12
1.4731712e-13
1.3721167e-14
6.2857832e-13
5.4789756e-14
1.8859289e-12
3.1200767e-12
1.2239088e-13
1.1107375e-14
6.174718e-13
4.4402763e-14
1.852636e-12
3.0652405e-12
9.9243111e-14
8.6236814e-15
6.0884896e-13
3.4560151e-14
1.826702e-12
3.0224817e-12
7.7323122e-14
6.2426226e-15
6.0260717e-13
2.5054318e-14
1.8078927e-12
2.9914786e-12
5.6061526e-14
3.9685519e-15
5.9863943e-13
1.5755593e-14
1.7961081e-12
2.9720777e-12
3.5160556e-14
1.5871422e-15
6.2171533e-15
1.3818958e-14
1.3795595e-07
-9.3159991e-09
-8.679183e-09
1.4662882e-07
2.19832e-08
-1.1564841e-09
-1.2117954e-09
1.4515263e-08
-3.1388537e-09
-2.3624554e-10
-3.997222e-10
-3.9507829e-09
-9.5366463e-10
1.1945273e-10
1.6557562e-11
-1.3698825e-09
-8.994081e-11
1.8821594e-10
1.5173808e-10
-2.251046e-10
6.919597e-11
1.7729429e-10
1.745791e-10
4.6358781e-11
9.0457829e-11
1.4723643e-10
1.5256032e-10
1.1247689e-10
8.337041e-11
1.1729457e-10
1.2331866e-10
1.1261153e-10
6.5463884e-11
9.3052183e-11
1.0082573e-10
8.7956491e-11
4.3702704e-11
7.689163e-11
8.5285044e-11
5.9243484e-11
2.8769208e-11
6.6195643e-11
7.486622e-11
3.9188352e-11
2.10512e-11
5.8388544e-11
6.7274362e-11
2.8643389e-11
1.7445638e-11
5.179434e-11
6.0624852e-11
2.4095396e-11
1.5285324e-11
4.5825193e-11
5.4273597e-11
2.1636736e-11
1.3558362e-11
4.0394338e-11
4.8286948e-11
1.9545103e-11
1.1788363e-11
3.5605783e-11
4.2873037e-11
1.7202331e-11
1.0012302e-11
3.1499487e-11
3.8154765e-11
1.4730613e-11
8.4407623e-12
2.8018814e-11
3.411545e-11
1.2480107e-11
7.1685496e-12
2.5048233e-11
3.0640236e-11
1.0643785e-11
6.169118e-12
2.2479668e-11
2.760919e-11
9.2001771e-12
5.3718134e-12
2.0233286e-11
2.4933688e-11
8.0473218e-12
4.717558e-12
1.8252763e-11
2.2557827e-11
7.0934206e-12
4.15703e-12
1.64995e-11
2.0444868e-11
6.269988e-12
3.660762e-12
1.4950454e-11
1.8566638e-11
5.5389883e-12
3.2231462e-12
1.3582358e-11
1.6903272e-11
4.8865088e-12
2.8349498e-12
1.2379022e-11
1.5431847e-11
4.3063715e-12
2.497722e-12
1.1318003e-11
1.4131832e-11
3.7977343e-12
2.1988906e-12
1.0381518e-11
1.2982958e-11
3.347762e-12
1.9320601e-12
9.5562755e-12
1.1966124e-11
2.9488933e-12
1.6935713e-12
8.8318128e-12
1.1062674e-11
2.5970221e-12
1.4955004e-12
8.1923312e-12
1.0283032e-11
2.2751446e-12
1.3159939e-12
7.6275418e-12
9.5912139e-12
2.0078146e-12
1.1585192e-12
7.1248478e-12
8.9811253e-12
1.7686117e-12
1.0072434e-12
6.6988864e-12
8.4399665e-12
1.5484069e-12
8.9144884e-13
6.3181954e-12
7.9615345e-12
1.3698864e-12
7.8774488e-13
5.9799691e-12
7.5407198e-12
1.2085659e-12
6.9456702e-13
5.6813228e-12
7.1692836e-12
1.06601e-12
6.114385e-13
5.4182582e-12
6.841615e-12
9.3911436e-13
5.3718964e-13
5.1869517e-12
6.5532497e-12
8.2556254e-13
4.704602e-13
4.9844323e-12
6.3003561e-12
7.2336154e-13
4.1042612e-13
4.8076751e-12
6.0795041e-12
6.3128592e-13
3.5602982e-13
4.6542457e-12
5.8875924e-12
5.4794928e-13
3.0596944e-13
4.5223486e-12
5.7221065e-12
4.714632e-13
2.5904887e-13
4.4106229e-12
5.5818002e-12
3.9936296e-13
2.1535127e-13
4.3176685e-12
5.4651443e-12
3.3201478e-13
1.7457026e-13
4.2423473e-12
5.3709074e-12
2.6881482e-13
1.3614549e-13
4.1835308e-12
5.2980183e-12
2.0904213e-13
9.8651247e-14
4.1409469e-12
5.2443056e-12
1.5237137e-13
6.1870129e-14
4.1142431e-12
5.2101945e-12
9.5988664e-14
2.4310644e-14
3.7940044e-14
1.688528e-11
-1.688192e-11
3.2270359e-11
-1.5385544e-11
4.3195195e-11
-1.0925354e-11
4.8773758e-11
-5.5778062e-12
4.9216358e-11
-4.4087599e-13
4.492798e-11
4.2907618e-12
3.6069965e-11
8.8608636e-12
2.2588964e-11
1.3484168e-11
4.2730228e-12
1.83193e-11
-1.8979805e-11
2.3256246e-11
-4.6895288e-11
2.7918846e-11
-7.8915072e-11
3.2022993e-11
-1.1422136e-10
3.5309253e-11
-1.5186405e-10
3.7645334e-11
-1.9089435e-10
3.9032588e-11
-2.3038548e-10
3.949301e-11
-2.6926737e-10
3.8883349e-11
-3.0629105e-10
3.7024754e-11
-3.4043982e-10
3.414946e-11
-3.7081842e-10
3.0378979e-11
-3.9660292e-10
2.5784629e-11
-4.1718197e-10
2.0578997e-11
-4.3208951e-10
1.4907372e-11
-4.4084574e-10
8.7560166e-12
2.3188545e-12
-2.0170559e-11
3.2932783e-12
-5.1381928e-11
1.5832831e-11
-9.583853e-11
3.353932e-11
-1.5516313e-10
5.3755248e-11
-2.2995115e-10
7.4355673e-11
-3.2038319e-10
9.4731249e-11
-4.2702331e-10
1.1550923e-10
-5.5063626e-10
1.3710505e-10
-6.900514e-10
1.5774192e-10
-8.432969e-10
1.7650868e-10
-1.0078237e-09
1.9245194e-10
-1.1809977e-09
2.052027e-10
-1.3601328e-09
2.1444927e-10
-1.5429495e-09
2.204664e-10
-1.7273801e-09
2.2346682e-10
-1.9123942e-09
2.2450999e-10
-2.1071351e-09
2.3362661e-10
-2.2933351e-09
2.2322641e-10
-2.4633097e-09
2.0412504e-10
-2.6120543e-09
1.7912407e-10
-2.7358204e-09
1.4955068e-10
-2.8317167e-09
1.1647473e-10
-2.8972752e-09
8.0464876e-11
-2.9286099e-09
4.0089446e-11
1.0258779e-11
-9.1829607e-11
9.5132429e-11
-2.1174025e-10
1.3575802e-10
-3.6556605e-10
1.8738185e-10
-5.5382094e-10
2.4202735e-10
-7.7689526e-10
2.9744695e-10
-1.0363312e-09
3.541834e-10
-1.3395892e-09
4.1878226e-10
-1.7525569e-09
5.5008647e-10
-2.2040754e-09
6.0927262e-10
-2.6667285e-09
6.3917225e-10
-3.1251337e-09
6.5086613e-10
-3.5699543e-09
6.5003075e-10
-3.994639e-09
6.3914006e-10
-4.3937714e-09
6.1960353e-10
-4.7615664e-09
5.9126533e-10
-5.0924227e-09
5.5536861e-10
-5.3716754e-09
5.1288052e-10
-5.6128915e-09
4.6444286e-10
-5.8201088e-09
4.1134175e-10
-5.995861e-09
3.5487492e-10
-6.1421043e-09
2.9579193e-10
-6.2594748e-09
2.3384249e-10
-6.3480285e-09
1.690153e-10
-6.4096354e-09
1.0169265e-10
3.3751172e-11
-3.3090453e-10
4.2605495e-10
-7.2368197e-10
5.2856205e-10
-1.1882001e-09
6.5192886e-10
-1.9483661e-09
1.0022199e-09
-2.7824415e-09
1.1315454e-09
-3.5859036e-09
1.1576649e-09
-4.3044386e-09
1.1373331e-09
-4.8401128e-09
1.0857736e-09
-5.2436855e-09
1.0128558e-09
-5.5309218e-09
9.2641691e-10
-5.7132154e-09
8.3316646e-10
-5.8020038e-09
7.3882429e-10
-5.806838e-09
6.4397818e-10
-5.7313898e-09
5.4415818e-10
-5.5916909e-09
4.5156849e-10
-5.4049486e-09
3.6862755e-10
-5.1882234e-09
2.9615592e-10
-4.9582051e-09
2.3442467e-10
-4.7301147e-09
1.8325097e-10
-4.5205295e-09
1.4528892e-10
-4.3410214e-09
1.1628265e-10
-4.1980739e-09
9.0893462e-11
-4.0971748e-09
6.8114413e-11
-4.0417138e-09
4.6229642e-11
2.4968214e-11
-2.1730902e-09
2.5991733e-09
-3.8658531e-09
2.2213566e-09
-5.3171509e-09
2.103257e-09
-5.9701657e-09
1.6552566e-09
-6.0154846e-09
1.1768821e-09
-5.5442849e-09
6.864797e-10
-4.7797458e-09
3.7280585e-10
-3.7864793e-09
9.2517035e-11
-2.6278898e-09
-1.4572539e-10
-1.3856003e-09
-3.1586572e-10
-1.4740762e-10
-4.0502207e-10
1.0882411e-09
-4.9682557e-10
2.3928348e-09
-6.606168e-10
3.8077875e-09
-8.7079458e-10
5.1905346e-09
-9.3117701e-10
6.5014366e-09
-9.4227092e-10
7.7178079e-09
-9.202101e-10
8.8246905e-09
-8.7245085e-10
9.8112302e-09
-8.0327999e-10
1.0671718e-08
-7.1518884e-10
1.1398302e-08
-6.1028942e-10
1.1980472e-08
-4.9126213e-10
1.240845e-08
-3.5984891e-10
1.2673125e-08
-2.1842984e-10
-6.5373697e-11
1.2082518e-09
1.3910094e-09
4.4781332e-09
-1.0484733e-09
8.2284778e-09
-1.647018e-09
1.1925944e-08
-2.0421814e-09
1.5636083e-08
-2.5332317e-09
1.9288477e-08
-2.9658871e-09
2.2877295e-08
-3.215981e-09
2.6243755e-08
-3.2739054e-09
2.9296682e-08
-3.1986107e-09
3.2034546e-08
-3.0536839e-09
3.4501497e-08
-2.8719244e-09
3.6663135e-08
-2.6584111e-09
3.8442848e-08
-2.4402764e-09
3.980409e-08
-2.2319813e-09
4.0888128e-08
-2.0151603e-09
4.1745139e-08
-1.7992267e-09
4.2414741e-08
-1.589757e-09
4.2930236e-08
-1.3878904e-09
4.3320672e-08
-1.1936611e-09
4.3611718e-08
-1.0061796e-09
4.3825153e-08
-8.2367049e-10
4.3977835e-08
-6.438892e-10
4.4081924e-08
-4.6388447e-10
4.4144566e-08
-2.8101843e-10
-8.9256697e-11
1.5036892e-07
-2.3478658e-09
1.4876521e-07
5.5616305e-10
1.460102e-07
1.1087846e-09
1.4239507e-07
1.5736432e-09
1.3774376e-07
2.1186886e-09
1.3218692e-07
2.5914826e-09
1.2608636e-07
2.8850226e-09
1.1983086e-07
2.9819794e-09
1.1369372e-07
2.938867e-09
1.0782067e-07
2.8196435e-09
1.0227432e-07
2.6746803e-09
9.7110065e-08
2.5060677e-09
9.2355697e-08
2.3142893e-09
8.8011802e-08
2.112092e-09
8.4088843e-08
1.9079596e-09
8.0583366e-08
1.7063962e-09
7.7483912e-08
1.5098301e-09
7.4776826e-08
1.3193184e-09
7.2447986e-08
1.1352919e-09
7.0484689e-08
9.572227e-10
6.8877317e-08
7.838004e-10
6.7620465e-08
6.1305582e-10
6.6714562e-08
4.4210721e-10
6.6165351e-08
2.6827648e-10
8.5725505e-11
1.3712641e-08
-1.5451183e-09
1.5973445e-08
-1.7045257e-09
1.8549334e-08
-1.4669893e-09
2.1229217e-08
-1.1061287e-09
2.3996659e-08
-6.4864613e-10
2.6891103e-08
-3.0286066e-10
2.9796509e-08
-2.0290133e-11
3.2551909e-08
2.266675e-10
3.5114861e-08
3.760036e-10
3.745399e-08
4.8060182e-10
3.9525785e-08
6.0297246e-10
4.1137329e-08
8.9460794e-10
4.241594e-08
1.0357622e-09
4.3431201e-08
1.0969122e-09
4.4225633e-08
1.1136067e-09
4.4834445e-08
1.0976611e-09
4.529117e-08
1.053179e-09
4.5625969e-08
9.845915e-10
4.5864937e-08
8.9639377e-10
4.6030823e-08
7.914045e-10
4.6142996e-08
6.7169268e-10
4.6217413e-08
5.3870288e-10
4.626529e-08
3.9429094e-10
4.6293765e-08
2.3986104e-10
7.2744513e-11
-4.7990838e-09
-6.9682702e-10
-5.5213999e-09
-9.8221814e-10
-5.8939562e-09
-1.0944421e-09
-5.855093e-09
-1.1450008e-09
-5.3575287e-09
-1.1462177e-09
-4.5520728e-09
-1.1083217e-09
-3.5281844e-09
-1.0441812e-09
-2.3417987e-09
-9.5971812e-10
-1.1039058e-09
-8.6188664e-10
1.3803955e-10
-7.6133845e-10
1.4028515e-09
-6.618323e-10
2.8531221e-09
-5.5565311e-10
4.341792e-09
-4.5289588e-10
5.7970557e-09
-3.5833759e-10
7.184786e-09
-2.7410784e-10
8.4851188e-09
-2.0265446e-10
9.6950702e-09
-1.567538e-10
1.0800441e-08
-1.2075968e-10
1.1787979e-08
-9.112355e-11
1.2647498e-08
-6.8093229e-11
1.3370409e-08
-5.1196887e-11
1.3948546e-08
-3.9412901e-11
1.4374194e-08
-3.133544e-11
1.4638726e-08
-2.4649843e-11
-1.6079032e-11
-1.9729166e-09
-9.3792959e-11
-2.7688991e-09
-1.8623712e-10
-3.5990095e-09
-2.6433589e-10
-4.4065897e-09
-3.3742719e-10
-5.1322434e-09
-4.2057252e-10
-5.6764111e-09
-5.6416367e-10
-6.0961511e-09
-6.2445163e-10
-6.3971558e-09
-6.5872407e-10
-6.58355e-09
-6.7550317e-10
-6.6657273e-09
-6.7917159e-10
-6.6543704e-09
-6.7319935e-10
-6.5512192e-09
-6.5881376e-10
-6.3676194e-09
-6.3650451e-10
-6.1192538e-09
-6.0671127e-10
-5.8227869e-09
-5.7058201e-10
-5.4970595e-09
-5.2838834e-10
-5.1703144e-09
-4.8350469e-10
-4.8544361e-09
-4.3664302e-10
-4.5585818e-09
-3.8698237e-10
-4.2922142e-09
-3.3446479e-10
-4.0642651e-09
-2.7914955e-10
-3.8825946e-09
-2.2108659e-10
-3.7535751e-09
-1.6035793e-10
-3.6810119e-09
-9.7215992e-11
-3.2956664e-11
-4.1763577e-10
9.8741193e-11
-6.5096169e-10
4.7091553e-11
-9.1806406e-10
2.7686262e-12
-1.2206323e-09
-3.4857649e-11
-1.571813e-09
-6.9391311e-11
-2.0328437e-09
-1.0313364e-10
-2.5220206e-09
-1.3527671e-10
-3.0158967e-09
-1.6485102e-10
-3.5006548e-09
-1.9074924e-10
-3.9684875e-09
-2.1134392e-10
-4.4136355e-09
-2.2805726e-10
-4.829996e-09
-2.4245976e-10
-5.2076483e-09
-2.5885915e-10
-5.5279678e-09
-2.8639927e-10
-5.8113038e-09
-2.8725372e-10
-6.0603598e-09
-2.7934021e-10
-6.279023e-09
-2.6484954e-10
-6.4704437e-09
-2.4523048e-10
-6.6364954e-09
-2.2093885e-10
-6.7786098e-09
-1.923586e-10
-6.8978477e-09
-1.5991972e-10
-6.9947431e-09
-1.2419938e-10
-7.069103e-09
-8.6006065e-11
-7.1207686e-09
-4.555835e-11
-1.0055437e-11
-8.4171172e-12
1.5351875e-10
-8.8667643e-11
1.273437e-10
-1.8974968e-10
1.0385213e-10
-3.0901112e-10
8.4405048e-11
-4.4603147e-10
6.7630016e-11
-6.0180486e-10
5.2640381e-11
-7.74954e-10
3.7872662e-11
-9.6251968e-10
2.271447e-11
-1.1606743e-09
7.404751e-12
-1.3690002e-09
-3.0190678e-12
-1.5835561e-09
-1.3502815e-11
-1.8028047e-09
-2.3213049e-11
-2.0303387e-09
-3.1327392e-11
-2.2799464e-09
-3.679429e-11
-2.5268939e-09
-4.0309257e-11
-2.7642547e-09
-4.1982785e-11
-2.9870734e-09
-4.2034509e-11
-3.1917048e-09
-4.0603122e-11
-3.3748359e-09
-3.7812007e-11
-3.5333975e-09
-3.3801394e-11
-3.6645853e-09
-2.8736389e-11
-3.7659653e-09
-2.282395e-11
-3.8356847e-09
-1.6291269e-11
-3.8719407e-09
-9.3069502e-12
-2.2948219e-12
1.1985236e-10
1.4614349e-10
1.1374794e-10
1.3344819e-10
9.8134561e-11
1.1946546e-10
7.4034015e-11
1.0850546e-10
4.2222392e-11
9.9441421e-11
4.1742089e-12
9.0688272e-11
-4.023578e-11
8.2282284e-11
-9.1995908e-11
7.447416e-11
-1.511832e-10
6.6591531e-11
-2.1364579e-10
5.9442933e-11
-2.7913418e-10
5.1984911e-11
-3.4776725e-10
4.5419268e-11
-4.182314e-10
3.9135935e-11
-4.8888694e-10
3.3860325e-11
-5.5862847e-10
2.9431272e-11
-6.2613125e-10
2.5518892e-11
-6.901422e-10
2.1975252e-11
-7.494768e-10
1.8730224e-11
-8.0298843e-10
1.5698318e-11
-8.4961785e-10
1.2826668e-11
-8.8840536e-10
1.0049743e-11
-9.1861049e-10
7.3798119e-12
-9.3976658e-10
4.8634753e-12
-9.5173396e-10
2.6591297e-12
9.4844425e-13
1.3657543e-10
1.2217958e-10
1.5506035e-10
1.1496316e-10
1.6737204e-10
1.0715361e-10
1.7627068e-10
9.9606628e-11
1.8438116e-10
9.1330749e-11
1.9063731e-10
8.4431938e-11
1.9467711e-10
7.8242314e-11
1.9625541e-10
7.2895696e-11
1.9554429e-10
6.7302513e-11
1.9322833e-10
6.1758767e-11
1.8885331e-10
5.6359823e-11
1.8337322e-10
5.0899258e-11
1.7738844e-10
4.5120634e-11
1.717793e-10
3.9469394e-11
1.664871e-10
3.4723407e-11
1.6192734e-10
3.0078614e-11
1.5809499e-10
2.5807569e-11
1.5492942e-10
2.1895783e-11
1.5234274e-10
1.8285011e-11
1.502972e-10
1.4872221e-11
1.486334e-10
1.1713581e-11
1.4728725e-10
8.7260119e-12
1.461427e-10
6.0080869e-12
1.4535826e-10
3.4436458e-12
1.0170916e-12
1.0881271e-10
1.0132348e-10
1.2636682e-10
9.7409116e-11
1.415323e-10
9.1988155e-11
1.5620612e-10
8.493281e-11
1.6927011e-10
7.8266766e-11
1.8131627e-10
7.2385788e-11
1.9262162e-10
6.6937001e-11
2.0337733e-10
6.2140042e-11
2.1298896e-10
5.7690965e-11
2.2121518e-10
5.3532649e-11
2.2839276e-10
4.9182367e-11
2.3479443e-10
4.4497737e-11
2.4053736e-10
3.937787e-11
2.4548963e-10
3.4517313e-11
2.5001155e-10
3.0201691e-11
2.539706e-10
2.6119791e-11
2.5729149e-10
2.2486917e-11
2.6044944e-10
1.8738089e-11
2.6336112e-10
1.53736e-11
2.6585978e-10
1.2373841e-11
2.6803116e-10
9.5424853e-12
2.6974881e-10
7.008652e-12
2.7092128e-10
4.8359049e-12
2.7152966e-10
2.8355582e-12
9.3979233e-13
7.2962903e-11
8.7604256e-11
8.4559467e-11
8.5812717e-11
9.4855722e-11
8.1692041e-11
1.0312785e-10
7.6660808e-11
1.1009681e-10
7.1297919e-11
1.1636287e-10
6.6119849e-11
1.2200773e-10
6.1292266e-11
1.2701246e-10
5.713543e-11
1.3127855e-10
5.3425008e-11
1.3491189e-10
4.9899454e-11
1.3797323e-10
4.6121166e-11
1.4004678e-10
4.242434e-11
1.4093161e-10
3.8493194e-11
1.4105459e-10
3.4394482e-11
1.4067852e-10
3.0577921e-11
1.3984837e-10
2.6950101e-11
1.3879424e-10
2.3541203e-11
1.3730347e-10
2.0229019e-11
1.3576136e-10
1.6915867e-11
1.3441617e-10
1.3719186e-11
1.3316415e-10
1.0794654e-11
1.3206828e-10
8.1046666e-12
1.3129498e-10
5.6093438e-12
1.3095254e-10
3.1781372e-12
9.2443725e-13
4.7670445e-11
7.912236e-11
5.4513522e-11
7.8969817e-11
5.9504982e-11
7.670074e-11
6.2950058e-11
7.3215878e-11
6.499583e-11
6.9252281e-11
6.6191425e-11
6.4924381e-11
6.706299e-11
6.042082e-11
6.757371e-11
5.6624822e-11
6.7168838e-11
5.3829987e-11
6.6756168e-11
5.0312224e-11
6.5473223e-11
4.7404203e-11
6.3690667e-11
4.4206979e-11
6.1459233e-11
4.0724703e-11
5.8152624e-11
3.7701158e-11
5.4400219e-11
3.4330384e-11
5.050868e-11
3.0841688e-11
4.6688351e-11
2.7361571e-11
4.2871151e-11
2.404625e-11
3.906078e-11
2.0726261e-11
3.5360319e-11
1.7419662e-11
3.1946723e-11
1.4208258e-11
2.8976213e-11
1.1075179e-11
2.6636096e-11
7.9494586e-12
2.5007657e-11
4.8065678e-12
1.6843612e-12
3.5397842e-11
7.2368062e-11
4.0243701e-11
7.4124093e-11
4.34705e-11
7.3474062e-11
4.5363462e-11
7.1323024e-11
4.6238536e-11
6.8377302e-11
4.626432e-11
6.4898681e-11
4.527396e-11
6.1411253e-11
4.3994474e-11
5.7904371e-11
4.2926606e-11
5.4897909e-11
4.1222268e-11
5.2016606e-11
3.9272049e-11
4.9354458e-11
3.7091744e-11
4.6387312e-11
3.4219823e-11
4.3596641e-11
3.1299581e-11
4.0621408e-11
2.8244533e-11
3.738543e-11
2.4929846e-11
3.4156364e-11
2.145637e-11
3.0835027e-11
1.7958316e-11
2.7544276e-11
1.4497508e-11
2.4187034e-11
1.1230454e-11
2.0686674e-11
8.3411458e-12
1.709752e-11
5.9660506e-12
1.3450223e-11
4.1983816e-12
9.7170721e-12
3.1046858e-12
5.9002049e-12
1.960465e-12
3.0219305e-11
6.6244265e-11
3.5177888e-11
6.916561e-11
3.8818046e-11
6.9833991e-11
4.1300349e-11
6.8840796e-11
4.3103292e-11
6.6574423e-11
4.3997448e-11
6.4004579e-11
4.3994821e-11
6.1413924e-11
4.3404134e-11
5.8495093e-11
4.2684806e-11
5.5617265e-11
4.184006e-11
5.2861373e-11
4.1039415e-11
5.0155115e-11
3.9965029e-11
4.7461704e-11
3.891133e-11
4.4650339e-11
3.7796229e-11
4.1736502e-11
3.6459434e-11
3.872221e-11
3.4863887e-11
3.5751891e-11
3.3163499e-11
3.2535389e-11
3.1490103e-11
2.921764e-11
2.9842811e-11
2.5834289e-11
2.8254654e-11
2.227479e-11
2.6767931e-11
1.8584197e-11
2.5485918e-11
1.4732188e-11
2.4453709e-11
1.0749231e-11
2.3821869e-11
6.5319914e-12
1.9745803e-12
2.7708174e-11
6.017291e-11
3.3219078e-11
6.365478e-11
3.7950793e-11
6.510234e-11
4.1872997e-11
6.4918647e-11
4.4842167e-11
6.3605301e-11
4.6980945e-11
6.1865841e-11
4.8481628e-11
5.9913274e-11
4.9514313e-11
5.7462435e-11
5.0234213e-11
5.4897386e-11
5.0823952e-11
5.227165e-11
5.1333242e-11
4.9645837e-11
5.1788195e-11
4.7006758e-11
5.2127958e-11
4.4310577e-11
5.2378701e-11
4.1485757e-11
5.2669594e-11
3.8431311e-11
5.2865381e-11
3.5556093e-11
5.290308e-11
3.2497676e-11
5.2908401e-11
2.9212301e-11
5.2790121e-11
2.5952549e-11
5.2604313e-11
2.2460575e-11
5.2338218e-11
1.8850267e-11
5.2089912e-11
1.4980466e-11
5.1998609e-11
1.0840504e-11
5.1923667e-11
6.6069017e-12
2.3494816e-12
2.5622771e-11
5.40953e-11
3.1353753e-11
5.7923851e-11
3.6520496e-11
5.9935645e-11
4.1121565e-11
6.0317621e-11
4.4924967e-11
5.9801935e-11
4.8138226e-11
5.8652615e-11
5.0787044e-11
5.7264484e-11
5.2971182e-11
5.527832e-11
5.4908958e-11
5.295963e-11
5.660943e-11
5.0571194e-11
5.8183779e-11
4.80715e-11
5.9667304e-11
4.5523243e-11
6.1077845e-11
4.2900043e-11
6.2369151e-11
4.0194456e-11
6.3439399e-11
3.7361064e-11
6.4672551e-11
3.432294e-11
6.5764584e-11
3.140564e-11
6.6673122e-11
2.8303758e-11
6.7527192e-11
2.5098472e-11
6.8275121e-11
2.1712637e-11
6.8878257e-11
1.8247119e-11
6.9333581e-11
1.4525131e-11
6.9449174e-11
1.0724897e-11
6.9489806e-11
6.5662537e-12
2.1685528e-12
2.2854857e-11
4.8442813e-11
2.8429011e-11
5.2349733e-11
3.3629645e-11
5.4735044e-11
3.8129574e-11
5.5817721e-11
4.2269835e-11
5.5661699e-11
4.5919315e-11
5.5003157e-11
4.919327e-11
5.3990548e-11
5.205443e-11
5.2417178e-11
5.4566553e-11
5.0447521e-11
5.688074e-11
4.8257019e-11
5.9013467e-11
4.5938783e-11
6.1050063e-11
4.3486655e-11
6.2986001e-11
4.0964112e-11
6.4806219e-11
3.8374242e-11
6.6480355e-11
3.5686931e-11
6.7946214e-11
3.2857082e-11
6.9451414e-11
2.990044e-11
7.0909774e-11
2.6845397e-11
7.2206207e-11
2.3802037e-11
7.3361118e-11
2.0557722e-11
7.4394982e-11
1.721325e-11
7.5231016e-11
1.368909e-11
7.6000227e-11
9.9556775e-12
7.6440612e-11
6.12586e-12
2.1321836e-12
1.9748213e-11
4.3425234e-11
2.4789612e-11
4.7308354e-11
2.9622451e-11
4.9902224e-11
3.4126345e-11
5.1313842e-11
3.8037597e-11
5.1750462e-11
4.1701342e-11
5.1339423e-11
4.5157068e-11
5.0534832e-11
4.821607e-11
4.9358184e-11
5.0974531e-11
4.7689066e-11
5.3491491e-11
4.5740063e-11
5.5835712e-11
4.3594565e-11
5.8014364e-11
4.1308005e-11
6.0072208e-11
3.8906269e-11
6.2043842e-11
3.6402609e-11
6.391753e-11
3.3813242e-11
6.5640165e-11
3.1134446e-11
6.7211385e-11
2.8329217e-11
6.8625114e-11
2.5431665e-11
6.9994127e-11
2.2433019e-11
7.1304371e-11
1.9247474e-11
7.243285e-11
1.6084766e-11
7.3365429e-11
1.2756505e-11
7.4009945e-11
9.3111538e-12
7.4471274e-11
5.6645228e-12
1.8945388e-12
1.6842124e-11
3.9063222e-11
2.1308432e-11
4.2842051e-11
2.5705263e-11
4.5505397e-11
2.9862559e-11
4.7156549e-11
3.3689419e-11
4.7923604e-11
3.7180412e-11
4.7848431e-11
4.0487988e-11
4.7227255e-11
4.3529035e-11
4.6317135e-11
4.6304932e-11
4.4913167e-11
4.8844691e-11
4.32003e-11
5.1193596e-11
4.1245656e-11
5.3380422e-11
3.9121174e-11
5.5380274e-11
3.6906411e-11
5.7302979e-11
3.4479899e-11
5.9112679e-11
3.2003536e-11
6.0817872e-11
2.9429246e-11
6.238683e-11
2.6760252e-11
6.3829537e-11
2.3988951e-11
6.5144763e-11
2.1117786e-11
6.6248383e-11
1.8143846e-11
6.7236626e-11
1.5096514e-11
6.8062271e-11
1.1930852e-11
6.8655363e-11
8.7180521e-12
6.9040439e-11
5.2794378e-12
1.7519577e-12
1.4442881e-11
3.5264119e-11
1.8386157e-11
3.8898769e-11
2.2329786e-11
4.1561761e-11
2.6154643e-11
4.3331685e-11
2.9786498e-11
4.4291741e-11
3.3130141e-11
4.4504779e-11
3.6226341e-11
4.4131046e-11
3.916207e-11
4.3381397e-11
4.1850816e-11
4.2224411e-11
4.4326248e-11
4.0724859e-11
4.6593119e-11
3.8978774e-11
4.8693964e-11
3.7020319e-11
5.0695843e-11
3.4904523e-11
5.2525388e-11
3.2650343e-11
5.4199441e-11
3.0329473e-11
5.5792525e-11
2.7836153e-11
5.7279511e-11
2.5273255e-11
5.863198e-11
2.2636472e-11
5.9838488e-11
1.9911269e-11
6.0894888e-11
1.7087437e-11
6.1796389e-11
1.4195004e-11
6.2509088e-11
1.1218144e-11
6.3123548e-11
8.1035824e-12
6.351552e-11
4.8874574e-12
1.5894502e-12
1.2545937e-11
3.1918346e-11
1.6062494e-11
3.5382199e-11
1.9623999e-11
3.8000242e-11
2.3134733e-11
3.9820938e-11
2.6508933e-11
4.0917527e-11
2.9660964e-11
4.1352734e-11
3.2654251e-11
4.1137745e-11
3.5482213e-11
4.0553421e-11
3.8056133e-11
3.9650477e-11
4.0466697e-11
3.8314281e-11
4.2662563e-11
3.6782895e-11
4.4694868e-11
3.4988001e-11
4.6578913e-11
3.3020464e-11
4.831908e-11
3.0910164e-11
4.9966915e-11
2.8681626e-11
5.146134e-11
2.6341716e-11
5.2824445e-11
2.3910139e-11
5.4044877e-11
2.1416029e-11
5.5147924e-11
1.8808211e-11
5.6107843e-11
1.6127509e-11
5.6930119e-11
1.3372718e-11
5.7596347e-11
1.0551907e-11
5.8130177e-11
7.5697439e-12
5.8441043e-11
4.5765829e-12
1.5703302e-12
1.1026828e-11
2.8938823e-11
1.4192949e-11
3.2216061e-11
1.7434096e-11
3.4759079e-11
2.0660383e-11
3.6594634e-11
2.3820405e-11
3.7757488e-11
2.6837078e-11
3.8336044e-11
2.962561e-11
3.8349197e-11
3.231376e-11
3.7865254e-11
3.484874e-11
3.7115482e-11
3.7144855e-11
3.6018151e-11
3.9285608e-11
3.4642127e-11
4.1272375e-11
3.300122e-11
4.3076254e-11
3.1216572e-11
4.4740613e-11
2.9245793e-11
4.6275624e-11
2.7146603e-11
4.7679394e-11
2.4937935e-11
4.8951385e-11
2.2638138e-11
5.0108339e-11
2.0259065e-11
5.1120202e-11
1.7796339e-11
5.1983608e-11
1.5264094e-11
5.2701277e-11
1.2655041e-11
5.3279297e-11
9.9738809e-12
5.3613291e-11
7.2357427e-12
5.3822415e-11
4.3674529e-12
1.4543626e-12
9.758572e-12
2.6273654e-11
1.262032e-11
2.9354295e-11
1.5582821e-11
3.1796561e-11
1.8570993e-11
3.3606445e-11
2.1497542e-11
3.4830922e-11
2.4334871e-11
3.5498699e-11
2.7009822e-11
3.567423e-11
2.94772e-11
3.5397861e-11
3.1922591e-11
3.4670077e-11
3.4180343e-11
3.3760384e-11
3.6241701e-11
3.2580756e-11
3.8122626e-11
3.1120282e-11
3.9862367e-11
2.947682e-11
4.1464626e-11
2.7643522e-11
4.2908714e-11
2.5702505e-11
4.4217105e-11
2.3629535e-11
4.5398861e-11
2.1456374e-11
4.6457942e-11
1.9199976e-11
4.7386334e-11
1.686794e-11
4.8184604e-11
1.4465817e-11
4.8839781e-11
1.1999858e-11
4.9343739e-11
9.4699181e-12
4.9719702e-11
6.859774e-12
4.9926064e-11
4.161087e-12
1.3502107e-12
8.6590732e-12
2.3884553e-11
1.1239598e-11
2.6773754e-11
1.393433e-11
2.9101813e-11
1.666836e-11
3.0872398e-11
1.9389688e-11
3.2109579e-11
2.2036299e-11
3.2852072e-11
2.4569914e-11
3.31406e-11
2.6961965e-11
3.3005796e-11
2.9136978e-11
3.2495051e-11
3.1293784e-11
3.1603566e-11
3.329522e-11
3.0579309e-11
3.5122928e-11
2.9292564e-11
3.675982e-11
2.7839917e-11
3.8253575e-11
2.6149758e-11
3.9620637e-11
2.4335435e-11
4.0840662e-11
2.2409502e-11
4.1939195e-11
2.0357833e-11
4.2907223e-11
1.8231943e-11
4.3748637e-11
1.6026521e-11
4.4469946e-11
1.3744504e-11
4.5076601e-11
1.1393199e-11
4.5575955e-11
8.9705601e-12
4.5995791e-11
6.439934e-12
4.6224339e-11
3.9325365e-12
1.351423e-12
7.6746136e-12
2.1748914e-11
9.9934791e-12
2.4454875e-11
1.2432903e-11