/*--------------------------------*- C++ -*----------------------------------*\
| =========                 |                                                 |
| \\      /  F ield         | OpenFOAM: The Open Source CFD Toolbox           |
|  \\    /   O peration     | Version:  4.0                                   |
|   \\  /    A nd           | Web:      www.OpenFOAM.org                      |
|    \\/     M anipulation  |                                                 |
\*---------------------------------------------------------------------------*/
FoamFile
{
    version     2.0;
    format      ascii;
    class       volScalarField;
    location    "0.25";
    object      k;
}
// * * * * * * * * * * * * * * * * * * * * * * * * * * * * * * * * * * * * * //

dimensions      [0 2 -2 0 0 0 0];

internalField   nonuniform List<scalar> 
1740
(
0.0085787605
0.0090589123
0.018603846
0.0091512746
0.010095714
0.027509247
0.0096111606
0.010717813
0.03444823
0.010002937
0.010928983
0.041250936
0.010182242
0.011081263
0.04725558
0.010245486
0.011355524
0.052301139
0.010366198
0.011815124
0.056907263
0.010403914
0.01240986
0.059822839
0.010377091
0.012864306
0.062778135
0.01030977
0.013254908
0.065052314
0.010218695
0.013282729
0.065771222
0.010148464
0.013153295
0.067393937
0.0099991723
0.013313153
0.069248937
0.0098722646
0.013727649
0.070377706
0.0097693851
0.013821655
0.070917259
0.009691674
0.013881108
0.071525749
0.009577282
0.014195276
0.072555388
0.0094677509
0.014533992
0.072419107
0.0093726191
0.014555049
0.073131978
0.0092949503
0.014907695
0.073558232
0.0091926796
0.015052621
0.072657528
0.0090328443
0.014798449
0.072333213
0.0088971176
0.014609285
0.073103457
0.0087565072
0.014818987
0.073426186
0.0086468451
0.014989805
0.073267004
0.0085447566
0.015117101
0.072941742
0.0084506405
0.015021418
0.072664675
0.0084502239
0.015269228
0.072450705
0.0084382086
0.015504045
0.071563461
0.0089996248
0.016341253
0.06653194
0.012764089
0.018201773
0.04719344
0.023969968
0.03123323
0.03987352
0.010276399
0.012552598
0.013753247
0.004276508
0.004613858
0.0046703789
0.0020740614
0.0021179801
0.0020914061
0.0011319802
0.0011329001
0.0011142967
0.00067245006
0.00066965465
0.00066088171
0.00042151682
0.00041979483
0.00041618733
0.00027113199
0.0002703338
0.00026896226
0.00017469732
0.00017434788
0.00017382738
0.00011053376
0.00011036515
0.00011012791
6.7689975e-05
6.7590186e-05
6.7438157e-05
3.9834373e-05
3.9766161e-05
3.9649028e-05
2.2579395e-05
2.2532233e-05
2.2444208e-05
1.2505784e-05
1.2475092e-05
1.2415162e-05
6.9807627e-06
6.962743e-06
6.9267078e-06
4.1365887e-06
4.1272639e-06
4.108387e-06
2.7669341e-06
2.7628812e-06
2.7546958e-06
2.1613437e-06
2.1602119e-06
2.1580407e-06
1.9320848e-06
1.9324366e-06
1.9333468e-06
1.8798078e-06
1.880841e-06
1.8831694e-06
1.9072941e-06
1.9085937e-06
1.9114717e-06
1.9693906e-06
1.9707562e-06
1.9737629e-06
2.0460717e-06
2.0474134e-06
2.0503598e-06
2.1288306e-06
2.1301114e-06
2.1329203e-06
2.2141777e-06
2.2153846e-06
2.2180293e-06
2.300694e-06
2.3018241e-06
2.3042994e-06
2.3877604e-06
2.388815e-06
2.391124e-06
2.4750369e-06
2.4760185e-06
2.4781676e-06
2.5622596e-06
2.5631715e-06
2.5651676e-06
2.649166e-06
2.6500114e-06
2.6518616e-06
2.7354681e-06
2.7362501e-06
2.7379616e-06
2.8208424e-06
2.8215642e-06
2.8231436e-06
2.904921e-06
2.9055856e-06
2.9070398e-06
2.9872776e-06
2.987888e-06
2.9892236e-06
3.0673961e-06
3.0679553e-06
3.0691788e-06
3.1446097e-06
3.1451206e-06
3.1462385e-06
3.2179836e-06
3.2184493e-06
3.2194682e-06
3.2861073e-06
3.2865308e-06
3.2874575e-06
3.346743e-06
3.3471276e-06
3.3479689e-06
3.3962682e-06
3.3966169e-06
3.3973798e-06
3.4288472e-06
3.4291633e-06
3.429855e-06
3.4352978e-06
3.4355844e-06
3.4362117e-06
3.4017022e-06
3.4019618e-06
3.4025304e-06
3.3080056e-06
3.3082391e-06
3.3087511e-06
3.1272108e-06
3.1274145e-06
3.1278642e-06
2.8263864e-06
2.8265487e-06
2.8269159e-06
2.3715751e-06
2.3716756e-06
2.3719249e-06
1.7398102e-06
1.7398354e-06
1.7399429e-06
9.4189897e-07
9.4187855e-07
9.4188762e-07
0.056130854
0.060813696
0.046229869
0.046710058
0.012495422
0.011363807
0.0043567887
0.0041205938
0.0019968253
0.0019345973
0.0010834282
0.0010666271
0.00065061361
0.00064705791
0.00041300343
0.0004131959
0.00026814708
0.00026907888
0.00017368283
0.0001744399
0.00011008877
0.00011049234
6.7365655e-05
6.7490677e-05
3.9548731e-05
3.9523621e-05
2.2348189e-05
2.2273346e-05
1.234236e-05
1.2271172e-05
6.8806061e-06
6.8314893e-06
4.0836703e-06
4.0564483e-06
2.7440344e-06
2.7324197e-06
2.155517e-06
2.1532992e-06
1.935053e-06
1.9378121e-06
1.8868285e-06
1.891893e-06
1.9158768e-06
1.9218028e-06
1.9783246e-06
1.9844006e-06
2.0548129e-06
2.0607192e-06
2.1371576e-06
2.1427659e-06
2.2220148e-06
2.2272841e-06
2.3080273e-06
2.312953e-06
2.3946002e-06
2.3991915e-06
2.481402e-06
2.4856729e-06
2.5681712e-06
2.5721366e-06
2.6546455e-06
2.6583201e-06
2.7405363e-06
2.7439345e-06
2.8255196e-06
2.8286552e-06
2.9092272e-06
2.9121136e-06
2.9912324e-06
2.9938828e-06
3.0710189e-06
3.0734464e-06
3.1479197e-06
3.1501374e-06
3.2210005e-06
3.2230215e-06
3.288851e-06
3.2906887e-06
3.3492338e-06
3.3509021e-06
3.398527e-06
3.4000399e-06
3.4308951e-06
3.4322669e-06
3.4371551e-06
3.4383997e-06
3.403386e-06
3.4045153e-06
3.3095232e-06
3.3105442e-06
3.1285482e-06
3.1294586e-06
2.8274922e-06
2.828279e-06
2.3723618e-06
2.3730134e-06
1.7402226e-06
1.7407892e-06
9.4205312e-07
9.4279153e-07
6.2358555e-06
2.7035903e-05
0.00013416185
0.00030435782
0.00046119814
0.000571691
0.00064133824
0.00068411514
0.00071175101
0.00073130226
0.00074666587
0.0007604544
0.00077287385
0.00078359677
0.00079230487
0.00079852306
0.00080143429
0.00079964464
0.00079082607
0.00077120417
0.00073485475
0.00067285182
0.00057261783
0.00041821894
0.00019102935
2.6091345e-06
5.4712246e-05
0.00025081515
0.00051539918
0.00072699253
0.00085802144
0.0009332612
0.00097686087
0.0010041962
0.0010232153
0.0010380337
0.0010509321
0.0010621106
0.0010712112
0.0010778444
0.0010814692
0.0010811297
0.0010751967
0.0010608967
0.0010336597
0.00098617467
0.00090701143
0.00077889447
0.00057747298
0.00027283135
7.9916023e-06
0.00016008053
0.00061610099
0.0010796038
0.0013621544
0.0015043091
0.0015710753
0.0016017505
0.0016162528
0.0016229282
0.0016260713
0.0016268475
0.0016259983
0.0016229849
0.0016173211
0.001608597
0.0015959004
0.0015776741
0.0015509318
0.0015106184
0.0014484018
0.0013504173
0.0011930105
0.00093466883
0.00050215807
3.7678722e-05
0.00058027691
0.0016876741
0.0024387213
0.0027750617
0.0028882854
0.0028968438
0.0028656559
0.0028245575
0.0027783697
0.0027320456
0.0026874549
0.0026449815
0.0026014639
0.0025562061
0.0025096093
0.0024612459
0.002409848
0.0023529779
0.0022863317
0.002202626
0.0020893549
0.0019231311
0.0016523159
0.0011231613
0.0002818173
0.0024516239
0.0049228471
0.006045176
0.0063912633
0.0063287573
0.0060982285
0.0058338107
0.0055831657
0.0053309621
0.0050891068
0.004862865
0.0046571374
0.0044576726
0.0042632142
0.0040784236
0.0039042115
0.0037400332
0.0035842167
0.0034335967
0.0032830047
0.003124831
0.0029487725
0.0027471122
0.0025380933
0.0023591107
0.010551968
0.01660579
0.018560218
0.018099819
0.016539716
0.014720927
0.013029542
0.011544696
0.010265477
0.0091711509
0.0082390354
0.0074438328
0.0067616
0.0061743261
0.0056685153
0.0052326544
0.0048563287
0.0045301147
0.0042452821
0.003993259
0.0037655444
0.0035541253
0.0033589518
0.003195895
0.044943096
0.034096426
0.026605489
0.021443069
0.017782736
0.015072432
0.012981093
0.011325233
0.0099953242
0.0089141164
0.0080231375
0.0072783519
0.0066468253
0.0061042868
0.0056329432
0.0052202344
0.0048573256
0.0045375227
0.0042552248
0.0040052186
0.0037821118
0.0035803214
0.0033946542
0.0032270696
0.00309341
0.037361034
0.031034979
0.027814692
0.025180075
0.022303245
0.019322434
0.016599353
0.014296534
0.012411586
0.010866794
0.0095926614
0.0085324607
0.0076426047
0.0068930746
0.0062598973
0.0057234355
0.005267246
0.0048775672
0.004542714
0.0042523562
0.0039967826
0.0037667169
0.0035535492
0.0033569196
0.0031927163
0.010225985
0.0095521571
0.0092127209
0.00889276
0.0084298089
0.007863365
0.0073045096
0.0068060466
0.0063525963
0.0059516635
0.0056003755
0.0052928248
0.0050035974
0.0047354656
0.0044897778
0.0042657745
0.004061448
0.0038740894
0.0037001411
0.0035350126
0.0033725469
0.0032044431
0.0030198304
0.0028104938
0.0025941568
0.0039630065
0.0038902223
0.0038674732
0.0038259816
0.0037303749
0.0035937373
0.0034521205
0.0033205184
0.0032012883
0.0030965112
0.0030051991
0.0029242306
0.002847959
0.0027757437
0.0027074514
0.00264239
0.0025791483
0.0025155026
0.0024481591
0.0023722052
0.0022799962
0.0021588438
0.0019851945
0.0017065051
0.001164031
0.001915943
0.0019284595
0.0019525997
0.0019660339
0.0019577823
0.0019313988
0.0018978365
0.001864064
0.0018330618
0.0018061046
0.0017829583
0.0017623799
0.0017427281
0.0017233644
0.0017041499
0.0016841583
0.0016619039
0.0016350891
0.0016002306
0.0015520008
0.0014820363
0.0013767112
0.001212784
0.00094895644
0.00051157025
0.0010694413
0.0010862885
0.0011081588
0.0011262038
0.0011357744
0.0011375468
0.0011350698
0.0011312882
0.001127875
0.001125544
0.0011242508
0.0011234573
0.0011224578
0.0011207199
0.0011177686
0.0011127861
0.0011044509
0.0010907216
0.0010685171
0.001033214
0.000977876
0.00089210486
0.00076048867
0.0005612586
0.00026752845
0.00065259997
0.00066495284
0.00068003125
0.00069393047
0.00070444162
0.00071143325
0.00071606631
0.00071959805
0.00072288585
0.00072633287
0.00072995444
0.00073350256
0.00073660832
0.00073888579
0.00073987001
0.00073886062
0.00073479213
0.00072606437
0.0007103154
0.000684134
0.00064272922
0.00057964191
0.00048670811
0.00035446319
0.00017045773
0.00041779479
0.00042585667
0.00043551269
0.00044491393
0.00045290499
0.00045922164
0.00046420702
0.00046837578
0.00047214092
0.00047571443
0.00047911451
0.00048221318
0.00048479269
0.0004865809
0.00048722479
0.00048621534
0.00048279664
0.00047585297
0.00046377741
0.00044435139
0.00041471841
0.00037166154
0.00031271216
0.00023957394
0.00016889345
0.00027221453
0.00027715052
0.00028300638
0.00028886952
0.00029411009
0.00029848944
0.00030207269
0.00030505416
0.00030761758
0.00030986664
0.00031180858
0.00031336935
0.00031441668
0.00031477353
0.00031420497
0.00031238016
0.00030881795
0.00030282075
0.00029340821
0.00027929003
0.00025896428
0.00023112273
0.00019572733
0.00015643828
0.00012513802
0.00017630588
0.00017910328
0.00018240942
0.00018575681
0.00018879265
0.00019134197
0.00019338345
0.00019497749
0.00019619815
0.00019709034
0.00019765344
0.0001978442
0.00019758585
0.00019677408
0.00019527171
0.0001928909
0.00018936387
0.0001843076
0.00017719368
0.00016735328
0.00015407344
0.00013687952
0.00011613081
9.4018512e-05
7.4114653e-05
0.00011144039
0.0001128531
0.00011452497
0.00011621469
0.00011772298
0.00011893308
0.00011980612
0.00012035231
0.00012059765
0.00012055998
0.00012023756
0.00011960745
0.00011863022
0.00011725322
0.0001154097
0.00011301083
0.00010993203
0.00010599525
0.00010095454
9.4501549e-05
8.6313669e-05
7.6162732e-05
6.4031603e-05
4.9882376e-05
3.1313506e-05
6.7866064e-05
6.8457553e-05
6.916582e-05
6.986754e-05
7.0453034e-05
7.085049e-05
7.1027232e-05
7.0978612e-05
7.0712542e-05
7.0236667e-05
6.9551254e-05
6.8647558e-05
6.7509945e-05
6.611794e-05
6.444702e-05
6.2465648e-05
6.0128927e-05
5.7369618e-05
5.4089994e-05
5.016098e-05
4.5434338e-05
3.975991e-05
3.2950485e-05
2.4517938e-05
1.2904731e-05
3.960157e-05
3.97697e-05
3.99815e-05
4.0176035e-05
4.0296173e-05
4.0301306e-05
4.0170324e-05
3.9897213e-05
3.9484428e-05
3.8936415e-05
3.8255586e-05
3.7441109e-05
3.6489823e-05
3.5397509e-05
3.4159619e-05
3.2770192e-05
3.1218692e-05
2.9485212e-05
2.7535129e-05
2.5315334e-05
2.2752523e-05
1.9746552e-05
1.6136219e-05
1.1607164e-05
5.634258e-06
2.2234542e-05
2.2227855e-05
2.2233046e-05
2.2221384e-05
2.2165083e-05
2.2043094e-05
2.1843893e-05
2.1563712e-05
2.1203772e-05
2.0767225e-05
2.0257084e-05
1.9675434e-05
1.9023795e-05
1.8303655e-05
1.751684e-05
1.6664992e-05
1.5747832e-05
1.4760395e-05
1.3689541e-05
1.251038e-05
1.118258e-05
9.6443507e-06
7.80079e-06
5.514629e-06
2.6628467e-06
1.2209594e-05
1.2157173e-05
1.2105764e-05
1.2042709e-05
1.1955249e-05
1.1833475e-05
1.1671679e-05
1.1468154e-05
1.1223776e-05
1.0940687e-05
1.0621313e-05
1.0267893e-05
9.882464e-06
9.4672476e-06
9.0245676e-06
8.5564778e-06
8.0636921e-06
7.543893e-06
6.989516e-06
6.3853689e-06
5.7062333e-06
4.9145277e-06
3.9604518e-06
2.7929119e-06
1.395258e-06
6.7836071e-06
6.7374954e-06
6.6901103e-06
6.6363131e-06
6.5705306e-06
6.4884262e-06
6.387437e-06
6.2668774e-06
6.1273503e-06
5.970152e-06
5.7967882e-06
5.6087281e-06
5.4073153e-06
5.1938696e-06
4.9695903e-06
4.7351603e-06
4.4900237e-06
4.2312743e-06
3.9522495e-06
3.6409799e-06
3.2788939e-06
2.840952e-06
2.2990119e-06
1.6330112e-06
8.4350673e-07
4.0289094e-06
4.0016253e-06
3.9735801e-06
3.9427506e-06
3.9068645e-06
3.864062e-06
3.8132436e-06
3.7541155e-06
3.6869835e-06
3.6124778e-06
3.53134e-06
3.4442677e-06
3.3518501e-06
3.2545025e-06
3.1523321e-06
3.0447962e-06
2.9301182e-06
2.8044652e-06
2.6609378e-06
2.4885286e-06
2.2714518e-06
1.9900354e-06
1.6245858e-06
1.1640684e-06
6.1065977e-07
2.7209211e-06
2.7099194e-06
2.699097e-06
2.6876649e-06
2.6746869e-06
2.6593475e-06
2.6411293e-06
2.6198369e-06
2.5955317e-06
2.5684106e-06
2.5387063e-06
2.506603e-06
2.4721636e-06
2.4352263e-06
2.3952137e-06
2.3508253e-06
2.2995155e-06
2.236793e-06
2.1553796e-06
2.0444064e-06
1.8890523e-06
1.6715163e-06
1.3748152e-06
9.9001431e-07
5.2095735e-07
2.1518681e-06
2.151412e-06
2.1518099e-06
2.1527188e-06
2.1537042e-06
2.1543585e-06
2.1543699e-06
2.1535497e-06
2.151805e-06
2.1490927e-06
2.1453664e-06
2.1405229e-06
2.1343273e-06
2.1262946e-06
2.1154867e-06
2.1001906e-06
2.0774355e-06
2.0423301e-06
1.9872819e-06
1.9012697e-06
1.7695868e-06
1.5748451e-06
1.3006722e-06
9.384845e-07
4.9129355e-07
1.9418071e-06
1.9470918e-06
1.9535784e-06
1.9610691e-06
1.9693086e-06
1.9780338e-06
1.9870071e-06
1.9960279e-06
2.0049269e-06
2.013545e-06
2.0217021e-06
2.0291536e-06
2.0355166e-06
2.0401448e-06
2.0419188e-06
2.038915e-06
2.0279271e-06
2.0038107e-06
1.958713e-06
1.8813584e-06
1.7568132e-06
1.5675212e-06
1.2970222e-06
9.3707261e-07
4.9213883e-07
1.8984015e-06
1.9063302e-06
1.9155841e-06
1.9260085e-06
1.9374108e-06
1.9495817e-06
1.9623114e-06
1.9753965e-06
1.988638e-06
2.0018299e-06
2.014737e-06
2.0270538e-06
2.0383308e-06
2.047846e-06
2.0543887e-06
2.0559226e-06
2.0490937e-06
2.0285727e-06
1.9862725e-06
1.9106257e-06
1.7863475e-06
1.5954878e-06
1.321153e-06
9.5479207e-07
5.0341624e-07
1.9292222e-06
1.938072e-06
1.9482482e-06
1.9596098e-06
1.9719891e-06
1.9852014e-06
1.9990532e-06
2.0133463e-06
2.0278767e-06
2.0424261e-06
2.0567415e-06
2.070496e-06
2.0832129e-06
2.0941342e-06
2.1019987e-06
2.1046971e-06
2.0987656e-06
2.078716e-06
2.0362364e-06
1.959454e-06
1.8326949e-06
1.6375591e-06
1.3566828e-06
9.8119335e-07
5.1819537e-07
1.9919355e-06
2.0008496e-06
2.0110354e-06
2.0223598e-06
2.0346689e-06
2.0477938e-06
2.0615549e-06
2.0757639e-06
2.0902228e-06
2.1047157e-06
2.1189888e-06
2.1327106e-06
2.1453942e-06
2.1562623e-06
2.1640198e-06
2.1664987e-06
2.160139e-06
2.1393008e-06
2.0954475e-06
2.0163945e-06
1.8860693e-06
1.6856192e-06
1.3972279e-06
1.0116634e-06
5.3980607e-07
2.0680127e-06
2.0766088e-06
2.0864015e-06
2.0972652e-06
2.109057e-06
2.1216208e-06
2.1347899e-06
2.1483878e-06
2.1622263e-06
2.1760977e-06
2.1897535e-06
2.2028641e-06
2.2149391e-06
2.2251883e-06
2.2322878e-06
2.2340153e-06
2.2267181e-06
2.2046035e-06
2.1589056e-06
2.0771199e-06
1.9427684e-06
1.7365544e-06
1.4402477e-06
1.0441918e-06
5.5846378e-07
2.1496773e-06
2.1578077e-06
2.1670555e-06
2.1773026e-06
2.1884164e-06
2.2002521e-06
2.2126548e-06
2.2254597e-06
2.2384897e-06
2.2515462e-06
2.2643883e-06
2.2766903e-06
2.2879603e-06
2.2973967e-06
2.3036484e-06
2.3044395e-06
2.296022e-06
2.2724476e-06
2.2247134e-06
2.1399812e-06
2.0013465e-06
1.7890358e-06
1.4843565e-06
1.0771315e-06
5.7659902e-07
2.2337707e-06
2.2413936e-06
2.2500569e-06
2.2596499e-06
2.2700494e-06
2.2811211e-06
2.2927209e-06
2.3046949e-06
2.3168762e-06
2.3290759e-06
2.3410605e-06
2.3525085e-06
2.3629269e-06
2.3715029e-06
2.3768576e-06
2.3766599e-06
2.3670646e-06
2.3419629e-06
2.2921055e-06
2.2043036e-06
2.0611932e-06
1.8424582e-06
1.5288217e-06
1.1094345e-06
5.9299406e-07
2.3190127e-06
2.3261299e-06
2.3342144e-06
2.343163e-06
2.3528609e-06
2.3631833e-06
2.373996e-06
2.3851552e-06
2.3965035e-06
2.4078606e-06
2.4190004e-06
2.4296054e-06
2.4391806e-06
2.4469018e-06
2.4513615e-06
2.4501719e-06
2.4393872e-06
2.4127337e-06
2.3607081e-06
2.2697566e-06
2.1220272e-06
1.8966024e-06
1.5735133e-06
1.1412706e-06
6.1132818e-07
2.4048377e-06
2.4114668e-06
2.4189944e-06
2.4273243e-06
2.4363497e-06
2.4459542e-06
2.4560127e-06
2.4663905e-06
2.4769391e-06
2.4874864e-06
2.4978127e-06
2.5076037e-06
2.5163625e-06
2.5232524e-06
2.5268361e-06
2.5246677e-06
2.5126986e-06
2.4844863e-06
2.4302683e-06
2.3361175e-06
2.1836826e-06
1.9514227e-06
1.6186315e-06
1.1730859e-06
6.2683405e-07
2.4909236e-06
2.4970868e-06
2.5040837e-06
2.5118247e-06
2.5202102e-06
2.5291317e-06
2.5384725e-06
2.5481062e-06
2.5578926e-06
2.5676668e-06
2.5772151e-06
2.5862261e-06
2.5941999e-06
2.6002867e-06
2.6030186e-06
2.5998901e-06
2.5867476e-06
2.5569775e-06
2.5005553e-06
2.4031789e-06
2.2459989e-06
2.0068712e-06
1.664431e-06
1.2059182e-06
6.4414787e-07
2.5770108e-06
2.5827309e-06
2.5892234e-06
2.5964049e-06
2.6041826e-06
2.6124555e-06
2.6211142e-06
2.6300403e-06
2.6391012e-06
2.6481387e-06
2.6569444e-06
2.6652093e-06
2.6724299e-06
2.6777427e-06
2.6796482e-06
2.6755799e-06
2.6612781e-06
2.6299564e-06
2.5713274e-06
2.4707145e-06
2.3087774e-06
2.0627989e-06
1.7108612e-06
1.2397706e-06
6.6206557e-07
2.6628362e-06
2.6681352e-06
2.6741486e-06
2.6807987e-06
2.6879992e-06
2.6956558e-06
2.7036664e-06
2.7119197e-06
2.72029e-06
2.7286257e-06
2.736723e-06
2.7442747e-06
2.7507732e-06
2.7553406e-06
2.7564449e-06
2.7514581e-06
2.7360133e-06
2.7031506e-06
2.6423195e-06
2.5384721e-06
2.3717863e-06
2.1190053e-06
1.7577836e-06
1.2749694e-06
6.860468e-07
2.7481103e-06
2.7530092e-06
2.7585675e-06
2.764713e-06
2.7713652e-06
2.7784364e-06
2.785831e-06
2.7934444e-06
2.8011576e-06
2.8088248e-06
2.8162465e-06
2.8231168e-06
2.8289234e-06
2.8327736e-06
2.8331023e-06
2.8272193e-06
2.8106499e-06
2.7762608e-06
2.7132396e-06
2.6061693e-06
2.4347527e-06
2.1752071e-06
1.8047964e-06
1.310535e-06
7.0911947e-07
2.8325078e-06
2.8370268e-06
2.8421531e-06
2.8478194e-06
2.8539511e-06
2.8604662e-06
2.8672756e-06
2.8742808e-06
2.8813691e-06
2.8884e-06
2.895178e-06
2.9013977e-06
2.9065422e-06
2.9097031e-06
2.909282e-06
2.9025261e-06
2.8848532e-06
2.848957e-06
2.783765e-06
2.6734957e-06
2.4973835e-06
2.2311269e-06
1.8515718e-06
1.3456152e-06
7.2994731e-07
2.9156596e-06
2.9198183e-06
2.9245348e-06
2.9297468e-06
2.9353847e-06
2.9413723e-06
2.9476262e-06
2.9540541e-06
2.9605487e-06
2.9669747e-06
2.97314e-06
2.9787398e-06
2.9832515e-06
2.9857511e-06
2.9846067e-06
2.9770028e-06
2.9582501e-06
2.9208709e-06
2.8535358e-06
2.7401048e-06
2.5593555e-06
2.2864846e-06
1.8979509e-06
1.3805978e-06
7.5096298e-07
2.9971385e-06
3.000956e-06
3.0052845e-06
3.0100662e-06
3.0152366e-06
3.0207246e-06
3.0264524e-06
3.0323331e-06
3.0382648e-06
3.0441169e-06
3.0497003e-06
3.0547103e-06
3.0586188e-06
3.0604854e-06
3.058645e-06
3.0502197e-06
3.0304141e-06
2.9915814e-06
2.9221397e-06
2.8055994e-06
2.620296e-06
2.3409437e-06
1.9436055e-06
1.4149316e-06
7.711074e-07
3.0764279e-06
3.0799231e-06
3.0838852e-06
3.0882606e-06
3.0929893e-06
3.0980054e-06
3.103236e-06
3.1085995e-06
3.113999e-06
3.119308e-06
3.1243404e-06
3.128791e-06
3.1321259e-06
3.1333886e-06
3.1308804e-06
3.1216621e-06
3.1008338e-06
3.0605827e-06
2.9890807e-06
2.8694984e-06
2.6797477e-06
2.394093e-06
1.9882681e-06
1.4487825e-06
7.8812949e-07
3.1528608e-06
3.1560528e-06
3.15967e-06
3.163663e-06
3.167976e-06
3.1725477e-06
3.1773103e-06
3.1821867e-06
3.1870848e-06
3.1918818e-06
3.1963942e-06
3.2003162e-06
3.2031075e-06
3.2037959e-06
3.2006494e-06
3.1906686e-06
3.1688515e-06
3.1272237e-06
3.053718e-06
2.9311772e-06
2.7371049e-06
2.4453383e-06
2.0313329e-06
1.4816383e-06
8.0823917e-07
3.225503e-06
3.2284108e-06
3.231705e-06
3.2353397e-06
3.2392633e-06
3.2434188e-06
3.2477428e-06
3.2521627e-06
3.2565906e-06
3.2609073e-06
3.2649313e-06
3.2683559e-06
3.2706347e-06
3.2707791e-06
3.2670251e-06
3.2563144e-06
3.2335461e-06
3.1905904e-06
3.115151e-06
2.9897567e-06
2.7915201e-06
2.4938555e-06
2.0718717e-06
1.5119103e-06
8.2556738e-07
3.2929449e-06
3.295588e-06
3.2985814e-06
3.3018825e-06
3.3054436e-06
3.3092117e-06
3.3131274e-06
3.3171223e-06
3.3211121e-06
3.324981e-06
3.328549e-06
3.3315084e-06
3.3333062e-06
3.3329381e-06
3.3286085e-06
3.3172026e-06
3.2935252e-06
3.2492994e-06
3.1720129e-06
3.0438998e-06
2.8417005e-06
2.5383986e-06
2.1086047e-06
1.537873e-06
8.337579e-07
3.3529499e-06
3.3553484e-06
3.3580638e-06
3.3610569e-06
3.3642835e-06
3.367694e-06
3.3712327e-06
3.3748352e-06
3.3784204e-06
3.3818751e-06
3.3850208e-06
3.3875482e-06
3.3888977e-06
3.3880494e-06
3.3831775e-06
3.3711137e-06
3.3465751e-06
3.3011491e-06
3.2221274e-06
3.091478e-06
2.8856042e-06
2.5770924e-06
2.1401336e-06
1.5601803e-06
8.4691981e-07
3.4018967e-06
3.4040714e-06
3.4065326e-06
3.4092441e-06
3.4121651e-06
3.4152491e-06
3.4184439e-06
3.421688e-06
3.4249034e-06
3.4279792e-06
3.4307376e-06
3.4328674e-06
3.4338024e-06
3.4325077e-06
3.427129e-06
3.414449e-06
3.3891065e-06
3.3425718e-06
3.2619714e-06
3.1290559e-06
2.9199596e-06
2.6069592e-06
2.1639501e-06
1.5765407e-06
8.5658001e-07
3.4339506e-06
3.4359225e-06
3.4381538e-06
3.4406113e-06
3.4432567e-06
3.4460467e-06
3.4489319e-06
3.4518534e-06
3.4547355e-06
3.4574691e-06
3.4598766e-06
3.4616448e-06
3.4622009e-06
3.460496e-06
3.4546503e-06
3.4414051e-06
3.415336e-06
3.3678251e-06
3.2858855e-06
3.1511345e-06
2.9395673e-06
2.623335e-06
2.1762426e-06
1.5839386e-06
8.5919805e-07
3.4399278e-06
3.4417177e-06
3.4437434e-06
3.4459744e-06
3.4483749e-06
3.4509043e-06
3.4535152e-06
3.4561509e-06
3.4587374e-06
3.4611666e-06
3.463261e-06
3.4647054e-06
3.464921e-06
3.4628474e-06
3.4565851e-06
3.4428464e-06
3.4161691e-06
3.367895e-06
3.2850077e-06
3.1491306e-06
2.9363356e-06
2.6189529e-06
2.1710224e-06
1.5782132e-06
8.5351964e-07
3.4059028e-06
3.4075294e-06
3.4093721e-06
3.4114029e-06
3.4135883e-06
3.4158896e-06
3.4182611e-06
3.4206475e-06
3.4229757e-06
3.4251381e-06
3.4269578e-06
3.4281183e-06
3.4280372e-06
3.4256477e-06
3.419042e-06
3.4049254e-06
3.3778412e-06
3.3291684e-06
3.2459947e-06
3.1101667e-06
2.898159e-06
2.5829253e-06
2.1392794e-06
1.5534832e-06
8.3870849e-07
3.311801e-06
3.3132782e-06
3.3149558e-06
3.3168086e-06
3.3188047e-06
3.3209065e-06
3.3230695e-06
3.325239e-06
3.3273425e-06
3.3292729e-06
3.3308546e-06
3.3317731e-06
3.3314483e-06
3.3288182e-06
3.3219873e-06
3.3076941e-06
3.2805585e-06
3.2321221e-06
3.149784e-06
3.0159367e-06
2.8079272e-06
2.4999576e-06
2.0683548e-06
1.5007069e-06
8.1017356e-07
3.1305866e-06
3.1319214e-06
3.1334453e-06
3.1351354e-06
3.1369592e-06
3.1388795e-06
3.1408532e-06
3.1428271e-06
3.1447309e-06
3.1464555e-06
3.1478296e-06
3.1485483e-06
3.1480466e-06
3.1452889e-06
3.13843e-06
3.1243102e-06
3.0977429e-06
3.050628e-06
2.9709865e-06
2.8422186e-06
2.6431841e-06
2.3501394e-06
1.9417837e-06
1.4078e-06
7.6195147e-07
2.829277e-06
2.8304767e-06
2.8318547e-06
2.8333874e-06
2.835038e-06
2.836773e-06
2.8385508e-06
2.8403236e-06
2.8420375e-06
2.8435682e-06
2.8447515e-06
2.8453074e-06
2.84471e-06
2.8419868e-06
2.8354068e-06
2.8220343e-06
2.7970577e-06
2.7530272e-06
2.6790329e-06
2.560112e-06
2.3774517e-06
2.1103392e-06
1.7407757e-06
1.260853e-06
6.8315669e-07
2.3739177e-06
2.3750113e-06
2.376253e-06
2.3776113e-06
2.3790253e-06
2.3805232e-06
2.3820393e-06
2.3835304e-06
2.3850346e-06
2.386364e-06
2.387352e-06
2.3877677e-06
2.3871599e-06
2.3846682e-06
2.3787753e-06
2.3669913e-06
2.3451452e-06
2.3068425e-06
2.2428466e-06
2.1406292e-06
1.9846417e-06
1.7582662e-06
1.4477543e-06
1.048109e-06
5.6987297e-07
1.7419362e-06
1.7429929e-06
1.7440765e-06
1.7451324e-06
1.7458878e-06
1.746966e-06
1.7480233e-06
1.7489503e-06
1.7501283e-06
1.7512048e-06
1.751963e-06
1.752241e-06
1.7516972e-06
1.7496326e-06
1.7448811e-06
1.7357509e-06
1.719065e-06
1.6899897e-06
1.6416911e-06
1.5649853e-06
1.4485327e-06
1.2807621e-06
1.0528193e-06
7.6285476e-07
4.2093403e-07
9.4562896e-07
9.4672471e-07
9.4746114e-07
9.4775789e-07
9.4632434e-07
9.4654882e-07
9.4687371e-07
9.4687486e-07
9.4744977e-07
9.4810462e-07
9.485495e-07
9.4868335e-07
9.4830119e-07
9.4694417e-07
9.4395273e-07
9.3867524e-07
9.2932649e-07
9.131834e-07
8.8651412e-07
8.4435883e-07
7.804873e-07
6.8894281e-07
5.6564799e-07
4.1083311e-07
2.3256954e-07
)
;

boundaryField
{
    Walls
    {
        type            kqRWallFunction;
        value           nonuniform List<scalar> 
38
(
6.2358555e-06
2.6091345e-06
7.9916023e-06
3.7678722e-05
0.0002818173
0.0023591107
0.056130854
0.060813696
0.018603846
0.027509247
0.03444823
0.041250936
0.04725558
0.052301139
0.056907263
0.059822839
0.062778135
0.065052314
0.065771222
0.067393937
0.069248937
0.070377706
0.070917259
0.071525749
0.072555388
0.072419107
0.073131978
0.073558232
0.072657528
0.072333213
0.073103457
0.073426186
0.073267004
0.072941742
0.072664675
0.072450705
0.071563461
0.06653194
)
;
    }
    Inlet
    {
        type            turbulentIntensityKineticEnergyInlet;
        intensity       0.05;
        value           nonuniform List<scalar> 3(0.0083529113 0.0084159446 0.009953949);
    }
    Outlet
    {
        type            inletOutlet;
        inletValue      uniform 0;
        value           nonuniform List<scalar> 
86
(
0
0
0
0
0
0
0
0
0
0
0
0
0
0
0
0
0
0
0
0
0
0
0
0
0
0
0
0
0
0
0.00309341
0.0031927163
0.0025941568
0
0
0
0
0.00016889345
0.00012513802
7.4114653e-05
0
0
0
2.6628467e-06
1.395258e-06
8.4350673e-07
6.1065977e-07
5.2095735e-07
4.9129355e-07
4.9213883e-07
5.0341624e-07
5.1819537e-07
5.3980607e-07
5.5846378e-07
5.7659902e-07
5.9299406e-07
6.1132818e-07
6.2683405e-07
6.4414787e-07
6.6206557e-07
6.860468e-07
7.0911947e-07
7.2994731e-07
7.5096298e-07
7.711074e-07
7.8812949e-07
8.0823917e-07
8.2556738e-07
8.337579e-07
8.4691981e-07
8.5658001e-07
8.5919805e-07
8.5351964e-07
8.3870849e-07
8.1017356e-07
7.6195147e-07
6.8315669e-07
5.6987297e-07
4.2093403e-07
2.3256954e-07
0
0
0
0
0.0025380933
0.003195895
)
;
    }
    Front
    {
        type            wedge;
    }
    Back
    {
        type            wedge;
    }
    defaultFaces
    {
        type            empty;
    }
}


// ************************************************************************* //
