/*--------------------------------*- C++ -*----------------------------------*\
| =========                 |                                                 |
| \\      /  F ield         | OpenFOAM: The Open Source CFD Toolbox           |
|  \\    /   O peration     | Version:  4.0                                   |
|   \\  /    A nd           | Web:      www.OpenFOAM.org                      |
|    \\/     M anipulation  |                                                 |
\*---------------------------------------------------------------------------*/
FoamFile
{
    version     2.0;
    format      ascii;
    class       volScalarField;
    location    "0.25";
    object      nut;
}
// * * * * * * * * * * * * * * * * * * * * * * * * * * * * * * * * * * * * * //

dimensions      [0 2 -1 0 0 0 0];

internalField   nonuniform List<scalar> 
1740
(
1.4931823e-05
1.2215332e-05
1.2467086e-06
1.2257647e-05
6.4272335e-06
1.8301728e-06
3.144416e-05
5.2625602e-06
2.2790165e-06
2.6168237e-05
4.8109834e-06
2.7145441e-06
1.929266e-05
4.4905771e-06
3.0949323e-06
1.699234e-05
4.2000055e-06
3.411548e-06
1.4137751e-05
3.9664035e-06
3.6995884e-06
1.1987203e-05
3.8074061e-06
3.8802761e-06
1.0658046e-05
3.7169766e-06
4.0621107e-06
9.6743802e-06
3.6575639e-06
4.2021825e-06
8.7439795e-06
3.5937526e-06
4.2462664e-06
8.0810493e-06
3.5392583e-06
4.3458135e-06
7.6215018e-06
3.5244382e-06
4.4590021e-06
7.1327056e-06
3.5346562e-06
4.5277978e-06
6.6636795e-06
3.5234367e-06
4.5611067e-06
6.2603065e-06
3.5189227e-06
4.5984396e-06
5.9626005e-06
3.5354565e-06
4.6606723e-06
5.711265e-06
3.5592497e-06
4.6519541e-06
5.4676944e-06
3.5609933e-06
4.6949197e-06
5.23554e-06
3.5843554e-06
4.7210027e-06
5.0517925e-06
3.5901847e-06
4.6667942e-06
4.9046437e-06
3.568252e-06
4.6466395e-06
4.7585996e-06
3.5496223e-06
4.6945656e-06
4.6224739e-06
3.560043e-06
4.7135812e-06
4.497735e-06
3.5696872e-06
4.7036731e-06
4.3905205e-06
3.5780177e-06
4.6846528e-06
4.295029e-06
3.56916e-06
4.6679644e-06
4.1974305e-06
3.5849845e-06
4.6548999e-06
4.1366182e-06
3.6039628e-06
4.60042e-06
2.9546326e-06
3.5019814e-06
4.293075e-06
1.9438415e-06
2.1543804e-06
4.3978483e-06
7.1634778e-06
7.3572512e-06
6.7128622e-06
6.5325402e-06
6.7444718e-06
6.3782785e-06
5.1804541e-06
5.1215535e-06
4.8725271e-06
4.3262891e-06
4.2554544e-06
4.1194034e-06
3.7524706e-06
3.7095915e-06
3.6477024e-06
3.3174625e-06
3.2985835e-06
3.2788601e-06
2.9254967e-06
2.9201668e-06
2.9205172e-06
2.515241e-06
2.5155696e-06
2.5225559e-06
2.0614045e-06
2.062936e-06
2.0695543e-06
1.5779722e-06
1.5788414e-06
1.5825057e-06
1.1117545e-06
1.111673e-06
1.1124726e-06
7.1815724e-07
7.1752926e-07
7.1669581e-07
4.2994072e-07
4.2922073e-07
4.2794049e-07
2.4480602e-07
2.4423301e-07
2.4314524e-07
1.3846282e-07
1.3811558e-07
1.3743218e-07
8.2836597e-08
8.2654736e-08
8.2290746e-08
5.5863444e-08
5.578296e-08
5.5623739e-08
4.397328e-08
4.3949414e-08
4.3907265e-08
3.9600179e-08
3.96053e-08
3.962387e-08
3.879168e-08
3.8810527e-08
3.8857614e-08
3.9590358e-08
3.9615098e-08
3.9673807e-08
4.1074888e-08
4.1101646e-08
4.1163635e-08
4.2834711e-08
4.2861608e-08
4.2922966e-08
4.4697788e-08
4.4723932e-08
4.4782931e-08
4.6596834e-08
4.6621816e-08
4.667776e-08
4.8507313e-08
4.8530961e-08
4.8583621e-08
5.0420451e-08
5.0442706e-08
5.0492059e-08
5.2332268e-08
5.2353123e-08
5.2399233e-08
5.423947e-08
5.4258948e-08
5.4301916e-08
5.6138094e-08
5.615623e-08
5.6196171e-08
5.8023149e-08
5.8039988e-08
5.8077025e-08
5.9888616e-08
5.9904207e-08
5.9938464e-08
6.1727523e-08
6.1741918e-08
6.1773524e-08
6.3532063e-08
6.3545316e-08
6.3574398e-08
6.5293695e-08
6.5305864e-08
6.5332553e-08
6.7003288e-08
6.7014431e-08
6.703886e-08
6.8651286e-08
6.8661464e-08
6.8683771e-08
7.0227944e-08
7.0237222e-08
7.0257549e-08
7.1723643e-08
7.1732089e-08
7.1750588e-08
7.3129262e-08
7.3136947e-08
7.3153778e-08
7.4436511e-08
7.4443513e-08
7.4458846e-08
7.5638034e-08
7.5644435e-08
7.5658448e-08
7.6726966e-08
7.6732848e-08
7.6745728e-08
7.7695568e-08
7.7701017e-08
7.7712947e-08
7.8532521e-08
7.8537618e-08
7.8548776e-08
7.9216342e-08
7.9221152e-08
7.9231687e-08
7.9708974e-08
7.9713544e-08
7.9723574e-08
7.9935363e-08
7.9939719e-08
7.9949317e-08
7.970705e-08
7.9711164e-08
7.9720332e-08
4.1643824e-06
4.4934409e-06
6.692676e-06
8.4102539e-06
5.9953477e-06
6.0381002e-06
4.7237081e-06
4.826026e-06
4.0685459e-06
4.1732631e-06
3.6454603e-06
3.7400038e-06
3.298941e-06
3.3795753e-06
2.9471884e-06
3.0118761e-06
2.5466435e-06
2.5944878e-06
2.0866975e-06
2.118287e-06
1.5919705e-06
1.6096294e-06
1.1159099e-06
1.1234704e-06
7.1669793e-07
7.1844095e-07
4.2669973e-07
4.2602378e-07
2.4187305e-07
2.407013e-07
1.365764e-07
1.3569207e-07
8.1822659e-08
8.1320412e-08
5.5422285e-08
5.52117e-08
4.3863839e-08
4.3834374e-08
3.9663815e-08
3.97319e-08
3.8936552e-08
3.9050084e-08
3.9767866e-08
3.9898093e-08
4.1260975e-08
4.1393535e-08
4.3018156e-08
4.3146576e-08
4.4873714e-08
4.4995444e-08
4.6763344e-08
4.6877623e-08
4.8663847e-08
4.8770654e-08
5.0567019e-08
5.0666604e-08
5.2469113e-08
5.2561803e-08
5.4366926e-08
5.4453059e-08
5.6256528e-08
5.6336424e-08
5.813294e-08
5.8206906e-08
5.9990145e-08
6.0058475e-08
6.1821176e-08
6.1884153e-08
6.3618225e-08
6.3676125e-08
6.5372758e-08
6.5425857e-08
6.7075649e-08
6.7124223e-08
6.8717354e-08
6.8761686e-08
7.0288146e-08
7.0328525e-08
7.1778427e-08
7.181516e-08
7.3179103e-08
7.3212512e-08
7.4481913e-08
7.451234e-08
7.5679529e-08
7.5707331e-08
7.6765101e-08
7.6790649e-08
7.7730893e-08
7.7754557e-08
7.8565561e-08
7.8587698e-08
7.9247551e-08
7.926849e-08
7.9738717e-08
7.9758755e-08
7.9963895e-08
7.9983336e-08
7.973446e-08
7.9753963e-08
5.1714641e-10
1.3227075e-08
1.9254262e-07
8.2455891e-07
1.6404666e-06
2.2262881e-06
2.5701476e-06
2.7770102e-06
2.9191388e-06
3.0320147e-06
3.1322635e-06
3.2314772e-06
3.3298758e-06
3.4258212e-06
3.5184073e-06
3.6064057e-06
3.6876819e-06
3.7586137e-06
3.813215e-06
3.841792e-06
3.8287968e-06
3.7492537e-06
3.5622314e-06
3.1933147e-06
2.4153046e-06
2.1637964e-10
2.6851481e-08
3.5941664e-07
1.3754938e-06
2.5674044e-06
3.3745239e-06
3.8458855e-06
4.1503051e-06
4.3820327e-06
4.5835542e-06
4.7746232e-06
4.9659529e-06
5.1579752e-06
5.3489441e-06
5.5371998e-06
5.7201907e-06
5.8936291e-06
6.0505152e-06
6.1793364e-06
6.2613722e-06
6.266298e-06
6.1442896e-06
5.8108205e-06
5.1094598e-06
3.6198182e-06
6.6275363e-10
7.8839049e-08
8.5736925e-07
2.5065616e-06
3.79055e-06
4.5255956e-06
4.9874033e-06
5.3306597e-06
5.6276448e-06
5.9103323e-06
6.193474e-06
6.4830746e-06
6.7781443e-06
7.0771347e-06
7.3783758e-06
7.6788119e-06
7.9725523e-06
8.2503226e-06
8.4959632e-06
8.6828528e-06
8.7673126e-06
8.6758428e-06
8.2788757e-06
7.3269765e-06
5.1922405e-06
3.1246536e-09
2.8559523e-07
2.0639329e-06
4.0039873e-06
5.0435245e-06
5.6300796e-06
6.0354492e-06
6.3761669e-06
6.7022371e-06
7.0318683e-06
7.3754644e-06
7.7358093e-06
8.1089371e-06
8.4930593e-06
8.8874269e-06
9.2902636e-06
9.6964289e-06
1.0096641e-05
1.0475206e-05
1.0806105e-05
1.1046193e-05
1.1121691e-05
1.089599e-05
1.007211e-05
7.7475717e-06
2.3364957e-08
1.1395534e-06
3.9922731e-06
5.6017462e-06
6.4534506e-06
6.9739431e-06
7.3565444e-06
7.7014693e-06
8.0495977e-06
8.4021811e-06
8.7724602e-06
9.1671802e-06
9.5755573e-06
9.9927246e-06
1.0420197e-05
1.0861899e-05
1.131644e-05
1.1778692e-05
1.2238689e-05
1.2679007e-05
1.3070542e-05
1.3366698e-05
1.3496165e-05
1.3369786e-05
1.296271e-05
1.9517347e-07
2.7569516e-06
5.9056243e-06
7.7137057e-06
8.6312999e-06
9.0496593e-06
9.2461401e-06
9.3825928e-06
9.5203328e-06
9.6776465e-06
9.8624865e-06
1.0081051e-05
1.0333776e-05
1.0620406e-05
1.0941445e-05
1.1297066e-05
1.1686411e-05
1.2106439e-05
1.255118e-05
1.301034e-05
1.3466738e-05
1.3893533e-05
1.4251387e-05
1.4497294e-05
1.4580351e-05
4.3348619e-06
4.3112167e-06
4.3600804e-06
4.4755951e-06
4.6547051e-06
4.8865059e-06
5.1615257e-06
5.4773827e-06
5.8357395e-06
6.2377002e-06
6.6823442e-06
7.1664418e-06
7.6841135e-06
8.2280132e-06
8.7909768e-06
9.3674891e-06
9.9539646e-06
1.0547697e-05
1.1145463e-05
1.1741768e-05
1.2326333e-05
1.2881565e-05
1.3380157e-05
1.3790781e-05
1.4053867e-05
9.1257261e-06
9.3790853e-06
9.7774019e-06
1.0198259e-05
1.0376223e-05
1.0340298e-05
1.022267e-05
1.012438e-05
1.0085441e-05
1.0107487e-05
1.0186368e-05
1.031733e-05
1.0497985e-05
1.0727508e-05
1.1005012e-05
1.1329022e-05
1.1696616e-05
1.2102968e-05
1.254051e-05
1.2997267e-05
1.3454207e-05
1.3882516e-05
1.4240792e-05
1.4484903e-05
1.4565292e-05
6.4109362e-06
6.820403e-06
7.2520449e-06
7.65233e-06
7.9537419e-06
8.1693585e-06
8.3591556e-06
8.5632383e-06
8.7892907e-06
9.0516912e-06
9.3470145e-06
9.6658689e-06
1.0002548e-05
1.0362348e-05
1.0748323e-05
1.116041e-05
1.1595346e-05
1.204617e-05
1.2500618e-05
1.293849e-05
1.3327439e-05
1.3617217e-05
1.373278e-05
1.3582304e-05
1.3142631e-05
5.1377632e-06
5.4931974e-06
5.842119e-06
6.1565706e-06
6.4193902e-06
6.6429451e-06
6.8573513e-06
7.0827841e-06
7.329797e-06
7.604486e-06
7.9043769e-06
8.2261639e-06
8.568855e-06
8.9328903e-06
9.3175198e-06
9.7193185e-06
1.0131184e-05
1.0540913e-05
1.0928862e-05
1.1264021e-05
1.1497221e-05
1.1548004e-05
1.1273187e-05
1.0368166e-05
7.9090987e-06
4.412314e-06
4.6980192e-06
4.98375e-06
5.2485483e-06
5.4860799e-06
5.7039809e-06
5.9163281e-06
6.1353902e-06
6.3690704e-06
6.620905e-06
6.8900188e-06
7.1746359e-06
7.4739051e-06
7.7866844e-06
8.1108911e-06
8.4411791e-06
8.7681889e-06
9.0768178e-06
9.3435735e-06
9.5324478e-06
9.5882721e-06
9.4251659e-06
8.9034076e-06
7.7712216e-06
5.4141219e-06
3.9200698e-06
4.1403619e-06
4.3679447e-06
4.5863287e-06
4.7909513e-06
4.9856503e-06
5.1779414e-06
5.3749304e-06
5.581614e-06
5.8001899e-06
6.03035e-06
6.2708301e-06
6.5203103e-06
6.7767885e-06
7.0367586e-06
7.2942095e-06
7.5394013e-06
7.7572452e-06
7.925033e-06
8.0092473e-06
7.9610988e-06
7.7098924e-06
7.1510183e-06
6.1125485e-06
4.1502303e-06
3.5153141e-06
3.6825351e-06
3.8599674e-06
4.0351009e-06
4.2034477e-06
4.366107e-06
4.5268949e-06
4.689934e-06
4.8582969e-06
5.0333875e-06
5.2150607e-06
5.4023035e-06
5.5936477e-06
5.7868965e-06
5.9785368e-06
6.1629902e-06
6.3316983e-06
6.4718344e-06
6.5646058e-06
6.5831712e-06
6.4902355e-06
6.235248e-06
5.7496805e-06
4.9283899e-06
3.4677555e-06
3.1123815e-06
3.2363006e-06
3.3703767e-06
3.5053768e-06
3.6369407e-06
3.7645642e-06
3.8898655e-06
4.0150654e-06
4.1419424e-06
4.2713063e-06
4.4029776e-06
4.5360564e-06
4.6691174e-06
4.800117e-06
4.9260756e-06
5.0425807e-06
5.1431169e-06
5.2181573e-06
5.2540352e-06
5.2317397e-06
5.1259923e-06
4.9053997e-06
4.5358979e-06
3.9977111e-06
3.3843504e-06
2.6655269e-06
2.7532315e-06
2.8494227e-06
2.9474698e-06
3.0434792e-06
3.1361106e-06
3.2256975e-06
3.3132574e-06
3.3997114e-06
3.4854531e-06
3.5702322e-06
3.6532539e-06
3.7332932e-06
3.8087057e-06
3.8772933e-06
3.9360344e-06
3.9806765e-06
4.0051802e-06
4.0010513e-06
3.9567543e-06
3.8576603e-06
3.6875979e-06
3.4349624e-06
3.1132362e-06
2.8239879e-06
2.1644685e-06
2.2218567e-06
2.2854775e-06
2.3506848e-06
2.4142598e-06
2.4746076e-06
2.5313787e-06
2.5848603e-06
2.6354332e-06
2.6832185e-06
2.72794e-06
2.7689559e-06
2.8053435e-06
2.8359663e-06
2.8594689e-06
2.8741917e-06
2.8779873e-06
2.8679526e-06
2.8401245e-06
2.7893264e-06
2.709582e-06
2.595955e-06
2.4495804e-06
2.2891591e-06
2.1573486e-06
1.6359137e-06
1.6691327e-06
1.706349e-06
1.7444693e-06
1.7810428e-06
1.814597e-06
1.8445173e-06
1.870717e-06
1.8932759e-06
1.9121812e-06
1.9272068e-06
1.9379091e-06
1.9437109e-06
1.9439894e-06
1.9381447e-06
1.9256154e-06
1.905849e-06
1.8782212e-06
1.841961e-06
1.7962387e-06
1.7407032e-06
1.6768917e-06
1.6106722e-06
1.55296e-06
1.4924256e-06
1.1356271e-06
1.1516098e-06
1.1697794e-06
1.1882246e-06
1.2052698e-06
1.219782e-06
1.2311686e-06
1.2392208e-06
1.2439022e-06
1.2451758e-06
1.2429129e-06
1.2368875e-06
1.2268397e-06
1.2125587e-06
1.1939663e-06
1.1711665e-06
1.144465e-06
1.1143606e-06
1.081547e-06
1.0470217e-06
1.0124448e-06
9.8082596e-07
9.5710563e-07
9.4585987e-07
9.3044365e-07
7.2230739e-07
7.2800455e-07
7.3469112e-07
7.4129506e-07
7.4680887e-07
7.5049231e-07
7.5191907e-07
7.5090598e-07
7.4740777e-07
7.4141492e-07
7.328943e-07
7.2178291e-07
7.0802783e-07
6.9165188e-07
6.7281197e-07
6.51837e-07
6.2924216e-07
6.0572449e-07
5.8215626e-07
5.5962359e-07
5.3955335e-07
5.2387398e-07
5.1480059e-07
5.1276523e-07
5.0612954e-07
4.2617435e-07
4.2707069e-07
4.2832888e-07
4.2940439e-07
4.2976352e-07
4.2898892e-07
4.268317e-07
4.2318102e-07
4.1801553e-07
4.1135005e-07
4.0320213e-07
3.9358568e-07
3.8252906e-07
3.7012367e-07
3.5655294e-07
3.4211018e-07
3.2720004e-07
3.1232605e-07
2.980712e-07
2.8508993e-07
2.7411225e-07
2.6591162e-07
2.6098105e-07
2.5829716e-07
2.5123201e-07
2.3979077e-07
2.391409e-07
2.38595e-07
2.3790369e-07
2.3681079e-07
2.3511101e-07
2.3267724e-07
2.2945748e-07
2.2544845e-07
2.2067053e-07
2.1515102e-07
2.089204e-07
2.020087e-07
1.9449329e-07
1.8650417e-07
1.7822948e-07
1.6991054e-07
1.6182847e-07
1.5428664e-07
1.4759507e-07
1.4203495e-07
1.3783241e-07
1.3497041e-07
1.3269875e-07
1.2844546e-07
1.3486728e-07
1.3411621e-07
1.3338011e-07
1.3255675e-07
1.3153323e-07
1.3021919e-07
1.2855779e-07
1.2652829e-07
1.2413524e-07
1.2139643e-07
1.1833316e-07
1.1496808e-07
1.1132772e-07
1.0744632e-07
1.0339327e-07
9.9266015e-08
9.5186252e-08
9.1293243e-08
8.7741879e-08
8.4669732e-08
8.2137029e-08
8.01951e-08
7.878519e-08
7.7599095e-08
7.5896044e-08
8.0830592e-08
8.036695e-08
7.9910543e-08
7.9421251e-08
7.8852963e-08
7.8166892e-08
7.7338646e-08
7.6359177e-08
7.5230582e-08
7.3960493e-08
7.2558387e-08
7.1034385e-08
6.9401721e-08
6.7680949e-08
6.5899846e-08
6.4106654e-08
6.235836e-08
6.0717748e-08
5.9249792e-08
5.801968e-08
5.7046967e-08
5.6306435e-08
5.5766337e-08
5.5319874e-08
5.4759904e-08
5.5015689e-08
5.4843845e-08
5.4691009e-08
5.454184e-08
5.4377391e-08
5.41805e-08
5.3939303e-08
5.3647602e-08
5.3303499e-08
5.2907214e-08
5.245996e-08
5.1964054e-08
5.1424277e-08
5.084991e-08
5.025099e-08
4.9648972e-08
4.9069175e-08
4.8538828e-08
4.8085007e-08
4.7732849e-08
4.7501482e-08
4.7342065e-08
4.7237142e-08
4.7137536e-08
4.694302e-08
4.3830422e-08
4.3857603e-08
4.3914538e-08
4.3994715e-08
4.4089178e-08
4.4188894e-08
4.4286094e-08
4.4374806e-08
4.4450462e-08
4.4509414e-08
4.4548769e-08
4.4566754e-08
4.4563351e-08
4.4540955e-08
4.4504371e-08
4.4459795e-08
4.4418987e-08
4.4394204e-08
4.4397485e-08
4.4440018e-08
4.4532548e-08
4.4630986e-08
4.4719613e-08
4.4761569e-08
4.4669355e-08
3.9833391e-08
3.9971085e-08
4.0144014e-08
4.0348287e-08
4.0578246e-08
4.0827497e-08
4.1089623e-08
4.1358523e-08
4.1628562e-08
4.1894616e-08
4.2152224e-08
4.2397908e-08
4.2629535e-08
4.2846672e-08
4.3050879e-08
4.3243392e-08
4.3429788e-08
4.3616343e-08
4.3809306e-08
4.401458e-08
4.4238423e-08
4.4442352e-08
4.461015e-08
4.4707069e-08
4.4646787e-08
3.9200281e-08
3.9388135e-08
3.9612243e-08
3.9869305e-08
4.0154686e-08
4.0462958e-08
4.0788312e-08
4.112488e-08
4.1466963e-08
4.1809226e-08
4.2146921e-08
4.2476131e-08
4.2794026e-08
4.3099092e-08
4.3391258e-08
4.367171e-08
4.3942106e-08
4.4206744e-08
4.4469737e-08
4.4734809e-08
4.5005781e-08
4.524851e-08
4.5445721e-08
4.556199e-08
4.55096e-08
4.0064925e-08
4.026825e-08
4.0506248e-08
4.0775747e-08
4.1072569e-08
4.1391856e-08
4.172836e-08
4.2076696e-08
4.2431568e-08
4.2787973e-08
4.31414e-08
4.3488045e-08
4.3825026e-08
4.4150608e-08
4.4464362e-08
4.4767271e-08
4.5060121e-08
4.5346335e-08
4.5629161e-08
4.5911247e-08
4.6194764e-08
4.6448887e-08
4.6655155e-08
4.6776831e-08
4.6722838e-08
4.1560915e-08
4.1762352e-08
4.199581e-08
4.2258243e-08
4.2545843e-08
4.2854258e-08
4.3178809e-08
4.3514683e-08
4.3857121e-08
4.4201596e-08
4.4544e-08
4.4880833e-08
4.5209414e-08
4.5528116e-08
4.5836556e-08
4.6135737e-08
4.6426582e-08
4.671207e-08
4.6995069e-08
4.7277553e-08
4.7560361e-08
4.7815221e-08
4.8022402e-08
4.8143491e-08
4.8086032e-08
4.3307392e-08
4.3499483e-08
4.372076e-08
4.396836e-08
4.4238829e-08
4.4528286e-08
4.4832577e-08
4.5147431e-08
4.5468609e-08
4.5792057e-08
4.6114077e-08
4.6431511e-08
4.6741962e-08
4.7044024e-08
4.7337476e-08
4.7623344e-08
4.7903605e-08
4.8180407e-08
4.8456559e-08
4.8733548e-08
4.901103e-08
4.9262658e-08
4.9467274e-08
4.9584384e-08
4.9516365e-08
4.5147076e-08
4.5327308e-08
4.5534088e-08
4.5764762e-08
4.6016203e-08
4.6284942e-08
4.6567278e-08
4.6859406e-08
4.7157536e-08
4.7458037e-08
4.7757585e-08
4.8053355e-08
4.8343245e-08
4.8626116e-08
4.8901996e-08
4.9172157e-08
4.9438964e-08
4.970467e-08
4.9971872e-08
5.0241617e-08
5.0512466e-08
5.0759436e-08
5.0959692e-08
5.1070037e-08
5.0986851e-08
4.7019462e-08
4.7187484e-08
4.7379719e-08
4.7593713e-08
4.7826631e-08
4.8075348e-08
4.8336543e-08
4.8606796e-08
4.8882696e-08
4.9160972e-08
4.9438632e-08
4.9713162e-08
4.9982748e-08
5.0246529e-08
5.0504805e-08
5.0759109e-08
5.1011998e-08
5.1266398e-08
5.1524367e-08
5.1786642e-08
5.2050789e-08
5.2292766e-08
5.2487929e-08
5.259e-08
5.2488942e-08
4.8902885e-08
4.905915e-08
4.9237579e-08
4.9435905e-08
4.9651539e-08
4.9881645e-08
5.0123215e-08
5.0373151e-08
5.062836e-08
5.0885879e-08
5.1143011e-08
5.1397525e-08
5.1647883e-08
5.1893501e-08
5.2134961e-08
5.237408e-08
5.2613682e-08
5.2856978e-08
5.3105981e-08
5.3361068e-08
5.3618897e-08
5.3856103e-08
5.4046311e-08
5.414024e-08
5.4023707e-08
5.0789669e-08
5.0934851e-08
5.1100386e-08
5.1284174e-08
5.1483837e-08
5.1696783e-08
5.1920265e-08
5.2151459e-08
5.2387544e-08
5.2625821e-08
5.2863861e-08
5.3099688e-08
5.3332028e-08
5.3560569e-08
5.3786171e-08
5.4010937e-08
5.4237961e-08
5.4470662e-08
5.4711164e-08
5.49595e-08
5.5211526e-08
5.5444393e-08
5.563022e-08
5.5717103e-08
5.5584632e-08
5.2676196e-08
5.2810974e-08
5.2964479e-08
5.3134763e-08
5.3319634e-08
5.3516707e-08
5.3723461e-08
5.3937305e-08
5.4155655e-08
5.437605e-08
5.4596297e-08
5.4814662e-08
5.5030117e-08
5.524261e-08
5.5453278e-08
5.5664501e-08
5.587963e-08
5.6102237e-08
5.6334793e-08
5.6576833e-08
5.6823548e-08
5.7052483e-08
5.723446e-08
5.7315519e-08
5.7170199e-08
5.4559251e-08
5.4684246e-08
5.4826488e-08
5.4984169e-08
5.5155259e-08
5.5337559e-08
5.5528744e-08
5.5726428e-08
5.5928239e-08
5.6131927e-08
5.6335517e-08
5.6537498e-08
5.6737079e-08
5.6934457e-08
5.7131035e-08
5.732947e-08
5.7533374e-08
5.7746522e-08
5.7971505e-08
5.8207637e-08
5.8449457e-08
5.8674754e-08
5.8853165e-08
5.8928945e-08
5.8772137e-08
5.6434854e-08
5.6550623e-08
5.6682278e-08
5.6828135e-08
5.6986316e-08
5.7154784e-08
5.7331393e-08
5.751394e-08
5.7700242e-08
5.7888245e-08
5.8076172e-08
5.8262723e-08
5.8447331e-08
5.863043e-08
5.8813686e-08
5.9000023e-08
5.9193312e-08
5.9397529e-08
5.9615341e-08
5.9845928e-08
6.0083201e-08
6.0305054e-08
6.0479969e-08
6.0550563e-08
6.0386192e-08
5.8297977e-08
5.8405025e-08
5.8526694e-08
5.8661418e-08
5.8807454e-08
5.8962917e-08
5.9125819e-08
5.9294124e-08
5.9465825e-08
5.9639047e-08
5.9812199e-08
5.9984177e-08
6.0154624e-08
6.0324209e-08
6.0494846e-08
6.0669722e-08
6.0852957e-08
6.1048718e-08
6.125971e-08
6.1485117e-08
6.1718136e-08
6.1936664e-08
6.210798e-08
6.2172806e-08
6.1997186e-08
6.0142565e-08
6.0241358e-08
6.0353588e-08
6.0477803e-08
6.0612384e-08
6.0755582e-08
6.0905558e-08
6.1060429e-08
6.121835e-08
6.1377611e-08
6.1536795e-08
6.1694986e-08
6.1852025e-08
6.2008805e-08
6.216748e-08
6.2331491e-08
6.2505202e-08
6.2692967e-08
6.2897558e-08
6.311803e-08
6.3347038e-08
6.356235e-08
6.3730027e-08
6.3788742e-08
6.3599824e-08
6.1961623e-08
6.2052599e-08
6.2155904e-08
6.2270187e-08
6.2393949e-08
6.2525567e-08
6.2663338e-08
6.2805522e-08
6.2950422e-08
6.3096484e-08
6.3242457e-08
6.3387596e-08
6.3531937e-08
6.3676582e-08
6.3823917e-08
6.397763e-08
6.4142319e-08
6.4322518e-08
6.4521063e-08
6.4736858e-08
6.4962071e-08
6.5174269e-08
6.5338338e-08
6.5391024e-08
6.5189555e-08
6.3747326e-08
6.3830906e-08
6.3925774e-08
6.4030676e-08
6.4144221e-08
6.4264907e-08
6.4391154e-08
6.4521357e-08
6.4653958e-08
6.4787548e-08
6.4921028e-08
6.5053821e-08
6.5186144e-08
6.53193e-08
6.5455897e-08
6.5599857e-08
6.5756002e-08
6.5929041e-08
6.6121863e-08
6.6333221e-08
6.6554823e-08
6.6763974e-08
6.6924413e-08
6.6970961e-08
6.6756435e-08
6.5491132e-08
6.556773e-08
6.5654636e-08
6.575069e-08
6.5854602e-08
6.596498e-08
6.6080364e-08
6.6199271e-08
6.6320271e-08
6.6442095e-08
6.6563784e-08
6.668492e-08
6.680589e-08
6.6928188e-08
6.7054634e-08
6.7189373e-08
6.7337438e-08
6.7503699e-08
6.7691094e-08
6.7898223e-08
6.8116359e-08
6.8322472e-08
6.8479189e-08
6.8519595e-08
6.8289409e-08
6.7183919e-08
6.7253945e-08
6.7333362e-08
6.7421095e-08
6.751595e-08
6.7616639e-08
6.772181e-08
6.7830097e-08
6.794019e-08
6.8050945e-08
6.8161541e-08
6.8271703e-08
6.8381982e-08
6.8494051e-08
6.8610928e-08
6.8736968e-08
6.8877404e-08
6.9037254e-08
6.921949e-08
6.9422546e-08
6.9637325e-08
6.9840338e-08
6.9993073e-08
7.0026772e-08
6.9783443e-08
6.8816152e-08
6.8880022e-08
6.8952426e-08
6.9032371e-08
6.9118751e-08
6.9210373e-08
6.9305988e-08
6.9404335e-08
6.9504219e-08
6.9604611e-08
6.9704817e-08
6.9804698e-08
6.9904955e-08
7.0007428e-08
7.0115321e-08
7.0233182e-08
7.0366428e-08
7.052021e-08
7.0697531e-08
7.0896667e-08
7.1108087e-08
7.1307842e-08
7.1456139e-08
7.1481782e-08
7.1221032e-08
7.0378124e-08
7.0436265e-08
7.0502147e-08
7.0574849e-08
7.065335e-08
7.0736544e-08
7.0823275e-08
7.0912383e-08
7.1002773e-08
7.1093528e-08
7.1184068e-08
7.1274379e-08
7.1365299e-08
7.1458824e-08
7.1558325e-08
7.1668526e-08
7.1795007e-08
7.1943035e-08
7.2115628e-08
7.2310899e-08
7.2518873e-08
7.2715087e-08
7.2858367e-08
7.2874748e-08
7.2589912e-08
7.1860268e-08
7.1913128e-08
7.1972997e-08
7.2039026e-08
7.2110267e-08
7.2185697e-08
7.2264245e-08
7.2344842e-08
7.2426486e-08
7.2508359e-08
7.2589987e-08
7.2671469e-08
7.2753767e-08
7.2839013e-08
7.2930728e-08
7.3033787e-08
7.3153908e-08
7.3296449e-08
7.3464423e-08
7.3655773e-08
7.3860085e-08
7.4052367e-08
7.4190181e-08
7.4197585e-08
7.3898529e-08
7.3253529e-08
7.3301577e-08
7.3355971e-08
7.3415925e-08
7.348056e-08
7.3548925e-08
7.3620027e-08
7.3692879e-08
7.3766563e-08
7.3840351e-08
7.3913861e-08
7.3987293e-08
7.4061717e-08
7.4139382e-08
7.4223932e-08
7.4320365e-08
7.4434502e-08
7.4571761e-08
7.4735123e-08
7.4922351e-08
7.5122622e-08
7.5310445e-08
7.5442276e-08
7.5440398e-08
7.5126004e-08
7.4549686e-08
7.459342e-08
7.4642908e-08
7.4697419e-08
7.4756136e-08
7.4818174e-08
7.4882609e-08
7.4948525e-08
7.501508e-08
7.5081623e-08
7.5147853e-08
7.5214056e-08
7.5281391e-08
7.5352201e-08
7.5430224e-08
7.5520542e-08
7.5629037e-08
7.5761139e-08
7.5919764e-08
7.6102486e-08
7.6298115e-08
7.6480749e-08
7.6605961e-08
7.6594322e-08
7.6262208e-08
7.574145e-08
7.5781392e-08
7.5826569e-08
7.58763e-08
7.5929821e-08
7.5986306e-08
7.6044891e-08
7.610472e-08
7.6165018e-08
7.6225196e-08
7.6285025e-08
7.6344858e-08
7.6405925e-08
7.6470632e-08
7.6542777e-08
7.6627478e-08
7.6730626e-08
7.6857604e-08
7.7011211e-08
7.7188815e-08
7.7378895e-08
7.7555243e-08
7.7672806e-08
7.7650739e-08
7.7300648e-08
7.6821997e-08
7.6858685e-08
7.6900165e-08
7.69458e-08
7.6994872e-08
7.7046603e-08
7.7100178e-08
7.7154796e-08
7.7209733e-08
7.7264455e-08
7.7318787e-08
7.7373134e-08
7.7428771e-08
7.7488144e-08
7.755506e-08
7.7634627e-08
7.7732669e-08
7.7854454e-08
7.8002597e-08
7.8174228e-08
7.8357456e-08
7.8525936e-08
7.8634308e-08
7.8601156e-08
7.8235887e-08
7.778359e-08
7.7817565e-08
7.7855965e-08
7.789819e-08
7.794356e-08
7.7991336e-08
7.8040745e-08
7.8091026e-08
7.8141499e-08
7.8191673e-08
7.824141e-08
7.8291152e-08
7.8342199e-08
7.8396996e-08
7.8459325e-08
7.853421e-08
7.8627338e-08
7.8743766e-08
7.8885852e-08
7.9050509e-08
7.9225051e-08
7.9383578e-08
7.9480686e-08
7.9435504e-08
7.9061283e-08
7.861486e-08
7.8646644e-08
7.8682561e-08
7.872204e-08
7.8764428e-08
7.8809017e-08
7.8855067e-08
7.890185e-08
7.8948719e-08
7.899521e-08
7.9041214e-08
7.9087193e-08
7.9134448e-08
7.9185396e-08
7.924374e-08
7.9314363e-08
7.9402723e-08
7.9513563e-08
7.9648826e-08
7.9804854e-08
7.9968881e-08
8.0115043e-08
8.0198208e-08
8.0138485e-08
7.9751981e-08
7.9294201e-08
7.9324299e-08
7.935831e-08
7.9395679e-08
7.9435772e-08
7.9477905e-08
7.9521363e-08
7.9565447e-08
7.9609542e-08
7.9653187e-08
7.9696287e-08
7.973931e-08
7.9783545e-08
7.9831344e-08
7.9886286e-08
7.9953054e-08
8.0036787e-08
8.0141806e-08
8.026956e-08
8.0415866e-08
8.0567628e-08
8.0699033e-08
8.0765574e-08
8.0688885e-08
8.0287146e-08
7.978343e-08
7.9812324e-08
7.984496e-08
7.9880788e-08
7.9919169e-08
7.9959482e-08
8.0001009e-08
8.0043072e-08
8.0085135e-08
8.0126686e-08
8.0167616e-08
8.02084e-08
8.0250293e-08
8.0295558e-08
8.0347609e-08
8.0410917e-08
8.0490233e-08
8.0589382e-08
8.0709263e-08
8.0845086e-08
8.0983252e-08
8.1098057e-08
8.1146062e-08
8.1051653e-08
8.0638529e-08
8.0007615e-08
8.0035798e-08
8.0067528e-08
8.010224e-08
8.0139131e-08
8.0178072e-08
8.0218134e-08
8.0258608e-08
8.0299241e-08
8.0339339e-08
8.0378717e-08
8.0417851e-08
8.0457954e-08
8.0501153e-08
8.0550679e-08
8.0610882e-08
8.0686093e-08
8.0779637e-08
8.0892016e-08
8.101759e-08
8.1141949e-08
8.1239684e-08
8.1268988e-08
8.115883e-08
8.0749935e-08
7.9780597e-08
7.9808826e-08
7.9839992e-08
7.9873469e-08
7.9907111e-08
7.9944577e-08
7.9983253e-08
8.0022034e-08
8.0061583e-08
8.0100745e-08
8.0139087e-08
8.0177058e-08
8.0215796e-08
8.025721e-08
8.0304344e-08
8.0361695e-08
8.0433188e-08
8.0521892e-08
8.0629886e-08
8.0747909e-08
8.0860222e-08
8.0942832e-08
8.0956425e-08
8.0836608e-08
8.0452377e-08
)
;

boundaryField
{
    Walls
    {
        type            nutUWallFunction;
        Cmu             0.09;
        kappa           0.41;
        E               9.8;
        value           uniform 0;
    }
    Inlet
    {
        type            calculated;
        value           nonuniform List<scalar> 3(3.284439e-05 2.5851135e-05 8.0772664e-07);
    }
    Outlet
    {
        type            calculated;
        value           nonuniform List<scalar> 
86
(
0
0
0
0
0
0
0
0
0
0
0
0
0
0
0
0
0
0
0
0
0
0
0
0
0
0
0
0
0
0
1.4053867e-05
1.4565292e-05
1.3142631e-05
0
0
0
0
3.3843504e-06
2.8239879e-06
2.1573486e-06
0
0
0
2.5123201e-07
1.2844546e-07
7.5896044e-08
5.4759904e-08
4.694302e-08
4.4669355e-08
4.4646787e-08
4.55096e-08
4.6722838e-08
4.8086032e-08
4.9516365e-08
5.0986851e-08
5.2488942e-08
5.4023707e-08
5.5584632e-08
5.7170199e-08
5.8772137e-08
6.0386192e-08
6.1997186e-08
6.3599824e-08
6.5189555e-08
6.6756435e-08
6.8289409e-08
6.9783443e-08
7.1221032e-08
7.2589912e-08
7.3898529e-08
7.5126004e-08
7.6262208e-08
7.7300648e-08
7.8235887e-08
7.9061283e-08
7.9751981e-08
8.0287146e-08
8.0638529e-08
8.0749935e-08
8.0452377e-08
0
0
0
0
1.296271e-05
1.4580351e-05
)
;
    }
    Front
    {
        type            wedge;
    }
    Back
    {
        type            wedge;
    }
    defaultFaces
    {
        type            empty;
    }
}


// ************************************************************************* //
