/*--------------------------------*- C++ -*----------------------------------*\
| =========                 |                                                 |
| \\      /  F ield         | OpenFOAM: The Open Source CFD Toolbox           |
|  \\    /   O peration     | Version:  4.0                                   |
|   \\  /    A nd           | Web:      www.OpenFOAM.org                      |
|    \\/     M anipulation  |                                                 |
\*---------------------------------------------------------------------------*/
FoamFile
{
    version     2.0;
    format      ascii;
    class       volScalarField;
    location    "0.25";
    object      omega;
}
// * * * * * * * * * * * * * * * * * * * * * * * * * * * * * * * * * * * * * //

dimensions      [0 0 -1 0 0 0 0];

internalField   nonuniform List<scalar> 
1740
(
69.65537
741.60183
14922.369
185.41088
1570.7713
15030.956
302.45294
2036.6157
15115.393
382.25489
2271.6735
15196.267
470.83367
2467.6701
15268.696
581.29444
2703.6926
15330.618
733.22818
2978.8003
15382.053
867.91838
3259.4002
15417.16
973.63913
3460.9598
15454.56
1065.6776
3623.9717
15480.602
1168.6549
3696.0612
15489.189
1255.835
3716.3987
15507.784
1311.9688
3777.383
15530.142
1384.0841
3883.7296
15543.474
1466.0647
3922.7765
15548.257
1548.1149
3944.7038
15554.352
1606.2257
4015.1182
15567.58
1657.7327
4083.4426
15567.459
1714.1812
4087.3563
15576.833
1775.3566
4159.1005
15581.061
1819.6867
4192.7149
15569.045
1841.6922
4147.2544
15566.779
1869.6924
4115.7294
15571.932
1894.3335
4162.5865
15577.579
1922.4888
4199.1929
15576.551
1946.183
4224.9932
15570.363
1967.5398
4208.6704
15566.673
2013.1897
4259.2174
15564.396
2039.8809
4301.9436
15555.854
2152.513
4329.6117
15497.502
3209.4716
4585.2834
10731.03
3346.1355
4245.2309
5939.8687
1573.1092
1861.1684
2156.2632
825.50833
900.87079
958.51266
479.40889
497.7095
507.69635
301.66265
305.39754
305.47906
202.70012
203.0128
201.55837
144.08385
143.75714
142.50466
107.79563
107.46425
106.62291
84.746744
84.514439
83.992665
70.047976
69.902621
69.590846
60.885722
60.800419
60.62006
55.46748
55.420962
55.321975
52.517461
52.495677
52.44703
51.084462
51.078649
51.060682
50.416155
50.412438
50.400917
49.93673
49.933786
49.925262
49.530317
49.529125
49.523744
49.151296
49.152235
49.149968
48.7898
48.792373
48.79248
48.459046
48.462136
48.463331
48.175724
48.178443
48.17969
47.946341
47.948352
47.94919
47.766675
47.768003
47.768364
47.627202
47.628
47.627975
47.517772
47.518196
47.517904
47.429839
47.430013
47.429553
47.356982
47.356995
47.356438
47.294661
47.294572
47.293967
47.23976
47.23961
47.238989
47.190166
47.18998
47.189365
47.144427
47.144223
47.143627
47.101479
47.101269
47.1007
47.060385
47.060177
47.059641
47.02
47.019799
47.019298
46.978443
46.978252
46.977788
46.932169
46.93199
46.931564
46.874337
46.874172
46.873784
46.792019
46.791868
46.79152
46.661643
46.66151
46.661205
46.441987
46.441874
46.441618
46.06405
46.063964
46.063768
45.417597
45.417543
45.417422
44.335159
44.335143
44.335111
42.576504
42.576522
42.576574
39.820584
39.820593
39.820662
35.679334
35.679217
35.679107
29.752925
29.752479
29.751863
21.765213
21.764343
21.763074
11.81701
11.816143
11.814898
13478.794
13533.881
6001.2669
5336.0893
2084.1864
1882.0169
922.32387
853.82752
490.79583
463.56945
297.19929
285.19411
197.21893
191.46131
140.13472
137.18888
105.29431
103.71176
83.233353
82.349511
69.152517
68.644583
60.368362
60.073389
55.181868
55.013041
52.374508
52.281931
51.028257
50.980914
50.379174
50.345532
49.908795
49.882289
49.51139
49.489867
49.141094
49.12353
48.786355
48.772198
48.459056
48.44786
48.176505
48.167785
47.946626
47.939867
47.766179
47.760898
47.626046
47.621842
47.516166
47.512736
47.427967
47.425096
47.354981
47.352522
47.292624
47.290479
47.237749
47.235851
47.188221
47.186525
47.142572
47.141046
47.09973
47.098352
47.05875
47.057502
47.018482
47.017352
46.977043
46.976021
46.930887
46.929965
46.873174
46.872346
46.790976
46.790242
46.660731
46.660094
46.441223
46.440694
46.063466
46.063066
45.417238
45.416998
44.335068
44.335025
42.576679
42.576852
39.82086
39.821227
35.679237
35.679739
29.751693
29.752387
21.762604
21.764398
11.81488
11.82125
12058.201
2043.982
696.79041
369.11592
281.1384
256.79111
249.53362
246.34952
243.82225
241.19351
238.37901
235.32718
232.10291
228.73254
225.18851
221.41798
217.32739
212.74989
207.39089
200.74074
191.92837
179.46287
160.74695
130.96703
79.091205
12058.133
2037.5877
697.83955
374.7012
283.16245
254.26444
242.66484
235.37086
229.16219
223.23622
217.40642
211.62747
205.91619
200.26591
194.65513
189.06174
183.4404
177.70332
171.68456
165.08517
157.37756
147.6186
134.04208
113.02036
75.371562
12058.18
2030.4725
718.59468
430.71105
359.35535
332.40024
315.00868
300.47884
287.1988
274.59169
262.54592
250.93765
239.88842
229.32796
219.19744
209.48515
200.17434
191.22575
182.54926
173.9772
165.20476
155.65257
144.10296
127.56542
96.713176
12058.528
2031.8158
817.69815
609.07319
550.2227
513.00969
479.97154
449.43239
421.43503
395.11117
370.42353
347.40449
326.18104
306.30469
287.62049
270.13327
253.83014
238.6782
224.62355
211.57777
199.40138
187.86305
176.49899
164.04863
144.96947
12061.537
2151.39
1233.0938
1079.1592
990.36371
907.48623
828.95286
757.49321
693.59562
634.4736
580.1231
530.46465
486.3568
446.0918
409.12992
375.47981
345.00352
317.52534
292.85953
270.8096
251.17586
233.77733
218.48966
205.47167
195.79959
12087.251
3827.404
2811.8602
2406.1351
2096.9981
1827.6618
1592.116
1388.6931
1212.6357
1060.7411
929.90251
817.27942
720.34004
636.66117
564.30626
501.76878
447.75545
401.13602
360.93136
326.30064
296.52757
271.02857
249.38804
231.69509
219.19191
10367.827
7908.7711
6102.064
4791.1101
3820.3787
3084.501
2514.972
2067.6358
1712.7777
1429.071
1200.6471
1015.6158
865.00874
741.89073
640.7642
557.27146
487.97899
430.19084
381.78985
341.10866
306.83186
277.94148
253.7081
234.00194
220.11094
4094.0341
3308.9559
2844.7937
2469.0561
2149.4571
1868.6535
1623.7786
1412.0897
1230.6439
1075.1232
941.71557
827.00278
728.00681
642.56067
568.82241
505.20122
450.32223
403.00588
362.24317
327.1731
297.06563
271.32811
249.53311
231.75299
219.2003
1595.0844
1400.5268
1270.3618
1162.0983
1059.8545
962.54376
873.83343
794.79822
722.76553
657.5195
599.16195
547.5788
500.23229
456.9877
417.7189
382.22383
350.26535
321.6034
295.99666
273.21678
253.05289
235.32291
219.89943
206.92319
197.38489
771.34861
708.18906
661.99837
621.44688
581.11047
540.98555
503.41894
468.81542
436.74993
407.19533
380.1943
355.47925
332.36168
310.73299
290.57641
271.86989
254.57522
238.64181
224.00861
210.60021
198.30847
186.94519
176.09878
164.59083
147.17618
434.22635
410.48352
391.79328
374.58622
356.86362
338.60541
320.77945
303.82159
287.8068
272.78818
258.77408
245.64033
233.17503
221.32198
210.10637
199.51695
189.53787
180.13903
171.26538
162.81241
154.56761
146.06758
136.21572
122.11162
94.488128
272.8118
262.3656
253.70258
245.5567
237.06656
228.16417
219.21255
210.47496
202.06968
194.05295
186.4321
179.15607
172.14791
165.37625
158.84709
152.55747
146.49052
140.60682
134.82809
129.00263
122.83179
115.70912
106.34691
91.820719
64.461109
185.64485
180.56931
176.17539
171.97351
167.58663
162.94453
158.18046
153.43458
148.79409
144.30299
139.97046
135.77589
131.68658
127.68256
123.75436
119.88671
116.04977
112.18834
108.20382
103.92165
99.030185
92.962127
84.649592
71.922718
49.155062
134.23637
131.58749
129.21781
126.92328
124.52911
121.98534
119.33755
116.65458
113.99022
111.37446
108.81602
106.3067
103.82962
101.36855
98.90729
96.421926
93.872383
91.191765
88.270709
84.933772
80.905
75.765802
68.941622
59.927776
49.904244
102.1241
100.66372
99.320601
98.005932
96.636144
95.178223
93.645699
92.070772
90.483442
88.902829
87.335658
85.778147
84.219659
82.6458
81.037195
79.364184
77.579265
75.607272
73.332778
70.585638
67.129882
62.675685
56.980922
50.249407
44.312519
81.454586
80.609736
79.812389
79.022422
78.198981
77.322146
76.394513
75.430572
74.446262
73.452961
72.455198
71.450829
70.431963
69.385198
68.289504
67.111354
65.797327
64.264519
62.389408
59.997739
56.86244
52.728003
47.40845
41.0712
34.35451
68.121189
67.611818
67.116965
66.618937
66.097783
65.542423
64.952559
64.33486
63.697876
63.048406
62.389548
61.719846
61.032851
60.315773
59.546486
58.688161
57.681398
56.433846
54.808188
52.610796
49.585518
45.418994
39.754583
32.120838
20.981619
59.76087
59.445094
59.127231
58.799945
58.454157
58.084551
57.690905
57.276809
56.847349
56.40703
55.95827
55.500245
55.027521
54.527621
53.97725
53.336265
52.538897
51.482094
50.01169
47.908251
44.875865
40.537171
34.427219
25.921322
13.869438
54.826478
54.628367
54.419468
54.19709
53.957812
53.699825
53.423734
53.132102
52.828495
52.516363
52.197958
51.873089
51.537272
51.178216
50.771419
50.273599
49.61316
48.677596
47.298518
45.23636
42.16918
37.693324
31.344601
22.63641
11.132047
52.172407
52.04725
51.906483
51.749316
51.575068
51.38383
51.176828
50.956236
50.724842
50.485528
50.24052
49.990218
49.731634
49.452808
49.128301
48.712353
48.129066
47.25957
45.927086
43.882224
40.795622
36.269008
29.890255
21.349941
10.599154
50.917698
50.836864
50.737712
50.620102
50.484395
50.331435
50.162532
49.979429
49.784222
49.579284
49.366779
49.147393
48.920982
48.676474
48.388021
48.008207
47.458457
46.616601
45.302146
43.262753
40.174852
35.655821
29.343112
21.04701
10.862649
50.29839
50.236251
50.158231
50.063941
49.953389
49.826957
49.685336
49.529456
49.360281
49.178976
48.987014
48.785089
48.571149
48.339202
48.064931
47.701726
47.170927
46.348165
45.044049
43.002143
39.919801
35.425506
29.180762
21.044204
11.113975
49.843869
49.791927
49.725354
49.643522
49.546198
49.433486
49.305797
49.163907
49.009105
48.843343
48.668943
48.487331
48.296354
48.085947
47.835197
47.495791
46.988378
46.188557
44.9105
42.891112
39.817224
35.342947
29.132015
21.0425
11.151586
49.457186
49.41155
49.351751
49.277123
49.187483
49.083111
48.964839
48.834185
48.693458
48.545566
48.393219
48.237249
48.073863
47.890475
47.665004
47.348921
46.86273
46.08255
44.824359
42.830178
39.768281
35.307212
29.104538
21.002674
11.097653
49.095308
49.054482
48.999945
48.931305
48.848817
48.753393
48.646646
48.530909
48.409058
48.284004
48.157704
48.029588
47.894228
47.737967
47.534358
47.237974
46.769089
46.00443
44.761136
42.78283
39.736931
35.285913
29.085051
20.9663
10.998447
48.748224
48.712507
48.664251
48.603527
48.531141
48.448568
48.357882
48.261585
48.16229
48.062141
47.961932
47.859758
47.748975
47.615011
47.430361
47.149748
46.694381
45.941742
44.709976
42.743983
39.712383
35.270887
29.074598
20.960278
11.022939
48.428263
48.39859
48.358384
48.308054
48.248684
48.181888
48.10965
48.034097
47.957165
47.8801
47.802709
47.722185
47.631201
47.51483
47.345681
47.07676
46.631667
45.888307
44.665713
42.710046
39.691512
35.26056
29.071009
20.95589
11.061759
48.152397
48.129036
48.097473
48.05822
48.012315
47.96116
47.906346
47.84944
47.791699
47.733648
47.674428
47.610695
47.534779
47.431604
47.273785
47.014193
46.577008
45.840883
44.625769
42.679171
39.673218
35.255077
29.078947
20.976054
11.090837
47.928095
47.910367
47.886573
47.857166
47.822978
47.785072
47.744597
47.702608
47.659828
47.616282
47.57069
47.519408
47.45459
47.361115
47.211659
46.959229
46.528064
45.797602
44.588668
42.650145
39.656328
35.252774
29.095335
21.013503
11.225839
47.751956
47.738699
47.721072
47.699418
47.67434
47.646587
47.616935
47.586046
47.554267
47.521291
47.485577
47.4433
47.386524
47.300126
47.156882
46.910089
46.48331
45.757261
44.553423
42.621971
39.639412
35.250927
29.115161
21.058884
11.278368
47.614984
47.605026
47.591938
47.575964
47.557518
47.537104
47.515227
47.492274
47.468335
47.442884
47.414213
47.378384
47.327404
47.246149
47.107452
46.864721
46.441547
45.718996
44.519313
42.593797
39.620844
35.245382
29.12805
21.09126
11.308779
47.507364
47.499748
47.489874
47.477908
47.46413
47.448873
47.432455
47.415076
47.396654
47.376522
47.352856
47.321643
47.274849
47.197347
47.062009
46.822333
46.402115
45.682221
44.485854
42.5651
39.599654
35.233519
29.12711
21.095922
11.297504
47.420775
47.414803
47.407173
47.397999
47.387472
47.37581
47.363204
47.349732
47.335198
47.318837
47.298749
47.270863
47.227117
47.152375
47.019532
46.782147
46.364121
45.646456
44.452773
42.535816
39.576108
35.21611
29.114167
21.079895
11.315924
47.348954
47.344142
47.338085
47.330865
47.322613
47.31347
47.303547
47.292837
47.28107
47.267413
47.24991
47.224453
47.182951
47.110261
46.97929
46.743639
46.327306
45.611458
44.41997
42.506164
39.551209
35.196033
29.096263
21.054323
11.277111
47.287461
47.283484
47.278549
47.272718
47.266082
47.258733
47.250726
47.242001
47.232234
47.220546
47.204943
47.181284
47.141456
47.070308
46.940753
46.70643
46.291423
45.577105
44.387406
42.476377
39.525847
35.175878
29.080924
21.039995
11.267197
47.23325
47.229889
47.225775
47.220953
47.21549
47.209445
47.202837
47.195566
47.187275
47.177049
47.162866
47.14056
47.102001
47.032024
46.903547
46.670236
46.256249
45.543114
44.355022
42.446569
39.500409
35.156499
29.069996
21.038398
11.264956
47.184249
47.181357
47.17786
47.173794
47.169205
47.164132
47.158568
47.152389
47.14521
47.136093
47.122992
47.101723
47.064137
46.99506
46.867407
46.634865
46.221663
45.509478
44.322811
42.416788
39.475032
35.138105
29.063897
21.056276
11.360988
47.139033
47.136512
47.133493
47.130006
47.126088
47.121759
47.116996
47.111656
47.105335
47.097077
47.084819
47.064358
47.027531
46.959149
46.832127
46.600168
46.187564
45.476152
44.290767
42.386995
39.44955
35.119861
29.05901
21.078911
11.43793
47.096558
47.094336
47.0917
47.088672
47.085281
47.081538
47.077405
47.072726
47.067083
47.059505
47.047916
47.028096
46.991868
46.92403
46.79749
46.565967
46.153809
45.443007
44.258713
42.357084
39.42384
35.101391
29.053365
21.094869
11.477191
47.055895
47.053924
47.051601
47.048948
47.045984
47.042713
47.039088
47.034943
47.029848
47.022821
47.011773
46.992471
46.956722
46.889312
46.763139
46.531934
46.1201
45.409772
44.226423
42.326812
39.39769
35.082627
29.048043
21.112956
11.519683
47.015909
47.014152
47.012094
47.009752
47.007143
47.004263
47.001058
46.997354
46.992712
46.986141
46.975539
46.956662
46.921302
46.854229
46.728334
46.497353
46.085741
45.375776
44.193246
42.29554
39.370491
35.062977
29.041801
21.127538
11.551057
46.974724
46.973155
46.971325
46.969251
46.966943
46.964395
46.961545
46.958214
46.953955
46.947768
46.937542
46.919019
46.883978
46.817173
46.691484
46.460652
46.04918
45.339482
44.157666
42.26176
39.340736
35.041076
29.034632
21.144061
11.541021
46.928801
46.9274
46.925773
46.923934
46.92189
46.919631
46.91709
46.914082
46.910154
46.904298
46.894394
46.876173
46.841396
46.774805
46.649265
46.418524
46.007127
45.297626
44.116448
42.222265
39.305141
35.013266
29.021914
21.15817
11.582105
46.871307
46.870061
46.86862
46.866994
46.865189
46.863189
46.860926
46.858207
46.854574
46.849013
46.839392
46.821431
46.786879
46.720458
46.595025
46.364329
45.952966
45.243632
44.06308
42.170625
39.25742
34.973089
28.995013
21.150988
11.591623
46.789324
46.788228
46.786963
46.785541
46.783962
46.782208
46.780206
46.777758
46.7744
46.76911
46.759747
46.74202
46.707661
46.641379
46.51602
46.285347
45.874015
45.164892
43.985097
42.09462
39.185669
34.90883
28.941147
21.102962
11.485865
46.659301
46.658358
46.657274
46.656057
46.654708
46.653203
46.651463
46.649286
46.6462
46.641176
46.632063
46.614555
46.580374
46.514214
46.388918
46.158276
45.747045
45.038323
43.859698
41.971972
39.06852
34.800946
28.846588
21.027373
11.460577
46.440039
46.439265
46.438381
46.437393
46.436296
46.435065
46.433613
46.431732
46.428941
46.4242
46.415348
46.398067
46.364067
46.298035
46.17283
45.942306
45.531392
44.823559
43.647101
41.763984
38.869245
34.616171
28.68352
20.897831
11.401911
46.062577
46.062005
46.06136
46.060645
46.059854
46.058953
46.057849
46.056322
46.05388
46.049472
46.040924
46.023908
45.990129
45.924285
45.799285
45.569126
45.159057
44.4532
43.281029
41.40646
38.527391
34.300593
28.408267
20.679583
11.266367
45.416714
45.416396
45.416053
45.415689
45.415291
45.414818
45.414165
45.413096
45.411102
45.407119
45.398962
45.382302
45.348853
45.283363
45.158868
44.929657
44.521586
43.819933
42.656227
40.797758
37.9475
33.768869
27.950868
20.32451
11.041559
44.334994
44.334995
44.335043
44.335141
44.335268
44.335369
44.335321
44.334866
44.333474
44.330063
44.322447
44.306313
44.273429
44.208669
44.08535
43.858334
43.454589
42.761438
41.613932
39.785065
36.986385
32.89264
27.20542
19.764126
10.720253
42.577117
42.57751
42.578058
42.578763
42.579588
42.580454
42.581212
42.581576
42.580992
42.578357
42.571506
42.556189
42.524314
42.461042
42.340249
42.117875
41.722874
41.046069
39.928377
38.152021
35.442416
31.492125
26.023363
18.892143
10.247412
39.821818
39.822696
39.823885
39.825383
39.827105
39.828939
39.830709
39.832109
39.832577
39.830966
39.825168
39.811102
39.780989
39.720568
39.604769
39.39148
39.013057
38.366133
37.301071
35.614608
33.052658
29.334558
24.212308
17.56709
9.554013
35.680755
35.682342
35.684413
35.686922
35.689689
35.692599
35.69545
35.697954
35.699709
35.699365
35.694907
35.682618
35.655347
35.599887
35.493036
35.296141
34.947152
34.351948
33.375453
31.835906
29.508771
26.150738
21.553437
15.626105
8.5089174
29.75452
29.75745
29.760839
29.764494
29.767893
29.771619
29.775116
29.778097
29.78124
29.782387
29.779506
29.769547
29.746432
29.698632
29.606049
29.436194
29.135773
28.624646
27.789209
26.478161
24.506817
21.680743
17.841338
12.931371
7.0670061
21.77213
21.777667
21.782569
21.786313
21.785709
21.788576
21.790874
21.791436
21.795079
21.7976
21.796355
21.789204
21.771585
21.734256
21.661905
21.532464
21.305593
20.920986
20.294848
19.316611
17.851835
15.765227
12.954748
9.3995289
5.2128094
11.852869
11.862406
11.866999
11.865741
11.842805
11.840063
11.8384
11.832677
11.834013
11.836402
11.83629
11.832354
11.821876
11.798867
11.754691
11.68063
11.554018
11.340809
10.994858
10.456727
9.6523022
8.511474
6.9870673
5.0822655
2.8907727
)
;

boundaryField
{
    Walls
    {
        Cmu             0.09;
        kappa           0.41;
        E               9.8;
        beta1           0.075;
        type            omegaWallFunction;
        value           nonuniform List<scalar> 
38
(
12058.201
12058.133
12058.18
12058.528
12061.537
12087.251
13478.794
13533.881
14922.369
15030.956
15115.393
15196.267
15268.696
15330.618
15382.053
15417.16
15454.56
15480.602
15489.189
15507.784
15530.142
15543.474
15548.257
15554.352
15567.58
15567.459
15576.833
15581.061
15569.045
15566.779
15571.932
15577.579
15576.551
15570.363
15566.673
15564.396
15555.854
15497.502
)
;
    }
    Inlet
    {
        type            turbulentMixingLengthDissipationRateInlet;
        mixingLength    0.03;
        phi             phi;
        k               k;
        value           nonuniform List<scalar> 3(0.0041570343 0.004285842 0.0052780268);
    }
    Outlet
    {
        type            inletOutlet;
        inletValue      uniform 1e-05;
        value           nonuniform List<scalar> 
86
(
1e-05
1e-05
1e-05
1e-05
1e-05
1e-05
1e-05
1e-05
1e-05
1e-05
1e-05
1e-05
1e-05
1e-05
1e-05
1e-05
1e-05
1e-05
1e-05
1e-05
1e-05
1e-05
1e-05
1e-05
1e-05
1e-05
1e-05
1e-05
1e-05
1e-05
220.11094
219.2003
197.38489
1e-05
1e-05
1e-05
1e-05
49.904244
44.312519
34.35451
1e-05
1e-05
1e-05
10.599154
10.862649
11.113975
11.151586
11.097653
10.998447
11.022939
11.061759
11.090837
11.225839
11.278368
11.308779
11.297504
11.315924
11.277111
11.267197
11.264956
11.360988
11.43793
11.477191
11.519683
11.551057
11.541021
11.582105
11.591623
11.485865
11.460577
11.401911
11.266367
11.041559
10.720253
10.247412
9.554013
8.5089174
7.0670061
5.2128094
2.8907727
1e-05
1e-05
1e-05
1e-05
195.79959
219.19191
)
;
    }
    Front
    {
        type            wedge;
    }
    Back
    {
        type            wedge;
    }
    defaultFaces
    {
        type            empty;
    }
}


// ************************************************************************* //
