/*--------------------------------*- C++ -*----------------------------------*\
| =========                 |                                                 |
| \\      /  F ield         | OpenFOAM: The Open Source CFD Toolbox           |
|  \\    /   O peration     | Version:  4.0                                   |
|   \\  /    A nd           | Web:      www.OpenFOAM.org                      |
|    \\/     M anipulation  |                                                 |
\*---------------------------------------------------------------------------*/
FoamFile
{
    version     2.0;
    format      ascii;
    class       surfaceScalarField;
    location    "0.25";
    object      phi;
}
// * * * * * * * * * * * * * * * * * * * * * * * * * * * * * * * * * * * * * //

dimensions      [0 3 -1 0 0 0 0];

internalField   nonuniform List<scalar> 
3364
(
-4.5091473e-10
1.6728525e-08
-5.76539e-10
4.9142449e-08
8.826992e-08
-6.4682877e-10
1.7375329e-08
-1.466046e-09
4.9961727e-08
8.6803929e-08
-2.4535695e-10
1.7620663e-08
-9.6893398e-10
5.0685384e-08
8.583501e-08
6.5403219e-12
1.7614107e-08
1.0653161e-10
5.0585369e-08
8.5941498e-08
5.1185602e-10
1.7102212e-08
5.5640378e-10
5.0540721e-08
8.6497848e-08
3.9004267e-10
1.6712115e-08
1.608488e-09
4.9322181e-08
8.8106266e-08
-1.8264656e-10
1.6894725e-08
3.7797409e-10
4.876151e-08
8.8484198e-08
-3.1080996e-10
1.7205542e-08
-1.9720413e-09
5.0422724e-08
8.6512122e-08
-2.2047957e-10
1.7426026e-08
-1.7162304e-09
5.1918438e-08
8.4795845e-08
2.5509588e-11
1.7400454e-08
-5.1114894e-10
5.2455032e-08
8.4284665e-08
-6.701298e-11
1.746741e-08
9.1369713e-10
5.147429e-08
8.519834e-08
1.0627947e-10
1.736112e-08
8.4645437e-10
5.0734077e-08
8.6044742e-08
3.8020627e-10
1.698089e-08
7.9834104e-12
5.1106227e-08
8.6052677e-08
-8.3090235e-12
1.698915e-08
5.8588007e-10
5.0511991e-08
8.6638536e-08
6.4722484e-11
1.6924393e-08
5.1494074e-10
5.0061772e-08
8.7153457e-08
2.6279765e-10
1.6661567e-08
-7.1746303e-11
5.0396283e-08
8.7081664e-08
1.5164703e-11
1.6646376e-08
-1.2490104e-09
5.16604e-08
8.5832593e-08
4.0812488e-11
1.6605518e-08
-1.3388582e-09
5.3040026e-08
8.4493691e-08
-6.7238954e-11
1.6672702e-08
2.9952913e-10
5.2673229e-08
8.4793195e-08
5.5360796e-11
1.6617316e-08
3.9644908e-10
5.2332105e-08
8.5189613e-08
9.1492827e-11
1.6525814e-08
3.5411782e-10
5.2069491e-08
8.5543714e-08
6.6699187e-11
1.6459073e-08
1.9943158e-09
5.0141858e-08
8.7538027e-08
2.6082259e-10
1.6198181e-08
5.9061859e-10
4.9811989e-08
8.8128602e-08
-1.6989075e-10
1.6368033e-08
-8.4714339e-10
5.0489151e-08
8.728139e-08
-7.9836805e-10
1.7166374e-08
6.6250928e-10
4.9028223e-08
8.7943846e-08
-3.0645959e-10
1.7472789e-08
8.2373932e-10
4.789801e-08
8.8767558e-08
3.8643997e-10
1.7086311e-08
-6.9355505e-11
4.8353813e-08
8.8698175e-08
4.2002047e-10
1.6666291e-08
-1.7015186e-09
5.0475357e-08
8.6996624e-08
2.4196993e-10
1.6424361e-08
-2.0036874e-09
5.2721117e-08
8.4992923e-08
1.098294e-09
1.5326265e-08
4.5520292e-09
4.9267518e-08
8.9544924e-08
1.1050919e-08
4.2747016e-09
4.917543e-08
1.1141128e-08
1.1000568e-08
1.2771721e-07
4.7706797e-09
-4.9645097e-10
1.7153744e-08
-1.2434231e-09
-1.3061174e-09
2.9458552e-08
-4.0557922e-10
-9.0837171e-11
-1.4180271e-09
-2.3090338e-10
-3.0911293e-10
-2.4149292e-09
-9.8274982e-11
7.4526655e-12
-3.5550314e-10
2.6360106e-11
2.734726e-11
-6.9192264e-10
-4.6033369e-12
1.2057291e-11
-1.8477191e-11
4.0237657e-11
6.75318e-11
-5.8656142e-11
2.0385222e-12
1.0018727e-11
9.0349493e-12
3.3241277e-11
5.7203503e-11
1.936322e-11
2.103562e-12
7.9150248e-12
1.0547576e-11
2.4796921e-11
4.2892831e-11
2.485792e-11
2.6850664e-12
5.2299819e-12
1.1167124e-11
1.6314656e-11
2.8758199e-11
2.5301683e-11
1.7526034e-12
3.4775101e-12
7.203978e-12
1.0863414e-11
1.909812e-11
1.6864292e-11
8.8994835e-13
2.5877076e-12
3.7036688e-12
8.0499277e-12
1.4173602e-11
8.6285463e-12
3.3578437e-13
2.2520595e-12
1.4075053e-12
6.9784373e-12
1.2223809e-11
3.3576542e-12
1.4184013e-13
2.1103253e-12
6.5164391e-13
6.4688064e-12
1.1209272e-11
1.6664371e-12
1.8643765e-13
1.9239586e-12
7.5142703e-13
5.9039285e-12
1.0186501e-11
1.7743432e-12
2.1818321e-13
1.7058229e-12
8.8790798e-13
5.234277e-12
8.9987765e-12
2.0757082e-12
2.2454727e-13
1.4813071e-12
9.2156135e-13
4.5373075e-12
7.7208207e-12
2.1995575e-12
2.0491383e-13
1.276414e-12
8.4690217e-13
3.8953466e-12
6.6258665e-12
1.9418779e-12
1.7015163e-13
1.106276e-12
7.0946383e-13
3.3560517e-12
5.7925313e-12
1.5428127e-12
1.4359268e-13
9.6269207e-13
5.5063068e-13
2.949024e-12
5.0689026e-12
1.2742668e-12
1.1567486e-13
8.4702255e-13
4.7724597e-13
2.5874572e-12
4.434335e-12
1.1118144e-12
1.0419312e-13
7.4283214e-13
4.3746696e-13
2.2541827e-12
3.8629327e-12
1.0088639e-12
9.5943465e-14
6.4688945e-13
3.8411642e-13
1.9660054e-12
3.3288121e-12
9.1822692e-13
9.0194882e-14
5.5669397e-13
3.6345879e-13
1.6927345e-12
2.8732484e-12
8.1900875e-13
8.3804118e-14
4.728883e-13
3.3838795e-13
1.438142e-12
2.4445831e-12
7.6703705e-13
7.7086286e-14
3.9579983e-13
3.1116443e-13
1.204054e-12
2.0480248e-12
7.0770515e-13
7.0285297e-14
3.2551196e-13
2.8359153e-13
9.9073741e-13
1.6864793e-12
6.4511871e-13
6.3288005e-14
2.6222116e-13
2.5577718e-13
7.9823767e-13
1.3602193e-12
5.8201876e-13
5.7375554e-14
2.0484271e-13
2.3080857e-13
6.2479416e-13
1.0670929e-12
5.2391686e-13
5.1602188e-14
1.5323761e-13
2.0787191e-13
4.6851416e-13
8.0357318e-13
4.7137394e-13
4.5953778e-14
1.0728097e-13
1.8521038e-13
3.2924767e-13
5.6878647e-13
4.1998021e-13
4.0556761e-14
6.6721448e-14
1.6333146e-13
2.0646356e-13
3.6205542e-13
3.7004649e-13
3.5686441e-14
3.1032366e-14
1.4360756e-13
9.8533523e-14
1.802409e-13
3.2540699e-13
3.1173579e-14
-1.4372249e-16
1.255062e-13
4.1925015e-15
2.1591599e-14
2.8414134e-13
2.7036709e-14
-2.7182806e-14
1.0897258e-13
-7.7751249e-14
-1.1573566e-13
2.4628658e-13
2.3294617e-14
-5.0479657e-14
9.3626615e-14
-1.4809062e-13
-2.3376003e-13
2.1163862e-13
1.9819212e-14
-7.0300968e-14
7.9760151e-14
-2.0803845e-13
-3.3516348e-13
1.811521e-13
1.6711706e-14
-8.7014642e-14
6.7300032e-14
-2.586332e-13
-4.2045407e-13
1.5257998e-13
1.398151e-14
-1.0099799e-13
5.6330557e-14
-3.0098821e-13
-4.9157338e-13
1.2744003e-13
1.1617845e-14
-1.1261756e-13
4.6959077e-14
-3.3633498e-13
-5.5103233e-13
1.0640895e-13
9.591442e-15
-1.2221061e-13
3.8394912e-14
-3.6514357e-13
-5.9941647e-13
8.6770678e-14
7.7703844e-15
-1.2998249e-13
3.1299417e-14
-3.8867733e-13
-6.390625e-13
7.0937723e-14
6.2780362e-15
-1.3626191e-13
2.5375162e-14
-4.0777882e-13
-6.7129504e-13
5.7600573e-14
5.0205371e-15
-1.4128374e-13
2.0275033e-14
-4.2303735e-13
-6.9710001e-13
4.6073422e-14
3.9698466e-15
-1.4525478e-13
1.6006201e-14
-4.3507743e-13
-7.1754083e-13
3.644094e-14
3.1059648e-15
-1.4836185e-13
1.252269e-14
-4.444976e-13
-7.3347221e-13
2.8448457e-14
2.4113676e-15
-1.5077424e-13
9.7884904e-15
-4.5187792e-13
-7.4585658e-13
2.216765e-14
1.8764449e-15
-1.5265164e-13
7.5773176e-15
-4.5758177e-13
-7.5562091e-13
1.7336781e-14
1.4722516e-15
-1.5412479e-13
6.0545806e-15
-4.6216691e-13
-7.6344117e-13
1.3870255e-14
1.1843421e-15
-1.5530999e-13
4.9005385e-15
-4.6588582e-13
-7.6971048e-13
1.1165409e-14
1.010212e-15
-1.5632106e-13
3.9010059e-15
-4.6877932e-13
-7.7452342e-13
8.7095268e-15
6.4283699e-16
2.3830783e-15
5.2355379e-15
1.3716916e-07
-9.4572492e-09
-8.6999594e-09
1.4586283e-07
2.1424088e-08
-1.423986e-09
-1.338908e-09
1.40625e-08
-3.4192031e-09
-4.1958257e-10
-5.1733165e-10
-4.2406364e-09
-1.1055371e-09
-5.9150116e-12
-6.8539231e-11
-1.5542657e-09
-1.4711926e-10
8.2557039e-11
7.4132573e-11
-2.8977597e-10
2.1771247e-11
8.0151006e-11
9.4910726e-11
9.9647771e-13
4.3678276e-11
6.1331458e-11
7.8030713e-11
6.055894e-11
4.4333545e-11
4.2299931e-11
5.3501668e-11
6.8862623e-11
3.1010922e-11
2.8153623e-11
3.7484213e-11
4.7028615e-11
1.5579648e-11
2.1202993e-11
2.9023756e-11
2.4040634e-11
6.3772847e-12
1.8183865e-11
2.4365298e-11
1.1036334e-11
3.3965505e-12
1.6454106e-11
2.1989374e-11
5.7729449e-12
3.3736103e-12
1.4855033e-11
1.9980672e-11
5.3825718e-12
3.88007e-12
1.3050755e-11
1.7588741e-11
6.2721053e-12
3.9915919e-12
1.1258749e-11
1.5281427e-11
6.2989324e-12
3.4484016e-12
9.7522365e-12
1.3155788e-11
5.5740438e-12
2.8395093e-12
8.4555448e-12
1.1361826e-11
4.6334654e-12
2.3619726e-12
7.3678391e-12
9.8607647e-12
3.863025e-12
2.0509298e-12
6.4287179e-12
8.579125e-12
3.3325557e-12
1.8444562e-12
5.5931136e-12
7.4516043e-12
2.9719575e-12
1.6843569e-12
4.8269664e-12
6.4349446e-12
2.7009919e-12
1.5360919e-12
4.1098619e-12
5.500078e-12
2.4709295e-12
1.3747628e-12
3.5021121e-12
4.622535e-12
2.2522739e-12
1.2672156e-12
2.942576e-12
3.8695259e-12
2.020191e-12
1.1606126e-12
2.4270557e-12
3.214216e-12
1.8158882e-12
1.047536e-12
1.9615121e-12
2.6089975e-12
1.6527204e-12
9.410823e-13
1.5443208e-12
2.0601299e-12
1.4899166e-12
8.4666201e-13
1.1690077e-12
1.5710729e-12
1.3356868e-12
7.5313456e-13
8.3582954e-13
1.1352173e-12
1.1889595e-12
6.6456123e-13
5.4129227e-13
7.5081043e-13
1.0489392e-12
5.8326369e-13
2.834144e-13
4.1433615e-13
9.197109e-13
5.0893416e-13
5.8601764e-14
1.2099801e-13
8.0224703e-13
4.4102482e-13
-1.3615498e-13
-1.3318986e-13
6.9518917e-13
3.7910257e-13
-3.036361e-13
-3.5095803e-13
5.96849e-13
3.2433279e-13
-4.4683267e-13
-5.3908197e-13
5.1243669e-13
2.7343606e-13
-5.6770339e-13
-6.9802005e-13
4.3235568e-13
2.3023021e-13
-6.7050708e-13
-8.2537066e-13
3.5756382e-13
1.8813868e-13
-7.5224926e-13
-9.3368744e-13
2.964398e-13
1.5491532e-13
-8.2040538e-13
-1.0235437e-12
2.4475709e-13
1.2728738e-13
-8.7676564e-13
-1.0973496e-12
2.0108002e-13
1.0345563e-13
-9.2263049e-13
-1.1573682e-12
1.634619e-13
8.2750049e-14
-9.5931616e-13
-1.2054735e-12
1.3084396e-13
6.5477109e-14
-9.8836068e-13
-1.2436293e-12
1.0362231e-13
5.1377496e-14
-1.0112974e-12
-1.273659e-12
8.1397472e-14
4.0309355e-14
-1.0294463e-12
-1.2972927e-12
6.3933919e-14
3.1281906e-14
-1.0433981e-12
-1.316164e-12
5.0144781e-14
2.4828743e-14
-1.0543629e-12
-1.3310227e-12
3.9679441e-14
1.9944867e-14
-1.0631485e-12
-1.3429308e-12
3.184528e-14
1.5498634e-14
-1.0699437e-12
-1.351285e-12
2.384518e-14
9.1908984e-15
1.4093975e-14
4.062297e-12
-4.0680429e-12
8.9940565e-12
-4.9388182e-12
1.3736816e-11
-4.7508777e-12
1.5965832e-11
-2.236586e-12
1.3351477e-11
2.6115977e-12
4.3757867e-12
8.975289e-12
-1.1613567e-11
1.5990378e-11
-3.5004309e-11
2.3392666e-11
-6.4278342e-11
2.9276538e-11
-9.7400731e-11
3.3125244e-11
-1.3341713e-10
3.6019427e-11
-1.7193616e-10
3.8522108e-11
-2.1244611e-10
4.0512957e-11
-2.5383461e-10
4.1391344e-11
-2.9499967e-10
4.1167676e-11
-3.3523844e-10
4.0241083e-11
-3.739148e-10
3.8678341e-11
-4.1013778e-10
3.6224578e-11
-4.4316268e-10
3.3026097e-11
-4.7224798e-10
2.9086112e-11
-4.9681534e-10
2.4567831e-11
-5.164295e-10
1.9614339e-11
-5.3069529e-10
1.4265775e-11
-5.3913713e-10
8.4417151e-12
2.267065e-12
-3.2444491e-11
2.8380417e-11
-7.3165561e-11
3.5788434e-11
-1.2451273e-10
4.6603475e-11
-1.8917101e-10
6.2429187e-11
-2.7050061e-10
8.394867e-11
-3.6982784e-10
1.0830974e-10
-4.8713119e-10
1.3330059e-10
-6.2101779e-10
1.5728567e-10
-7.6970572e-10
1.7797033e-10
-9.3154001e-10
1.949648e-10
-1.1034222e-09
2.0790634e-10
-1.2818406e-09
2.1694452e-10
-1.4639137e-09
2.2258962e-10
-1.6480773e-09
2.2555787e-10
-1.8327489e-09
2.2584166e-10
-2.0166114e-09
2.241054e-10
-2.2088321e-09
2.3090044e-10
-2.3939184e-09
2.213118e-10
-2.5627553e-09
2.0186335e-10
-2.7102041e-09
1.7653486e-10
-2.8327949e-09
1.4715828e-10
-2.9277521e-09
1.1457075e-10
-2.9926074e-09
7.9119971e-11
-3.0235544e-09
3.9387432e-11
1.0160258e-11
-1.1149175e-10
1.3988044e-10
-2.4351512e-10
1.6782478e-10
-4.0613743e-10
2.0924076e-10
-6.0616021e-10
2.6246722e-10
-8.4458235e-10
3.2238551e-10
-1.1207706e-09
3.8451163e-10
-1.4366881e-09
4.4923052e-10
-1.8553246e-09
5.7593311e-10
-2.3104242e-09
6.3307926e-10
-2.7749772e-09
6.5952554e-10
-3.2351242e-09
6.6805963e-10
-3.6821693e-09
6.6399461e-10
-4.1096007e-09
6.5002481e-10
-4.5114492e-09
6.2740904e-10
-4.8819067e-09
5.9630076e-10
-5.2158672e-09
5.5806654e-10
-5.4988354e-09
5.1386846e-10
-5.7418351e-09
4.6431058e-10
-5.9503713e-09
4.1039797e-10
-6.1267692e-09
3.5293064e-10
-6.273274e-09
2.9366032e-10
-6.390626e-09
2.3191964e-10
-6.4789647e-09
1.6745512e-10
-6.5402318e-09
1.0065066e-10
3.3398081e-11
-3.4940381e-10
4.8930016e-10
-7.5500777e-10
5.7345279e-10
-1.2392827e-09
6.9354175e-10
-2.0300234e-09
1.0532314e-09
-2.8859356e-09
1.1783174e-09
-3.7007265e-09
1.1993184e-09
-4.4256408e-09
1.1741573e-09
-4.9678504e-09
1.1181524e-09
-5.3752878e-09
1.040524e-09
-5.6632643e-09
9.4750763e-10
-5.8476574e-09
8.5245666e-10
-5.9398942e-09
7.5623413e-10
-5.949524e-09
6.5965645e-10
-5.8792641e-09
5.5715e-10
-5.74488e-09
4.61917e-10
-5.5634364e-09
3.7662267e-10
-5.3517931e-09
3.0222451e-10
-5.1265713e-09
2.3908774e-10
-4.9035944e-09
1.8741981e-10
-4.6977704e-09
1.4710508e-10
-4.5211634e-09
1.1705153e-10
-4.3805557e-09
9.1309984e-11
-4.2812169e-09
6.8114213e-11
-4.2264427e-09
4.5874158e-11
2.4653573e-11
-2.1862622e-09
2.6755877e-09
-3.9260682e-09
2.3132868e-09
-5.4178425e-09
2.185343e-09
-6.091233e-09
1.7266406e-09
-6.1545187e-09
1.2416181e-09
-5.6824163e-09
7.2722801e-10
-4.9166956e-09
4.0844638e-10
-3.9236907e-09
1.2515582e-10
-2.7688603e-09
-1.142992e-10
-1.5182699e-09
-3.0307669e-10
-2.8004447e-10
-3.8576471e-10
9.52604e-10
-4.7641514e-10
2.2499253e-09
-6.3766573e-10
3.6610902e-09
-8.5401438e-10
5.0398487e-09
-9.168393e-10
6.346335e-09
-9.2985967e-10
7.5579914e-09
-9.094262e-10
8.660016e-09
-8.6292937e-10
9.6423673e-09
-7.9492243e-10
1.0497901e-08
-7.0841797e-10
1.1219579e-08
-6.0461504e-10
1.1797508e-08
-4.866051e-10
1.2222026e-08
-3.5638841e-10
1.2484252e-08
-2.1633676e-10
-6.4712401e-11
1.0870766e-09
1.5885967e-09
4.302838e-09
-9.0242311e-10
8.0380032e-09
-1.5497522e-09
1.1743399e-08
-1.9787252e-09
1.5475179e-08
-2.4901374e-09
1.913404e-08
-2.9316043e-09
2.2730243e-08
-3.1877234e-09
2.610494e-08
-3.2495035e-09
2.9168877e-08
-3.1781938e-09
3.1904581e-08
-3.0387341e-09
3.437683e-08
-2.8579636e-09
3.654564e-08
-2.6451714e-09
3.8335158e-08
-2.4271295e-09
3.9701068e-08
-2.2198685e-09
4.0788741e-08
-2.0044571e-09
4.164882e-08
-1.7898819e-09
4.2321162e-08
-1.5817124e-09
4.2839257e-08
-1.3809682e-09
4.3232179e-08
-1.1877891e-09
4.3525197e-08
-1.0013811e-09
4.3740334e-08
-8.1969714e-10
4.3894407e-08
-6.4062357e-10
4.3999447e-08
-4.6137419e-10
4.4062568e-08
-2.7940364e-10
-8.870897e-11
1.4979535e-07
-2.3426969e-09
1.4833753e-07
5.563155e-10
1.4568541e-07
1.1031556e-09
1.4213455e-07
1.5728322e-09
1.3751788e-07
2.1271429e-09
1.3198862e-07
2.5981882e-09
1.2591378e-07
2.8875646e-09
1.1968358e-07
2.9810747e-09
1.1356741e-07
2.9383095e-09
1.077114e-07
2.8175662e-09
1.0218492e-07
2.6687677e-09
9.7038659e-08
2.501309e-09
9.2301081e-08
2.3106465e-09
8.7972387e-08
2.1090041e-09
8.4063155e-08
1.9049354e-09
8.0570561e-08
1.7028581e-09
7.7483451e-08
1.505532e-09
7.4788016e-08
1.3145893e-09
7.2470038e-08
1.130303e-09
7.0516649e-08
9.5211355e-10
6.891819e-08
7.7886055e-10
6.7669036e-08
6.0862442e-10
6.6769233e-08
4.3851776e-10
6.6224024e-08
2.6588965e-10
8.4910041e-11
1.3305654e-08
-1.5857267e-09
1.5622502e-08
-1.7604188e-09
1.8250761e-08
-1.5249889e-09
2.0979282e-08
-1.1555773e-09
2.3790664e-08
-6.841328e-10
2.6710957e-08
-3.2200284e-10
2.9635643e-08
-3.7029505e-11
3.2405168e-08
2.1163926e-10
3.4983746e-08
3.5982002e-10
3.7333114e-08
4.6828586e-10
3.9413609e-08
5.8835929e-10
4.1039907e-08
8.7509552e-10
4.2330599e-08
1.0200385e-09
4.3356562e-08
1.0831223e-09
4.4160141e-08
1.101436e-09
4.4777538e-08
1.0855378e-09
4.5242492e-08
1.0406525e-09
4.5584337e-08
9.7281664e-10
4.5829214e-08
8.8549677e-10
4.59999e-08
7.8149523e-10
4.6115838e-08
6.6298806e-10
4.6193028e-08
5.3149778e-10
4.6242739e-08
3.8886885e-10
4.6272176e-08
2.3651255e-10
7.181373e-11
-5.0611866e-09
-7.6518782e-10
-5.7887642e-09
-1.0328512e-09
-6.1613887e-09
-1.1523748e-09
-6.1101707e-09
-1.2068052e-09
-5.5925185e-09
-1.2017932e-09
-4.7625758e-09
-1.1519514e-09
-3.7212584e-09
-1.0783502e-09
-2.5216129e-09
-9.8800661e-10
-1.2737888e-09
-8.8800185e-10
-2.0984644e-11
-7.8451362e-10
1.2496376e-09
-6.8225603e-10
2.7000727e-09
-5.7533033e-10
4.1915348e-09
-4.7141201e-10
5.6507493e-09
-3.7607844e-10
7.0427665e-09
-2.9056575e-10
8.3437937e-09
-2.1547234e-10
9.552782e-09
-1.6831736e-10
1.065568e-08
-1.3006199e-10
1.1640225e-08
-9.9027596e-11
1.2496497e-08
-7.4756256e-11
1.3216092e-08
-5.6585551e-11
1.3791054e-08
-4.3442201e-11
1.4213895e-08
-3.3951708e-11
1.4476335e-08
-2.5906146e-11
-1.6109286e-11
-2.1799186e-09
-1.395367e-10
-2.991287e-09
-2.2148591e-10
-3.8282447e-09
-3.1542265e-10
-4.6366456e-09
-3.9841222e-10
-5.3610476e-09
-4.7740082e-10
-5.8987511e-09
-6.1425871e-10
-6.3076659e-09
-6.6944682e-10
-6.5976017e-09
-6.9808242e-10
-6.7755627e-09
-7.1005243e-10
-6.8509294e-09
-7.0915828e-10
-6.8350943e-09
-6.9810195e-10
-6.7303279e-09
-6.8010695e-10
-6.5476565e-09
-6.540929e-10
-6.3027302e-09
-6.2101347e-10
-6.0113154e-09
-5.8198843e-10
-5.6881735e-09
-5.3862137e-10
-5.363303e-09
-4.9319419e-10
-5.0486454e-09
-4.4472519e-10
-4.7541338e-09
-3.9354425e-10
-4.4892211e-09
-3.396734e-10
-4.2626574e-09
-2.8315329e-10
-4.0820958e-09
-2.2400745e-10
-3.9537575e-09
-1.6229341e-10
-3.881431e-09
-9.8235948e-11
-3.3073927e-11
-4.8686862e-10
5.7558361e-11
-7.3669822e-10
2.8345861e-11
-1.0334633e-09
-1.8656189e-11
-1.3699167e-09
-6.1958186e-11
-1.7436731e-09
-1.0364488e-10
-2.2117273e-09
-1.4620598e-10
-2.6991614e-09
-1.8201555e-10
-3.1870705e-09
-2.1017723e-10
-3.6656477e-09
-2.3148011e-10
-4.1281404e-09
-2.4667139e-10
-4.5696817e-09
-2.5656723e-10
-4.9852385e-09
-2.6455736e-10
-5.3661466e-09
-2.7319249e-10
-5.6882143e-09
-2.9895383e-10
-5.9710823e-09
-2.9912873e-10
-6.2198081e-09
-2.8990407e-10
-6.4386625e-09
-2.7434834e-10
-6.6300367e-09
-2.5335958e-10
-6.7958062e-09
-2.2778345e-10
-6.937406e-09
-1.9808215e-10
-7.0558787e-09
-1.6468916e-10
-7.1517651e-09
-1.2812947e-10
-7.2249242e-09
-8.9142755e-11
-7.2750957e-09
-4.8072744e-11
-1.078805e-11
-4.4989956e-11
1.035462e-10
-1.1853394e-10
1.0189131e-10
-2.2269419e-10
8.5505394e-11
-3.5132656e-10
6.6675261e-11
-5.0526152e-10
5.0290799e-11
-6.8216086e-10
3.0693687e-11
-8.7459356e-10
1.0417003e-11
-1.0762804e-09
-8.4910015e-12
-1.2837194e-09
-2.4042192e-11
-1.4932097e-09
-3.7182567e-11
-1.7055994e-09
-4.4179394e-11
-1.9199387e-09
-5.0220297e-11
-2.1385648e-09
-5.456894e-11
-2.3803751e-09
-5.7146454e-11
-2.6215406e-09
-5.7966626e-11
-2.854213e-09
-5.7235331e-11
-3.0733632e-09
-5.5202039e-11
-3.2749428e-09
-5.1784088e-11
-3.4555719e-09
-4.7158734e-11
-3.6121453e-09
-4.1513272e-11
-3.7418555e-09
-3.4983564e-11
-3.8422895e-09
-2.7700118e-11
-3.9115762e-09
-1.9860781e-11
-3.9480781e-09
-1.1575404e-11
-3.1295584e-12
7.3789679e-11
9.0316016e-11
7.9831338e-11
9.5850131e-11
7.0490125e-11
9.4846984e-11
4.7256823e-11
8.9908826e-11
1.4512081e-11
8.3035685e-11
-2.8830305e-11
7.4036095e-11
-8.1064257e-11
6.2650853e-11
-1.386633e-10
4.9107818e-11
-2.02675e-10
3.9969172e-11
-2.7120394e-10
3.1345911e-11
-3.4009891e-10
2.4715024e-11
-4.0945543e-10
1.9135552e-11
-4.7868305e-10
1.4657927e-11
-5.4710269e-10
1.1272339e-11
-6.1375759e-10
8.6873273e-12
-6.7774753e-10
6.7535822e-12
-7.3808306e-10
5.132388e-12
-7.9376434e-10
3.896021e-12
-8.43879e-10
2.9547035e-12
-8.8760119e-10
2.2076681e-12
-9.2416735e-10
1.5813302e-12
-9.5285865e-10
9.899175e-13
-9.7319766e-10
4.7699149e-13
-9.848907e-10
1.1645994e-13
1.0335702e-13
9.3080484e-11
6.6098626e-11
1.1530089e-10
7.3630148e-11
1.3552993e-10
7.46183e-11
1.5123526e-10
7.420379e-11
1.6247344e-10
7.1797764e-11
1.692042e-10
6.7305544e-11
1.7081932e-10
6.1035917e-11
1.6716788e-10
5.2759408e-11
1.6197867e-10
4.5158521e-11
1.5529902e-10
3.8025684e-11
1.4841474e-10
3.1599404e-11
1.4169614e-10
2.5854252e-11
1.3556218e-10
2.0791977e-11
1.3022449e-10
1.6610115e-11
1.2607652e-10
1.2835381e-11
1.228097e-10
1.0020486e-11
1.2066071e-10
7.2814769e-12
1.1940928e-10
5.147559e-12
1.1878129e-10
3.5828031e-12
1.1852328e-10
2.465801e-12
1.1844322e-10
1.6615295e-12
1.1836654e-10
1.0667497e-12
1.1823743e-10
6.0625502e-13
1.181139e-10
2.4016486e-13
-1.8182487e-14
6.6799878e-11
4.6327777e-11
8.7538397e-11
5.2892045e-11
1.06423e-10
5.5734095e-11
1.2423635e-10
5.6390811e-11
1.4057813e-10
5.5456334e-11
1.5506294e-10
5.2821066e-11
1.6722072e-10
4.8878464e-11
1.7607806e-10
4.3902378e-11
1.8224857e-10
3.8988318e-11
1.8722386e-10
3.3050696e-11
1.9151228e-10
2.7311283e-11
1.9451226e-10
2.285457e-11
1.972524e-10
1.8052132e-11
1.998663e-10
1.3996516e-11
2.029005e-10
9.8014828e-12
2.0623295e-10
6.6883366e-12
2.0951755e-10
3.9971895e-12
2.1275467e-10
1.9107524e-12
2.1591729e-10
4.2049518e-13
2.1891912e-10
-5.3570223e-13
2.2162315e-10
-1.0421792e-12
2.2386335e-10
-1.1731362e-12
2.2548059e-10
-1.0106592e-12
2.2649083e-10
-7.6977003e-13
-3.4225888e-13
3.4532313e-11
3.5836372e-11
4.5800209e-11
4.1624438e-11
5.6923587e-11
4.4611008e-11
6.7094958e-11
4.6219724e-11
7.6250337e-11
4.6301228e-11
8.4045106e-11
4.5026559e-11
9.0227314e-11
4.2696509e-11
9.4500239e-11
3.9629696e-11
9.7088925e-11
3.6399864e-11
9.7628062e-11
3.2511779e-11
9.6609405e-11
2.8330149e-11
9.5196539e-11
2.4267634e-11
9.2552783e-11
2.0696075e-11
8.9900418e-11
1.6649058e-11
8.6648008e-11
1.3054062e-11
8.3295097e-11
1.0041408e-11
8.0215111e-11
7.0773274e-12
7.7320528e-11
4.8054808e-12
7.4705906e-11
3.0352553e-12
7.2464582e-11
1.7057527e-12
7.069632e-11
7.262071e-13
6.9402774e-11
1.2052828e-13
6.8592496e-11
-2.0027126e-13
6.805947e-11
-2.3664072e-13
-1.5897851e-13
1.5733888e-11
3.1138954e-11
2.0865162e-11
3.6493321e-11
2.5217713e-11
4.025862e-11
2.9043297e-11
4.23943e-11
3.196405e-11
4.338063e-11
3.3781157e-11
4.3209596e-11
3.4403455e-11
4.2074344e-11
3.3866169e-11
4.0167102e-11
3.2575486e-11
3.7690655e-11
3.0039758e-11
3.5047601e-11
2.5614154e-11
3.2755834e-11
2.0365827e-11
2.9516027e-11
1.4717839e-11
2.6344115e-11
8.6410776e-12
2.2725857e-11
2.2905853e-12
1.9404579e-11
-4.1232587e-12
1.6455264e-11
-1.0821171e-11
1.3775241e-11
-1.710938e-11
1.109368e-11
-2.2923182e-11
8.8490386e-12
-2.8196474e-11
6.9790184e-12
-3.2694657e-11
5.2243555e-12
-3.6452116e-11
3.8779469e-12
-3.9436946e-11
2.7845115e-12
-4.168085e-11
2.0072146e-12
7.1919699e-13
8.6496757e-12
2.8262255e-11
1.2029289e-11
3.3113765e-11
1.4800577e-11
3.7487405e-11
1.6415164e-11
4.077979e-11
1.7431475e-11
4.2364394e-11
1.764616e-11
4.2994981e-11
1.695143e-11
4.2769135e-11
1.5360978e-11
4.1757605e-11
1.2851297e-11
4.0200376e-11
9.6019135e-12
3.8297013e-11
6.0775614e-12
3.6280203e-11
1.7281838e-12
3.3865409e-11
-3.1351858e-12
3.1207478e-11
-8.8120452e-12
2.8402697e-11
-1.511471e-11
2.5707214e-11
-2.1409691e-11
2.2750204e-11
-2.7280336e-11
1.9645835e-11
-3.3005553e-11
1.6818837e-11
-3.835956e-11
1.4202978e-11
-4.3127239e-11
1.1746622e-11
-4.7302811e-11
9.3998467e-12
-5.0625812e-11
7.2008623e-12
-5.2954626e-11
5.1132349e-12
-5.3952921e-11
3.0054199e-12
9.6798503e-13
8.3737699e-12
2.5271023e-11
1.124447e-11
3.0243061e-11
1.4080732e-11
3.4651159e-11
1.6775277e-11
3.8085273e-11
1.8612829e-11
4.0526876e-11
1.9765963e-11
4.1841881e-11
2.0157636e-11
4.2377493e-11
1.9911335e-11
4.2003932e-11
1.8970367e-11
4.1141364e-11
1.7346581e-11
3.992081e-11
1.5358716e-11
3.8268072e-11
1.2926053e-11
3.6298068e-11
1.0054769e-11
3.407875e-11
6.7646368e-12
3.1692809e-11
3.3268978e-12
2.9144924e-11
-3.6100994e-13
2.6438075e-11
-4.315028e-12
2.3599809e-11
-8.2181397e-12
2.0721897e-11
-1.1890264e-11
1.7875045e-11
-1.5213634e-11
1.5069929e-11
-1.8142207e-11
1.2328352e-11
-2.05314e-11
9.5899841e-12
-2.2323446e-11
6.9052061e-12
-2.3492183e-11
4.1740851e-12
1.2888502e-12
9.2760728e-12
2.2266978e-11
1.2712413e-11
2.6806678e-11
1.6200105e-11
3.1163448e-11
1.960349e-11
3.4681884e-11
2.2706754e-11
3.7423618e-11
2.5270564e-11
3.9278084e-11
2.7387519e-11
4.0260552e-11
2.8851683e-11
4.0539781e-11
2.9742727e-11
4.0250331e-11
3.0185858e-11
3.9477688e-11
3.0169474e-11
3.8284461e-11
2.9752234e-11
3.6715307e-11
2.9025439e-11
3.4805541e-11
2.7945979e-11
3.2772258e-11
2.6610563e-11
3.0480325e-11
2.5026903e-11
2.8021715e-11
2.3135399e-11
2.5491287e-11
2.1128362e-11
2.2728904e-11
1.9150215e-11
1.9853158e-11
1.7301472e-11
1.6918634e-11
1.5673614e-11
1.3956169e-11
1.4283864e-11
1.097969e-11
1.3071048e-11
8.1179749e-12
1.2235656e-11
5.0094347e-12
1.2974057e-12
9.1633102e-12
1.9402493e-11
1.2483483e-11
2.3486431e-11
1.6508715e-11
2.7138168e-11
2.0379401e-11
3.081117e-11
2.4176919e-11
3.3626084e-11
2.7675431e-11
3.5779565e-11
3.0784719e-11
3.7151261e-11
3.3453878e-11
3.7870623e-11
3.5697523e-11
3.8006688e-11
3.7519583e-11
3.7655629e-11
3.8942004e-11
3.6862041e-11
3.9965623e-11
3.5691688e-11
4.0574346e-11
3.4196815e-11
4.0901134e-11
3.2445465e-11
4.0929221e-11
3.045223e-11
4.0688074e-11
2.8262851e-11
4.0308294e-11
2.5871054e-11
3.9756035e-11
2.3281146e-11
3.911413e-11
2.0495044e-11
3.8427189e-11
1.7605552e-11
3.7772567e-11
1.4610767e-11
3.7279097e-11
1.1473134e-11
3.7318116e-11
8.0789281e-12
3.7523861e-11
4.8036676e-12
1.9873638e-12
8.2544762e-12
1.6721952e-11
1.142266e-11
2.0318155e-11
1.4801667e-11
2.3759093e-11
1.8660037e-11
2.695275e-11
2.2536679e-11
2.9749407e-11
2.6314581e-11
3.2001639e-11
2.983892e-11
3.3626904e-11
3.3051867e-11
3.4657663e-11
3.5909428e-11
3.5149118e-11
3.8451795e-11
3.5113254e-11
4.0636435e-11
3.4677394e-11
4.2472556e-11
3.3855561e-11
4.397292e-11
3.2696445e-11
4.5182447e-11
3.123593e-11
4.612866e-11
2.9506009e-11
4.6859983e-11
2.7531517e-11
4.7396263e-11
2.5334763e-11
4.7748142e-11
2.2929255e-11
4.7891618e-11
2.0351553e-11
4.7906846e-11
1.7590309e-11
4.7853302e-11
1.4664294e-11
4.7767107e-11
1.1559311e-11
4.7544683e-11
8.3013325e-12
4.7355534e-11
4.992803e-12
1.7284905e-12
6.9165674e-12
1.4438746e-11
9.6457728e-12
1.7588857e-11
1.2729923e-11
2.0674863e-11
1.6113721e-11
2.3568888e-11
1.9682376e-11
2.6180703e-11
2.3325421e-11
2.8358555e-11
2.6835986e-11
3.0116309e-11
3.015885e-11
3.1334774e-11
3.323755e-11
3.2070398e-11
3.6034506e-11
3.231628e-11
3.854913e-11
3.2162755e-11
4.0806937e-11
3.159774e-11
4.2803592e-11
3.0699777e-11
4.4548751e-11
2.9490758e-11
4.6063091e-11
2.7991657e-11
4.7340306e-11
2.625429e-11
4.841128e-11
2.4263777e-11
4.9301462e-11
2.2039059e-11
4.9992758e-11
1.9660242e-11
5.0520811e-11
1.7062242e-11
5.0918255e-11
1.4266835e-11
5.117664e-11
1.130091e-11
5.1308783e-11
8.1691728e-12
5.1340777e-11
4.960798e-12
1.635265e-12
5.7865734e-12
1.2515097e-11
8.1173822e-12
1.5257957e-11
1.0797918e-11
1.7994247e-11
1.3768137e-11
2.0598601e-11
1.6958937e-11
2.2989846e-11
2.0242983e-11
2.5074461e-11
2.3562856e-11
2.6796397e-11
2.6785074e-11
2.8112523e-11
2.9860337e-11
2.8995106e-11
3.2740367e-11
2.9436225e-11
3.5437762e-11
2.9465338e-11
3.7903363e-11
2.9132119e-11
4.0162304e-11
2.8440818e-11
4.2206027e-11
2.7447018e-11
4.4077672e-11
2.6119996e-11
4.5696249e-11
2.4635697e-11
4.7090458e-11
2.2869552e-11
4.8267625e-11
2.0861877e-11
4.9251054e-11
1.8676798e-11
5.0061725e-11
1.6251556e-11
5.0704959e-11
1.3623585e-11
5.1193643e-11
1.081221e-11
5.1556981e-11
7.8058186e-12
5.1784101e-11
4.7336668e-12
1.6162487e-12
4.975636e-12
1.0871919e-11
6.9788902e-12
1.3254614e-11
9.3222833e-12
1.5650775e-11
1.1927564e-11
1.7993251e-11
1.4765394e-11
2.0151956e-11
1.7751507e-11
2.2088297e-11
2.0817252e-11
2.3730608e-11
2.3883862e-11
2.5045874e-11
2.6893415e-11
2.598552e-11
2.9771186e-11
2.6558424e-11
3.2512804e-11
2.6723693e-11
3.5127914e-11
2.6516984e-11
3.7552939e-11
2.6015772e-11
3.9811172e-11
2.5188764e-11
4.1801073e-11
2.4130076e-11
4.3582649e-11
2.2854103e-11
4.5156774e-11
2.129541e-11
4.6534403e-11
1.948423e-11
4.7752489e-11
1.7458696e-11
4.8781077e-11
1.5222951e-11
4.9601739e-11
1.2802908e-11
5.0198502e-11
1.0215432e-11
5.0543237e-11
7.461068e-12
5.0738523e-11
4.5383717e-12
1.4580229e-12
4.4113465e-12
9.4324523e-12
6.1657934e-12
1.1500091e-11
8.2134801e-12
1.3603017e-11
1.0562897e-11
1.5643768e-11
1.3122628e-11
1.7592166e-11
1.5853611e-11
1.9357262e-11
1.8693494e-11
2.0890678e-11
2.1590539e-11
2.2148789e-11
2.4475588e-11
2.3100435e-11
2.7311104e-11
2.3722876e-11
3.0050742e-11
2.3984025e-11
3.2712103e-11
2.3855597e-11
3.5216985e-11
2.3510866e-11
3.7529284e-11
2.2876442e-11
3.9611564e-11
2.2047775e-11
4.1524974e-11
2.0940674e-11
4.3259332e-11
1.9561035e-11
4.4812023e-11
1.7931523e-11
4.6190531e-11
1.6080173e-11
4.7382407e-11
1.403106e-11
4.8353244e-11
1.1832058e-11
4.9104562e-11
9.4641016e-12
4.9574405e-11
6.9912116e-12
4.9915262e-11
4.1975063e-12
1.3198776e-12
3.9928796e-12
8.1404975e-12
5.5699074e-12
9.9229984e-12
7.4337513e-12
1.1739111e-11
9.5338879e-12
1.3543575e-11
1.1857405e-11
1.5268597e-11
1.4359407e-11
1.6855213e-11
1.699596e-11
1.8254082e-11
1.9711717e-11
1.9432994e-11
2.245928e-11
2.0352836e-11
2.5195012e-11
2.0987111e-11
2.788747e-11
2.1291538e-11
3.0484631e-11
2.1258409e-11
3.2953497e-11
2.1041975e-11
3.5298022e-11
2.0531895e-11
3.744834e-11
1.9897437e-11
3.9449522e-11
1.8939474e-11
4.1291349e-11
1.771919e-11
4.300086e-11
1.6221996e-11
4.4497847e-11
1.4583172e-11
4.5765797e-11
1.2763097e-11
4.6816873e-11
1.0780969e-11
4.7677639e-11
8.6033237e-12
4.8415936e-11
6.2529029e-12
4.8733734e-11
3.8797012e-12
1.3238797e-12
3.6428623e-12
6.9685036e-12
5.0671107e-12
8.4986911e-12
6.7401042e-12
1.0066062e-11
8.6518053e-12
1.1631821e-11
1.0775854e-11
1.3144499e-11
1.3077229e-11
1.4553793e-11
1.5515821e-11
1.5815449e-11
1.8052348e-11
1.689643e-11
2.0642745e-11
1.7762405e-11
2.3246737e-11
1.8383088e-11
2.5814719e-11
1.8723528e-11
2.8311061e-11
1.8762042e-11
3.0722442e-11
1.863057e-11
3.3005101e-11
1.8249215e-11
3.51951e-11
1.7707419e-11
3.7231128e-11
1.6903427e-11
3.9106411e-11
1.5843892e-11
4.0809481e-11
1.4518911e-11
4.2330147e-11
1.3062493e-11
4.3632942e-11
1.146029e-11
4.4731212e-11
9.6826886e-12
4.5601671e-11
7.7328544e-12
4.6193565e-11
5.6609998e-12
4.6593403e-11
3.4798582e-12
1.1813087e-12
3.3171418e-12
5.903579e-12
4.6065313e-12
7.2092471e-12
6.1211165e-12
8.5514253e-12
7.8538487e-12
9.8990406e-12
9.7870052e-12
1.1211298e-11
1.1891832e-11
1.2448924e-11
1.4133995e-11
1.3573248e-11
1.6483809e-11
1.454658e-11
1.8900848e-11
1.5345333e-11
2.134451e-11
1.5939396e-11
2.3760453e-11
1.6307559e-11
2.6095242e-11
1.6427229e-11
2.8401603e-11
1.6324186e-11
3.060052e-11
1.6050278e-11
3.2766951e-11
1.554097e-11
3.477176e-11
1.4898602e-11
3.6603473e-11
1.4012164e-11
3.8244136e-11
1.2878235e-11
3.9722171e-11
1.1584447e-11
4.103421e-11
1.0148241e-11
4.2123939e-11
8.5929503e-12
4.298427e-11