/*--------------------------------*- C++ -*----------------------------------*\
| =========                 |                                                 |
| \\      /  F ield         | OpenFOAM: The Open Source CFD Toolbox           |
|  \\    /   O peration     | Version:  4.0                                   |
|   \\  /    A nd           | Web:      www.OpenFOAM.org                      |
|    \\/     M anipulation  |                                                 |
\*---------------------------------------------------------------------------*/
FoamFile
{
    version     2.0;
    format      ascii;
    class       volScalarField;
    location    "0.14";
    object      k;
}
// * * * * * * * * * * * * * * * * * * * * * * * * * * * * * * * * * * * * * //

dimensions      [0 2 -2 0 0 0 0];

internalField   nonuniform List<scalar> 
1740
(
0.0088363144
0.0095099026
0.018563718
0.0093608603
0.01002903
0.027419493
0.0097134323
0.010469798
0.03446937
0.010002005
0.010745671
0.041567737
0.010198715
0.011110431
0.047657605
0.010267722
0.011493173
0.052301716
0.010303604
0.01182887
0.056378268
0.010262201
0.012089081
0.059383536
0.010236284
0.012534225
0.062212163
0.010248983
0.012891426
0.064424339
0.010199662
0.013049748
0.066238976
0.010123833
0.013234133
0.067567838
0.01007595
0.013663842
0.0686726
0.0099888587
0.013940483
0.069574513
0.0097816072
0.013737963
0.07012538
0.0096154582
0.013582465
0.070874956
0.0094861787
0.013856562
0.072034947
0.0093749917
0.014426722
0.072512028
0.0093176057
0.014362622
0.072821378
0.0091951603
0.014547135
0.07326297
0.0090939213
0.014850745
0.073052702
0.0089775832
0.014643406
0.073601665
0.0088490019
0.014869028
0.073577391
0.0087372773
0.014957132
0.073236436
0.0086777048
0.014766294
0.073170327
0.0085504278
0.014790253
0.072770182
0.0084638874
0.01484682
0.072661225
0.0083893466
0.015059889
0.072425289
0.0083769105
0.014963069
0.071728704
0.0090165444
0.016105589
0.0667892
0.012800563
0.018161618
0.047546616
0.024047782
0.031296402
0.040030331
0.010292589
0.012569005
0.013764955
0.0042411976
0.004575428
0.0046429779
0.0020388715
0.0020821662
0.0020586774
0.0010866344
0.0010872789
0.0010681566
0.00060856765
0.00060509405
0.000594691
0.00034153777
0.00033896336
0.00033340251
0.00018442779
0.00018285399
0.00017973207
9.3287574e-05
9.2389995e-05
9.0631452e-05
4.3993e-05
4.3523561e-05
4.2596501e-05
1.9821048e-05
1.9599802e-05
1.9158737e-05
9.117004e-06
9.0241203e-06
8.8377769e-06
4.8257836e-06
4.7917709e-06
4.7234901e-06
3.2876248e-06
3.2778961e-06
3.2587626e-06
2.8351412e-06
2.8345653e-06
2.8340531e-06
2.7811698e-06
2.7837088e-06
2.7895274e-06
2.8646198e-06
2.8680457e-06
2.8756384e-06
2.9932948e-06
2.9968442e-06
3.0046488e-06
3.1368201e-06
3.1402521e-06
3.1477783e-06
3.2858417e-06
3.2890897e-06
3.2962049e-06
3.4376513e-06
3.4407034e-06
3.4473858e-06
3.5914759e-06
3.5943359e-06
3.6005959e-06
3.7470391e-06
3.749715e-06
3.7555709e-06
3.904152e-06
3.9066524e-06
3.9121238e-06
4.062605e-06
4.0649384e-06
4.0700442e-06
4.2221423e-06
4.2243168e-06
4.2290749e-06
4.3824552e-06
4.3844785e-06
4.3889057e-06
4.5431806e-06
4.54506e-06
4.5491724e-06
4.7039003e-06
4.7056427e-06
4.7094554e-06
4.8641402e-06
4.8657522e-06
4.8692798e-06
5.0233706e-06
5.0248587e-06
5.028115e-06
5.1810067e-06
5.182377e-06
5.1853757e-06
5.3364101e-06
5.3376687e-06
5.3404228e-06
5.4888906e-06
5.4900433e-06
5.492566e-06
5.6377071e-06
5.6387597e-06
5.6410636e-06
5.7820617e-06
5.7830201e-06
5.7851179e-06
5.9210763e-06
5.9219462e-06
5.9238505e-06
6.0537161e-06
6.0545034e-06
6.0562268e-06
6.1785882e-06
6.1792986e-06
6.180854e-06
6.2934541e-06
6.2940935e-06
6.2954938e-06
6.394153e-06
6.3947274e-06
6.3959855e-06
6.4724198e-06
6.4729351e-06
6.4740641e-06
6.5118616e-06
6.5123239e-06
6.5133369e-06
6.4813098e-06
6.4817257e-06
6.4826369e-06
6.325344e-06
6.3257222e-06
6.3265496e-06
5.9539193e-06
5.954271e-06
5.9550388e-06
5.2386918e-06
5.2390257e-06
5.2397558e-06
4.0363277e-06
4.0366296e-06
4.0372969e-06
2.2964692e-06
2.2966744e-06
2.2971367e-06
0.056444182
0.061071223
0.046249004
0.046762393
0.012506486
0.011368514
0.0043412655
0.0041081499
0.001967111
0.0019054273
0.0010357955
0.0010162533
0.00058166617
0.00057418103
0.00032713764
0.00032316097
0.00017619959
0.0001734855
8.85544e-05
8.6693678e-05
4.1457065e-05
4.0337222e-05
1.8601598e-05
1.8024871e-05
8.5986472e-06
8.3444786e-06
4.6357628e-06
4.5424524e-06
3.2351961e-06
3.211955e-06
2.8350452e-06
2.8390097e-06
2.7988707e-06
2.8120755e-06
2.8872606e-06
2.9028832e-06
3.0164599e-06
3.0321398e-06
3.1591261e-06
3.174132e-06
3.306918e-06
3.3210654e-06
3.4574417e-06
3.4707146e-06
3.6100139e-06
3.6224427e-06
3.7643802e-06
3.7760051e-06
3.9203543e-06
3.9312156e-06
4.0777247e-06
4.0878607e-06
4.2362324e-06
4.2456787e-06
4.3955657e-06
4.404356e-06
4.555359e-06
4.5635248e-06
4.7151915e-06
4.722763e-06
4.8745871e-06
4.8815932e-06
5.0330146e-06
5.0394828e-06
5.1898878e-06
5.1958449e-06
5.3445674e-06
5.3500395e-06
5.4963623e-06
5.5013752e-06
5.644531e-06
5.6491098e-06
5.7882753e-06
5.7924453e-06
5.926717e-06
5.9305032e-06
6.0588215e-06
6.0622491e-06
6.1831961e-06
6.1862906e-06
6.2976027e-06
6.3003898e-06
6.3978808e-06
6.4003865e-06
6.4757654e-06
6.4780158e-06
6.5148637e-06
6.5168846e-06
6.4840097e-06
6.485827e-06
6.3277931e-06
6.3294369e-06
5.9561887e-06
5.9577039e-06
5.2408522e-06
5.2422986e-06
4.0383191e-06
4.039689e-06
2.2978674e-06
2.2988767e-06
3.882336e-06
2.5248775e-05
0.00012497138
0.00028175124
0.00042386708
0.00052017601
0.00057479384
0.00060191717
0.00061271139
0.00061368901
0.00060817603
0.00059765279
0.00058260804
0.00056306506
0.0005389544
0.00051036482
0.00047763504
0.00044137786
0.00040242781
0.00036162016
0.0003192778
0.00027434649
0.00022349195
0.00016121186
8.0096311e-05
2.4534974e-06
5.3258857e-05
0.00024316416
0.00049661532
0.00069551809
0.00081323881
0.00087412156
0.00090248631
0.00091298236
0.00091298171
0.00090599797
0.00089347104
0.00087570802
0.00085243394
0.00082330529
0.00078826489
0.00074753751
0.00070160505
0.00065112963
0.00059667305
0.00053793506
0.0004723178
0.00039278597
0.0002858524
0.00013222987
7.888226e-06
0.00015951993
0.00061230862
0.0010689401
0.001342497
0.0014739712
0.001529474
0.001547191
0.0015466924
0.0015357061
0.0015178798
0.0014946396
0.0014660654
0.0014312416
0.0013892605
0.0013399401
0.0012833478
0.0012196782
0.0011491805
0.0010718862
0.00098649498
0.00088828522
0.00076486598
0.00058885153
0.00030849162
3.7588452e-05
0.00058072592
0.001687652
0.0024361419
0.0027684534
0.0028762159
0.0028777569
0.0028376392
0.0027860567
0.0027270856
0.0026645788
0.0026001284
0.0025338902
0.002463068
0.0023849846
0.0022997258
0.002207266
0.0021074131
0.001999972
0.0018845955
0.0017599728
0.0016217797
0.0014571827
0.001229198
0.00081688447
0.00028110431
0.0024524957
0.0049266038
0.0060512152
0.0063991694
0.0063370961
0.0061046427
0.0058352593
0.0055803851
0.0053231165
0.0050719444
0.0048320755
0.0046086553
0.0043926642
0.004174207
0.003958053
0.003745205
0.0035352635
0.0033274649
0.0031209913
0.0029147617
0.0027071986
0.002495558
0.0022799853
0.0020798232
0.0023619822
0.010560365
0.016628792
0.018591495
0.018138615
0.016584605
0.014767396
0.01307637
0.011590106
0.010307462
0.0092076156
0.0082679857
0.0074645982
0.0067722912
0.0061699255
0.0056428201
0.005178576
0.0047660611
0.0043955402
0.0040588274
0.0037491959
0.003461719
0.0031934309
0.0029510021
0.0027573504
0.045145297
0.034174403
0.02662145
0.021439804
0.017781856
0.015082882
0.013002178
0.011351247
0.010021134
0.0089374769
0.008043758
0.0072963557
0.0066618747
0.0061149488
0.0056362259
0.0052114114
0.0048300018
0.0044838624
0.0041663924
0.0038721548
0.0035966903
0.0033369153
0.0030916638
0.0028687956
0.002693749
0.03741682
0.031076735
0.027850188
0.025212514
0.022339565
0.019362988
0.016643432
0.014340118
0.01245243
0.010903484
0.0096241357
0.0085580132
0.0076606552
0.0069005293
0.006252335
0.005695209
0.005211571
0.0047867266
0.0044085923
0.0040673844
0.0037552245
0.0034663401
0.0031970063
0.0029534453
0.0027585428
0.010224287
0.0095519786
0.0092139012
0.0088949132
0.0084331382
0.0078661198
0.0073028213
0.0068035626
0.0063464047
0.0059388317
0.005577873
0.0052586705
0.0049561803
0.0046697825
0.0043998055
0.0041446867
0.0039020257
0.0036692951
0.0034440678
0.003224043
0.0030069686
0.0027903193
0.0025704649
0.0023468317
0.0021383913
0.0039488823
0.0038748262
0.0038508146
0.0038072904
0.0037085385
0.0035670412
0.0034186416
0.0032793288
0.0031500692
0.0030326137
0.0029257376
0.0028262102
0.0027278954
0.0026290362
0.0025286956
0.0024259166
0.0023196551
0.0022088975
0.0020926952
0.0019699689
0.0018387262
0.0016939492
0.001521984
0.0012843305
0.00085511277
0.0018849417
0.0018946401
0.0019150429
0.001923631
0.0019089265
0.0018741582
0.0018302581
0.0017842547
0.0017387361
0.0016946873
0.0016516612
0.0016081802
0.0015622346
0.0015127038
0.0014588874
0.001400542
0.0013371792
0.0012684569
0.0011940892
0.0011134779
0.0010247064
0.00092233818
0.0007931563
0.00060901166
0.00031830452
0.0010153212
0.0010275368
0.001043713
0.0010547426
0.0010557342
0.0010471134
0.0010323465
0.0010143167
0.00099453999
0.00097356808
0.00095120909
0.00092676959
0.00089937105
0.00086836018
0.00083332026
0.00079412227
0.00075079577
0.00070354232
0.00065267006
0.00059829761
0.00053961404
0.00047347159
0.0003923368
0.00028270179
0.00012782491
0.00057476492
0.00058125281
0.00058950063
0.00059542359
0.00059659094
0.00059272655
0.00058492286
0.00057440762
0.00056198315
0.00054800154
0.00053243783
0.00051501702
0.00049537254
0.00047321703
0.00044841438
0.00042101144
0.00039124092
0.00035951758
0.00032638119
0.00029230612
0.0002572733
0.00022004454
0.00017731151
0.00012348141
5.2310717e-05
0.00032260421
0.00032464593
0.00032744397
0.00032908921
0.00032832757
0.00032482917
0.00031892209
0.00031113347
0.0003018916
0.00029143853
0.00027984413
0.00026706054
0.00025299962
0.00023761317
0.00022094296
0.00020314566
0.00018450033
0.00016539394
0.00014627373
0.0001275349
0.00010931464
9.1207659e-05
7.2098168e-05
5.0831447e-05
2.9931185e-05
0.00017212981
0.00017185047
0.00017185803
0.00017127592
0.00016948263
0.00016625428
0.00016168685
0.0001560216
0.00014949669
0.00014228474
0.00013448532
0.00012614574
0.00011729599
0.00010798394
9.8299471e-05
8.8384073e-05
7.8428842e-05
6.8659336e-05
5.9304412e-05
5.0543097e-05
4.2426049e-05
3.4793081e-05
2.7288223e-05
1.9762155e-05
1.3579813e-05
8.5316281e-05
8.4345574e-05
8.3470326e-05
8.2315856e-05
8.0601701e-05
7.821435e-05
7.5189044e-05
7.1641782e-05
6.7702446e-05
6.3479618e-05
5.9051769e-05
5.447351e-05
4.9789352e-05
4.5047125e-05
4.0306676e-05
3.5642465e-05
3.114021e-05
2.6888321e-05
2.2963925e-05
1.9412852e-05
1.6224345e-05
1.3310751e-05
1.0526964e-05
7.7971888e-06
5.2329622e-06
3.9366319e-05
3.8536611e-05
3.7738569e-05
3.6828272e-05
3.5693728e-05
3.4288331e-05
3.2628262e-05
3.0767009e-05
2.8767675e-05
2.6686325e-05
2.4566277e-05
2.2439764e-05
2.0332674e-05
1.8269331e-05
1.6275221e-05
1.4377644e-05
1.2604054e-05
1.0978394e-05
9.5154793e-06
8.213196e-06
7.0429438e-06
5.9415241e-06
4.8124646e-06
3.5396619e-06
1.9277752e-06
1.7487836e-05
1.6998156e-05
1.6522333e-05
1.6010631e-05
1.5423107e-05
1.4743116e-05
1.3977891e-05
1.3149487e-05
1.2284437e-05
1.140672e-05
1.0535078e-05
9.6833027e-06
8.862012e-06
8.0799813e-06
7.345222e-06
6.665036e-06
6.0451864e-06
5.4881322e-06
4.9901221e-06
4.536814e-06
4.0974071e-06
3.6184432e-06
3.0204617e-06
2.2010503e-06
1.0446853e-06
8.1004935e-06
7.873523e-06
7.6548228e-06
7.4288515e-06
7.1824289e-06
6.9100666e-06
6.6144287e-06
6.3034591e-06
5.9867681e-06
5.6730116e-06
5.3688631e-06
5.0790034e-06
4.8067802e-06
4.5545244e-06
4.3238905e-06
4.1157282e-06
3.9295143e-06
3.7621194e-06
3.6055866e-06
3.4435378e-06
3.2461329e-06
2.9646317e-06
2.5290295e-06
1.8561702e-06
8.8798564e-07
4.4534217e-06
4.3723269e-06
4.2972888e-06
4.2237115e-06
4.1473608e-06
4.0662768e-06
3.9810638e-06
3.8940431e-06
3.808083e-06
3.7257336e-06
3.6488531e-06
3.5785893e-06
3.5155556e-06
3.4599591e-06
3.4115958e-06
3.369664e-06
3.3322353e-06
3.2951265e-06
3.2498087e-06
3.1799745e-06
3.0567607e-06
2.8339385e-06
2.4473442e-06
1.8276191e-06
9.384435e-07
3.1925503e-06
3.1784787e-06
3.1693347e-06
3.1636555e-06
3.1599128e-06
3.1571688e-06
3.1552228e-06
3.1543978e-06
3.1551915e-06
3.1580093e-06
3.163045e-06
3.1702657e-06
3.1794451e-06
3.1901997e-06
3.2019046e-06
3.2134647e-06
3.2227712e-06
3.2255751e-06
3.2134025e-06
3.170144e-06
3.067376e-06
2.8599094e-06
2.4862856e-06
1.8840653e-06
1.0285905e-06
2.8470186e-06
2.8594927e-06
2.8761953e-06
2.8964753e-06
2.919578e-06
2.9448654e-06
2.9718891e-06
3.0003487e-06
3.0300013e-06
3.0605876e-06
3.0917959e-06
3.1232556e-06
3.1545363e-06
3.1851284e-06
3.2143532e-06
3.2411093e-06
3.2633117e-06
3.2767474e-06
3.2729644e-06
3.2358268e-06
3.1368191e-06
2.9306605e-06
2.5561441e-06
1.9522523e-06
1.0920821e-06
2.8293416e-06
2.8506401e-06
2.875697e-06
2.904063e-06
2.9352121e-06
2.9686178e-06
3.0037892e-06
3.0402719e-06
3.0776311e-06
3.1154356e-06
3.1532498e-06
3.1906299e-06
3.2271146e-06
3.2621899e-06
3.2951854e-06
3.3250203e-06
3.3496249e-06
3.364771e-06
3.361916e-06
3.3246875e-06
3.224081e-06
3.0139323e-06
2.6315749e-06
2.0134341e-06
1.1249361e-06
2.9224158e-06
2.945669e-06
2.9723434e-06
3.0020517e-06
3.0343525e-06
3.0687808e-06
3.1048662e-06
3.1421422e-06
3.1801485e-06
3.2184302e-06
3.2565387e-06
3.2940302e-06
3.3304532e-06
3.3653088e-06
3.3979403e-06
3.4272739e-06
3.4512263e-06
3.4655049e-06
3.4613969e-06
3.4221609e-06
3.3180801e-06
3.1017265e-06
2.7083273e-06
2.0710371e-06
1.1588662e-06
3.0515123e-06
3.0743436e-06
3.100335e-06
3.1291325e-06
3.1603414e-06
3.1935406e-06
3.2282935e-06
3.2641575e-06
3.3006905e-06
3.3374536e-06
3.3740142e-06
3.4099455e-06
3.4448131e-06
3.478134e-06
3.5092633e-06
3.5371225e-06
3.5595971e-06
3.5723026e-06
3.5663134e-06
3.5244538e-06
3.4162034e-06
3.1927625e-06
2.7872059e-06
2.12972e-06
1.1865292e-06
3.1926021e-06
3.2142992e-06
3.2389386e-06
3.2661935e-06
3.2957028e-06
3.3270808e-06
3.3599238e-06
3.3938188e-06
3.4283503e-06
3.4631036e-06
3.4976688e-06
3.5316393e-06
3.564599e-06
3.5960795e-06
3.6254438e-06
3.651606e-06
3.6724118e-06
3.6833716e-06
3.6753286e-06
3.6306485e-06
3.5179829e-06
3.2871688e-06
2.8692839e-06
2.1923641e-06
1.2263496e-06
3.3384572e-06
3.3588656e-06
3.3820242e-06
3.4076301e-06
3.4353504e-06
3.4648287e-06
3.4956912e-06
3.5275527e-06
3.560024e-06
3.5927154e-06
3.6252396e-06
3.6572107e-06
3.6882307e-06
3.7178452e-06
3.7454237e-06
3.7698718e-06
3.7889914e-06
3.7981829e-06
3.78805e-06
3.7404882e-06
3.6233013e-06
3.3849193e-06
2.9543343e-06
2.2573069e-06
1.2681227e-06
3.4870246e-06
3.5061577e-06
3.527865e-06
3.5518658e-06
3.5778512e-06
3.6054907e-06
3.6344366e-06
3.6643295e-06
3.6948046e-06
3.7254957e-06
3.7560376e-06
3.7860645e-06
3.8151959e-06
3.842991e-06
3.8688257e-06
3.8915954e-06
3.9090577e-06
3.9164995e-06
3.9042791e-06
3.8538093e-06
3.7320159e-06
3.4858589e-06
3.0421202e-06
2.3237687e-06
1.3076087e-06
3.6377137e-06
3.6556269e-06
3.6759506e-06
3.6984235e-06
3.7227588e-06
3.7486485e-06
3.7757684e-06
3.8037829e-06
3.8323502e-06
3.8611258e-06
3.8897655e-06
3.917923e-06
3.9452349e-06
3.9712736e-06
3.9954206e-06
4.0165607e-06
4.0324061e-06
4.0381274e-06
4.023831e-06
3.9704344e-06
3.8439677e-06
3.5899131e-06
3.1328526e-06
2.3926973e-06
1.3445184e-06
3.7902884e-06
3.8070437e-06
3.8260552e-06
3.8470794e-06
3.8698494e-06
3.8940777e-06
3.9194618e-06
3.9456877e-06
3.9724349e-06
3.99938e-06
4.0261984e-06
4.0525625e-06
4.0781255e-06
4.1024727e-06
4.1249904e-06
4.1445522e-06
4.1588235e-06
4.1628548e-06
4.1464925e-06
4.0901454e-06
3.9589322e-06
3.6968551e-06
3.226307e-06
2.4640235e-06
1.3820837e-06
3.9445614e-06
3.9602181e-06
3.9779846e-06
3.9976343e-06
4.0189177e-06
4.0415669e-06
4.0652991e-06
4.0898206e-06
4.1148307e-06
4.1400258e-06
4.1651003e-06
4.1897445e-06
4.2136274e-06
4.2363464e-06
4.2572926e-06
4.275327e-06
4.2880665e-06
4.2904368e-06
4.2720145e-06
4.2126813e-06
4.0766185e-06
3.806307e-06
3.3218572e-06
2.5368219e-06
1.4213715e-06
4.100316e-06
4.1149291e-06
4.1315129e-06
4.149856e-06
4.1697259e-06
4.190872e-06
4.2130303e-06
4.2359258e-06
4.2592768e-06
4.2827981e-06
4.3062023e-06
4.3291968e-06
4.3514659e-06
4.3726184e-06
4.3920494e-06
4.4086065e-06
4.4198551e-06
4.420592e-06
4.4001129e-06
4.3377533e-06
4.1967293e-06
3.9179881e-06
3.4194625e-06
2.6121829e-06
1.4621914e-06
4.2572874e-06
4.2709083e-06
4.286367e-06
4.3034669e-06
4.3219908e-06
4.341705e-06
4.3623622e-06
4.3837054e-06
4.4054708e-06
4.4273907e-06
4.4491951e-06
4.4706075e-06
4.4913266e-06
4.5109725e-06
4.5289432e-06
4.5440716e-06
4.5538698e-06
4.5530005e-06
4.5304703e-06
4.4650517e-06
4.3189713e-06
4.0316264e-06
3.5188242e-06
2.6892671e-06
1.513767e-06
4.4151592e-06
4.4278357e-06
4.4422235e-06
4.4581393e-06
4.4753807e-06
4.4937295e-06
4.5129546e-06
4.5328154e-06
4.5530651e-06
4.5734528e-06
4.5937248e-06
4.6136202e-06
4.6328516e-06
4.6510493e-06
4.6676133e-06
4.6813606e-06
4.6897479e-06
4.6873002e-06
4.6627282e-06
4.5942286e-06
4.4430151e-06
4.146907e-06
3.6196833e-06
2.7683543e-06
1.5637949e-06
4.5735613e-06
4.5853387e-06
4.5987067e-06
4.6134944e-06
4.6295133e-06
4.6465598e-06
4.664418e-06
4.6828632e-06
4.7016644e-06
4.7205864e-06
4.7393913e-06
4.7578328e-06
4.7756369e-06
4.7924432e-06
4.8076531e-06
4.8200661e-06
4.8270813e-06
4.8230827e-06
4.7964791e-06
4.7248793e-06
4.5684495e-06
4.2633285e-06
3.720986e-06
2.8460698e-06
1.6088537e-06
4.7320696e-06
4.742991e-06
4.7553876e-06
4.7691005e-06
4.7839541e-06
4.7997586e-06
4.8163127e-06
4.8334063e-06
4.8508234e-06
4.8683443e-06
4.8857454e-06
4.9027947e-06
4.9192304e-06
4.9347011e-06
4.9486084e-06
4.9597331e-06
4.9654143e-06
4.9598914e-06
4.9312661e-06
4.8565488e-06
4.6948336e-06
4.3805269e-06
3.8227891e-06
2.9244367e-06
1.6560086e-06
4.8902051e-06
4.9003117e-06
4.9117834e-06
4.9244726e-06
4.9382159e-06
4.9528366e-06
4.9681468e-06
4.9839506e-06
5.0000463e-06
5.0162284e-06
5.0322877e-06
5.048005e-06
5.0631304e-06
5.0773204e-06
5.0899759e-06
5.0998577e-06
5.1042424e-06
5.0972214e-06
5.0665838e-06
4.988736e-06
4.8216922e-06
4.4981028e-06
3.9247109e-06
3.0022376e-06
1.7018273e-06
5.047434e-06
5.0567654e-06
5.067357e-06
5.0790719e-06
5.0917581e-06
5.1052512e-06
5.1193762e-06
5.1339504e-06
5.1487857e-06
5.1636902e-06
5.1784679e-06
5.1929124e-06
5.2067848e-06
5.2197484e-06
5.2312027e-06
5.2398868e-06
5.2430124e-06
5.234519e-06
5.2018778e-06
5.1208864e-06
4.9484837e-06
4.6155884e-06
4.0264949e-06
3.0792189e-06
1.7442466e-06
5.2031682e-06
5.2117629e-06
5.221518e-06
5.2323064e-06
5.2439873e-06
5.2564076e-06
5.2694046e-06
5.2828081e-06
5.2964428e-06
5.3101297e-06
5.3236855e-06
5.3369156e-06
5.3495914e-06
5.3613828e-06
5.3716864e-06
5.3792181e-06
5.3811231e-06
5.3711843e-06
5.3365501e-06
5.2524053e-06
5.0746217e-06
4.7324269e-06
4.1277174e-06
3.1554929e-06
1.7771985e-06
5.3567669e-06
5.3646624e-06
5.3736234e-06
5.3835323e-06
5.3942585e-06
5.4056598e-06
5.417585e-06
5.4298758e-06
5.442369e-06
5.4548976e-06
5.4672904e-06
5.479364e-06
5.4908996e-06
5.5015725e-06
5.5107761e-06
5.517202e-06
5.5179263e-06
5.5065734e-06
5.4699647e-06
5.382673e-06
5.1995241e-06
4.8481404e-06
4.2282655e-06
3.2324345e-06
1.8203551e-06
5.5075382e-06
5.5147713e-06
5.5229799e-06
5.5320555e-06
5.5418769e-06
5.5523123e-06
5.5632213e-06
5.5744568e-06
5.5858669e-06
5.5972962e-06
5.6085846e-06
5.6195596e-06
5.6300111e-06
5.6396197e-06
5.6477745e-06
5.6531422e-06
5.6527289e-06
5.6399987e-06
5.6014463e-06
5.5110371e-06
5.3225768e-06
4.9621649e-06
4.327586e-06
3.3091518e-06
1.8644788e-06
5.6547395e-06
5.6613467e-06
5.6688444e-06
5.6771323e-06
5.6860984e-06
5.6956206e-06
5.7055686e-06
5.7158058e-06
5.7261911e-06
5.7365799e-06
5.7468226e-06
5.7567568e-06
5.7661808e-06
5.7747796e-06
5.7819377e-06
5.7862963e-06
5.7847914e-06
5.7707276e-06
5.7302746e-06
5.6367981e-06
5.4430993e-06
5.073785e-06
4.4247593e-06
3.3844284e-06
1.9086884e-06
5.7975726e-06
5.8035902e-06
5.810418e-06
5.8179638e-06
5.826124e-06
5.8347856e-06
5.8438277e-06
5.8531237e-06
5.8625426e-06
5.8719498e-06
5.8812058e-06
5.8901575e-06
5.8986109e-06
5.9062551e-06
5.9124694e-06
5.9158697e-06
5.9133223e-06
5.8979742e-06
5.8556758e-06
5.759204e-06
5.5603779e-06
5.1823604e-06
4.5193316e-06
3.4582332e-06
1.9366334e-06
5.935159e-06
5.9406232e-06
5.9468224e-06
5.9536717e-06
5.9610755e-06
5.9689292e-06
5.9771208e-06
5.9855331e-06
5.9940443e-06
6.0025295e-06
6.0108583e-06
6.0188863e-06
6.0264268e-06
6.0331723e-06
6.038497e-06
6.0409913e-06
6.0374532e-06
6.0208756e-06
5.9767969e-06
5.8774195e-06
5.6736009e-06
5.2870767e-06
4.6102778e-06
3.5286515e-06
1.9784527e-06
6.0664644e-06
6.0714117e-06
6.0770238e-06
6.0832225e-06
6.0899198e-06
6.0970189e-06
6.1044161e-06
6.1120027e-06
6.1196658e-06
6.1272891e-06
6.1347511e-06
6.1419152e-06
6.1486014e-06
6.1545054e-06
6.1589957e-06
6.1606379e-06
6.1561639e-06
6.1384169e-06
6.0926335e-06
5.9904591e-06
5.7818153e-06
5.3870408e-06
4.6968751e-06
3.5956475e-06
2.0258899e-06
6.1900967e-06
6.194564e-06
6.1996309e-06
6.2052259e-06
6.2112674e-06
6.217666e-06
6.2243259e-06
6.231146e-06
6.2380216e-06
6.2448445e-06
6.2515011e-06
6.2578624e-06
6.2637543e-06
6.268875e-06
6.2725876e-06
6.2734338e-06
6.2680815e-06
6.2492312e-06
6.2018318e-06
6.0969979e-06
5.8837628e-06
5.481157e-06
4.7784051e-06
3.6587749e-06
2.0643015e-06
6.3038186e-06
6.3078434e-06
6.3124083e-06
6.3174473e-06
6.3228852e-06
6.3286393e-06
6.3346204e-06
6.340735e-06
6.3468856e-06
6.3529715e-06
6.3588862e-06
6.3645073e-06
6.3696663e-06
6.3740635e-06
6.3770565e-06
6.377164e-06
6.3709938e-06
6.3511122e-06
6.3021992e-06
6.1948779e-06
5.9773659e-06
5.5675125e-06
4.853203e-06
3.7166985e-06
2.0988118e-06
6.4034703e-06
6.4070913e-06
6.4111986e-06
6.4157316e-06
6.4206208e-06
6.425789e-06
6.4311533e-06
6.4366266e-06
6.4421179e-06
6.4475331e-06
6.452772e-06
6.4577182e-06
6.4622077e-06
6.4659425e-06
6.4682749e-06
6.4677017e-06
6.4607749e-06
6.4399373e-06
6.3896246e-06
6.2800191e-06
6.0586145e-06
5.6422118e-06
4.9174874e-06
3.7658234e-06
2.1274274e-06
6.4807874e-06
6.4840441e-06
6.4877406e-06
6.4918212e-06
6.4962211e-06
6.5008677e-06
6.505683e-06
6.5105853e-06
6.5154893e-06
6.520306e-06
6.5249403e-06
6.5292806e-06
6.5331667e-06
6.5363016e-06
6.5380319e-06
6.5368348e-06
6.5292114e-06
6.5074952e-06
6.455911e-06
6.3442757e-06
6.1195142e-06
5.6976627e-06
4.9646468e-06
3.8016134e-06
2.148702e-06
6.5193764e-06
6.5223093e-06
6.5256444e-06
6.5293318e-06
6.53331e-06
6.5375091e-06
6.5418543e-06
6.5462681e-06
6.5506689e-06
6.5549706e-06
6.5590808e-06
6.5628914e-06
6.5662445e-06
6.568843e-06
6.5700285e-06
6.5682614e-06
6.5600006e-06
6.5374919e-06
6.4848033e-06
6.371512e-06
6.1442389e-06
5.7187417e-06
4.9809312e-06
3.8126964e-06
2.1554495e-06
6.488071e-06
6.4907197e-06
6.4937449e-06
6.497105e-06
6.500741e-06
6.5045825e-06
6.5085554e-06
6.5125846e-06
6.5165894e-06
6.5204807e-06
6.5241649e-06
6.5275344e-06
6.5304324e-06
6.5325607e-06
6.5332574e-06
6.5309741e-06
6.5221457e-06
6.4989732e-06
6.44547e-06
6.3312079e-06
6.1030017e-06
5.677266e-06
4.941323e-06
3.7792886e-06
2.1350193e-06
6.331467e-06
6.3338688e-06
6.3366326e-06
6.3397339e-06
6.3431176e-06
6.3467088e-06
6.3504307e-06
6.3542097e-06
6.3579601e-06
6.3615764e-06
6.3649575e-06
6.3679925e-06
6.3705237e-06
6.3722525e-06
6.3725214e-06
6.3697915e-06
6.3605176e-06
6.3369497e-06
6.2832559e-06
6.1694516e-06
5.9434578e-06
5.5240351e-06
4.8025524e-06
3.6684905e-06
2.0705866e-06
5.9595651e-06
5.9617524e-06
5.9642896e-06
5.9671825e-06
5.9703906e-06
5.9738328e-06
5.9774284e-06
5.981106e-06
5.984759e-06
5.9882372e-06
5.9914435e-06
5.9942554e-06
5.9965116e-06
5.9979193e-06
5.9978501e-06
5.9948039e-06
5.9853576e-06
5.962014e-06
5.9095332e-06
5.7992179e-06
5.5817044e-06
5.1809797e-06
4.4969775e-06
3.4306604e-06
1.9423192e-06
5.2440491e-06
5.2460484e-06
5.2484043e-06
5.2510734e-06
5.2540944e-06
5.2573954e-06
5.2608973e-06
5.2645261e-06
5.2681087e-06
5.2714044e-06
5.2744429e-06
5.2770715e-06
5.2791051e-06
5.2802881e-06
5.2801176e-06
5.2770438e-06
5.268008e-06
5.2461472e-06
5.1977831e-06
5.0969672e-06
4.8996929e-06
4.5396061e-06
3.9314436e-06
2.993582e-06
1.6954798e-06
4.0413246e-06
4.0431993e-06
4.0460101e-06
4.0483743e-06
4.0509807e-06
4.053882e-06
4.0570167e-06
4.0602809e-06
4.0633412e-06
4.0658398e-06
4.0683152e-06
4.0705531e-06
4.0722926e-06
4.0734726e-06
4.074168e-06
4.0717198e-06
4.064041e-06
4.045273e-06
4.0060101e-06
3.9250029e-06
3.7674637e-06
3.482703e-06
3.0078115e-06
2.2854198e-06
1.2959697e-06
2.3001363e-06
2.3022846e-06
2.3093637e-06
2.3116206e-06
2.3133349e-06
2.3152133e-06
2.3172597e-06
2.3193274e-06
2.3209438e-06
2.3217458e-06
2.3229422e-06
2.3242867e-06
2.3254966e-06
2.3271456e-06
2.3310022e-06
2.3302674e-06
2.3248136e-06
2.3091649e-06
2.2850368e-06
2.2370879e-06
2.1442099e-06
1.9777124e-06
1.7037386e-06
1.2888599e-06
7.5354554e-07
)
;

boundaryField
{
    Walls
    {
        type            kqRWallFunction;
        value           nonuniform List<scalar> 
38
(
3.882336e-06
2.4534974e-06
7.888226e-06
3.7588452e-05
0.00028110431
0.0023619822
0.056444182
0.061071223
0.018563718
0.027419493
0.03446937
0.041567737
0.047657605
0.052301716
0.056378268
0.059383536
0.062212163
0.064424339
0.066238976
0.067567838
0.0686726
0.069574513
0.07012538
0.070874956
0.072034947
0.072512028
0.072821378
0.07326297
0.073052702
0.073601665
0.073577391
0.073236436
0.073170327
0.072770182
0.072661225
0.072425289
0.071728704
0.0667892
)
;
    }
    Inlet
    {
        type            turbulentIntensityKineticEnergyInlet;
        intensity       0.05;
        value           nonuniform List<scalar> 3(0.0081000258 0.009864699 0.0096721846);
    }
    Outlet
    {
        type            inletOutlet;
        inletValue      uniform 0;
        value           nonuniform List<scalar> 
86
(
2.2964692e-06
2.2966744e-06
2.2971367e-06
2.2978674e-06
2.2988767e-06
2.3001363e-06
2.3022846e-06
2.3093637e-06
2.3116206e-06
2.3133349e-06
2.3152133e-06
2.3172597e-06
2.3193274e-06
2.3209438e-06
2.3217458e-06
2.3229422e-06
2.3242867e-06
2.3254966e-06
2.3271456e-06
2.3310022e-06
2.3302674e-06
2.3248136e-06
2.3091649e-06
2.2850368e-06
2.2370879e-06
2.1442099e-06
1.9777124e-06
1.7037386e-06
0
7.5354554e-07
0.002693749
0.0027585428
0.0021383913
0
0
0
0
2.9931185e-05
1.3579813e-05
5.2329622e-06
1.9277752e-06
1.0446853e-06
8.8798564e-07
9.384435e-07
1.0285905e-06
1.0920821e-06
1.1249361e-06
1.1588662e-06
1.1865292e-06
1.2263496e-06
1.2681227e-06
1.3076087e-06
1.3445184e-06
1.3820837e-06
1.4213715e-06
1.4621914e-06
1.513767e-06
1.5637949e-06
1.6088537e-06
1.6560086e-06
1.7018273e-06
1.7442466e-06
1.7771985e-06
1.8203551e-06
1.8644788e-06
1.9086884e-06
0
0
0
0
0
0
0
0
0
0
0
0
0
7.5354554e-07
0
0
0
0
0.0020798232
0.0027573504
)
;
    }
    Front
    {
        type            wedge;
    }
    Back
    {
        type            wedge;
    }
    defaultFaces
    {
        type            empty;
    }
}


// ************************************************************************* //
