/*--------------------------------*- C++ -*----------------------------------*\
| =========                 |                                                 |
| \\      /  F ield         | OpenFOAM: The Open Source CFD Toolbox           |
|  \\    /   O peration     | Version:  4.0                                   |
|   \\  /    A nd           | Web:      www.OpenFOAM.org                      |
|    \\/     M anipulation  |                                                 |
\*---------------------------------------------------------------------------*/
FoamFile
{
    version     2.0;
    format      ascii;
    class       volScalarField;
    location    "0.14";
    object      omega;
}
// * * * * * * * * * * * * * * * * * * * * * * * * * * * * * * * * * * * * * //

dimensions      [0 0 -1 0 0 0 0];

internalField   nonuniform List<scalar> 
1740
(
57.025615
683.0245
14922.558
156.98834
1388.4336
15030.142
262.23746
1855.542
15115.658
367.07647
2178.0086
15200.398
489.11246
2499.1327
15273.349
607.58787
2797.7062
15327.777
728.4813
3039.8994
15373.465
831.8915
3227.2852
15411.263
934.49978
3429.4674
15446.578
1059.0698
3583.8181
15473.062
1168.2247
3673.5615
15492.404
1262.9914
3756.0067
15508.269
1365.6794
3875.6446
15521.527
1448.5665
3951.3971
15531.25
1490.9449
3925.9975
15539.504
1541.551
3902.0786
15550.457
1602.5496
3959.0276
15562.805
1662.5161
4070.7098
15565.946
1738.3272
4060.6734
15572.041
1783.7285
4101.0381
15578.642
1823.9421
4163.0803
15572.848
1854.8861
4129.8582
15576.889
1878.9467
4175.604
15579.038
1901.5202
4195.9274
15575.212
1938.5457
4157.9379
15576.07
1945.2177
4162.7917
15570.098
1964.0308
4175.4061
15568.572
1988.7057
4218.7644
15568.331
2008.7082
4193.6998
15559.728
2141.1814
4283.3609
15502.212
3210.9131
4572.94
10769.612
3355.9177
4258.1416
5975.9168
1574.4384
1861.9999
2157.1142
823.34286
898.47921
957.32051
478.83887
497.07913
507.65048
303.31142
307.13213
307.47585
206.40775
206.80509
205.53417
150.67438
150.418
149.30986
118.70526
118.44129
117.73575
101.4181
101.26108
100.88925
93.109962
93.04856
92.899777
89.751412
89.756301
89.741366
88.531774
88.541184
88.54101
87.565006
87.578852
87.586203
86.666789
86.686643
86.701088
85.868529
85.887481
85.901968
85.229661
85.243135
85.252804
84.754464
84.762397
84.7669
84.407618
84.411607
84.41241
84.147894
84.149448
84.148017
83.943233
83.943378
83.940726
83.772368
83.771726
83.768468
83.622118
83.621054
83.617547
83.484522
83.483247
83.479695
83.354797
83.353435
83.349953
83.230069
83.228692
83.225344
83.108622
83.107273
83.104092
82.98946
82.988163
82.985167
82.872041
82.87081
82.868005
82.756129
82.754971
82.752358
82.641691
82.640609
82.638185
82.528843
82.527838
82.525597
82.417808
82.416879
82.414814
82.308885
82.308029
82.306133
82.202414
82.201629
82.199893
82.098712
82.097994
82.09641
81.997905
81.997251
81.995811
81.899485
81.898892
81.897587
81.801169
81.800633
81.799454
81.696089
81.695606
81.694545
81.566379
81.565947
81.564997
81.369551
81.369166
81.368321
81.011866
81.011529
81.010788
80.300968
80.300684
80.300059
78.870482
78.870275
78.869816
76.076815
76.076757
76.076607
70.891955
70.892188
70.892656
61.875162
61.875863
61.877372
47.436069
47.437234
47.439846
27.010325
27.011416
27.013945
13482.145
13536.401
6012.1452
5342.2137
2086.0244
1883.3197
922.74353
854.7701
491.56343
464.90077
299.51744
287.79107
201.4237
195.88121
147.12202
144.35482
116.57886
115.16645
100.31952
99.626629
92.66505
92.364295
89.689582
89.596386
88.514441
88.452812
87.570201
87.52298
86.692773
86.656093
85.896839
85.868421
85.247694
85.225491
84.760939
84.743138
84.405796
84.390999
84.141128
84.128384
83.933849
83.922564
83.76178
83.751595
83.611144
83.601843
83.473627
83.465073
83.344239
83.336343
83.219989
83.212685
83.099092
83.092333
82.980511
82.974258
82.863683
82.857901
82.748354
82.743015
82.634485
82.629563
82.522187
82.517659
82.41168
82.407521
82.303259
82.29945
82.197266
82.193786
82.094015
82.090845
81.993634
81.990753
81.895615
81.893005
81.797673
81.795317
81.692944
81.690825
81.563563
81.561668
81.367048
81.365367
81.009673
81.008204
80.299115
80.297875
78.869106
78.868166
76.076324
76.075911
70.893256
70.893951
61.879579
61.882421
47.443951
47.449558
27.018137
27.024154
12058.171
2043.8752
695.81341
366.34375
275.89224
249.54708
240.38042
235.18782
230.48454
225.45044
219.96095
214.04011
207.71421
200.98001
193.82481
186.24958
178.26261
169.85576
160.96117
151.37268
140.61421
127.74706
111.14505
88.209922
53.013574
12058.131
2037.4936
697.37982
373.27433
280.6474
251.24485
238.89605
230.63977
223.36284
216.24928
209.1173
201.95666
194.78241
187.5743
180.30602
172.97334
165.57211
158.06899
150.36278
142.22325
133.18284
122.35295
108.08265
87.180482
52.359498
12058.178
2030.2679
718.23221
430.30252
359.04275
331.87937
314.42233
299.69866
286.13997
273.17424
260.68896
248.70477
237.25904
226.26068
215.61929
205.32273
195.36221
185.69575
176.22176
166.73949
156.86099
145.8451
132.18806
112.48208
77.488806
12058.526
2031.5118
817.44289
609.1687
550.59657
513.59325
480.71725
450.27727
422.41516
396.25256
371.69251
348.76893
327.64605
307.98575
289.48998
272.14639
255.93521
240.79809
226.63563
213.29249
200.51941
187.89523
174.58915
158.47819
131.24621
12061.528
2151.1654
1233.0635
1079.411
990.88496
908.26674
829.90547
758.49383
694.83597
636.11953
582.13805
532.7431
488.8726
449.3186
413.008
379.99212
350.14544
323.26645
299.12032
277.44811
257.95793
240.33498
224.26428
209.72099
197.88865
12087.274
3834.0968
2813.5759
2406.9878
2097.766
1828.6976
1593.3787
1390.236
1214.4004
1062.6745
932.00405
819.5951
723.01837
639.89735
568.1653
506.3153
453.05406
407.23647
367.84977
333.99953
304.89098
279.83585
258.27474
240.1846
226.8382
10381.045
7915.4613
6103.7368
4791.4548
3820.9014
3085.412
2516.2514
2069.2212
1714.566
1430.9612
1202.5762
1017.5821
867.08403
744.20821
643.48404
560.55131
491.95613
434.97206
387.44214
347.64623
314.19581
285.97575
262.12341
242.37742
227.99408
4097.6744
3310.7915
2844.8012
2469.0073
2149.9517
1869.6506
1625.2919
1413.8813
1232.5869
1077.2033
943.97193
829.53928
730.96123
646.04138
572.93356
510.03901
455.96638
409.50793
369.6129
335.36088
305.93669
280.63607
258.88169
240.63669
227.16502
1595.5431
1401.0424
1270.9536
1162.821
1060.7983
963.66839
874.95327
796.29942
724.61919
659.74382
601.71472
550.5613
503.87759
461.35126
422.83987
388.11884
356.92451
328.97985
303.99293
281.65257
261.63106
243.59126
227.20308
212.43161
200.42657
772.12153
709.00142
662.96972
622.60828
582.50973
542.62944
505.28911
471.03515
439.32587
410.13494
383.49781
359.19782
336.5699
315.45342
295.79567
277.54346
260.62391
244.93848
230.35336
216.68383
203.66227
190.86443
177.48496
161.48279
134.73673
435.80373
412.27538
393.7954
376.82233
359.3416
341.3207
323.73224
307.04121
291.29195
276.52716
262.7584
249.87708
237.6719
226.05619
214.99704
204.48744
194.47324
184.86957
175.53545
166.23234
156.54467
145.71306
132.23079
112.71527
78.02053
275.65101
265.42957
256.96792
249.00567
240.69411
231.95421
223.15277
214.55814
206.27948
198.36703
190.8294
183.6204
176.65994
169.89954
163.31375
156.88816
150.58544
144.32595
137.95519
131.18612
123.49837
113.96075
100.89535
81.159854
48.236748
190.24764
185.32931
181.07037
176.98329
172.68894
168.11612
163.3991
158.68079
154.04545
149.53586
145.16354
140.91201
136.74898
132.6498
128.59943
124.5836
120.5715
116.49219
112.19668
107.39557
101.56326
93.799888
82.620089
65.469768
36.726178
141.54753
139.00711
136.71351
134.46929
132.10352
129.56942
126.9163
124.21638
121.52464
118.87403
116.27881
113.73806
111.24265
108.78434
106.35748
103.95308
101.54542
99.068435
96.377506
93.192971
89.032561
83.172353
74.754112
63.362982
51.165293
113.71573
112.34939
111.06242
109.77675
108.42036
106.97037
105.44802
103.89195
102.33737
100.80928
99.322062
97.88111
96.486328
95.135854
93.826014
92.545694
91.263537
89.904562
88.312221
86.195248
83.074001
78.282767
71.178109
61.877983
53.056249
98.892229
98.162216
97.436732
96.689051
95.894878
95.049355
94.166889
93.271365
92.386613
91.531566
90.718588
89.95322
89.235312
88.561318
87.923416
87.303807
86.661754
85.909185
84.869488
83.216701
80.40504
75.629799
67.926879
56.59505
41.169721
92.019412
91.641043
91.228923
90.777304
90.283276
89.751753
89.195658
88.632788
88.081864
87.559199
87.07688
86.641803
86.252185
85.90209
85.579458
85.261007
84.89855
84.392156
83.543432
81.983307
79.074403
73.80221
64.712512
49.905953
26.629689
89.456613
89.262027
89.010966
88.705629
88.35116
87.955766
87.53131
87.093495
86.660429
86.24875
85.869218
85.5363
85.239848
84.984857
84.759433
84.536012
84.261128
83.826893
83.019455
81.435957
78.367269
72.67307
62.711344
46.388843
21.755274
88.349505
88.198739
87.998126
87.747877
87.450214
87.109843
86.735531
86.342095
85.950071
85.580723
85.248507
84.972407
84.74512
84.555994
84.388652
84.21516
83.981003
83.575072
82.776036
81.166641
78.015834
72.155284
61.966036
45.560319
21.781004
87.438
87.308709
87.132246
86.908935
86.642408
86.340512
86.016178
85.686735
85.370713
85.083265
84.832969
84.62272
84.453351
84.311747
84.182384
84.03865
83.826894
83.436007
82.643754
81.03222
77.875109
72.031402
61.975867
46.098521
23.629817
86.585497
86.474195
86.32091
86.128608
85.904114
85.657829
85.402781
85.15267
84.919334
84.710695
84.529949
84.3757
84.249696
84.141651
84.037975
83.913713
83.716666
83.337209
82.555398
80.958552
77.833868
72.074614
62.232892
46.881667
25.518962
85.812617
85.723881
85.602621
85.453222
85.282926
85.100805
84.916472
84.738675
84.574085
84.426666
84.297688
84.186189
84.089789
84.00479
83.918821
83.808141
83.62186
83.252052
82.48164
80.903577
77.816487
72.135996
62.451631
47.404041
26.442162
85.183503
85.117959
85.029785
84.922799
84.802554
84.675372
84.547427
84.423969
84.308817
84.204196
84.110839
84.028184
83.954342
83.884945
83.811399
83.710531
83.532365
83.170293
82.409426
80.846542
77.786616
72.154006
62.541553
47.567865
26.513937
84.711871
84.664808
84.60274
84.528301
84.44513
84.357213
84.268333
84.181664
84.099543
84.023412
83.953857
83.890601
83.832176
83.774601
83.710099
83.616467
83.444387
83.088097
82.334028
80.781055
77.73701
72.128193
62.539111
47.55392
26.55433
84.367091
84.332697
84.288359
84.235733
84.177061
84.114779
84.051207
83.988325
83.927658
83.870229
83.816544
83.766487
83.718904
83.670371
83.612255
83.523981
83.356445
83.004335
82.254829
80.708007
77.673326
72.077887
62.49945
47.498558
26.413977
84.109281
84.083027
84.049985
84.011178
83.967985
83.92191
83.874414
83.826784
83.780064
83.735015
83.692061
83.651144
83.611251
83.569142
83.516179
83.432021
83.267943
82.918933
82.172701
80.630349
77.603075
72.020114
62.458172
47.475327
26.511176
83.906613
83.885554
83.859645
83.829542
83.796118
83.760341
83.723166
83.685471
83.648002
83.611338
83.575824
83.5414
83.507113
83.469823
83.421067
83.339997
83.178627
82.832088
82.088583
80.550303
77.53037
71.960309
62.415811
47.451974
26.617184
83.737798
83.720159
83.698876
83.674395
83.647304
83.618255
83.587909
83.556891
83.525758
83.49496
83.464769
83.435104
83.405021
83.371414
83.325855
83.247447
83.088347
82.743942
82.002983
80.468802
77.45639
71.899187
62.370873
47.414736
26.645514
83.58961
83.57434
83.556201
83.535519
83.512711
83.488248
83.46261
83.436266
83.409646
83.383108
83.356867
83.33081
83.303982
83.273286
83.230306
83.154165
82.997018
82.654549
81.916077
80.386122
77.381703
71.838816
62.330691
47.385548
26.597436
83.454049
83.440522
83.424644
83.406667
83.38691
83.365729
83.343493
83.32057
83.297305
83.273989
83.250791
83.227565
83.203344
83.175022
83.134203
83.060077
82.904591
82.563899
81.827833
80.3021
77.305913
71.778509
62.294134
47.365766
26.543689
83.326304
83.314138
83.29998
83.28404
83.266573
83.247862
83.228206
83.207904
83.187241
83.166462
83.145695
83.124768
83.102695
83.076363
83.037373
82.964936
82.811014
82.471956
81.738125
80.216328
77.227889
71.715142
62.252682
47.339916
26.505639
83.203488
83.192437
83.179659
83.165333
83.149671
83.132911
83.115301
83.097094
83.078534
83.059825
83.041068
83.022066
83.001815
82.977188
82.939784
82.868827
82.716355
82.378736
81.646892
80.128562
77.147025
71.648024
62.209317
47.330177
26.479663
83.083877
83.073778
83.062155
83.049164
83.03499
83.019836
83.003916
82.987449
82.970646
82.953684
82.936639
82.919292
82.900621
82.877487
82.841478
82.771826
82.620608
82.284312
81.554228
80.038948
77.063568
71.577391
62.162982
47.323759
26.627697
82.966468
82.957207
82.946584
82.934739
82.921835
82.90805
82.893573
82.878597
82.863308
82.847861
82.83231
82.816418
82.799146
82.777338
82.742573
82.674079
82.523967
82.188846
81.460322
79.94778
76.977974
71.503656
62.114427
47.329275
26.729783
82.850723
82.842215
82.83248
82.821645
82.809855
82.79727
82.784058
82.770393
82.75644
82.742334
82.728114
82.713524
82.697509
82.676897
82.643249
82.575787
82.426645
82.092553
81.365356
79.855203
76.89012
71.424873
62.051742
47.294041
26.73497
82.736402
82.728583
82.719651
82.709724
82.698932
82.687421
82.675341
82.66285
82.650097
82.637202
82.624184
82.610776
82.595905
82.57638
82.543744
82.477198
82.328884
81.995616
81.269509
79.761338
76.800169
71.342127
61.982393
47.257209
26.765314
82.623477
82.616293
82.608097
82.598998
82.589115
82.578579
82.567528
82.556105
82.544445
82.532654
82.520737
82.508413
82.494591
82.476064
82.444345
82.37861
82.230982
81.898331
81.17301
79.666374
76.708497
71.256607
61.907163
47.204911
26.769013
82.512065
82.505471
82.497956
82.48962
82.480572
82.470931
82.460825
82.450383
82.439729
82.428954
82.418054
82.40673
82.39388
82.376271
82.345389
82.280367
82.133287
81.801029
81.076128
79.570445
76.615181
71.169047
61.829308
47.13954
26.719155
82.402391
82.396347
82.389465
82.381837
82.373562
82.36475
82.355518
82.345984
82.33626
82.326428
82.31647
82.306077
82.294129
82.277371
82.247254
82.182856
82.036194
81.7041
80.979201
79.473813
76.520293
71.079338
61.749634
47.06883
26.532404
82.294754
82.289225
82.282935
82.275965
82.268409
82.260368
82.251948
82.243258
82.2344
82.225445
82.216366
82.20684
82.195732
82.179765
82.15035
82.086502
81.940146
81.608022
80.882768
79.377096
76.424666
70.98915
61.673869
47.018444
26.505765
82.189497
82.184451
82.178713
82.172359
82.165473
82.15815
82.150486
82.142582
82.134531
82.126395
82.118135
82.109419
82.099096
82.083866
82.0551
81.991743
81.845613
81.513322
80.787465
79.281103
76.329334
70.899555
61.601903
46.980872
26.502054
82.086938
82.082344
82.077123
82.071343
82.065083
82.058429
82.051471
82.0443
82.037002
82.02963
82.022136
82.014176
82.004587
81.990045
81.96188
81.898969
81.753013
81.420477
80.693876
79.186558
76.234951
70.810032
61.528984
46.944653
26.510754
81.987205
81.983034
81.978294
81.97305
81.967374
81.961344
81.955044
81.948557
81.941961
81.935301
81.928521
81.921268
81.912364
81.898464
81.870861
81.808358
81.662544
81.329729
80.602324
79.093914
76.142152
70.721553
61.457384
46.915576
26.313737
81.889792
81.886016
81.881726
81.876982
81.871849
81.866401
81.860713
81.854863
81.848921
81.842924
81.836809
81.830214
81.821948
81.808646
81.781564
81.719439
81.573744
81.240636
80.512405
79.002811
76.050535
70.633015
61.38202
46.874648
26.326682
81.792417
81.789009
81.785139
81.780861
81.776236
81.771329
81.766211
81.760953
81.755619
81.750239
81.744742
81.738757
81.731083
81.718335
81.691736
81.629957
81.484364
81.150961
80.421913
78.911085
75.957969
70.542379
61.301918
46.827985
26.431983
81.688218
81.685155
81.681679
81.677838
81.673687
81.669286
81.664701
81.659996
81.655229
81.650422
81.645499
81.640079
81.632951
81.620714
81.594557
81.533093
81.387589
81.053912
80.324117
78.812184
75.858388
70.444988
61.216112
46.776303
26.442901
81.559337
81.556603
81.553502
81.550078
81.546382
81.542466
81.538389
81.534209
81.529978
81.525712
81.521325
81.516431
81.509805
81.498031
81.47227
81.411086
81.265662
80.931764
80.201397
78.688778
75.735192
70.325776
61.111682
46.709288
26.431619
81.363304
81.360891
81.358165
81.355165
81.351931
81.348508
81.344946
81.341297
81.337601
81.333868
81.330001
81.325604
81.319441
81.308082
81.282663
81.221711
81.076354
80.742316
80.011683
78.499152
75.54742
70.144876
60.949422
46.588612
26.377738
81.006413
81.00434
81.002025
80.999505
80.996807
80.99396
80.990997
80.98796
80.984876
80.981736
80.978427
80.974537
80.968819
80.957825
80.932677
80.871886
80.726578
80.392547
79.662215
78.151315
75.205086
69.817252
60.655914
46.365086
26.267516
80.296386
80.29471
80.292911
80.291031
80.289077
80.287043
80.284934
80.282769
80.280548
80.278222
80.275642
80.272371
80.267139
80.256482
80.231521
80.170803
80.025565
79.691915
78.96316
77.457266
74.524461
69.168173
60.073126
45.90843
26.01844
78.867068
78.865917
78.864848
78.863942
78.86318
78.862486
78.861809
78.861128
78.860389
78.859439
78.858044
78.855718
78.851159
78.840884
78.816058
78.755387
78.61048
78.27832
77.554301
76.061204
73.159454
67.871675
58.913232
44.99203
25.485137
76.075444
76.075071
76.07509
76.075721
76.076927
76.07852
76.080349
76.082345
76.084319
76.085866
76.086594
76.085918
76.08249
76.07283
76.04826
75.987925
75.844416
75.516832
74.805235
73.342413
70.509046
65.36492
56.683305
43.24257
24.477332
70.894718
70.8956
70.897222
70.900091
70.904268
70.909419
70.915274
70.921706
70.928208
70.933774
70.937986
70.940055
70.938548
70.930075
70.90644
70.847653
70.708635
70.393202
69.711412
68.315891
65.62555
60.7685
52.623595
40.104003
22.775022
61.88553
61.888494
61.892839
61.898425
61.906139
61.915657
61.926623
61.93878
61.950751
61.96039
61.968626
61.974234
61.975459
61.969357
61.949366
61.895466
61.767899
61.479905
60.862994
59.606445
57.196794
52.878388
45.701544
34.774615
19.761497
47.455841
47.462662
47.478252
47.486944
47.496993
47.509383
47.523824
47.539563
47.553246
47.56124
47.570157
47.577938
47.581874
47.581271
47.576419
47.535237
47.43047
47.189305
46.695938
45.698298
43.793067
40.405513
34.836947
26.461395
15.06028
27.031742
27.04839
27.120997
27.136782
27.145481
27.155481
27.16706
27.178781
27.185484
27.183263
27.186255
27.191851
27.196965
27.208202
27.245616
27.230119
27.158486
26.964726
26.664473
26.077091
24.958076
22.981743
19.771049
14.956635
8.7761763
)
;

boundaryField
{
    Walls
    {
        Cmu             0.09;
        kappa           0.41;
        E               9.8;
        beta1           0.075;
        type            omegaWallFunction;
        value           nonuniform List<scalar> 
38
(
12058.171
12058.131
12058.178
12058.526
12061.528
12087.274
13482.145
13536.401
14922.558
15030.142
15115.658
15200.398
15273.349
15327.777
15373.465
15411.263
15446.578
15473.062
15492.404
15508.269
15521.527
15531.25
15539.504
15550.457
15562.805
15565.946
15572.041
15578.642
15572.848
15576.889
15579.038
15575.212
15576.07
15570.098
15568.572
15568.331
15559.728
15502.212
)
;
    }
    Inlet
    {
        type            turbulentMixingLengthDissipationRateInlet;
        mixingLength    0.03;
        phi             phi;
        k               k;
        value           nonuniform List<scalar> 3(0.0043980103 0.0043500467 0.0056804775);
    }
    Outlet
    {
        type            inletOutlet;
        inletValue      uniform 1e-05;
        value           nonuniform List<scalar> 
86
(
27.010325
27.011416
27.013945
27.018137
27.024154
27.031742
27.04839
27.120997
27.136782
27.145481
27.155481
27.16706
27.178781
27.185484
27.183263
27.186255
27.191851
27.196965
27.208202
27.245616
27.230119
27.158486
26.964726
26.664473
26.077091
24.958076
22.981743
19.771049
1e-05
8.7761763
227.99408
227.16502
200.42657
1e-05
1e-05
1e-05
1e-05
51.165293
53.056249
41.169721
26.629689
21.755274
21.781004
23.629817
25.518962
26.442162
26.513937
26.55433
26.413977
26.511176
26.617184
26.645514
26.597436
26.543689
26.505639
26.479663
26.627697
26.729783
26.73497
26.765314
26.769013
26.719155
26.532404
26.505765
26.502054
26.510754
1e-05
1e-05
1e-05
1e-05
1e-05
1e-05
1e-05
1e-05
1e-05
1e-05
1e-05
1e-05
1e-05
8.7761763
1e-05
1e-05
1e-05
1e-05
197.88865
226.8382
)
;
    }
    Front
    {
        type            wedge;
    }
    Back
    {
        type            wedge;
    }
    defaultFaces
    {
        type            empty;
    }
}


// ************************************************************************* //
