/*--------------------------------*- C++ -*----------------------------------*\
| =========                 |                                                 |
| \\      /  F ield         | OpenFOAM: The Open Source CFD Toolbox           |
|  \\    /   O peration     | Version:  4.0                                   |
|   \\  /    A nd           | Web:      www.OpenFOAM.org                      |
|    \\/     M anipulation  |                                                 |
\*---------------------------------------------------------------------------*/
FoamFile
{
    version     2.0;
    format      ascii;
    class       volScalarField;
    location    "0.14";
    object      p;
}
// * * * * * * * * * * * * * * * * * * * * * * * * * * * * * * * * * * * * * //

dimensions      [0 2 -2 0 0 0 0];

internalField   nonuniform List<scalar> 
1740
(
491.79484
491.71114
491.70693
475.19571
475.29328
475.07041
458.48331
458.6322
458.32672
441.95044
441.80727
441.66788
425.33538
425.17624
425.10474
408.72595
408.7079
408.50411
392.19252
392.28876
392.21359
375.36803
375.52575
375.80049
358.45645
358.5258
358.75473
341.83932
341.72903
341.59781
325.34165
325.05756
324.9004
308.78587
308.58438
308.57391
292.15589
292.3193
292.34261
275.57311
276.07107
276.3096
259.32357
259.53828
259.76648
242.92591
242.71385
242.69255
226.46889
226.28345
226.16663
210.27314
210.11708
210.0703
193.74819
193.579
193.50707
176.67682
176.57958
176.31255
159.83677
159.88988
159.53097
143.69366
143.78235
143.77116
127.83377
127.7193
128.22912
111.88112
111.87433
112.35783
95.962924
96.11953
96.110933
79.971481
80.188019
79.99015
63.689589
64.092891
64.318265
47.649486
47.882842
48.173073
32.052119
31.769586
31.72147
17.067539
16.630451
15.982362
4.6781135
3.9954435
1.8151461
-0.34457549
-0.34934139
-0.27345061
-0.010437175
-0.028527218
-0.041815055
0.054927007
0.046134055
0.035298173
0.044675667
0.04130508
0.036997661
0.033203858
0.032049531
0.030334575
0.024208898
0.023883696
0.023268593
0.018158689
0.018078244
0.017842989
0.014055476
0.014032513
0.013937518
0.011396732
0.011404657
0.011379176
0.0094800556
0.0094940082
0.0094872949
0.0078796324
0.0078890459
0.0078847709
0.0065270346
0.0065297321
0.0065222667
0.0053652539
0.0053641046
0.0053543751
0.0043691465
0.004366125
0.0043559418
0.0035241823
0.0035204561
0.0035104796
0.0028130819
0.0028092817
0.0028001344
0.0022180314
0.0022144756
0.0022064044
0.0017225299
0.0017193482
0.0017124148
0.0013121515
0.0013094113
0.0013036128
0.00097471685
0.00097244635
0.00096773623
0.00069997291
0.00069815893
0.00069446761
0.00047913982
0.0004777451
0.00047497219
0.00030451658
0.00030349027
0.00030151859
0.00016924757
0.00016853892
0.0001672403
6.718098e-05
6.6734005e-05
6.5986897e-05
-7.20247e-06
-7.4423862e-06
-7.7598545e-06
-5.884742e-05
-5.8931395e-05
-5.8933507e-05
-9.2152614e-05
-9.2128449e-05
-9.1915408e-05
-0.00011095559
-0.00011086396
-0.00011052489
-0.00011853497
-0.00011841788
-0.00011804899
-0.00011717152
-0.00011719143
-0.00011709331
-0.00010990006
-0.00010980305
-0.0001094814
-9.8892902e-05
-9.8821192e-05
-9.8583988e-05
-8.5665434e-05
-8.5627396e-05
-8.5466003e-05
-7.1476367e-05
-7.1479437e-05
-7.1398589e-05
-5.7270773e-05
-5.7305062e-05
-5.7317407e-05
-4.3780666e-05
-4.3849568e-05
-4.3951516e-05
-3.1517175e-05
-3.1617432e-05
-3.1795176e-05
-2.0811744e-05
-2.0937819e-05
-2.1175096e-05
-1.1848228e-05
-1.1995397e-05
-1.2273023e-05
-4.6825118e-06
-4.8477941e-06
-5.1332506e-06
7.7076063e-07
6.6963306e-07
4.2216722e-07
4.330789e-06
4.1928787e-06
3.8732969e-06
6.1897823e-06
6.0479737e-06
5.7389234e-06
6.6547195e-06
6.527204e-06
6.2547077e-06
6.0111389e-06
5.906649e-06
5.6845762e-06
4.5415443e-06
4.4654542e-06
4.3030253e-06
2.6959784e-06
2.6500726e-06
2.552125e-06
8.2039464e-07
8.0503454e-07
7.7277424e-07
-1.2159138
-0.85471368
-0.23103276
-0.17930029
-0.042774183
-0.042247669
0.026457476
0.018453145
0.03346094
0.030226365
0.028385279
0.026483829
0.022343099
0.021295293
0.017390374
0.016771672
0.01370713
0.013340419
0.011255101
0.011012886
0.0094091273
0.0092408644
0.0078332249
0.0077204821
0.0064851301
0.0064076447
0.0053249212
0.0052692746
0.0043316067
0.0042902559
0.0034907537
0.0034592915
0.0027840601
0.0027598847
0.0021932303
0.0021745412
0.0017016838
0.0016871899
0.0012949901
0.0012838414
0.00096096492
0.00095256514
0.00068932333
0.00068321617
0.00047123836
0.00046704521
0.00029898332
0.0002963703
0.00016569957
0.00016435984
6.5241721e-05
6.4898359e-05
-7.8942041e-06
-7.4914502e-06
-5.8629e-05
-5.7700116e-05
-9.1320033e-05
-9.0057959e-05
-0.00010977066
-0.00010834803
-0.000117275
-0.00011582124
-0.00011654726
-0.00011518647
-0.00010901764
-0.00010843287
-9.8116332e-05
-9.7306945e-05
-8.5121332e-05
-8.4494886e-05
-7.1183365e-05
-7.0767881e-05
-5.7256837e-05
-5.7037444e-05
-4.4028319e-05
-4.400005e-05
-3.199379e-05
-3.2138683e-05
-2.1467725e-05
-2.1738214e-05
-1.2619039e-05
-1.2933172e-05
-5.389113e-06
-5.750419e-06
-5.6540531e-08
-6.4287117e-07
3.3872637e-06
2.7885964e-06
5.287233e-06
4.728506e-06
5.8604771e-06
5.3714338e-06
5.364257e-06
4.9663991e-06
4.0683197e-06
3.7759916e-06
2.4101142e-06
2.233246e-06
7.2595489e-07
6.6772348e-07
0.018731581
0.018521487
0.018241366
0.017872608
0.017428391
0.016873834
0.016213145
0.015454673
0.014611563
0.013702102
0.012742692
0.011750992
0.010740348
0.00972583
0.008718987
0.0077302263
0.0067683062
0.0058394401
0.0049466891
0.0040906386
0.0032706337
0.0024854101
0.0017334692
0.0010129093
0.00032323192
0.019403157
0.019129853
0.018807987
0.018377897
0.017874501
0.01722823
0.016464054
0.015590239
0.014623332
0.01359127
0.012523708
0.011437782
0.010353925
0.0092892662
0.0082565125
0.0072626954
0.0063119079
0.0054067096
0.0045498587
0.0037418137
0.0029779813
0.002254688
0.0015684881
0.00091715422
0.00029876792
0.017617235
0.017229211
0.016731891
0.016087517
0.01514237
0.013980883
0.012635988
0.011175178
0.0097442783
0.0084036075
0.007189171
0.0061023158
0.0051436229
0.0043068713
0.0035833943
0.0029637146
0.0024365469
0.0019895612
0.0016092253
0.0012825587
0.001001067
0.00075490171
0.00053396769
0.0003310602
0.00013293241
0.0047808205
0.0043558626
0.0032527438
0.001601156
-0.00030501687
-0.002114297
-0.0036483423
-0.0048148787
-0.0056590037
-0.0062205566
-0.0065139089
-0.0066042894
-0.0065242707
-0.0063016851
-0.0059568025
-0.005512444
-0.0049923981
-0.0044183782
-0.0038092999
-0.0031812339
-0.0025484555
-0.0019247627
-0.0013215078
-0.0007437538
-0.00021051374
-0.041993627
-0.04192976
-0.042200645
-0.04093576
-0.039305207
-0.037163369
-0.034712869
-0.032085916
-0.029366747
-0.026655516
-0.023970819
-0.021419524
-0.01895874
-0.016544769
-0.014292643
-0.012232381
-0.010362601
-0.0086740958
-0.0071530543
-0.0057820742
-0.0045414786
-0.0034097849
-0.0023681428
-0.0013986274
-0.00049151413
-0.19860831
-0.15587047
-0.13541467
-0.10696194
-0.084045347
-0.064366187
-0.047993708
-0.034921374
-0.024655054
-0.016643965
-0.010532193
-0.0059368077
-0.0025983568
-0.00023542139
0.0014206867
0.0024913978
0.0030982703
0.0033428766
0.0033064909
0.0030546199
0.002641135
0.0021121485
0.0015033665
0.00085305099
0.00014739817
-0.28209236
-0.082970927
-0.040719823
-0.010881438
0.017234393
0.039515351
0.052930064
0.05834969
0.05882882
0.05683792
0.053534212
0.049519134
0.045117263
0.0405799
0.036076443
0.03170545
0.027523639
0.023557959
0.019814976
0.016287303
0.012958017
0.009805961
0.0067994343
0.0039263068
0.0010836818
-0.14570066
-0.12706718
-0.10763039
-0.087603431
-0.068668654
-0.051841786
-0.037816605
-0.02661228
-0.017873538
-0.011150924
-0.0060853838
-0.0023446511
0.00031378237
0.0021799871
0.0034085067
0.0041250243
0.0044361868
0.0044322642
0.0041842354
0.0037504824
0.0031788098
0.0025098372
0.0017743546
0.0010077793
0.00019070836
-0.044766954
-0.045699251
-0.045325251
-0.044028841
-0.042018459
-0.039547538
-0.036776253
-0.033843802
-0.030848007
-0.027916991
-0.025051373
-0.02222794
-0.019497056
-0.016970439
-0.014661769
-0.012564873
-0.010666376
-0.0089405952
-0.0073781276
-0.0059642489
-0.0046824825
-0.0035155074
-0.002445545
-0.00145058
-0.00051648304
0.012509985
0.0074485951
0.0030731679
-0.00067042232
-0.0037353651
-0.0061062821
-0.007879973
-0.0091158179
-0.0098799483
-0.010259086
-0.010321866
-0.010137901
-0.009750029
-0.0092022687
-0.0085343463
-0.0077787448
-0.0069638014
-0.0061211605
-0.0052613077
-0.0043949847
-0.0035322355
-0.0026822722
-0.0018536109
-0.0010541972
-0.00030886317
0.026682801
0.023819929
0.021118871
0.018478569
0.015832733
0.013178612
0.010718641
0.0085344844
0.0066634987
0.005097644
0.0038144121
0.0027761719
0.0019491727
0.0013040819
0.0008095296
0.0004403014
0.00017893334
5.9230458e-06
-9.6859613e-05
-0.00014406744
-0.00014939168
-0.00012478314
-8.0743064e-05
-2.5151816e-05
2.4041455e-05
0.024561407
0.022933733
0.021444724
0.019954815
0.018462613
0.017048507
0.015662826
0.014217877
0.012781322
0.011387392
0.010070421
0.0088489538
0.0077284118
0.0067087357
0.0057927144
0.0049701024
0.0042305262
0.003561951
0.0029535711
0.0024004007
0.0018923064
0.001422225
0.00098405689
0.0005748177
0.00019287488
0.02021162
0.019135275
0.018098721
0.017050302
0.015985177
0.014905405
0.013831886
0.012808341
0.011796985
0.010789791
0.009801953
0.0088438456
0.0079237966
0.0070485161
0.0062190289
0.0054402513
0.0047134671
0.0040334318
0.0033972898
0.002796858
0.002229512
0.0016907568
0.0011767428
0.00068590148
0.00021861509
0.016067696
0.015343962
0.014607981
0.013854004
0.013089134
0.012320045
0.011558814
0.010812669
0.010068238
0.0093175106
0.0085597149
0.0078028323
0.0070565835
0.0063284572
0.0056247388
0.0049506331
0.0043052528
0.0036920605
0.0031116752
0.0025621645
0.0020419451
0.0015484035
0.0010789703
0.00063044698
0.00020056863
0.012883076
0.012384727
0.011857322
0.011314417
0.010763721
0.010204934
0.0096418074
0.0090783491
0.0085128002
0.0079400333
0.0073574689
0.006767936
0.0061761485
0.0055868284
0.0050046995
0.004435288
0.0038827866
0.0033501552
0.002837742
0.0023466799
0.0018769333
0.0014275585
0.00099712871
0.00058379367
0.00018576658
0.010683553
0.010314685
0.0099157103
0.0094973671
0.0090646821
0.0086208075
0.0081729638
0.0077263862
0.007278145
0.0068251149
0.0063649049
0.0058973767
0.0054238503
0.0049468019
0.0044700234
0.003995493
0.0035257729
0.0030635508
0.0026119153
0.0021720639
0.001745292
0.0013322939
0.00093317551
0.00054777671
0.00017526294
0.0090000512
0.0087173334
0.0084122495
0.008087048
0.007742406
0.0073818036
0.0070145503
0.006645656
0.0062765616
0.0059057011
0.0055303823
0.005148661
0.0047604829
0.0043670209
0.0039699091
0.0035701759
0.0031698085
0.0027706758
0.0023749699
0.0019846323
0.0016013815
0.0012265433
0.0008609703
0.00050612647
0.0001629312
0.0075540214
0.0073496629
0.0071196387
0.0068675526
0.0065951324
0.0063057505
0.0060053904
0.0057002377
0.0053933272
0.0050846375
0.0047726181
0.0044556782
0.0041329637
0.0038046241
0.0034713408
0.0031325922
0.0027916927
0.002449039
0.0021067158
0.001766337
0.0014294599
0.0010974824
0.00077167051
0.0004540251
0.0001462714
0.0062921777
0.0061456972
0.005974296
0.0057810798
0.00556804
0.0053378796
0.005094658
0.004843259
0.0045870809
0.0043278387
0.0040656343
0.0037999812
0.003530076
0.0032555647
0.0029762852
0.0026922924
0.0024046333
0.0021142712
0.0018226226
0.0015311096
0.001241198
0.00095431362
0.00067179283
0.00039573872
0.00012772278
0.0051872656
0.0050815797
0.00495499
0.0048090667
0.004644947
0.0044642713
0.0042697491
0.0040648599
0.0038526846
0.0036355113
0.0034151323
0.0031919488
0.0029659743
0.0027368308
0.0025040577
0.0022675322
0.0020276357
0.0017849973
0.0015406528
0.0012957518
0.001051511
0.00080925657
0.0005702645
0.00033624075
0.00010829862
0.0042308632
0.0041541591
0.0040610453
0.0039519362
0.0038270584
0.0036871011
0.0035336317
0.0033689046
0.0031955284
0.0030158842
0.0028320485
0.0026453505
0.0024564342
0.0022654723
0.0020722147
0.0018764208
0.0016781397
0.0014777439
0.0012759148
0.0010735116
0.00087151345
0.00067099439
0.00047300794
0.00027885595
8.9500391e-05
0.0034155304
0.0033594381
0.0032909914
0.0032098724
0.0031156807
0.0030084287
0.002888826
0.0027581874
0.0026185681
0.0024721741
0.0023209195
0.0021662362
0.0020092388
0.0018506693
0.0016907683
0.001529489
0.0013668134
0.0012029012
0.0010381689
0.00087320951
0.00070876756
0.00054564846
0.00038465189
0.00022670624
7.2647877e-05
0.002727304
0.0026860995
0.0026358836
0.002575977
0.0025056187
0.0024243535
0.0023323195
0.0022302638
0.0021196469
0.0020022611
0.0018797436
0.0017534691
0.0016245815
0.0014939937
0.0013624242
0.0012302458
0.0010976049
0.00096463793
0.00083158314
0.00069882031
0.0005668316
0.00043616396
0.00030733807
0.00018114329
5.8086881e-05
0.0021501686
0.0021199244
0.0020833358
0.0020396057
0.0019878126
0.0019272345
0.0018576308
0.0017793585
0.001693348
0.0016008927
0.0015033484
0.0014019874
0.0012978872
0.0011919566
0.0010849842
0.00097760212
0.00087025607
0.00076322894
0.00065674934
0.00055105991
0.00044643859
0.00034319857
0.00024164937
0.00014232483
4.5629802e-05
0.0016689849
0.0016469648
0.0016206976
0.0015894088
0.0015521542
0.0015080956
0.0014567544
0.0013981562
0.00133281
0.0012615826
0.0011855238
0.0011057238
0.0010231938
0.00093881913
0.00085336093
0.00076749013
0.00068173534
0.00059652156
0.00051216105
0.00042887005
0.00034682845
0.00026621993
0.00018719449
0.00011012553
3.5240426e-05
0.0012703944
0.0012546589
0.0012363037
0.0012146509
0.001188818
0.001157943
0.0011214089
0.0010789866
0.001030858
0.00097754897
0.00091981693
0.00085853604
0.00079458808
0.0007288022
0.00066191314
0.00059455869
0.00052728555
0.00046052977
0.00039460927
0.00032975682
0.00026615849
0.00020394648
0.00014318149
8.4125641e-05
2.6875072e-05
0.00094288094
0.00093202966
0.00091979814
0.0009056372
0.00088876961
0.00086837041
0.00084375571
0.00081452291
0.00078061504
0.00074227823
0.0007000123
0.00065447244
0.00060638098
0.00055645822
0.00050537289
0.00045372075
0.00040202606
0.00035070713
0.00030007478
0.00025037411
0.0002017799
0.00015440286
0.00010824865
6.3524452e-05
2.0267894e-05
0.00067655646
0.00066954405
0.0006620765
0.00065373635
0.00064386945
0.00063172434
0.00061660656
0.0005980103
0.00057569301
0.00054970285
0.00052030947
0.00048796089
0.000453209
0.00041664366
0.00037884165
0.00034033345
0.00030158671
0.00026300103
0.00022489178
0.00018749361
0.00015097076
0.00011542136
8.0831151e-05
4.7417011e-05
1.5130329e-05
0.00046282847
0.00045884217
0.00045507474
0.00045122805
0.00044676995
0.00044103885
0.00043336721
0.00042320051
0.0004101736
0.00039418599
0.00037531658
0.00035382732
0.00033010431
0.00030460078
0.00027778836
0.0002501201
0.00022200428
0.00019379744
0.00016581496
0.00013827798
0.00011134105
8.51044e-05
5.958416e-05
3.4941165e-05
1.1213156e-05
0.00029411166
0.00029249213
0.00029156752
0.0002911386
0.00029078246
0.00028993321
0.00028797178
0.00028433809
0.00027860837
0.00027052081
0.00026005821
0.00024731529
0.00023252427
0.00021600528
0.00019812152
0.00017924232
0.00015971616
0.00013985365
0.00011995602
0.00010022965
8.0819911e-05
6.1838567e-05
4.3306327e-05
2.5431241e-05
8.2579926e-06
0.00016363909
0.00016383286
0.00016504266
0.00016714564
0.00016981085
0.0001725624
0.00017484421
0.00017611812
0.00017593028
0.0001739556
0.0001700108
0.00016412909
0.00015639389
0.00014700559
0.00013622507
0.00012433783
0.00011163325
9.8378971e-05
8.4820843e-05
7.1187609e-05
5.7618118e-05
4.4230479e-05
3.1044699e-05
1.8294982e-05
6.0469149e-06
6.5347383e-05
6.6880636e-05
6.9627697e-05
7.3524485e-05
7.8318617e-05
8.3603722e-05
8.8904163e-05
9.3715181e-05
9.7580172e-05
0.00010013391
0.00010113103
0.00010043742
9.8114442e-05
9.4226474e-05
8.8953003e-05
8.2497394e-05
7.5094127e-05
6.6974489e-05
5.8312355e-05
4.9332585e-05
4.0214009e-05
3.1068765e-05
2.1927665e-05
1.300291e-05
4.4026013e-06
-6.1956651e-06
-3.7289241e-06
5.2381614e-08
5.1272306e-06
1.1307045e-05
1.8261587e-05
2.5571903e-05
3.2782209e-05
3.9449875e-05
4.5200469e-05
4.9741233e-05
5.2883808e-05
5.4537193e-05
5.4735212e-05
5.3600954e-05
5.123912e-05
4.7832461e-05
4.3573843e-05
3.8644528e-05
3.3176744e-05
2.7355682e-05
2.1358303e-05
1.5189991e-05
9.0970395e-06
3.1537556e-06
-5.5837804e-05
-5.2780824e-05
-4.8382074e-05
-4.2631581e-05
-3.5664135e-05
-2.7747503e-05
-1.9241436e-05
-1.055631e-05
-2.1095017e-06
5.7368705e-06
1.2656643e-05
1.8426677e-05
2.2898448e-05
2.6048221e-05
2.7871513e-05
2.8475214e-05
2.7959924e-05
2.6515447e-05
2.4290537e-05
2.14085e-05
1.8038994e-05
1.4322477e-05
1.0308132e-05
6.2182643e-06
2.3143251e-06
-8.786579e-05
-8.4502176e-05
-7.9823429e-05
-7.3797955e-05
-6.6519011e-05
-5.8200642e-05
-4.91495e-05
-3.9725237e-05
-3.0304515e-05
-2.1264021e-05
-1.2907011e-05
-5.4848442e-06
8.2249516e-07
5.9277946e-06
9.7781406e-06
1.2423894e-05
1.3956259e-05
1.4466668e-05
1.4092787e-05
1.3000179e-05
1.1331161e-05
9.2262276e-06
6.7159162e-06
4.1442568e-06
1.7688725e-06
-0.000106019
-0.00010257875
-9.7885918e-05
-9.1895359e-05
-8.4673579e-05
-7.6389081e-05
-6.7297676e-05
-5.7709062e-05
-4.796495e-05
-3.8414755e-05
-2.9360514e-05
-2.1062783e-05
-1.3718586e-05
-7.4438873e-06
-2.3360418e-06
1.6089173e-06
4.4509556e-06
6.244011e-06
7.1030506e-06
7.1782067e-06
6.6168784e-06
5.5794184e-06
4.1245877e-06
2.6478372e-06
1.4359247e-06
-0.00011350761
-0.00011016282
-0.00010565707
-9.9942808e-05
-9.3061708e-05
-8.514138e-05
-7.6387517e-05
-6.7067947e-05
-5.7487747e-05
-4.7961758e-05
-3.8782644e-05
-3.0203007e-05
-2.2422429e-05
-1.561508e-05
-9.8595091e-06
-5.203639e-06
-1.6146918e-06
9.3500929e-07
2.5390093e-06
3.3208833e-06
3.4235194e-06
3.0228785e-06
2.170638e-06
1.5718335e-06
1.3126148e-06
-0.00011304206
-0.00010992782
-0.00010576041
-0.00010049541
-9.4154849e-05
-8.6831832e-05
-7.8690527e-05
-6.9959708e-05
-6.0903325e-05
-5.1797376e-05
-4.2913012e-05
-3.44996e-05
-2.6763076e-05
-1.9877629e-05
-1.3938061e-05
-8.998677e-06
-5.1011554e-06
-2.1899328e-06
-2.0522294e-07
9.5370211e-07
1.4153003e-06
1.3655412e-06
7.8541391e-07
8.7221442e-07
1.4582492e-06
-0.00010682596
-0.00010409109
-0.00010037218
-9.567627e-05
-9.0012708e-05
-8.3446356e-05
-7.6106404e-05
-6.8179545e-05
-5.9889455e-05
-5.1478989e-05
-4.3195015e-05
-3.527195e-05
-2.7914863e-05
-2.1286924e-05
-1.5499355e-05
-1.0626235e-05
-6.7043906e-06
-3.714062e-06
-1.6051009e-06
-2.9366291e-07
3.3771692e-07
4.7755992e-07
9.1684893e-08
2.6696501e-07
1.1752935e-06
-9.6310661e-05
-9.4419613e-05
-9.1261895e-05
-8.7223179e-05
-8.2326715e-05
-7.6616006e-05
-7.0190001e-05
-6.3196822e-05
-5.5825467e-05
-4.828777e-05
-4.08043e-05
-3.3588873e-05
-2.6833096e-05
-2.0694337e-05
-1.5292064e-05
-1.0707296e-05
-6.9796083e-06
-4.1079508e-06
-2.0523965e-06
-7.4719096e-07
-9.147341e-08
7.6510155e-08
-3.7461813e-07
-2.7925203e-07
9.4838433e-07
-8.3486053e-05
-8.2158876e-05
-7.9838497e-05
-7.6536902e-05
-7.2460898e-05
-6.7657813e-05
-6.2197492e-05
-5.6201173e-05
-4.9826319e-05
-4.3256278e-05
-3.6684192e-05
-3.0301671e-05
-2.4284097e-05
-1.8781016e-05
-1.3910739e-05
-9.7564014e-06
-6.363188e-06
-3.7396768e-06
-1.8609845e-06
-6.7665049e-07
-1.1508638e-07
-4.6167143e-08
-9.2184471e-07
-8.519102e-07
1.0269991e-06
-7.0060513e-05
-6.8990087e-05
-6.7333406e-05
-6.4751654e-05
-6.150864e-05
-5.7615404e-05
-5.3125839e-05
-4.8134424e-05
-4.2773464e-05
-3.719816e-05
-3.1578487e-05
-2.6083542e-05
-2.0871148e-05
-1.607983e-05
-1.1822312e-05
-8.1803202e-06
-5.2027806e-06
-2.9052579e-06
-1.2750109e-06
-2.7603646e-07
1.3261993e-07
1.3792816e-07
-1.5014372e-06
-1.0491922e-06
1.1659995e-06
-5.655606e-05
-5.5761619e-05
-5.4555474e-05
-5.2729959e-05
-5.0313395e-05
-4.7303258e-05
-4.3746329e-05
-3.9721955e-05
-3.5342628e-05
-3.07407e-05
-2.6062418e-05
-2.1455134e-05
-1.7059412e-05
-1.3001517e-05
-9.3858323e-06
-6.2904799e-06
-3.7663762e-06
-1.8319954e-06
-4.8322784e-07
3.0692022e-07
5.597494e-07
4.7094326e-07
-1.0429837e-06
-1.0248942e-06
9.5469756e-07
-4.3760974e-05
-4.3187624e-05
-4.2273667e-05
-4.1185997e-05
-3.9537935e-05
-3.7337375e-05
-3.463652e-05
-3.1506753e-05
-2.804043e-05
-2.4352357e-05
-2.056592e-05
-1.6806027e-05
-1.319815e-05
-9.8550776e-06
-6.8718149e-06
-4.3215368e-06
-2.253327e-06
-6.898782e-07
3.6841085e-07
9.4264441e-07
1.066384e-06
8.7186981e-07
-9.8564468e-08
-5.2137699e-07
4.8041021e-07
-3.2133956e-05
-3.1793857e-05
-3.1342644e-05
-3.0724329e-05
-2.9670318e-05
-2.8159364e-05
-2.6211984e-05
-2.3877028e-05
-2.1232784e-05
-1.83735e-05
-1.5398325e-05
-1.2417562e-05
-9.5400052e-06
-6.8647437e-06
-4.4768343e-06
-2.443332e-06
-8.1072285e-07
3.9602e-07
1.1740971e-06
1.5399656e-06
1.5276201e-06
1.2448387e-06
4.4720732e-07
-9.6811647e-08
3.501933e-07
-2.1845222e-05
-2.1735876e-05
-2.1794735e-05
-2.1584995e-05
-2.1017442e-05
-2.0069738e-05
-1.8750784e-05
-1.7097388e-05
-1.51678e-05
-1.3029919e-05
-1.0771962e-05
-8.4840298e-06
-6.2604545e-06
-4.1868751e-06
-2.3382682e-06
-7.7511193e-07
4.5930373e-07
1.3402398e-06
1.8620813e-06
2.0371687e-06
1.8946881e-06
1.5105758e-06
7.4879482e-07
1.6850137e-07
3.9613279e-07
-1.3105338e-05
-1.3490289e-05
-1.3806224e-05
-1.3904577e-05
-1.3719927e-05
-1.3225044e-05
-1.2420345e-05
-1.1330196e-05
-9.9922202e-06
-8.4650985e-06
-6.8208794e-06
-5.1293113e-06
-3.4725066e-06
-1.9226552e-06
-5.4514835e-07
6.0631766e-07
1.4923256e-06
2.0889778e-06
2.3891403e-06
2.4012331e-06
2.1489253e-06
1.6893921e-06
9.369205e-07
3.4137648e-07
4.1308969e-07
-6.3303008e-06
-6.9120672e-06
-7.403747e-06
-7.7275435e-06
-7.831143e-06
-7.6854678e-06
-7.2866289e-06
-6.6434633e-06
-5.7847673e-06
-4.7566976e-06
-3.6129478e-06
-2.4209153e-06
-1.2383831e-06
-1.2826917e-07
8.5286134e-07
1.6581656e-06
2.2526907e-06
2.6141725e-06
2.7344256e-06
2.6193238e-06
2.2882352e-06
1.7871821e-06
1.0533202e-06
4.5282785e-07
3.9736625e-07
-1.3025364e-06
-1.9647027e-06
-2.5601957e-06
-3.0327041e-06
-3.3373675e-06
-3.4467416e-06
-3.3478877e-06
-3.0440233e-06
-2.5570726e-06
-1.9207835e-06
-1.1781768e-06
-3.8118056e-07
4.2078953e-07
1.1759999e-06
1.8372779e-06
2.3645491e-06
2.7274279e-06
2.9056767e-06
2.8912035e-06
2.6878652e-06
2.311581e-06
1.7995979e-06
1.1009762e-06
5.1069285e-07
3.667281e-07
2.1238803e-06
1.445961e-06
8.065062e-07
2.541049e-07
-1.7182624e-07
-4.4823947e-07
-5.5329368e-07
-4.9087994e-07
-2.7523872e-07
6.9098677e-08
5.0882295e-07
1.0044342e-06
1.5145099e-06
1.9971632e-06
2.4135423e-06
2.7300312e-06
2.9199656e-06
2.966702e-06
2.8622975e-06
2.6089418e-06
2.2193814e-06
1.723573e-06
1.0790754e-06
5.2189492e-07
3.276007e-07
4.1026919e-06
3.4533086e-06
2.8233983e-06
2.2532548e-06
1.7752594e-06
1.4160272e-06
1.1901171e-06
1.0985719e-06
1.1330501e-06
1.2759768e-06
1.5022641e-06
1.7815639e-06
2.0808219e-06
2.3664499e-06
2.6069924e-06
2.7747654e-06
2.847788e-06
2.8114704e-06
2.6588793e-06
2.3911176e-06
2.0169535e-06
1.5609415e-06
9.871646e-07
4.8554268e-07
2.8414359e-07
4.8185595e-06
4.2375149e-06
3.6640179e-06
3.1303386e-06
2.6632235e-06
2.2878867e-06
2.0133494e-06
1.8440928e-06
1.7756467e-06
1.795778e-06
1.8860673e-06
2.023538e-06
2.1827447e-06
2.3375217e-06
2.4630015e-06
2.5371316e-06
2.542184e-06
2.4657771e-06
2.3017688e-06
2.0500816e-06
1.717013e-06
1.3212173e-06
8.315934e-07
4.0665325e-07
2.3739177e-07
4.5139966e-06
4.0343821e-06
3.5554037e-06
3.1027134e-06
2.6981754e-06
2.359011e-06
2.0948152e-06
1.9099808e-06
1.8023012e-06
1.7636373e-06
1.7809199e-06
1.8374103e-06
1.9143256e-06
1.9920921e-06
2.0519119e-06
2.0769629e-06
2.0534753e-06
1.9715361e-06
1.8257119e-06
1.6150618e-06
1.3433443e-06
1.0236029e-06
6.2531808e-07
2.9247399e-07
1.9156069e-07
3.4445349e-06
3.0917817e-06
2.7369394e-06
2.3987884e-06
2.0936873e-06
1.8325687e-06
1.6233878e-06
1.4700852e-06
1.3715553e-06
1.3226692e-06
1.3147515e-06
1.336572e-06
1.3750286e-06
1.4165489e-06
1.4479446e-06
1.4573142e-06
1.4347762e-06
1.3729926e-06
1.2675337e-06
1.1168796e-06
9.2235312e-07
6.9201446e-07
3.8365527e-07
1.5518524e-07
1.5182968e-07
2.0327359e-06
1.8191202e-06
1.6045277e-06
1.3989812e-06
1.2127481e-06
1.0525254e-06
9.2318079e-07
8.2709184e-07
7.6394335e-07
7.3098311e-07
7.2325883e-07
7.3419825e-07
7.5617708e-07
7.8113136e-07
8.0125548e-07
8.0934601e-07
7.9942237e-07
7.6694602e-07
7.0891596e-07
6.2379187e-07
5.1102562e-07
3.7701127e-07
1.4413934e-07
1.3615446e-08
1.4047685e-07
6.0187652e-07
5.3211204e-07
4.620355e-07
3.953685e-07
3.3518687e-07
2.8383231e-07
2.4295454e-07
2.1323872e-07
1.9466875e-07
1.8634562e-07
1.8662869e-07
1.9333525e-07
2.0393107e-07
2.1573382e-07
2.2608943e-07
2.3258994e-07
2.3319655e-07
2.2634707e-07
2.1096977e-07
1.8639523e-07
1.5214845e-07
1.0759463e-07
3.042146e-08
6.4829287e-09
4.1754629e-08
)
;

boundaryField
{
    Walls
    {
        type            zeroGradient;
    }
    Inlet
    {
        type            fixedValue;
        value           uniform 500;
    }
    Outlet
    {
        type            fixedValue;
        value           uniform 0;
    }
    Front
    {
        type            wedge;
    }
    Back
    {
        type            wedge;
    }
    defaultFaces
    {
        type            empty;
    }
}


// ************************************************************************* //
