/*--------------------------------*- C++ -*----------------------------------*\
| =========                 |                                                 |
| \\      /  F ield         | OpenFOAM: The Open Source CFD Toolbox           |
|  \\    /   O peration     | Version:  4.0                                   |
|   \\  /    A nd           | Web:      www.OpenFOAM.org                      |
|    \\/     M anipulation  |                                                 |
\*---------------------------------------------------------------------------*/
FoamFile
{
    version     2.0;
    format      ascii;
    class       volVectorField;
    location    "0.14";
    object      U;
}
// * * * * * * * * * * * * * * * * * * * * * * * * * * * * * * * * * * * * * //

dimensions      [0 1 -1 0 0 0 0];

internalField   nonuniform List<vector> 
1740
(
(1.4784925 -0.0029575331 4.754448e-06)
(1.6148348 -0.0092119919 7.1031448e-07)
(1.6081686 -0.0051376075 4.6645374e-08)
(1.500721 -0.018140817 7.9374018e-06)
(1.6899742 -0.025980997 1.6082507e-06)
(1.6201046 -0.014530637 3.1731874e-07)
(1.5995588 -0.01261643 1.1318306e-05)
(1.5924503 -0.0053749726 2.512239e-06)
(1.5326431 -0.0017194595 4.5327042e-07)
(1.5958814 0.010977762 1.3600276e-05)
(1.5798638 0.029096891 3.4461841e-06)
(1.6453062 0.010127876 5.5170826e-07)
(1.4927422 0.015334296 1.5127447e-05)
(1.5590065 0.025154718 4.2388966e-06)
(1.6371197 0.0071661387 8.0670003e-07)
(1.4912304 0.006112928 1.6425094e-05)
(1.5531674 0.0097286989 5.084627e-06)
(1.621125 0.00093734523 9.4300743e-07)
(1.5117945 -0.0065930822 1.7357617e-05)
(1.5720055 -0.017435675 5.8097418e-06)
(1.6951938 -0.012264544 1.1535108e-06)
(1.5471622 -0.015366411 1.7890358e-05)
(1.552402 -0.026128689 6.5288256e-06)
(1.60473 -0.014245683 1.3436856e-06)
(1.5307125 -0.0069463306 1.8157973e-05)
(1.5481521 -0.022194535 6.9932581e-06)
(1.5744391 -0.014945183 1.5210849e-06)
(1.6145934 0.0018270832 1.8575051e-05)
(1.6522491 -0.0043561809 7.600282e-06)
(1.555532 -0.007284972 1.7140985e-06)
(1.6126902 0.0094639187 1.9425456e-05)
(1.6362137 0.021392377 8.3564782e-06)
(1.6302222 0.0047852341 1.9071269e-06)
(1.4935524 0.0048547723 1.978031e-05)
(1.6104723 0.010232913 8.9261064e-06)
(1.6024518 0.0067291484 2.1403928e-06)
(1.4933359 -0.015946776 2.0152538e-05)
(1.6000013 -0.01101567 9.478078e-06)
(1.5884337 -0.0025653237 2.2920041e-06)
(1.5987275 -0.023509763 2.0464443e-05)
(1.6060836 -0.035445715 9.995404e-06)
(1.6104011 -0.015304086 2.5378855e-06)
(1.7354727 -0.0049621617 2.0895247e-05)
(1.6398351 -0.013645562 1.0485863e-05)
(1.5541331 -0.0065861501 2.7250166e-06)
(1.6149967 0.0072108238 2.126024e-05)
(1.6256996 0.025686871 1.0983645e-05)
(1.5489542 0.015358418 2.9407199e-06)
(1.6027509 0.0024060583 2.1183723e-05)
(1.5947737 0.020004937 1.1372704e-05)
(1.6135919 0.014640696 3.103695e-06)
(1.6033974 0.012759451 2.1152705e-05)
(1.6201575 -0.0050939544 1.1712334e-05)
(1.6170364 -0.010250652 3.2975249e-06)
(1.5248664 0.0016988593 2.1609391e-05)
(1.6592712 0.0014062101 1.2211604e-05)
(1.5515862 -0.0033032932 3.4345444e-06)
(1.5442252 0.0038538653 2.2073405e-05)
(1.5454221 0.016285293 1.2574601e-05)
(1.5626442 0.0088428235 3.637584e-06)
(1.4976309 0.011484213 2.196363e-05)
(1.6214071 0.011498187 1.2864133e-05)
(1.6084021 0.0043131397 3.7644389e-06)
(1.5684604 0.0015699876 2.2017604e-05)
(1.5843148 -0.0064447957 1.3303157e-05)
(1.6781802 -0.0054170637 3.9111836e-06)
(1.5588679 0.0048083114 2.231476e-05)
(1.5666271 -0.014722702 1.3501601e-05)
(1.5899774 -0.01355478 4.1388203e-06)
(1.445256 -0.0080386433 2.2261609e-05)
(1.6898563 -0.017390495 1.3825979e-05)
(1.5662896 -0.0076414373 4.258237e-06)
(1.5642659 -0.026732285 2.2195671e-05)
(1.6963357 -0.0049449655 1.4129131e-05)
(1.5444625 0.0062874201 4.394483e-06)
(1.5840842 -0.0089139976 2.2062969e-05)
(1.5812158 -0.003639587 1.4363987e-05)
(1.5678338 0.0061530573 4.5311913e-06)
(1.5821369 -0.016840006 2.2188335e-05)
(1.5986061 -0.026542329 1.4594757e-05)
(1.5685965 -0.015434624 4.6627257e-06)
(1.6882772 -0.0081086703 2.2792089e-05)
(1.5986474 -0.023705247 1.494991e-05)
(1.4980742 -0.010102012 4.8407995e-06)
(1.5619809 0.015128082 2.2590019e-05)
(1.5461883 0.015792586 1.5037148e-05)
(1.4870021 -0.00039454259 4.8438069e-06)
(1.3427185 0.048791108 2.3908121e-05)
(1.4082172 0.1232056 1.5729289e-05)
(1.3879985 0.066005091 5.4985206e-06)
(0.86977307 0.37317445 1.1926741e-05)
(0.83848886 0.95342053 9.9473943e-06)
(0.76835963 1.2748008 5.3847315e-06)
(0.24579008 0.11926986 1.5172387e-06)
(0.21027657 0.38392466 3.0605008e-06)
(0.095374406 0.52365515 6.8926982e-07)
(-0.021051448 -0.011353002 1.2337178e-06)
(-0.021082135 -0.023241203 1.7170006e-06)
(-0.016535915 -0.027067905 6.5655976e-07)
(-0.0028934941 -0.0022204139 4.7504971e-07)
(-0.0037256909 -0.0063009713 7.9731036e-07)
(-0.0042274717 -0.0088180302 4.3050611e-07)
(0.0011687903 -4.9629374e-05 1.4763763e-07)
(0.00076085373 -0.00046626049 3.0668086e-07)
(0.00026989184 -0.00087422475 2.0212179e-07)
(0.0010954474 0.00013588049 4.5898806e-08)
(0.00093757909 0.00023458066 1.0796175e-07)
(0.00074044101 0.000208418 7.765156e-08)
(0.00080569894 0.0001119156 1.1746881e-08)
(0.00075251646 0.00026259825 3.2176982e-08)
(0.00067396456 0.00037480412 2.1633102e-08)
(0.00054392672 9.1751305e-05 2.3516762e-10)
(0.00053056018 0.00022226175 4.9089878e-09)
(0.00050330725 0.00034636353 2.5538023e-10)
(0.00036235107 5.6848095e-05 -1.7901965e-09)
(0.00035948258 0.00013544061 -1.8015472e-09)
(0.00034872175 0.00020989376 -4.3593219e-09)
(0.00024533543 2.106144e-05 -6.2854305e-10)
(0.00024455535 5.0866112e-05 -1.2861135e-09)
(0.00024014825 7.9063636e-05 -2.8924258e-09)
(0.00018874643 3.6266619e-06 3.4001757e-10)
(0.00018953718 1.0166007e-05 5.7436638e-11)
(0.00018862712 1.8038255e-05 -8.9558402e-10)
(0.00015858518 4.5330282e-06 4.1111295e-10)
(0.0001598823 8.6116135e-06 4.6447384e-10)
(0.00016008118 1.3086338e-05 3.4923569e-11)
(0.00013506762 5.4454823e-06 2.0160543e-10)
(0.00013620398 1.2804606e-05 3.1865518e-10)
(0.00013660974 2.0798759e-05 2.0087761e-10)
(0.00011593082 6.1618036e-06 1.0935911e-11)
(0.00011671388 1.4937197e-05 8.6146065e-11)
(0.00011694178 2.4416205e-05 9.7059584e-11)
(9.8913987e-05 6.3216045e-06 -8.439337e-11)
(9.9451857e-05 1.5382405e-05 -6.5023777e-11)
(9.9526178e-05 2.397159e-05 -1.8005427e-11)
(8.3601533e-05 5.4917607e-06 -9.9222413e-11)
(8.3977426e-05 1.3361883e-05 -1.1138224e-10)
(8.3968205e-05 2.1004983e-05 -6.4972211e-11)
(7.0172901e-05 4.4710879e-06 -7.5315875e-11)
(7.0442153e-05 1.0946895e-05 -9.4564649e-11)
(7.0375398e-05 1.7613246e-05 -5.941959e-11)
(5.8587157e-05 3.64364e-06 -5.0663351e-11)
(5.8785224e-05 8.8164361e-06 -6.5802696e-11)
(5.8693873e-05 1.4119472e-05 -3.8965906e-11)
(4.8662821e-05 3.060339e-06 -3.7126987e-11)
(4.8810443e-05 7.2622854e-06 -4.8037608e-11)
(4.8709868e-05 1.1570991e-05 -2.4680337e-11)
(4.0168153e-05 2.6291848e-06 -3.1081538e-11)
(4.0276797e-05 6.16569e-06 -4.0401628e-11)
(4.0174149e-05 9.8080349e-06 -1.914834e-11)
(3.2879209e-05 2.2567604e-06 -2.7779734e-11)
(3.2958162e-05 5.3742186e-06 -3.8958723e-11)
(3.2857982e-05 8.5393167e-06 -1.9344414e-11)
(2.6613428e-05 1.9366974e-06 -2.6542723e-11)
(2.6670352e-05 4.7120549e-06 -3.9792113e-11)
(2.6576243e-05 7.4755217e-06 -2.1675087e-11)
(2.1233675e-05 1.6608198e-06 -2.6322852e-11)
(2.1274144e-05 4.0673026e-06 -3.9960474e-11)
(2.118921e-05 6.460752e-06 -2.3422849e-11)
(1.6636505e-05 1.4047238e-06 -2.5363528e-11)
(1.6664349e-05 3.4246575e-06 -3.8415513e-11)
(1.6590519e-05 5.4904528e-06 -2.3604671e-11)
(1.2738602e-05 1.2130464e-06 -2.447659e-11)
(1.2756854e-05 2.9084776e-06 -3.6015514e-11)
(1.2694725e-05 4.5879506e-06 -2.3040685e-11)
(9.4680663e-06 9.9316201e-07 -2.3812888e-11)
(9.4794103e-06 2.3848664e-06 -3.4282093e-11)
(9.4289514e-06 3.8103365e-06 -2.2594241e-11)
(6.7599366e-06 8.0712481e-07 -2.3773364e-11)
(6.7663233e-06 1.9592654e-06 -3.3141626e-11)
(6.7274146e-06 3.1347365e-06 -2.2200378e-11)
(4.5539135e-06 6.4378508e-07 -2.3345896e-11)
(4.5569534e-06 1.5778766e-06 -3.1357137e-11)
(4.5286651e-06 2.4994791e-06 -2.1140593e-11)
(2.7904222e-06 5.0751552e-07 -2.3025353e-11)
(2.7912975e-06 1.2578458e-06 -2.9704313e-11)
(2.772483e-06 1.9967184e-06 -2.042345e-11)
(1.4091838e-06 3.8628846e-07 -2.2898273e-11)
(1.4090947e-06 9.6963413e-07 -2.8567506e-11)
(1.3997324e-06 1.5323856e-06 -1.9835432e-11)
(3.2625088e-07 2.8396437e-07 -2.2867418e-11)
(3.3301434e-07 7.2469183e-07 -2.7596093e-11)
(3.4477319e-07 1.1349383e-06 -1.9293279e-11)
(-4.7118255e-07 2.1442862e-07 -2.3252959e-11)
(-4.725297e-07 5.5648773e-07 -2.6986656e-11)
(-4.7164252e-07 8.3958839e-07 -1.8909757e-11)
(-9.8861159e-07 1.2610163e-07 -2.260133e-11)
(-9.980636e-07 3.591438e-07 -2.5773073e-11)
(-1.0075046e-06 5.7456455e-07 -1.8422919e-11)
(-1.3080267e-06 6.0877947e-08 -2.1678667e-11)
(-1.3105256e-06 2.0627551e-07 -2.4189765e-11)
(-1.3037534e-06 3.2578984e-07 -1.7543559e-11)
(-1.4786164e-06 1.1670726e-08 -2.1278342e-11)
(-1.4808971e-06 8.1936861e-08 -2.3144002e-11)
(-1.4743346e-06 1.2365369e-07 -1.682912e-11)
(-1.5309898e-06 -2.0343018e-08 -2.1119304e-11)
(-1.5335707e-06 1.9726651e-09 -2.2483324e-11)
(-1.5259965e-06 -1.3776284e-08 -1.6431905e-11)
(-1.4934208e-06 -4.6046584e-08 -2.0903224e-11)
(-1.4961605e-06 -6.2336167e-08 -2.1975126e-11)
(-1.4879802e-06 -1.088235e-07 -1.6193433e-11)
(-1.3891902e-06 -6.3435435e-08 -2.0625696e-11)
(-1.3914604e-06 -1.0682689e-07 -2.1480266e-11)
(-1.3840793e-06 -1.8095494e-07 -1.5982588e-11)
(-1.2398027e-06 -7.3987261e-08 -2.0343858e-11)
(-1.2419082e-06 -1.3588504e-07 -2.1029366e-11)
(-1.2359942e-06 -2.2845031e-07 -1.5794019e-11)
(-1.0628213e-06 -7.9358385e-08 -2.0071117e-11)
(-1.0647316e-06 -1.5241021e-07 -2.0644626e-11)
(-1.0605659e-06 -2.5467354e-07 -1.5646945e-11)
(-8.7303413e-07 -8.025688e-08 -1.981105e-11)
(-8.7455977e-07 -1.5908178e-07 -2.0317926e-11)
(-8.730244e-07 -2.6589183e-07 -1.5540751e-11)
(-6.8491076e-07 -7.7353007e-08 -1.957936e-11)
(-6.902772e-07 -1.58486e-07 -2.0056443e-11)
(-6.928293e-07 -2.7195168e-07 -1.5481074e-11)
(-4.9158297e-07 -7.7926055e-08 -1.9391826e-11)
(-4.9512166e-07 -1.5692517e-07 -1.9878639e-11)
(-4.9400246e-07 -2.4868294e-07 -1.5482188e-11)
(-2.9876038e-07 -6.7784946e-08 -1.9256026e-11)
(-2.9779311e-07 -1.3744599e-07 -1.979759e-11)
(-2.9501473e-07 -2.236458e-07 -1.5571997e-11)
(-1.3280729e-07 -5.7860136e-08 -1.9230131e-11)
(-1.3392383e-07 -1.1850551e-07 -1.9871789e-11)
(-1.3691798e-07 -1.9424806e-07 -1.5793922e-11)
(1.2873472e-09 -4.690609e-08 -1.9360689e-11)
(-7.2955631e-10 -9.5370901e-08 -2.0119615e-11)
(-5.777504e-09 -1.5617782e-07 -1.6116693e-11)
(1.0493579e-07 -3.497982e-08 -1.955243e-11)
(1.02588e-07 -6.9096626e-08 -2.0356076e-11)
(9.6374735e-08 -1.1133633e-07 -1.6324184e-11)
(1.691878e-07 -2.1752591e-08 -1.9673299e-11)
(1.6672645e-07 -4.0534726e-08 -2.0187927e-11)
(1.5981102e-07 -6.5631973e-08 -1.5941289e-11)
(1.910214e-07 -6.2521815e-09 -1.9388066e-11)
(1.8853577e-07 -9.4059641e-09 -1.8760652e-11)
(1.8131423e-07 -1.9088097e-08 -1.4157326e-11)
(1.827688e-07 6.0190945e-09 -1.7166346e-11)
(1.8027033e-07 1.5943683e-08 -1.4099989e-11)
(1.7314085e-07 2.1884074e-08 -9.695097e-12)
(-0.046596554 1.9804436 -3.9392865e-07)
(-0.033501155 1.7231162 -3.482373e-06)
(-0.061373249 0.35992997 -2.6630023e-07)
(-0.043340448 0.16385415 -1.0011856e-06)
(-0.013778118 -0.03568712 -1.1942629e-07)
(-0.010589428 -0.039264223 -5.2405706e-07)
(-0.004092636 -0.011432296 1.514479e-08)
(-0.0038910911 -0.013061536 -2.638801e-07)
(-0.00010078643 -0.0016268891 1.5018567e-08)
(-0.00043029184 -0.0025224298 -1.4448919e-07)
(0.00060029958 3.7735806e-05 -3.877865e-09)
(0.00048235583 -0.0001871208 -8.7947867e-08)
(0.00059352337 0.00044644486 -1.4518457e-08)
(0.00052410478 0.00048799681 -5.7056364e-08)
(0.00046608606 0.00045877321 -1.5913435e-08)
(0.00042928907 0.00054676564 -3.6697079e-08)
(0.00033122324 0.00028091739 -1.1702621e-08)
(0.00031093603 0.00034051311 -2.1439952e-08)
(0.00023210156 0.00010570178 -6.3379073e-09)
(0.00022143861 0.00012853598 -1.0782459e-08)
(0.00018482114 2.6158624e-05 -2.5355798e-09)
(0.00017786436 3.2912226e-05 -4.5244645e-09)
(0.00015793248 1.75756e-05 -6.8781398e-10)
(0.00015304923 2.1229682e-05 -1.5394389e-09)
(0.00013545861 2.782836e-05 -7.0244532e-11)
(0.00013238752 3.390743e-05 -4.055235e-10)
(0.00011627682 3.4102041e-05 2.5936994e-11)
(0.00011433315 4.3037192e-05 -8.4184322e-11)
(9.9016811e-05 3.3447224e-05 -1.0616698e-11)
(9.7714389e-05 4.3088813e-05 -2.9232355e-11)
(8.3531094e-05 2.92807e-05 -3.5937822e-11)
(8.2603923e-05 3.7586551e-05 -2.4024324e-11)
(7.0026129e-05 2.3871265e-05 -3.1655766e-11)
(6.9334265e-05 3.0268231e-05 -1.4594386e-11)
(5.8406996e-05 1.9362018e-05 -1.7172068e-11)
(5.7880487e-05 2.4628579e-05 -2.2883182e-12)
(4.8463898e-05 1.603905e-05 -6.5507132e-12)
(4.8052107e-05 2.0476679e-05 6.0061407e-12)
(3.995899e-05 1.3648923e-05 -3.025692e-12)
(3.9624859e-05 1.7440185e-05 8.2380642e-12)
(3.266813e-05 1.1824487e-05 -4.3237636e-12)
(3.2390705e-05 1.5102287e-05 6.1991629e-12)
(2.6409803e-05 1.0282888e-05 -7.3290738e-12)
(2.6177526e-05 1.3117919e-05 2.7904916e-12)
(2.1045689e-05 8.884197e-06 -9.8458393e-12)
(2.0852073e-05 1.1312292e-05 -7.1878744e-14)
(1.6469353e-05 7.5941313e-06 -1.10476e-11)
(1.6310589e-05 9.6457124e-06 -1.8706726e-12)
(1.2595291e-05 6.2913457e-06 -1.1622922e-11)
(1.2468333e-05 8.0230582e-06 -3.1284717e-12)
(9.3502534e-06 5.2484899e-06 -1.2101858e-11)
(9.2520507e-06 6.6749136e-06 -4.2042557e-12)
(6.6680279e-06 4.3161573e-06 -1.2360771e-11)
(6.5954986e-06 5.4793769e-06 -4.9708443e-12)
(4.4866278e-06 3.4851093e-06 -1.2254345e-11)
(4.4366662e-06 4.4461365e-06 -5.4941574e-12)
(2.7456553e-06 2.779435e-06 -1.221763e-11)
(2.715696e-06 3.5322466e-06 -5.879966e-12)
(1.3876641e-06 2.1112683e-06 -1.2015657e-11)
(1.3742593e-06 2.6868182e-06 -6.0101006e-12)
(3.5378829e-07 1.5621762e-06 -1.1907571e-11)
(3.5430709e-07 1.9853197e-06 -6.238932e-12)
(-4.5701963e-07 1.1248602e-06 -1.1863965e-11)
(-4.124375e-07 1.4169099e-06 -6.4686562e-12)
(-1.0054175e-06 8.1202892e-07 -1.1804722e-11)
(-9.7798157e-07 1.0009235e-06 -6.6356425e-12)
(-1.2993459e-06 4.5890143e-07 -1.1489462e-11)
(-1.304041e-06 6.0304485e-07 -6.6657112e-12)
(-1.4625516e-06 1.7650757e-07 -1.1123862e-11)
(-1.4433849e-06 2.3119965e-07 -6.5857666e-12)
(-1.5123605e-06 -2.5895498e-08 -1.0970627e-11)
(-1.4923206e-06 -3.4593766e-08 -6.612751e-12)
(-1.4737777e-06 -1.5296335e-07 -1.0948191e-11)
(-1.4546606e-06 -2.0070284e-07 -6.7513142e-12)
(-1.3715268e-06 -2.4604818e-07 -1.096415e-11)
(-1.3535039e-06 -3.1734182e-07 -6.9289262e-12)
(-1.2256645e-06 -3.110182e-07 -1.0991454e-11)
(-1.2110593e-06 -3.9552006e-07 -7.1105572e-12)
(-1.0538267e-06 -3.5181279e-07 -1.1035351e-11)
(-1.0461287e-06 -4.4753162e-07 -7.2845304e-12)
(-8.7618166e-07 -3.7223391e-07 -1.1099407e-11)
(-8.7261854e-07 -4.7520761e-07 -7.4564538e-12)
(-6.8664607e-07 -3.7620115e-07 -1.1189744e-11)
(-6.7308687e-07 -4.5796768e-07 -7.6380081e-12)
(-4.8240368e-07 -3.3718632e-07 -1.1324386e-11)
(-4.7062695e-07 -4.2724963e-07 -7.8542504e-12)
(-2.9731322e-07 -3.0774547e-07 -1.1530117e-11)
(-2.9985711e-07 -3.893457e-07 -8.1306561e-12)
(-1.4265711e-07 -2.6834976e-07 -1.1834887e-11)
(-1.4957842e-07 -3.4037134e-07 -8.4737293e-12)
(-1.3599068e-08 -2.1596827e-07 -1.2189731e-11)
(-2.3236983e-08 -2.7660973e-07 -8.8406874e-12)
(8.7076424e-08 -1.5208377e-07 -1.2390976e-11)
(7.5545189e-08 -1.9723097e-07 -9.063236e-12)
(1.4953039e-07 -9.0252593e-08 -1.2000664e-11)
(1.3671989e-07 -1.0906818e-07 -8.7996195e-12)
(1.705309e-07 -2.7461454e-08 -1.0393492e-11)
(1.5702699e-07 -3.3303981e-08 -7.5480677e-12)
(1.6245706e-07 2.8889106e-08 -6.8010216e-12)
(1.4909249e-07 3.6006274e-08 -4.843098e-12)
(-0.0020584891 4.3982681e-05 -4.0366337e-08)
(-0.0020360085 8.4465783e-05 -9.403968e-08)
(-0.0020031152 0.00015058299 -1.3007255e-07)
(-0.0019591912 0.00017617946 -1.5030315e-07)
(-0.0019072362 0.00021010056 -1.5800852e-07)
(-0.0018419001 0.00022815853 -1.568505e-07)
(-0.0017647697 0.00024095268 -1.5016225e-07)
(-0.0016765868 0.00024189443 -1.4048293e-07)
(-0.001578851 0.0002313652 -1.29463e-07)
(-0.001474027 0.00021101079 -1.1812111e-07)
(-0.001364602 0.00017995665 -1.0709146e-07)
(-0.0012524347 0.0001405079 -9.6668461e-08)
(-0.0011393521 9.5702168e-05 -8.6919879e-08)
(-0.0010270941 4.7288816e-05 -7.7772212e-08)
(-0.00091697129 -2.5954715e-06 -6.9132978e-08)
(-0.00080992494 -5.1671713e-05 -6.094779e-08)
(-0.00070664745 -9.7998793e-05 -5.3203523e-08)
(-0.00060761029 -0.00014059095 -4.5909141e-08)
(-0.00051312527 -0.00017882183 -3.9050129e-08)
(-0.00042324653 -0.00021137027 -3.264501e-08)
(-0.00033768937 -0.00023722017 -2.6703551e-08)
(-0.00025618777 -0.00025606932 -2.1103132e-08)
(-0.00017847788 -0.00026916179 -1.5672531e-08)
(-0.00010433788 -0.00027092217 -1.0228451e-08)
(-3.3605294e-05 -0.00026194748 -4.6979855e-09)
(5.9809981e-05 -6.1848418e-05 -5.6979472e-08)
(6.9586869e-05 -0.00037159537 -1.3045222e-07)
(8.1226744e-05 -0.00051597143 -1.7648244e-07)
(9.5839572e-05 -0.00076409805 -1.9882877e-07)
(0.0001226676 -0.00096706532 -2.0409057e-07)
(0.00015524359 -0.0012045654 -1.9922827e-07)
(0.00019203673 -0.0014369901 -1.889824e-07)
(0.00022982753 -0.0016924126 -1.7628915e-07)
(0.00026145522 -0.0019703281 -1.6268215e-07)
(0.00028466145 -0.0022494697 -1.4904589e-07)
(0.00029839185 -0.0025251478 -1.360632e-07)
(0.0003035253 -0.0027934508 -1.2397805e-07)
(0.0003007518 -0.0030491718 -1.1279976e-07)
(0.00029121404 -0.0032870775 -1.0233194e-07)
(0.00027600121 -0.0035043526 -9.2404327e-08)
(0.00025618289 -0.003698394 -8.2929997e-08)
(0.00023283542 -0.0038671676 -7.3880311e-08)
(0.00020695398 -0.0040101851 -6.5266569e-08)
(0.00017942909 -0.0041321498 -5.6958374e-08)
(0.00015098005 -0.0042270999 -4.8968716e-08)
(0.00012204458 -0.0042817082 -4.1366153e-08)
(9.3077882e-05 -0.0042950228 -3.3779607e-08)
(6.4530571e-05 -0.0042706861 -2.5890935e-08)
(3.6685922e-05 -0.0041939294 -1.7063175e-08)
(1.0241285e-05 -0.0040064641 -7.2657502e-09)
(0.00078752472 -0.00027597445 -9.6706487e-08)
(0.00079678015 -0.0014196111 -2.12544e-07)
(0.00083803636 -0.0018827377 -2.7531047e-07)
(0.00090250115 -0.0027080463 -2.9601445e-07)
(0.00097700598 -0.0033773613 -2.9291672e-07)
(0.0010389795 -0.0040870105 -2.793656e-07)
(0.0010800895 -0.0048019472 -2.6162644e-07)
(0.0010956749 -0.0056833128 -2.4306749e-07)
(0.0010889874 -0.0067111068 -2.245076e-07)
(0.0010636356 -0.0076883421 -2.0633797e-07)
(0.0010219539 -0.0085531721 -1.8962299e-07)
(0.00096841154 -0.0092932427 -1.7441983e-07)
(0.00090585384 -0.0099084504 -1.6068636e-07)
(0.00083669661 -0.010401392 -1.4789234e-07)
(0.00076271327 -0.010781791 -1.3571472e-07)
(0.00068550708 -0.011055548 -1.2402443e-07)
(0.0006065175 -0.011229498 -1.1275701e-07)
(0.0005271365 -0.011308945 -1.0209383e-07)
(0.00044855028 -0.011297742 -9.1409234e-08)
(0.00037152334 -0.011209461 -8.0948019e-08)
(0.00029661408 -0.011064304 -7.0575599e-08)
(0.00022436171 -0.010874346 -5.9921202e-08)
(0.00015518394 -0.010649223 -4.8254911e-08)
(8.9180529e-05 -0.010355704 -3.4079859e-08)
(2.7366766e-05 -0.009942299 -1.6736694e-08)
(0.0032097554 -0.00098778495 -1.8077148e-07)
(0.0031891966 -0.0045456227 -3.6506014e-07)
(0.003172432 -0.0057392481 -4.3956272e-07)
(0.0030650618 -0.0088105448 -4.4512729e-07)
(0.0029242826 -0.011572996 -4.2378267e-07)
(0.0027455729 -0.014096118 -3.9559287e-07)
(0.0025404072 -0.015944733 -3.6624892e-07)
(0.0023185764 -0.01699117 -3.4049285e-07)
(0.0020964375 -0.017363363 -3.1612383e-07)
(0.0018801283 -0.017323721 -2.9124874e-07)
(0.0016706727 -0.01697171 -2.6917039e-07)
(0.0014753285 -0.016414326 -2.4928036e-07)
(0.0012917801 -0.015698789 -2.3199713e-07)
(0.0011173555 -0.014848503 -2.1586102e-07)
(0.00095774904 -0.01392596 -2.0036686e-07)
(0.0008140511 -0.012978157 -1.8543815e-07)
(0.00068557184 -0.01203967 -1.7097417e-07)
(0.00057111795 -0.011139556 -1.5682196e-07)
(0.00046927419 -0.010299995 -1.4306057e-07)
(0.00037836235 -0.0095367012 -1.2950295e-07)
(0.0002968627 -0.0088633852 -1.1595896e-07)
(0.00022308939 -0.0082859301 -1.0205284e-07)
(0.00015549651 -0.0078079977 -8.6991132e-08)
(9.2694289e-05 -0.0073804157 -6.9165513e-08)
(3.3509541e-05 -0.0070372606 -4.3537768e-08)
(0.01092811 -0.0085851447 -3.6985942e-07)
(0.0086189217 -0.025238816 -6.2613277e-07)
(0.0074367205 -0.027336739 -6.8152843e-07)
(0.0058160094 -0.031359542 -6.5930465e-07)
(0.0044910553 -0.028737254 -6.1503605e-07)
(0.0033375407 -0.024993326 -5.663674e-07)
(0.0023769285 -0.020422423 -5.2010183e-07)
(0.0016130165 -0.015593925 -4.774289e-07)
(0.0010174982 -0.010736399 -4.4096464e-07)
(0.00055807902 -0.0062452459 -4.0767501e-07)
(0.00021507594 -0.0022022458 -3.775909e-07)
(-3.579215e-05 0.0013016214 -3.4936623e-07)
(-0.00021015343 0.0044195223 -3.2705054e-07)
(-0.00032460556 0.0074377426 -3.0579503e-07)
(-0.00039465242 0.010237612 -2.8504987e-07)
(-0.00042804644 0.01267457 -2.6518475e-07)
(-0.00043258864 0.014704952 -2.4607762e-07)
(-0.00041489222 0.016341294 -2.2756955e-07)
(-0.00038032812 0.017609246 -2.0956635e-07)
(-0.00033326301 0.018537984 -1.9194674e-07)
(-0.0002773394 0.019154536 -1.7456899e-07)
(-0.00021575261 0.019490646 -1.5716113e-07)
(-0.00015083528 0.019544379 -1.3902824e-07)
(-8.5231313e-05 0.019401067 -1.2271014e-07)
(-1.9196649e-05 0.018688466 -1.0722796e-07)
(0.012887004 0.025087015 -7.6295885e-07)
(0.0021979941 0.0013101791 -1.065233e-06)
(-8.2096093e-05 0.05075225 -1.0582131e-06)
(-0.0016093219 0.053863984 -9.7881958e-07)
(-0.0030238541 0.067756965 -8.9922486e-07)
(-0.0041047985 0.077793786 -8.1165735e-07)
(-0.0046908531 0.084749141 -7.3325331e-07)
(-0.0048399212 0.090534012 -6.6491135e-07)
(-0.0047195926 0.094754642 -6.0522823e-07)
(-0.0044675491 0.097354154 -5.5365717e-07)
(-0.0041464773 0.098780243 -5.0942845e-07)
(-0.0037752433 0.099169452 -4.6254203e-07)
(-0.0034041348 0.098836961 -4.3520737e-07)
(-0.0030491172 0.097596058 -4.051817e-07)
(-0.0026926183 0.095445153 -3.7520436e-07)
(-0.0023482801 0.092987803 -3.4792506e-07)
(-0.0020243867 0.09033682 -3.2240099e-07)
(-0.0017218917 0.08757423 -2.9816303e-07)
(-0.0014404016 0.084771708 -2.7494003e-07)
(-0.0011785751 0.081986536 -2.5255309e-07)
(-0.00093443007 0.07925189 -2.3086977e-07)
(-0.00070565424 0.076614895 -2.0973367e-07)
(-0.00048951481 0.074023082 -1.8897222e-07)
(-0.00028435985 0.071740793 -1.6907236e-07)
(-8.4223893e-05 0.068168374 -1.498212e-07)
(-0.0028317244 1.1920651 -2.5394145e-06)
(-0.0015449123 0.97238223 -2.0185224e-06)
(-0.0014896729 0.873776 -1.6323462e-06)
(-0.0010380151 0.7793682 -1.3342317e-06)
(-0.00082422844 0.68199437 -1.1111682e-06)
(-0.00067113266 0.58986042 -9.4623285e-07)
(-0.00054525221 0.51097337 -8.2200774e-07)
(-0.00044512419 0.44690074 -7.2824294e-07)
(-0.00036322801 0.3941239 -6.5240924e-07)
(-0.0002941606 0.34914557 -5.9428175e-07)
(-0.00023812885 0.31033717 -5.4858549e-07)
(-0.00019231412 0.27695725 -5.0738612e-07)
(-0.0001558634 0.24843258 -4.7165282e-07)
(-0.00012923642 0.22404347 -4.3925599e-07)
(-0.00010632311 0.20310921 -4.0909794e-07)
(-8.7346131e-05 0.18514769 -3.8075432e-07)
(-7.1501413e-05 0.16973137 -3.5379403e-07)
(-5.8197116e-05 0.15649358 -3.2791714e-07)
(-4.6875709e-05 0.14512619 -3.0294641e-07)
(-3.7152227e-05 0.13537728 -2.7878234e-07)
(-2.8699499e-05 0.12702137 -2.5537126e-07)
(-2.1222138e-05 0.11992583 -2.3260552e-07)
(-1.4459367e-05 0.11379328 -2.1059102e-07)
(-8.2567245e-06 0.10905038 -1.8936636e-07)
(-2.3091422e-06 0.10288628 -1.6672642e-07)
(-0.012617035 0.0985387 -1.1921067e-06)
(-0.0019832599 0.10459455 -1.2227176e-06)
(0.00024670273 0.10922291 -1.1714171e-06)
(0.0017726543 0.10997609 -1.0779592e-06)
(0.0031684947 0.11129329 -9.7390855e-07)
(0.0042279626 0.11240036 -8.7273186e-07)
(0.0047976371 0.11365526 -7.8228498e-07)
(0.0049309904 0.11487201 -7.0405601e-07)
(0.0047662218 0.11540991 -6.1979348e-07)
(0.0044921172 0.11526217 -5.7673644e-07)
(0.0041903237 0.11440084 -5.3260163e-07)
(0.0038370115 0.11266189 -4.8667038e-07)
(0.0034551147 0.11013738 -4.4734071e-07)
(0.0030768941 0.10708566 -4.1274239e-07)
(0.0027121862 0.10378139 -3.8164369e-07)
(0.0023659708 0.10035665 -3.5316192e-07)
(0.0020406077 0.096893061 -3.2667376e-07)
(0.0017361445 0.093455627 -3.017221e-07)
(0.0014524481 0.090093914 -2.779769e-07)
(0.0011883289 0.086845118 -2.551985e-07)
(0.00094198167 0.083727538 -2.3318342e-07)
(0.00071132026 0.080775796 -2.1164216e-07)
(0.00049366237 0.077926688 -1.912318e-07)
(0.0002871404 0.075452503 -1.7101307e-07)
(8.5544352e-05 0.071654202 -1.5116592e-07)
(-0.0084828771 -0.037594972 -7.3792306e-07)
(-0.0072097978 -0.035648562 -7.9736464e-07)
(-0.005932075 -0.034188928 -7.8266807e-07)
(-0.0046574802 -0.031075272 -7.3733838e-07)
(-0.0034786172 -0.02645151 -6.8089911e-07)
(-0.0024494513 -0.021184073 -6.2141611e-07)
(-0.0016033314 -0.015748081 -5.6715072e-07)
(-0.00093702351 -0.01036006 -5.1768292e-07)
(-0.0004281148 -0.0055333224 -4.7148357e-07)
(-4.7774057e-05 -0.0012549343 -4.3697625e-07)
(0.00022674338 0.0024379979 -4.0472327e-07)
(0.00041705463 0.0060039446 -3.7421577e-07)
(0.00053847363 0.00940456 -3.463887e-07)
(0.00060890737 0.012466804 -3.2094918e-07)
(0.00063877646 0.015103788 -2.9744286e-07)
(0.00063656108 0.017306105 -2.7542479e-07)
(0.00060948233 0.019097132 -2.5464684e-07)
(0.00056412308 0.020516638 -2.3483033e-07)
(0.00050483253 0.021597542 -2.1575498e-07)
(0.00043530775 0.022361164 -1.9721821e-07)
(0.00035863773 0.022828904 -1.7893035e-07)
(0.00027713137 0.023021107 -1.6014253e-07)
(0.00019358865 0.022954392 -1.4401423e-07)
(0.00011014075 0.022683643 -1.2560992e-07)
(2.6796022e-05 0.021810829 -1.0915515e-07)
(-0.0038362571 -0.014556257 -4.2310784e-07)
(-0.0037314434 -0.016945844 -4.8971256e-07)
(-0.0035654951 -0.019677186 -5.0015059e-07)
(-0.0033526168 -0.021733968 -4.8296488e-07)
(-0.0030987348 -0.023087668 -4.5533379e-07)
(-0.0028242957 -0.023639857 -4.2704351e-07)
(-0.0025468067 -0.023566851 -3.9186702e-07)
(-0.0022722739 -0.023053408 -3.5932148e-07)
(-0.0020110738 -0.022269746 -3.300609e-07)
(-0.0017697715 -0.021272286 -3.053388e-07)
(-0.0015471183 -0.02014235 -2.8277782e-07)
(-0.001339919 -0.018872305 -2.6182699e-07)
(-0.0011490597 -0.017526701 -2.4245034e-07)
(-0.00097895226 -0.016160907 -2.2447718e-07)
(-0.00082864336 -0.014808378 -2.076572e-07)
(-0.00069640787 -0.013501596 -1.9150239e-07)
(-0.00058070319 -0.012272528 -1.762431e-07)
(-0.00047899882 -0.011150187 -1.6154693e-07)
(-0.00038982712 -0.010151351 -1.4724207e-07)
(-0.00031160724 -0.0092763258 -1.3317259e-07)
(-0.00024271458 -0.0085241864 -1.1911299e-07)
(-0.00018157533 -0.0078939337 -1.0472935e-07)
(-0.00012667117 -0.0073799541 -8.9854149e-08)
(-7.6369088e-05 -0.0069347955 -7.1242458e-08)
(-2.9002074e-05 -0.0065946325 -4.4857732e-08)
(-0.00064625396 -0.0034201492 -2.5102189e-07)
(-0.0008305339 -0.0042896861 -3.0702221e-07)
(-0.00098556336 -0.0051590746 -3.2576728e-07)
(-0.0011066296 -0.005967171 -3.2255242e-07)
(-0.0011910689 -0.0068079757 -3.0810906e-07)
(-0.0012424075 -0.007864263 -2.8863022e-07)
(-0.0012633315 -0.0090717889 -2.6586399e-07)
(-0.0012521259 -0.010163228 -2.4371264e-07)
(-0.0012159996 -0.011105286 -2.2354546e-07)
(-0.0011614954 -0.011884616 -2.056889e-07)
(-0.0010941233 -0.012514974 -1.8946878e-07)
(-0.001018637 -0.013000692 -1.7449188e-07)
(-0.00093758377 -0.013357066 -1.6055511e-07)
(-0.00085326282 -0.013586669 -1.4763551e-07)
(-0.00076832624 -0.013679338 -1.3574395e-07)
(-0.00068376137 -0.013660453 -1.243123e-07)
(-0.00060037782 -0.013565131 -1.1313737e-07)
(-0.00051934441 -0.013413792 -1.0229904e-07)
(-0.00044062685 -0.013217518 -9.1742901e-08)
(-0.0003645281 -0.01298398 -8.1396919e-08)
(-0.00029103383 -0.012719399 -7.1064864e-08)
(-0.00022025557 -0.012430736 -6.0405567e-08)
(-0.00015232098 -0.012122608 -4.8765931e-08)
(-8.7434873e-05 -0.011750245 -3.4285224e-08)
(-2.6953939e-05 -0.011269091 -1.6869023e-08)
(0.00034913299 -0.00044260063 -1.5197301e-07)
(0.00025279103 -0.00073816714 -1.9067605e-07)
(0.00016326672 -0.0010742742 -2.0748996e-07)
(7.7589021e-05 -0.0014291652 -2.0929031e-07)
(-7.4739309e-06 -0.001814907 -2.0213602e-07)
(-9.2067924e-05 -0.0022172287 -1.901909e-07)
(-0.00016657232 -0.0026229618 -1.7582787e-07)
(-0.00022899353 -0.0030160325 -1.6116924e-07)
(-0.00027525535 -0.0034013945 -1.4732907e-07)
(-0.00030534739 -0.0037692935 -1.3467708e-07)
(-0.00032128276 -0.0041136174 -1.2307711e-07)
(-0.00032564406 -0.0044291753 -1.1234507e-07)
(-0.00032069531 -0.00471621 -1.0235117e-07)
(-0.00030837372 -0.0049811508 -9.302041e-08)
(-0.00029042454 -0.0052420672 -8.4305066e-08)
(-0.0002684651 -0.0054901447 -7.5999611e-08)
(-0.00024350695 -0.0056959604 -6.7989447e-08)
(-0.00021631349 -0.0058531055 -6.0270967e-08)
(-0.00018767923 -0.0059609672 -5.2819955e-08)
(-0.00015799111 -0.0060193861 -4.5738429e-08)
(-0.00012783442 -0.0060302029 -3.8813673e-08)
(-9.7580761e-05 -0.0059970052 -3.1790308e-08)
(-6.7603378e-05 -0.0059259806 -2.437362e-08)
(-3.8228858e-05 -0.0057987606 -1.5853374e-08)
(-1.0465037e-05 -0.0055408552 -6.623228e-09)
(0.00045794191 0.00049446964 -9.2678562e-08)
(0.00040900186 0.00047691498 -1.1629626e-07)
(0.00036838042 0.00045386464 -1.2799413e-07)
(0.00032872929 0.0004149963 -1.3045994e-07)
(0.00028950158 0.0003509149 -1.268276e-07)
(0.00025473714 0.00026756966 -1.196295e-07)
(0.00022119403 0.00016544035 -1.1062348e-07)
(0.00018360302 5.3217218e-05 -1.0112357e-07)
(0.00014635271 -6.283576e-05 -9.1905374e-08)
(0.0001117209 -0.00018100552 -8.3298144e-08)
(8.1602746e-05 -0.00029827875 -7.5335642e-08)
(5.6569196e-05 -0.00041340015 -6.7954725e-08)
(3.6391029e-05 -0.00052370211 -6.1086095e-08)
(2.0662951e-05 -0.00062571271 -5.4675601e-08)
(9.194072e-06 -0.00071897691 -4.8679985e-08)
(1.1638699e-06 -0.00080175733 -4.302303e-08)
(-3.9281546e-06 -0.00087183075 -3.7654377e-08)
(-6.9259198e-06 -0.00092996221 -3.2571807e-08)
(-8.4456638e-06 -0.0009756871 -2.7787883e-08)
(-8.6517041e-06 -0.0010084857 -2.3335523e-08)
(-8.008325e-06 -0.0010288054 -1.9166545e-08)
(-6.7565374e-06 -0.0010373792 -1.5174955e-08)
(-5.0852932e-06 -0.0010367345 -1.1214451e-08)
(-2.9812408e-06 -0.0010263231 -7.0558902e-09)
(-4.1097794e-07 -0.00097743627 -2.7343847e-09)
(0.00039532004 0.00062468254 -5.5225679e-08)
(0.00036403981 0.00068524744 -6.8088373e-08)
(0.00033655524 0.00072837234 -7.485734e-08)