/*--------------------------------*- C++ -*----------------------------------*\
| =========                 |                                                 |
| \\      /  F ield         | OpenFOAM: The Open Source CFD Toolbox           |
|  \\    /   O peration     | Version:  4.0                                   |
|   \\  /    A nd           | Web:      www.OpenFOAM.org                      |
|    \\/     M anipulation  |                                                 |
\*---------------------------------------------------------------------------*/
FoamFile
{
    version     2.0;
    format      ascii;
    class       volScalarField;
    location    "0.15";
    object      k;
}
// * * * * * * * * * * * * * * * * * * * * * * * * * * * * * * * * * * * * * //

dimensions      [0 2 -2 0 0 0 0];

internalField   nonuniform List<scalar> 
1740
(
0.008573733
0.0089936596
0.018236361
0.0091030837
0.0099058792
0.027231299
0.0095066297
0.01051781
0.034355736
0.0097211478
0.010693296
0.041247174
0.0099522719
0.010894848
0.047235185
0.010020467
0.011317948
0.051564953
0.010036553
0.011673592
0.055498676
0.010032162
0.011762007
0.05872395
0.01002006
0.012017478
0.06203056
0.0100202
0.012640052
0.064625234
0.0099733483
0.012892206
0.065939329
0.0099419748
0.013036226
0.067527189
0.0098896168
0.013405777
0.068931417
0.009795804
0.013716254
0.069880789
0.0096798038
0.014011598
0.070213653
0.0094905523
0.014081177
0.070612134
0.0093501841
0.014040655
0.0713661
0.0093149066
0.013995029
0.071605708
0.0091660251
0.014011991
0.071954536
0.0090293898
0.01412318
0.072251966
0.008891497
0.014232251
0.072271212
0.0087596837
0.014373978
0.072462786
0.0086177305
0.01452942
0.072685164
0.00857471
0.014509233
0.072814312
0.0085151566
0.014595889
0.072790695
0.0084338771
0.014736126
0.072654327
0.0083665647
0.014949636
0.072326957
0.0083740834
0.015208877
0.071835447
0.0083825478
0.015248798
0.071064756
0.0090208035
0.016362545
0.066149355
0.012810615
0.018320867
0.047018902
0.024008572
0.03125164
0.039757936
0.010282336
0.012531515
0.013702675
0.0042756985
0.0046132316
0.0046675602
0.0020611055
0.0021058777
0.0020784529
0.0011001877
0.0011010591
0.001081407
0.00062182471
0.00061847016
0.00060824158
0.00035589254
0.00035343371
0.00034813953
0.00019814554
0.00019665886
0.00019373729
0.00010430709
0.00010344515
0.00010177471
5.1381177e-05
5.0909465e-05
4.9985984e-05
2.4011788e-05
2.3775422e-05
2.3306871e-05
1.1153708e-05
1.1046936e-05
1.0833566e-05
5.6591035e-06
5.6163616e-06
5.530588e-06
3.5316457e-06
3.5173324e-06
3.4888212e-06
2.8156725e-06
2.8128727e-06
2.8077501e-06
2.6500905e-06
2.6515496e-06
2.6551036e-06
2.6858966e-06
2.688742e-06
2.6951024e-06
2.7915698e-06
2.7947441e-06
2.8017432e-06
2.920795e-06
2.9239371e-06
2.9308354e-06
3.0582935e-06
3.0612913e-06
3.0678615e-06
3.1993281e-06
3.2021531e-06
3.2083397e-06
3.3424898e-06
3.3451398e-06
3.3509411e-06
3.4873269e-06
3.4898075e-06
3.4952368e-06
3.6336167e-06
3.6359354e-06
3.6410097e-06
3.781157e-06
3.7833215e-06
3.7880579e-06
3.929711e-06
3.9317286e-06
3.9361435e-06
4.0789932e-06
4.080871e-06
4.0849799e-06
4.2286669e-06
4.2304116e-06
4.2342293e-06
4.3783432e-06
4.3799612e-06
4.3835015e-06
4.5275804e-06
4.5290777e-06
4.5323541e-06
4.6758846e-06
4.6772671e-06
4.6802925e-06
4.8227101e-06
4.8239836e-06
4.8267704e-06
4.9674608e-06
4.9686308e-06
4.9711912e-06
5.1094912e-06
5.1105632e-06
5.1129092e-06
5.2481055e-06
5.2490849e-06
5.2512283e-06
5.3825478e-06
5.3834399e-06
5.3853923e-06
5.5119686e-06
5.5127787e-06
5.5145519e-06
5.6353311e-06
5.6360647e-06
5.6376703e-06
5.7511777e-06
5.75184e-06
5.75329e-06
5.8570983e-06
5.8576949e-06
5.8590012e-06
5.9486173e-06
5.9491536e-06
5.9503283e-06
6.0170483e-06
6.01753e-06
6.0185853e-06
6.0457279e-06
6.0461608e-06
6.0471094e-06
6.0040981e-06
6.0044887e-06
6.0053443e-06
5.8397806e-06
5.8401364e-06
5.8409155e-06
5.470926e-06
5.4712553e-06
5.4719763e-06
4.7861625e-06
4.7864681e-06
4.7871391e-06
3.667326e-06
3.66759e-06
3.6681739e-06
2.0497779e-06
2.0499457e-06
2.0503205e-06
0.056041376
0.060738473
0.04615891
0.046646001
0.012472544
0.011351468
0.0043474864
0.0041102609
0.0019799001
0.0019143619
0.0010480106
0.0010279371
0.0005955044
0.0005885495
0.0003423325
0.00033901968
0.0001905514
0.00018833188
9.985989e-05
9.8243042e-05
4.8872655e-05
4.781117e-05
2.2720907e-05
2.2122894e-05
1.0560831e-05
1.0272201e-05
5.4200858e-06
5.3016572e-06
3.452706e-06
3.4151202e-06
2.8024397e-06
2.79901e-06
2.661283e-06
2.6706765e-06
2.7049618e-06
2.7183967e-06
2.8123772e-06
2.8265561e-06
2.9412525e-06
2.9550507e-06
3.0777612e-06
3.0908439e-06
3.2176531e-06
3.2299503e-06
3.3596707e-06
3.3711934e-06
3.5034052e-06
3.5141857e-06
3.6486433e-06
3.6587177e-06
3.795183e-06
3.8045863e-06
3.9427848e-06
3.95155e-06
4.091161e-06
4.099319e-06
4.2399724e-06
4.2475525e-06
4.3888276e-06
4.3958578e-06
4.5372834e-06
4.54379e-06
4.6848443e-06
4.6908529e-06
4.8309634e-06
4.8364988e-06
4.9750438e-06
4.98013e-06
5.1164394e-06
5.1211001e-06
5.2544537e-06
5.2587123e-06
5.3883306e-06
5.3922104e-06
5.5172207e-06
5.5207449e-06
5.6400872e-06
5.6432792e-06
5.7554729e-06
5.7583562e-06
5.860968e-06
5.8635666e-06
5.9520974e-06
5.9544354e-06
6.0201751e-06
6.0222772e-06
6.0485387e-06
6.0504296e-06
6.0066333e-06
6.0083392e-06
5.8420882e-06
5.8436388e-06
5.4730603e-06
5.4744906e-06
4.7881503e-06
4.789485e-06
3.6690629e-06
3.6702522e-06
2.0509015e-06
2.051708e-06
6.0461383e-06
2.5892653e-05
0.00012766989
0.00028844787
0.00043492559
0.00053521408
0.00059369846
0.00062459234
0.00063923368
0.00064425399
0.00064304508
0.00063709845
0.00062686771
0.00061230253
0.00059322724
0.00056957864
0.00054148393
0.00050926756
0.00047336878
0.00043407197
0.00039091213
0.00034173522
0.00028177673
0.00020394073
0.00010019555
2.5838335e-06
5.376171e-05
0.00024564091
0.00050262048
0.00070536225
0.00082675364
0.00089124895
0.00092322704
0.00093753579
0.00094165866
0.00093918797
0.00093158986
0.00091915255
0.00090155731
0.00087840193
0.00084951603
0.00081493002
0.00077481949
0.0007293781
0.00067845432
0.0006206611
0.00055187258
0.00046310636
0.00033872984
0.00015762234
8.0068535e-06
0.00015998183
0.00061425395
0.001073177
0.0013492893
0.0014835173
0.0015417703
0.0015625152
0.0015654057
0.0015582477
0.001544787
0.0015264932
0.0015034475
0.001474726
0.0014394674
0.0013974568
0.0013486256
0.0012928991
0.0012300732
0.0011594071
0.0010783265
0.00098027249
0.00085036953
0.00065800963
0.00034690524
3.7897733e-05
0.00058159435
0.0016899385
0.0024397752
0.0027733354
0.0028824326
0.002885505
0.0028472813
0.0027979898
0.0027417792
0.0026826933
0.002622394
0.0025610367
0.002495754
0.0024241866
0.0023464953
0.0022626234
0.0021722294
0.0020747932
0.0019693331
0.0018534396
0.0017210776
0.0015569417
0.001320366
0.00088257873
0.00028228676
0.0024521763
0.0049259279
0.0060512366
0.0063998185
0.0063384335
0.0061067664
0.005838459
0.0055841075
0.0053282521
0.0050791175
0.0048422678
0.0046223918
0.0044099999
0.004196512
0.0039867808
0.0037818462
0.0035813015
0.0033842862
0.0031896195
0.0029955047
0.0027991808
0.0025962357
0.0023848149
0.002183505
0.0023581721
0.010512889
0.016577331
0.018547749
0.018103473
0.016556662
0.014744673
0.013058106
0.011575982
0.010296375
0.009199415
0.0082626056
0.0074618004
0.006772161
0.0061732234
0.0056506978
0.0051924634
0.004787587
0.0044264248
0.0041007267
0.0038034734
0.0035291086
0.0032737051
0.0030424574
0.0028564334
0.044867066
0.034050602
0.026576643
0.021424559
0.017771618
0.015067014
0.012980123
0.011328292
0.010002542
0.0089252683
0.0080372302
0.0072938517
0.0066619332
0.0061167374
0.0056396221
0.0052170055
0.00483903
0.004498044
0.0041877126
0.0039026403
0.003638184
0.0033908024
0.0031585933
0.0029482305
0.0027829319
0.037245283
0.030968549
0.027772552
0.025158497
0.0223021
0.019336135
0.01662219
0.014323769
0.012439498
0.010893588
0.0096169498
0.0085531781
0.0076580606
0.0069004858
0.0062555279
0.0057026893
0.0052247513
0.0048072812
0.0044382953
0.0041079311
0.0038080086
0.0035321254
0.003275613
0.003043233
0.0028560269
0.010214057
0.0095451195
0.0092097119
0.0088937669
0.0084339724
0.0078680708
0.0073058838
0.0068061286
0.006350012
0.0059438812
0.0055848747
0.0052679749
0.004968043
0.0046852462
0.0044201232
0.004171319
0.0039365527
0.0037132487
0.0034988283
0.0032906488
0.0030857515
0.002880439
0.002669438
0.0024501913
0.0022408794
0.0039529257
0.0038800059
0.0038568286
0.0038140342
0.0037158219
0.0035750136
0.0034277644
0.0032898524
0.0031625467
0.0030476067
0.0029438236
0.002847969
0.0027539688
0.0026603104
0.0025662225
0.0024708444
0.0023731106
0.0022718446
0.0021657432
0.0020530652
0.0019307066
0.0017919505
0.0016207182
0.0013749124
0.00092087309
0.0018926001
0.0019027776
0.0019239946
0.0019335994
0.0019201527
0.0018869581
0.0018450456
0.0018014531
0.0017587966
0.0017180866
0.0016788909
0.0016397431
0.0015986816
0.0015546716
0.0015071061
0.0014557197
0.0013998785
0.0013389674
0.0012722123
0.0011981967
0.0011137363
0.0010115876
0.00087615644
0.00067624572
0.00035585852
0.0010269965
0.0010398533
0.0010570423
0.0010694075
0.0010720289
0.0010654158
0.0010529926
0.0010376524
0.0010209082
0.0010033193
0.00098469293
0.00096432712
0.00094134327
0.00091508651
0.00088512749
0.00085126963
0.00081336736
0.00077133411
0.00072501744
0.00067381567
0.00061584714
0.0005465078
0.00045652951
0.00033068251
0.00015085125
0.00058988526
0.00059736082
0.00060681255
0.00061415929
0.00061699091
0.00061503953
0.00060938576
0.00060123657
0.00059138319
0.00058016232
0.00056752453
0.00055315961
0.00053666177
0.00051769682
0.00049606249
0.00047171038
0.0004447211
0.00041529794
0.0003836831
0.00034991811
0.00031335745
0.00027191625
0.00022131536
0.00015515936
6.6770743e-05
0.00033930323
0.00034233867
0.00034625681
0.00034914066
0.00034973601
0.00034770884
0.00034337277
0.0003372321
0.0003296938
0.00032097441
0.00031110726
0.00029999786
0.0002875044
0.0002735178
0.00025801172
0.00024106786
0.00022287898
0.0002037385
0.00018398569
0.00016387081
0.00014331213
0.00012158927
9.7261116e-05
6.9230576e-05
4.1607767e-05
0.00018759889
0.0001880444
0.0001888423
0.00018909009
0.00018814843
0.00018577773
0.00018205748
0.00017720647
0.00017144362
0.00016491931
0.00015770428
0.00014981226
0.00014123663
0.00013198887
0.00012212587
0.00011176386
0.00010107856
9.0292224e-05
7.9638481e-05
6.9294343e-05
5.927823e-05
4.9354012e-05
3.9097601e-05
2.851681e-05
1.982881e-05
9.7183143e-05
9.6583688e-05
9.610366e-05
9.5340905e-05
9.3991188e-05
9.1922811e-05
8.9156234e-05
8.5795442e-05
8.1961461e-05
7.775397e-05
7.3240993e-05
6.8465719e-05
6.3461363e-05
5.8267454e-05
5.2941065e-05
4.7561684e-05
4.2228603e-05
3.705166e-05
3.2133228e-05
2.753991e-05
2.3266682e-05
1.9212303e-05
1.522117e-05
1.1282495e-05
7.5659603e-06
4.693173e-05
4.6215125e-05
4.5533539e-05
4.4724088e-05
4.3656648e-05
4.2272263e-05
4.0579446e-05
3.8628449e-05
3.6482056e-05
3.419712e-05
3.1817657e-05
2.9376362e-05
2.6900079e-05
2.4415714e-05
2.1954223e-05
1.9551769e-05
1.7247955e-05
1.5081186e-05
1.3080856e-05
1.1256409e-05
9.5844942e-06
8.000139e-06
6.4035914e-06
4.6821704e-06
2.6210552e-06
2.1575432e-05
2.1081855e-05
2.0599909e-05
2.0069976e-05
1.9442265e-05
1.8694012e-05
1.7829756e-05
1.6871982e-05
1.5849511e-05
1.4789369e-05
1.3713383e-05
1.2638186e-05
1.1577239e-05
1.0542646e-05
9.5464919e-06
8.6010511e-06
7.7177896e-06
6.9051502e-06
6.1649507e-06
5.4871444e-06
4.8434601e-06
4.1816847e-06
3.4240379e-06
2.4697203e-06
1.1929212e-06
9.9956438e-06
9.7372852e-06
9.4851024e-06
9.2191805e-06
8.9221735e-06
8.5861381e-06
8.2131908e-06
7.8122724e-06
7.3948928e-06
6.9719538e-06
6.552296e-06
6.14252e-06
5.7477818e-06
5.372242e-06
5.0194394e-06
4.6922075e-06
4.3920138e-06
4.117586e-06
3.8625654e-06
3.6119306e-06
3.3374029e-06
2.9929798e-06
2.5136625e-06
1.8239357e-06
8.6970188e-07
5.1869686e-06
5.0799284e-06
4.9776888e-06
4.8740594e-06
4.7633251e-06
4.6427512e-06
4.5129563e-06
4.3769553e-06
4.2386685e-06
4.1018028e-06
3.9692992e-06
3.8432435e-06
3.7250821e-06
3.6157672e-06
3.5157746e-06
3.4249026e-06
3.3417103e-06
3.2623542e-06
3.1785606e-06
3.074506e-06
2.9227846e-06
2.6807487e-06
2.2906737e-06
1.6915812e-06
8.5403421e-07
3.380548e-06
3.3508189e-06
3.325334e-06
3.3021818e-06
3.2793837e-06
3.2558018e-06
3.2313499e-06
3.2067002e-06
3.1828342e-06
3.1606682e-06
3.1408609e-06
3.1237728e-06
3.1094986e-06
3.0979117e-06
3.0885733e-06
3.0804847e-06
3.0715193e-06
3.0573018e-06
3.0292486e-06
2.9715537e-06
2.8573602e-06
2.6455641e-06
2.2819449e-06
1.7121543e-06
9.1379437e-07
2.7989931e-06
2.8030368e-06
2.8109234e-06
2.8219088e-06
2.8351418e-06
2.849959e-06
2.8659915e-06
2.8831013e-06
2.9012516e-06
2.9203913e-06
2.9403967e-06
2.9610512e-06
2.9820407e-06
3.0029304e-06
3.0230616e-06
3.0412755e-06
3.0553297e-06
3.0607691e-06
3.0489565e-06
3.0040534e-06
2.8992201e-06
2.6935415e-06
2.333322e-06
1.7643332e-06
9.6215603e-07
2.6836881e-06
2.7004151e-06
2.7206333e-06
2.7438991e-06
2.7696843e-06
2.7974817e-06
2.8268508e-06
2.857414e-06
2.8888268e-06
2.9207479e-06
2.9528222e-06
2.9846714e-06
3.0158796e-06
3.0459504e-06
3.0741853e-06
3.0994066e-06
3.1193547e-06
3.1295353e-06
3.1212123e-06
3.0783321e-06
2.9736479e-06
2.7655638e-06
2.3993434e-06
1.8189424e-06
9.9798912e-07
2.7354078e-06
2.755872e-06
2.7795318e-06
2.8060246e-06
2.8349297e-06
2.8658079e-06
2.8982246e-06
2.9317574e-06
2.9659944e-06
3.0005283e-06
3.0349545e-06
3.068865e-06
3.1018318e-06
3.1333567e-06
3.1627426e-06
3.1888087e-06
3.2092736e-06
3.2195729e-06
3.2108014e-06
3.166555e-06
3.0589354e-06
2.8452485e-06
2.4692012e-06
1.8734639e-06
1.0354055e-06
2.8441484e-06
2.8649581e-06
2.8887172e-06
2.9150981e-06
2.9437302e-06
2.974218e-06
3.0061547e-06
3.0391304e-06
3.0727367e-06
3.1065689e-06
3.1402263e-06
3.1733084e-06
3.2053975e-06
3.2360056e-06
3.2644432e-06
3.2895204e-06
3.3089196e-06
3.3179802e-06
3.3075835e-06
3.2609048e-06
3.1492867e-06
2.9287831e-06
2.5413211e-06
1.9278968e-06
1.0661121e-06
2.9720623e-06
2.9920754e-06
3.0148296e-06
3.0400217e-06
3.0673152e-06
3.0963489e-06
3.1267461e-06
3.1581225e-06
3.1900915e-06
3.2222674e-06
3.254268e-06
3.2857096e-06
3.3161895e-06
3.3452318e-06
3.372152e-06
3.3957485e-06
3.4136585e-06
3.4211104e-06
3.4087508e-06
3.3593046e-06
3.2433212e-06
3.0155913e-06
2.61637e-06
1.9854144e-06
1.1047919e-06
3.1069382e-06
3.1258366e-06
3.147293e-06
3.1710261e-06
3.1967263e-06
3.2240612e-06
3.2526823e-06
3.2822311e-06
3.312345e-06
3.3426614e-06
3.3728181e-06
3.4024502e-06
3.431171e-06
3.4585161e-06
3.4838048e-06
3.5058226e-06
3.5221567e-06
3.527918e-06
3.5135076e-06
3.4611835e-06
3.3406787e-06
3.1055003e-06
2.6943025e-06
2.0460559e-06
1.1437959e-06
3.2450665e-06
3.262805e-06
3.2829353e-06
3.3051968e-06
3.3293023e-06
3.3549443e-06
3.3817992e-06
3.4095329e-06
3.4378056e-06
3.4662765e-06
3.494604e-06
3.5224416e-06
3.549418e-06
3.5750804e-06
3.5987511e-06
3.619201e-06
3.6339662e-06
3.6380358e-06
3.6215579e-06
3.5663097e-06
3.4411803e-06
3.1983339e-06
2.7746635e-06
2.1081395e-06
1.1848733e-06
3.3853537e-06
3.401967e-06
3.4208186e-06
3.4416659e-06
3.4642425e-06
3.488262e-06
3.5134235e-06
3.5394149e-06
3.5659181e-06
3.5926126e-06
3.6191762e-06
3.6452803e-06
3.670569e-06
3.6946004e-06
3.716699e-06
3.7356204e-06
3.7488485e-06
3.7512466e-06
3.7327032e-06
3.6745026e-06
3.5446726e-06
3.2940095e-06
2.8575918e-06
2.1721654e-06
1.2295973e-06
3.5274329e-06
3.5429744e-06
3.5606101e-06
3.5801141e-06
3.6012384e-06
3.6237162e-06
3.6472665e-06
3.6715978e-06
3.6964121e-06
3.721408e-06
3.7462817e-06
3.7707219e-06
3.7943874e-06
3.8168467e-06
3.8374262e-06
3.854865e-06
3.8665931e-06
3.8673442e-06
3.8467391e-06
3.7855572e-06
3.6509492e-06
3.392319e-06
2.9428008e-06
2.2369406e-06
1.2641883e-06
3.6710973e-06
3.6856212e-06
3.7021031e-06
3.7203326e-06
3.7400783e-06
3.7610915e-06
3.7831094e-06
3.8058595e-06
3.8290625e-06
3.8524353e-06
3.8756917e-06
3.8985364e-06
3.9206427e-06
3.9415889e-06
3.9607026e-06
3.9767055e-06
3.9869709e-06
3.9860986e-06
3.9634324e-06
3.8992317e-06
3.7597495e-06
3.4929674e-06
3.0300041e-06
2.3031196e-06
1.300837e-06
3.8161416e-06
3.829699e-06
3.8450852e-06
3.8621039e-06
3.8805393e-06
3.9001591e-06
3.9207179e-06
3.9419607e-06
3.9636254e-06
3.9854465e-06
4.0071544e-06
4.0284695e-06
4.0490783e-06
4.0685687e-06
4.0862687e-06
4.1008812e-06
4.1097204e-06
4.1072474e-06
4.0825192e-06
4.0152601e-06
3.8708091e-06
3.5957279e-06
3.1191411e-06
2.3708166e-06
1.3423929e-06
3.9623217e-06
3.9749603e-06
3.9893045e-06
4.0051714e-06
4.0223597e-06
4.0406526e-06
4.0598204e-06
4.0796246e-06
4.0998199e-06
4.1201569e-06
4.1403819e-06
4.1602302e-06
4.1794013e-06
4.1974915e-06
4.2138285e-06
4.2270951e-06
4.2345441e-06
4.2304929e-06
4.2037034e-06
4.133351e-06
3.9838462e-06
3.7003494e-06
3.2101598e-06
2.4409452e-06
1.382136e-06
4.1093451e-06
4.1211095e-06
4.134462e-06
4.1492322e-06
4.1652324e-06
4.1822603e-06
4.2001013e-06
4.218532e-06
4.2373229e-06
4.2562402e-06
4.2750453e-06
4.2934873e-06
4.3112781e-06
4.3280222e-06
4.3430457e-06
4.3550101e-06
4.3611042e-06
4.3554978e-06
4.3266506e-06
4.2531748e-06
4.098531e-06
3.8064507e-06
3.3023713e-06
2.5117772e-06
1.4221665e-06
4.2568688e-06
4.2678009e-06
4.2802089e-06
4.2939343e-06
4.3088023e-06
4.3246238e-06
4.3411986e-06
4.3583178e-06
4.3757666e-06
4.3933259e-06
4.4107714e-06
4.4278659e-06
4.4443324e-06
4.4597828e-06
4.4735412e-06
4.484246e-06
4.4890201e-06
4.4818817e-06
4.4509812e-06
4.3743528e-06
4.2144733e-06
3.9135798e-06
3.3951758e-06
2.5827148e-06
1.4563447e-06
4.4044984e-06
4.4146378e-06
4.4261463e-06
4.4388764e-06
4.452665e-06
4.4673361e-06
4.4827027e-06
4.4985697e-06
4.5147363e-06
4.5309972e-06
4.5471419e-06
4.5629456e-06
4.5781425e-06
4.5923508e-06
4.6048914e-06
4.6143785e-06
4.6178668e-06
4.6092194e-06
4.5762711e-06
4.4964666e-06
4.3312747e-06
4.0213978e-06
3.4883651e-06
2.6535768e-06
1.4958362e-06
4.5517875e-06
4.5611725e-06
4.5718244e-06
4.5836063e-06
4.5963665e-06
4.609941e-06
4.6241553e-06
4.6388274e-06
4.6537696e-06
4.66879e-06
4.6836909e-06
4.6982597e-06
4.7122405e-06
4.7252573e-06
4.7366268e-06
4.7449376e-06
4.7471739e-06
4.7370404e-06
4.7020512e-06
4.6190542e-06
4.4484967e-06
4.1295037e-06
3.5814549e-06
2.7229821e-06
1.5305203e-06
4.6982386e-06
4.7069057e-06
4.7167425e-06
4.7276218e-06
4.7394027e-06
4.7519325e-06
4.7650487e-06
4.7785815e-06
4.7923559e-06
4.8061923e-06
4.8199053e-06
4.8332938e-06
4.8461113e-06
4.8579866e-06
4.8682315e-06
4.8754073e-06
4.8764254e-06
4.8648287e-06
4.8278069e-06
4.7416083e-06
4.5656579e-06
4.2374944e-06
3.6743292e-06
2.7926802e-06
1.5719484e-06
4.8433029e-06
4.8512876e-06
4.8603494e-06
4.8703706e-06
4.8812201e-06
4.8927559e-06
4.9048268e-06
4.9172748e-06
4.9299366e-06
4.9426446e-06
4.9552248e-06
4.9674869e-06
4.9791932e-06
4.989977e-06
4.9991435e-06
5.0052258e-06
5.0050604e-06
4.9920254e-06
4.952983e-06
4.8635826e-06
4.682238e-06
4.3449128e-06
3.7665417e-06
2.8608821e-06
1.6133345e-06
4.9863822e-06
4.9937191e-06
5.0020453e-06
5.0112515e-06
5.0212164e-06
5.031808e-06
5.0428857e-06
5.0543024e-06
5.0659061e-06
5.0775405e-06
5.0890424e-06
5.1002317e-06
5.1108789e-06
5.1206206e-06
5.1287555e-06
5.1337867e-06
5.1324745e-06
5.1180301e-06
5.0769872e-06
4.9844027e-06
4.7977088e-06
4.4513871e-06
3.8583441e-06
2.929969e-06
1.6511783e-06
5.1268294e-06
5.1335526e-06
5.1411817e-06
5.1496157e-06
5.1587421e-06
5.1684385e-06
5.1785743e-06
5.1890128e-06
5.1996125e-06
5.2102276e-06
5.2207055e-06
5.2308754e-06
5.2405154e-06
5.2492652e-06
5.2564156e-06
5.2604396e-06
5.2580201e-06
5.2422008e-06
5.1991886e-06
5.1034564e-06
4.9114862e-06
4.5563635e-06
3.9491739e-06
2.9992955e-06
1.690776e-06
5.2639476e-06
5.2700908e-06
5.277061e-06
5.284765e-06
5.2930987e-06
5.3019485e-06
5.3111935e-06
5.3207066e-06
5.3303562e-06
5.3400065e-06
5.3495145e-06
5.3587186e-06
5.3674036e-06
5.3752117e-06
5.3814259e-06
5.3844881e-06
5.381004e-06
5.3638507e-06
5.3189114e-06
5.2200845e-06
5.0229255e-06
4.6591825e-06
4.0382543e-06
3.0677066e-06
1.7305157e-06
5.3969801e-06
5.4025769e-06
5.4089263e-06
5.4159425e-06
5.423529e-06
5.431581e-06
5.4399862e-06
5.4486266e-06
5.4573801e-06
5.4661202e-06
5.4747129e-06
5.483005e-06
5.4907878e-06
5.4977054e-06
5.5030323e-06
5.5051799e-06
5.5006772e-06
5.4822368e-06
5.4354238e-06
5.3335733e-06
5.1313348e-06
4.7591406e-06
4.1245957e-06
3.1326488e-06
1.7641607e-06
5.5250776e-06
5.5301615e-06
5.5359282e-06
5.5422987e-06
5.549184e-06
5.556487e-06
5.5641037e-06
5.5719247e-06
5.5798365e-06
5.5877214e-06
5.5954539e-06
5.6028885e-06
5.6098225e-06
5.6159015e-06
5.6203915e-06
5.6216734e-06
5.6162009e-06
5.5965262e-06
5.5479033e-06
5.4431175e-06
5.2359339e-06
4.8555076e-06
4.2076988e-06
3.1944275e-06
1.7917405e-06
5.6472037e-06
5.6518085e-06
5.657031e-06
5.6627984e-06
5.6690288e-06
5.6756322e-06
5.6825123e-06
5.6895677e-06
5.696693e-06
5.7037786e-06
5.7107069e-06
5.7173395e-06
5.7234791e-06
5.7287725e-06
5.732477e-06
5.732944e-06
5.726554e-06
5.7057034e-06
5.6553457e-06
5.5477341e-06
5.335781e-06
4.9474331e-06
4.2870224e-06
3.2537744e-06
1.81575e-06
5.7619015e-06
5.7660615e-06
5.7707788e-06
5.7759866e-06
5.7816092e-06
5.7875634e-06
5.79376e-06
5.8001049e-06
5.8065002e-06
5.8128436e-06
5.819025e-06
5.8249123e-06
5.8303132e-06
5.8348752e-06
5.8378472e-06
5.8375518e-06
5.8302994e-06
5.8083379e-06
5.7563339e-06
5.6460358e-06
5.42955e-06
5.0336886e-06
4.3613706e-06
3.3098492e-06
1.8445335e-06
5.8667623e-06
5.8705125e-06
5.8747647e-06
5.8794575e-06
5.8845211e-06
5.8898784e-06
5.8954465e-06
5.901138e-06
5.9068616e-06
5.9125221e-06
5.9180156e-06
5.9232161e-06
5.9279356e-06
5.9318219e-06
5.9341156e-06
5.9331119e-06
5.9250548e-06
5.9020526e-06
5.8485049e-06
5.7356929e-06
5.5149849e-06
5.1121699e-06
4.4289477e-06
3.3611602e-06
1.8729325e-06
5.9573118e-06
5.9606881e-06
5.9645168e-06
5.9687417e-06
5.9732978e-06
5.9781134e-06
5.9831114e-06
5.9882101e-06
5.9933242e-06
5.9983643e-06
6.0032323e-06
6.0078072e-06
6.0119046e-06
6.0151722e-06
6.0168427e-06
6.015185e-06
6.0063819e-06
5.9824133e-06
5.9274374e-06
5.8123205e-06
5.5877871e-06
5.1787532e-06
4.4859138e-06
3.4040229e-06
1.8964134e-06
6.0248649e-06
6.0279045e-06
6.0313537e-06
6.0351608e-06
6.0392656e-06
6.0436006e-06
6.048093e-06
6.052666e-06
6.0572393e-06
6.0617278e-06
6.0660379e-06
6.0700525e-06
6.07359e-06
6.0762975e-06
6.0773997e-06
6.0751418e-06
6.0656511e-06
6.0407954e-06
5.984529e-06
5.8673847e-06
5.6396033e-06
5.2255043e-06
4.5251774e-06
3.4326837e-06
1.9107643e-06
6.0527599e-06
6.0555011e-06
6.0586171e-06
6.0620617e-06
6.0657785e-06
6.0697026e-06
6.0737645e-06
6.0778906e-06
6.0820034e-06
6.08602e-06
6.0898489e-06
6.0933756e-06
6.0964198e-06
6.0986276e-06
6.0992163e-06
6.0964114e-06
6.0862954e-06
6.0606502e-06
6.0032895e-06
5.8845523e-06
5.6544786e-06
5.2373124e-06
4.5334577e-06
3.4379015e-06
1.9138226e-06
6.0104438e-06
6.0129253e-06
6.0157565e-06
6.0188985e-06
6.0222987e-06
6.0258937e-06
6.0296148e-06
6.0333899e-06
6.0371405e-06
6.0407811e-06
6.0442193e-06
6.0473405e-06
6.0499644e-06
6.051736e-06
6.0518689e-06
6.048577e-06
6.0379206e-06
6.0116482e-06
5.9535523e-06
5.834036e-06
5.6034518e-06
5.1868718e-06
4.4863163e-06
3.3988286e-06
1.8874679e-06
5.8455517e-06
5.8478121e-06
5.8504069e-06
5.8533056e-06
5.8564632e-06
5.8598176e-06
5.8632992e-06
5.8668341e-06
5.870336e-06
5.8737085e-06
5.8768565e-06
5.8796627e-06
5.8819457e-06
5.8833526e-06
5.8831024e-06
5.8794144e-06
5.8683766e-06
5.8418158e-06
5.7837446e-06
5.6651106e-06
5.4375023e-06
5.0284428e-06
4.3440831e-06
3.2870992e-06
1.8242297e-06
5.4762501e-06
5.4783324e-06
5.4807462e-06
5.4834486e-06
5.4864151e-06
5.4895943e-06
5.4929173e-06
5.4963031e-06
5.4996437e-06
5.5028226e-06
5.5057548e-06
5.5083212e-06
5.5103395e-06
5.5114729e-06
5.5109677e-06
5.5070623e-06
5.4959769e-06
5.4698503e-06
5.4134059e-06
5.2990138e-06
5.0810735e-06
4.6922315e-06
4.0468088e-06
3.0585683e-06
1.7020015e-06
4.7911275e-06
4.7931038e-06
4.7954601e-06
4.7979951e-06
4.8007465e-06
4.8037177e-06
4.8068529e-06
4.8100554e-06
4.8131738e-06
4.8160742e-06
4.8187372e-06
4.8210561e-06
4.8228556e-06
4.8238593e-06
4.8233831e-06
4.8196302e-06
4.8091361e-06
4.7847949e-06
4.7329914e-06
4.6291157e-06
4.4328155e-06
4.0857568e-06
3.5157806e-06
2.6539177e-06
1.4848751e-06
3.6717655e-06
3.6737623e-06
3.6763627e-06
3.6787481e-06
3.6811129e-06
3.6836331e-06
3.6863032e-06
3.6890082e-06
3.6915443e-06
3.693793e-06
3.6958923e-06
3.6977822e-06
3.6993274e-06
3.7004119e-06
3.7004904e-06
3.6975354e-06
3.6886581e-06
3.668152e-06
3.625386e-06
3.5422045e-06
3.3865916e-06
3.114207e-06
2.6725392e-06
2.0167058e-06
1.1491096e-06
2.0528451e-06
2.054674e-06
2.0573903e-06
2.0593458e-06
2.0609084e-06
2.0624711e-06
2.0641074e-06
2.0657227e-06
2.0671309e-06
2.0682742e-06
2.0694002e-06
2.0705139e-06
2.0715714e-06
2.0726709e-06
2.0734982e-06
2.0720111e-06
2.0662826e-06
2.052478e-06
2.0229629e-06
1.9738801e-06
1.8841602e-06
1.7286401e-06
1.4796741e-06
1.1177785e-06
6.544979e-07
)
;

boundaryField
{
    Walls
    {
        type            kqRWallFunction;
        value           nonuniform List<scalar> 
38
(
6.0461383e-06
2.5838335e-06
8.0068535e-06
3.7897733e-05
0.00028228676
0.0023581721
0.056041376
0.060738473
0.018236361
0.027231299
0.034355736
0.041247174
0.047235185
0.051564953
0.055498676
0.05872395
0.06203056
0.064625234
0.065939329
0.067527189
0.068931417
0.069880789
0.070213653
0.070612134
0.0713661
0.071605708
0.071954536
0.072251966
0.072271212
0.072462786
0.072685164
0.072814312
0.072790695
0.072654327
0.072326957
0.071835447
0.071064756
0.066149355
)
;
    }
    Inlet
    {
        type            turbulentIntensityKineticEnergyInlet;
        intensity       0.05;
        value           nonuniform List<scalar> 3(0.0078105893 0.0080416938 0.0095189433);
    }
    Outlet
    {
        type            inletOutlet;
        inletValue      uniform 0;
        value           nonuniform List<scalar> 
86
(
0
0
0
0
0
0
0
0
0
0
0
0
0
0
0
0
0
0
0
0
0
0
0
0
0
0
0
0
0
0
0.0027829319
0.0028560269
0.0022408794
0
0
0
0
4.1607767e-05
1.982881e-05
0
0
0
0
0
0
9.6215603e-07
9.9798912e-07
1.0354055e-06
1.0661121e-06
1.1047919e-06
1.1437959e-06
1.1848733e-06
1.2295973e-06
1.2641883e-06
1.300837e-06
1.3423929e-06
1.382136e-06
1.4221665e-06
0
0
0
0
0
0
0
0
0
0
0
0
0
0
0
0
0
0
0
0
0
0
0
0
0
0
0.002183505
0.0028564334
)
;
    }
    Front
    {
        type            wedge;
    }
    Back
    {
        type            wedge;
    }
    defaultFaces
    {
        type            empty;
    }
}


// ************************************************************************* //
