/*--------------------------------*- C++ -*----------------------------------*\
| =========                 |                                                 |
| \\      /  F ield         | OpenFOAM: The Open Source CFD Toolbox           |
|  \\    /   O peration     | Version:  4.0                                   |
|   \\  /    A nd           | Web:      www.OpenFOAM.org                      |
|    \\/     M anipulation  |                                                 |
\*---------------------------------------------------------------------------*/
FoamFile
{
    version     2.0;
    format      ascii;
    class       volScalarField;
    location    "0.15";
    object      nut;
}
// * * * * * * * * * * * * * * * * * * * * * * * * * * * * * * * * * * * * * //

dimensions      [0 2 -1 0 0 0 0];

internalField   nonuniform List<scalar> 
1740
(
3.7070774e-05
1.2835063e-05
1.2224064e-06
1.1627523e-05
6.6249129e-06
1.8119842e-06
1.4125608e-05
5.1823241e-06
2.2730302e-06
2.3892427e-05
4.6732143e-06
2.7139969e-06
1.9549379e-05
4.3063559e-06
3.0933524e-06
1.6028053e-05
4.023969e-06
3.3657992e-06
1.3821882e-05
3.8401171e-06
3.6111779e-06
1.2235136e-05
3.7168112e-06
3.8116421e-06
1.0734617e-05
3.6252119e-06
4.0158604e-06
9.4077543e-06
3.5800289e-06
4.1756307e-06
8.5652484e-06
3.5413238e-06
4.2565524e-06
7.9553849e-06
3.5188352e-06
4.3529409e-06
7.331279e-06
3.5175941e-06
4.438954e-06
6.811282e-06
3.5137337e-06
4.498346e-06
6.4476312e-06
3.517222e-06
4.5183488e-06
6.2008463e-06
3.5102723e-06
4.5418927e-06
5.911772e-06
3.4982919e-06
4.5874491e-06
5.5867119e-06
3.4887201e-06
4.6021752e-06
5.3920228e-06
3.4854047e-06
4.6231047e-06
5.2030272e-06
3.4915351e-06
4.6411171e-06
5.0182368e-06
3.4924792e-06
4.6434922e-06
4.8660864e-06
3.5010049e-06
4.6548654e-06
4.7410879e-06
3.5179306e-06
4.6673865e-06
4.5995231e-06
3.5237485e-06
4.6749377e-06
4.4728517e-06
3.5344352e-06
4.674223e-06
4.3751339e-06
3.5460533e-06
4.6666643e-06
4.283884e-06
3.5612343e-06
4.6458314e-06
4.1993974e-06
3.5822498e-06
4.615737e-06
4.1550923e-06
3.591879e-06
4.5687067e-06
2.6334707e-06
3.5573196e-06
4.2685334e-06
1.9255366e-06
2.1862953e-06
4.3942722e-06
7.209659e-06
7.3842412e-06
6.7321687e-06
6.5357956e-06
6.7378618e-06
6.3697158e-06
5.1727109e-06
5.1150055e-06
4.8668712e-06
4.2842351e-06
4.2153937e-06
4.0787383e-06
3.6216442e-06
3.5789953e-06
3.5127226e-06
3.0197051e-06
2.997727e-06
2.9671711e-06
2.3817185e-06
2.369563e-06
2.3521259e-06
1.7009476e-06
1.6922414e-06
1.6777759e-06
1.0636243e-06
1.0567104e-06
1.0439827e-06
5.7921603e-07
5.7441411e-07
5.6516192e-07
2.8382162e-07
2.8108282e-07
2.7570838e-07
1.341658e-07
1.3286772e-07
1.3030967e-07
6.8843756e-08
6.8317728e-08
6.7274417e-08
4.3404564e-08
4.3221429e-08
4.28668e-08
3.4937095e-08
3.4895226e-08
3.4826473e-08
3.3153039e-08
3.3165581e-08
3.3205818e-08
3.381683e-08
3.384877e-08
3.392628e-08
3.531506e-08
3.5352911e-08
3.5440402e-08
3.7080661e-08
3.711938e-08
3.7207016e-08
3.8931705e-08
3.8969443e-08
3.9053871e-08
4.081634e-08
4.0852431e-08
4.0932601e-08
4.2722354e-08
4.2756571e-08
4.2832231e-08
4.4647778e-08
4.4680063e-08
4.4751237e-08
4.6592234e-08
4.66226e-08
4.6689406e-08
4.8554724e-08
4.8583214e-08
4.8645806e-08
5.0533228e-08
5.0559901e-08
5.061844e-08
5.2524712e-08
5.2549631e-08
5.2604283e-08
5.45252e-08
5.4548432e-08
5.4599359e-08
5.6529833e-08
5.6551446e-08
5.6598807e-08
5.8532901e-08
5.8552961e-08
5.859691e-08
6.0527869e-08
6.0546445e-08
6.0587133e-08
6.2507403e-08
6.252456e-08
6.2562135e-08
6.4463398e-08
6.4479202e-08
6.451381e-08
6.638702e-08
6.6401536e-08
6.6433323e-08
6.826877e-08
6.8282064e-08
6.8311172e-08
7.0098562e-08
7.0110699e-08
7.0137274e-08
7.1865852e-08
7.1876899e-08
7.1901086e-08
7.3559823e-08
7.3569847e-08
7.3591796e-08
7.5169704e-08
7.5178774e-08
7.5198637e-08
7.668528e-08
7.669347e-08
7.6711405e-08
7.8097674e-08
7.8105059e-08
7.8121234e-08
7.9400289e-08
7.9406951e-08
7.9421544e-08
8.0589474e-08
8.0595501e-08
8.0608705e-08
8.1663846e-08
8.1669332e-08
8.1681355e-08
8.2620676e-08
8.2625722e-08
8.2636782e-08
8.3447575e-08
8.3452283e-08
8.3462603e-08
8.4107101e-08
8.4111566e-08
8.4121356e-08
8.4508096e-08
8.4512395e-08
8.4521828e-08
8.441074e-08
8.441492e-08
8.4424094e-08
4.1578617e-06
4.488017e-06
6.7865094e-06
8.4984223e-06
5.9920678e-06
6.0374964e-06
4.7139331e-06
4.8141729e-06
4.0214395e-06
4.1173694e-06
3.4982228e-06
3.5743851e-06
2.965856e-06
3.0158856e-06
2.3484014e-06
2.3715038e-06
1.6675077e-06
1.6693412e-06
1.0308332e-06
1.0219355e-06
5.5430804e-07
5.4438946e-07
2.6906868e-07
2.6239515e-07
1.2707975e-07
1.2370574e-07
6.5946811e-08
6.4543924e-08
4.2429125e-08
4.1986515e-08
3.4763354e-08
3.4733289e-08
3.3285084e-08
3.3411949e-08
3.4052507e-08
3.4229229e-08
3.5577361e-08
3.5763168e-08
3.7341983e-08
3.7522845e-08
3.918279e-08
3.9354519e-08
4.1054408e-08
4.1216131e-08
4.294683e-08
4.3098688e-08
4.4858825e-08
4.500122e-08
4.6790258e-08
4.6923634e-08
4.8740209e-08
4.8864994e-08
5.0706676e-08
5.0823271e-08
5.2686624e-08
5.2795404e-08
5.4676065e-08
5.4777385e-08
5.6670126e-08
5.676432e-08
5.8663082e-08
5.8750472e-08
6.0648388e-08
6.0729283e-08
6.26187e-08
6.26934e-08
6.4565907e-08
6.4634706e-08
6.6481171e-08
6.6544359e-08
6.8354989e-08
6.8412855e-08
7.0177279e-08
7.0230111e-08
7.1937498e-08
7.198559e-08
7.362484e-08
7.3668487e-08
7.5228544e-08
7.5268051e-08
7.6738414e-08
7.6774099e-08
7.8145597e-08
7.8177793e-08
7.944353e-08
7.9472593e-08
8.0628604e-08
8.0654917e-08
8.1699479e-08
8.1723455e-08
8.2653461e-08
8.2675535e-08
8.3478172e-08
8.3498783e-08
8.413613e-08
8.4155697e-08
8.4536073e-08
8.4554952e-08
8.4437962e-08
8.4456373e-08
5.0141304e-10
1.2664304e-08
1.8325096e-07
7.8514693e-07
1.5675688e-06
2.1276603e-06
2.4451083e-06
2.6238275e-06
2.7343528e-06
2.8109422e-06
2.868499e-06
2.9125785e-06
2.9442784e-06
2.9626976e-06
2.966207e-06
2.953184e-06
2.9224835e-06
2.8738916e-06
2.8084832e-06
2.7284419e-06
2.6354189e-06
2.5263184e-06
2.3857321e-06
2.1743154e-06
1.7847043e-06
2.142814e-10
2.6380643e-08
3.5204001e-07
1.3445151e-06
2.5063716e-06
3.2796712e-06
3.7153595e-06
3.9827119e-06
4.1720184e-06
4.323519e-06
4.45395e-06
4.5686506e-06
4.6672497e-06
4.7470203e-06
4.8044854e-06
4.8363311e-06
4.8397947e-06
4.8131926e-06
4.7563322e-06
4.6699715e-06
4.5524907e-06
4.3918605e-06
4.1493378e-06
3.7256611e-06
2.8129526e-06
6.6401844e-10
7.8804336e-08
8.5517443e-07
2.4931926e-06
3.7565884e-06
4.4678225e-06
4.901099e-06
5.2107109e-06
5.4670531e-06
5.699466e-06
5.9196644e-06
6.1299634e-06
6.3270266e-06
6.506208e-06
6.6623932e-06
6.790535e-06
6.8854536e-06
6.9422581e-06
6.9566623e-06
6.9241929e-06
6.8351573e-06
6.664056e-06
6.3446285e-06
5.7107696e-06
4.2656118e-06
3.1428155e-09
2.863256e-07
2.0673301e-06
4.0048691e-06
5.0369368e-06
5.6127034e-06
6.0035352e-06
6.3251157e-06
6.6264034e-06
6.9231143e-06
7.2228034e-06
7.5259023e-06
7.8253118e-06
8.1150932e-06
8.3888237e-06
8.6405606e-06
8.8627505e-06
9.0467771e-06
9.1834892e-06
9.2626599e-06
9.2695624e-06
9.1750934e-06
8.9083175e-06
8.2731909e-06
6.5729739e-06
2.3403875e-08
1.1400996e-06
3.996596e-06
5.6091279e-06
6.4623255e-06
6.9824064e-06
7.3621452e-06
7.7010293e-06
8.0409007e-06
8.3811972e-06
8.7313496e-06
9.0969019e-06
9.4654768e-06
9.8298161e-06
1.0181556e-05
1.0519392e-05
1.0836621e-05
1.1123646e-05
1.1369299e-05
1.1561314e-05
1.1685668e-05
1.1724419e-05
1.165026e-05
1.1428972e-05
1.106398e-05
1.9509597e-07
2.7539654e-06
5.9078993e-06
7.7206149e-06
8.6429584e-06
9.065845e-06
9.2655583e-06
9.4043378e-06
9.5431411e-06
9.6994168e-06
9.8802559e-06
1.00907e-05
1.0330376e-05
1.0595405e-05
1.0881176e-05
1.1182011e-05
1.1490184e-05
1.1795077e-05
1.2083619e-05
1.2341187e-05
1.255235e-05
1.2702099e-05
1.2776097e-05
1.2771859e-05
1.2692366e-05
4.3330912e-06
4.3131547e-06
4.3630606e-06
4.4782588e-06
4.6567558e-06
4.8883206e-06
5.1637664e-06
5.4809052e-06
5.8413911e-06
6.2458144e-06
6.6922505e-06
7.1763292e-06
7.6908976e-06
8.2264859e-06
8.772345e-06
9.3176945e-06
9.8520021e-06
1.0364102e-05
1.0841582e-05
1.1270916e-05
1.1638036e-05
1.1929847e-05
1.2135737e-05
1.2258199e-05
1.2301892e-05
9.125224e-06
9.3809752e-06
9.7793944e-06
1.0202936e-05
1.0385343e-05
1.035373e-05
1.0239209e-05
1.0142502e-05
1.0103386e-05
1.0123356e-05
1.0197583e-05
1.0320318e-05
1.048696e-05
1.0693429e-05
1.0934286e-05
1.1202291e-05
1.1487614e-05
1.1777781e-05
1.2058141e-05
1.2312613e-05
1.2524288e-05
1.2676615e-05
1.2753441e-05
1.2750941e-05
1.2672084e-05
6.4101123e-06
6.8204522e-06
7.2529804e-06
7.6545528e-06
7.9563453e-06
8.1700755e-06
8.3548032e-06
8.5527683e-06
8.7689114e-06
9.0155749e-06
9.2889449e-06
9.5778985e-06
9.8728544e-06
1.0173639e-05
1.0477811e-05
1.0779438e-05
1.1069702e-05
1.133759e-05
1.1570545e-05
1.17547e-05
1.1874243e-05
1.1909135e-05
1.1829396e-05
1.1597813e-05
1.1215784e-05
5.123437e-06
5.4754804e-06
5.8200148e-06
6.1282687e-06
6.3816955e-06
6.5916667e-06
6.7878422e-06
6.9896811e-06
7.2055752e-06
7.439611e-06
7.6874706e-06
7.9428448e-06
8.2003727e-06
8.4556218e-06
8.7029121e-06
8.9350349e-06
9.1432718e-06
9.3178795e-06
9.4483758e-06
9.5228178e-06
9.524313e-06
9.4207738e-06
9.1367422e-06
8.4673065e-06
6.6909439e-06
4.3454148e-06
4.6188662e-06
4.8900048e-06
5.1363807e-06
5.3496883e-06
5.5359679e-06
5.7083956e-06
5.8779284e-06
6.0505281e-06
6.2276133e-06
6.4060315e-06
6.5809147e-06
6.7474999e-06
6.9008347e-06
7.0354638e-06
7.146043e-06
7.2263486e-06
7.2704888e-06
7.2729738e-06
7.2273823e-06
7.121667e-06
6.9266305e-06
6.5707766e-06
5.8819886e-06
4.3607675e-06
3.7312795e-06
3.9252525e-06
4.1228453e-06
4.3055435e-06
4.4662265e-06
4.6069039e-06
4.733748e-06
4.8525727e-06
4.9667434e-06
5.0766276e-06
5.1798107e-06
5.2723753e-06
5.3499643e-06
5.4080194e-06
5.4419916e-06
5.4478867e-06
5.4224821e-06
5.3640043e-06
5.2724137e-06
5.1483644e-06
4.9892439e-06
4.7801037e-06
4.4766143e-06
3.9713929e-06
2.9409644e-06
3.113947e-06
3.2384907e-06
3.3682205e-06
3.4886437e-06
3.5926589e-06
3.6793847e-06
3.7513999e-06
3.8118361e-06
3.8626681e-06
3.9040534e-06
3.9343781e-06
3.950837e-06
3.9500974e-06
3.92878e-06
3.883866e-06
3.8132094e-06
3.7160364e-06
3.5936046e-06
3.4495153e-06
3.2889297e-06
3.1154871e-06
2.924556e-06
2.6919538e-06
2.3566493e-06
1.7483311e-06
2.4217512e-06
2.4890577e-06
2.5605852e-06
2.6256985e-06
2.6779411e-06
2.7151692e-06
2.7380869e-06
2.7483707e-06
2.7473363e-06
2.7353052e-06
2.7115278e-06
2.6744669e-06
2.6222421e-06
2.5530924e-06
2.4658214e-06
2.3602455e-06
2.2376173e-06
2.1010164e-06
1.9553852e-06
1.8066884e-06
1.6594604e-06
1.5119873e-06
1.3488699e-06
1.1341287e-06
8.4561786e-07
1.685049e-06
1.7104351e-06
1.7383195e-06
1.761664e-06
1.7755376e-06
1.7777458e-06
1.7682438e-06
1.7480101e-06
1.7181225e-06
1.6792312e-06
1.6314329e-06
1.5744218e-06
1.5077737e-06
1.4312766e-06
1.3452401e-06
1.2507565e-06
1.1498817e-06
1.0456983e-06
9.421124e-07
8.4317313e-07
7.5171002e-07
6.6724266e-07
5.8375643e-07
4.910343e-07
3.9813731e-07
1.0191265e-06
1.0209948e-06
1.0240266e-06
1.0242594e-06
1.0186422e-06
1.0056641e-06
9.8519116e-07
9.5789528e-07
9.246745e-07
8.8629778e-07
8.4329802e-07
7.9602953e-07
7.4481441e-07
6.9010207e-07
6.3260459e-07
5.7338849e-07
5.138979e-07
4.5590333e-07
4.013365e-07
3.519758e-07
3.0898365e-07
2.7242e-07
2.4117005e-07
2.145523e-07
1.9791416e-07
5.3671088e-07
5.3098218e-07
5.2575127e-07
5.1917937e-07
5.0975608e-07
4.9671452e-07
4.8000996e-07
4.6006458e-07
4.3746709e-07
4.1277969e-07
3.8646273e-07
3.5888685e-07
3.3040429e-07
3.0139401e-07
2.7230591e-07
2.436843e-07
2.1616453e-07
1.9044221e-07
1.672036e-07
1.4702457e-07
1.3025965e-07
1.1699324e-07
1.0725662e-07
1.0193264e-07
1.052976e-07
2.5641973e-07
2.511899e-07
2.4620603e-07
2.4074789e-07
2.3419364e-07
2.262264e-07
2.168442e-07
2.0625695e-07
1.9475642e-07
1.826282e-07
1.7011648e-07
1.5741342e-07
1.447139e-07
1.3220432e-07
1.2007675e-07
1.0853653e-07
9.7793618e-08
8.8055805e-08
7.9521869e-08
7.2344742e-08
6.660473e-08
6.2296244e-08
5.9426842e-08
5.8215073e-08
5.9532023e-08
1.2052687e-07
1.1761951e-07
1.1483763e-07
1.1193563e-07
1.0869396e-07
1.0500275e-07
1.008705e-07
9.63848e-08
9.1662597e-08
8.6814849e-08
8.1936013e-08
7.7092123e-08
7.2361068e-08
6.7813001e-08
6.3513583e-08
5.9526305e-08
5.5912348e-08
5.2728807e-08
5.0023489e-08
4.7827543e-08
4.6149327e-08
4.4973408e-08
4.4253384e-08
4.3959824e-08
4.3985005e-08
6.3210827e-08
6.1997799e-08
6.0870886e-08
5.9753378e-08
5.8572178e-08
5.7288111e-08
5.5900217e-08
5.4434319e-08
5.2926341e-08
5.1411467e-08
4.9919984e-08
4.8476221e-08
4.7098719e-08
4.5809839e-08
4.4627352e-08
4.3566618e-08
4.2641652e-08
4.1865126e-08
4.1247424e-08
4.0794716e-08
4.0506481e-08
4.0373928e-08
4.0359107e-08
4.041349e-08
4.0409242e-08
4.1596486e-08
4.1284285e-08
4.1043481e-08
4.0849934e-08
4.0677061e-08
4.0506839e-08
4.0332521e-08
4.0155707e-08
3.9982025e-08
3.9817842e-08
3.9668757e-08
3.9539407e-08
3.9429682e-08
3.9343873e-08
3.9284548e-08
3.925362e-08
3.9253243e-08
3.9286433e-08
3.9357151e-08
3.9469477e-08
3.9625706e-08
3.9823995e-08
4.0038173e-08
4.0229428e-08
4.0304305e-08
3.4757186e-08
3.4845612e-08
3.4996403e-08
3.5199415e-08
3.54419e-08
3.5712335e-08
3.6002089e-08
3.6305212e-08
3.6617504e-08
3.6935633e-08
3.7256669e-08
3.757781e-08
3.7896022e-08
3.8207754e-08
3.8511737e-08
3.880694e-08
3.9093406e-08
3.9372997e-08
3.964966e-08
3.9928707e-08
4.0214761e-08
4.0508737e-08
4.0789294e-08
4.101951e-08
4.1108685e-08
3.3592886e-08
3.3831087e-08
3.4123913e-08
3.4464776e-08
3.4845139e-08
3.5256119e-08
3.5689403e-08
3.6137569e-08
3.6594051e-08
3.7052995e-08
3.7509129e-08
3.7957655e-08
3.839418e-08
3.8814894e-08
3.9216089e-08
3.959648e-08
3.9956093e-08
4.029711e-08
4.0624138e-08
4.0943391e-08
4.1260372e-08
4.1576291e-08
4.1870936e-08
4.2105911e-08
4.218893e-08
3.4457432e-08
3.4736936e-08
3.5064493e-08
3.5434652e-08
3.5840664e-08
3.6275217e-08
3.6730988e-08
3.7200948e-08
3.7678507e-08
3.8157547e-08
3.8632439e-08
3.9098038e-08
3.954973e-08
3.998364e-08
4.0395819e-08
4.0784819e-08
4.1150869e-08
4.1496536e-08
4.1826909e-08
4.2148673e-08
4.2467543e-08
4.278426e-08
4.3078688e-08
4.3310702e-08
4.3386656e-08
3.5996793e-08
3.6276648e-08
3.6599295e-08
3.6959953e-08
3.7352943e-08
3.7772088e-08
3.8211042e-08
3.8663521e-08
3.9123452e-08
3.958505e-08
4.0042874e-08
4.0491882e-08
4.092751e-08
4.1345824e-08
4.1743688e-08
4.2119004e-08
4.2472328e-08
4.2806566e-08
4.3127183e-08
4.3441181e-08
4.3754331e-08
4.4066819e-08
4.4358364e-08
4.4587133e-08
4.4655861e-08
3.7747867e-08
3.8014925e-08
3.8320666e-08
3.8660817e-08
3.9030456e-08
3.9424239e-08
3.9836605e-08
4.026195e-08
4.0694751e-08
4.1129644e-08
4.1561506e-08
4.1985523e-08
4.23973e-08
4.2793048e-08
4.3169913e-08
4.3525928e-08
4.3861777e-08
4.4180669e-08
4.4488425e-08
4.4792352e-08
4.5098281e-08
4.5405886e-08
4.5694667e-08
4.5921351e-08
4.598709e-08
3.9567112e-08
3.9818284e-08
4.010486e-08
4.0422978e-08
4.0768274e-08
4.1136015e-08
4.1521245e-08
4.1918906e-08
4.232395e-08
4.2731413e-08
4.3136491e-08
4.3534631e-08
4.3921649e-08
4.4293933e-08
4.4648763e-08
4.498478e-08
4.530251e-08
4.5605543e-08
4.5900085e-08
4.6193763e-08
4.6492483e-08
4.6795409e-08
4.7081619e-08
4.7306094e-08
4.7366984e-08
4.1415808e-08
4.1651145e-08
4.1919167e-08
4.2216352e-08
4.2538748e-08
4.2882093e-08
4.3241898e-08
4.3613545e-08
4.3992383e-08
4.43738e-08
4.47533e-08
4.512659e-08
4.5489716e-08
4.583927e-08
4.617275e-08
4.6489102e-08
4.6789086e-08
4.7076608e-08
4.7358254e-08
4.7641984e-08
4.793379e-08
4.8232334e-08
4.8516115e-08
4.8738083e-08
4.8793093e-08
4.3285898e-08
4.3506229e-08
4.3756899e-08
4.4034665e-08
4.4335916e-08
4.4656743e-08
4.4993041e-08
4.5340555e-08
4.5694974e-08
4.6051997e-08
4.6407414e-08
4.6757187e-08
4.7097593e-08
4.7425442e-08
4.7738457e-08
4.8035841e-08
4.8318701e-08
4.8591243e-08
4.886044e-08
4.9134588e-08
4.9419773e-08
4.9714198e-08
4.9995732e-08
5.0215213e-08
5.0264081e-08
4.5176601e-08
4.5382833e-08
4.5617312e-08
4.5877035e-08
4.615867e-08
4.6458613e-08
4.6773064e-08
4.7098086e-08
4.7429665e-08
4.7763783e-08
4.809649e-08
4.8423994e-08
4.8742801e-08
4.9049941e-08
4.9343355e-08
4.9622466e-08
4.988889e-08
5.0147003e-08
5.0404194e-08
5.06691e-08
5.0947903e-08
5.1238349e-08
5.151756e-08
5.1733887e-08
5.1772094e-08
4.708781e-08
4.7280761e-08
4.7500051e-08
4.774289e-08
4.8006182e-08
4.8286587e-08
4.8580575e-08
4.8884478e-08
4.9194555e-08
4.9507043e-08
4.9818239e-08
5.0124584e-08
5.0422806e-08
5.0710153e-08
5.0984793e-08
5.1246403e-08
5.149694e-08
5.1741139e-08
5.1986749e-08
5.2242737e-08
5.2515369e-08
5.2801944e-08
5.3078774e-08
5.3291825e-08
5.3320249e-08
4.9018538e-08
4.9198927e-08
4.9403887e-08
4.9630816e-08
4.9876834e-08
5.013883e-08
5.0413515e-08
5.0697469e-08
5.0987188e-08
5.1279154e-08
5.1569893e-08
5.1856068e-08
5.2134621e-08
5.2403015e-08
5.2659642e-08
5.2904432e-08
5.3139631e-08
5.3370442e-08
5.3604892e-08
5.385229e-08
5.411899e-08
5.4401859e-08
5.4676408e-08
5.4886395e-08
5.4907005e-08
5.0966702e-08
5.113517e-08
5.1326549e-08
5.1538412e-08
5.1768075e-08
5.2012637e-08
5.2269024e-08
5.2534041e-08
5.2804413e-08
5.3076839e-08
5.3348065e-08
5.3614967e-08
5.3874692e-08
5.4124913e-08
5.4364242e-08
5.4592861e-08
5.4813319e-08
5.5031195e-08
5.5254892e-08
5.5494035e-08
5.5755058e-08
5.6034393e-08
5.6306693e-08
5.6513498e-08
5.6524623e-08
5.2929199e-08
5.3086325e-08
5.3264793e-08
5.3462341e-08
5.3676465e-08
5.3904455e-08
5.4143439e-08
5.4390428e-08
5.4642357e-08
5.4896137e-08
5.5148715e-08
5.5397169e-08
5.5638849e-08
5.587163e-08
5.6094338e-08
5.6307404e-08
5.6513673e-08
5.6719082e-08
5.693243e-08
5.7163646e-08
5.7419229e-08
5.7695129e-08
5.7964935e-08
5.8167557e-08
5.8166952e-08
5.4901989e-08
5.5048304e-08
5.5214475e-08
5.5398392e-08
5.5597717e-08
5.5809918e-08
5.6032314e-08
5.6262107e-08
5.6496428e-08
5.6732384e-08
5.696712e-08
5.7197904e-08
5.7422279e-08
5.7638314e-08
5.7845048e-08
5.8043154e-08
5.8235765e-08
5.8429156e-08
5.8632565e-08
5.8856169e-08
5.9106526e-08
5.9379071e-08
5.9646222e-08
5.9844192e-08
5.983096e-08
5.6880154e-08
5.7016156e-08
5.7170601e-08
5.7341519e-08
5.752673e-08
5.7723872e-08
5.7930436e-08
5.8143807e-08
5.83613e-08
5.858021e-08
5.8797865e-08
5.9011718e-08
5.9219494e-08
5.9419453e-08
5.961084e-08
5.9794562e-08
5.9974038e-08
6.0155885e-08
6.0349719e-08
6.056601e-08
6.0811353e-08
6.1080672e-08
6.1345166e-08
6.1538109e-08
6.1510416e-08
5.8857933e-08
5.8984096e-08
5.9127352e-08
5.9285869e-08
5.9457613e-08
5.964038e-08
5.9831827e-08
6.002951e-08
6.0230918e-08
6.0433522e-08
6.0634826e-08
6.0832458e-08
6.1024319e-08
6.1208853e-08
6.1385501e-08
6.1555402e-08
6.1722256e-08
6.1893011e-08
6.2077641e-08
6.2286912e-08
6.2527447e-08
6.2793659e-08
6.305545e-08
6.324285e-08
6.3199166e-08
6.0828754e-08
6.0945528e-08
6.1078112e-08
6.1224798e-08
6.1383693e-08
6.1552741e-08
6.1729755e-08
6.1912452e-08
6.2098489e-08
6.2285501e-08
6.2471161e-08
6.2653263e-08
6.2829877e-08
6.2999621e-08
6.316213e-08
6.3318767e-08
6.3473504e-08
6.3633611e-08
6.3809403e-08
6.4011955e-08
6.4247886e-08
6.4511112e-08
6.4770244e-08
6.4952261e-08
6.4895205e-08
6.2785251e-08
6.2893074e-08
6.3015482e-08
6.3150889e-08
6.3297531e-08
6.3453494e-08
6.3616738e-08
6.3785134e-08
6.3956493e-08
6.4128611e-08
6.4299318e-08
6.4466568e-08
6.4628591e-08
6.4784173e-08
6.4933137e-08
6.5077062e-08
6.5220186e-08
6.5370095e-08
6.553744e-08
6.5733566e-08
6.596511e-08
6.6225507e-08
6.6482111e-08
6.6658862e-08
6.6588891e-08
6.4719299e-08
6.4818597e-08
6.4931315e-08
6.5055981e-08
6.5190953e-08
6.5334451e-08
6.5484575e-08
6.5639339e-08
6.5796703e-08
6.5954613e-08
6.6111049e-08
6.6264117e-08
6.64122e-08
6.6554246e-08
6.6690256e-08
6.6822021e-08
6.6954036e-08
6.7094198e-08
6.7253485e-08
6.7443498e-08
6.7670899e-08
6.7928661e-08
6.8183004e-08
6.8355303e-08
6.8272631e-08
6.6622052e-08
6.6713246e-08
6.6816753e-08
6.6931206e-08
6.7055084e-08
6.7186729e-08
6.7324373e-08
6.7466168e-08
6.7610214e-08
6.7754597e-08
6.7897442e-08
6.8036997e-08
6.8171792e-08
6.8300928e-08
6.8424577e-08
6.8544735e-08
6.8666149e-08
6.8797015e-08
6.8948628e-08
6.913284e-08
6.9356324e-08
6.9611579e-08
6.9863659e-08
7.0031354e-08
6.9935759e-08
6.8484005e-08
6.8567513e-08
6.8662283e-08
6.8767051e-08
6.8880406e-08
6.9000807e-08
6.9126612e-08
6.92561e-08
6.9387503e-08
6.9519043e-08
6.9648978e-08
6.9775692e-08
6.9897853e-08
7.001471e-08
7.0126597e-08
7.0235707e-08
7.0347028e-08
7.0469046e-08
7.0613367e-08
7.0792072e-08
7.1011836e-08
7.1264656e-08
7.1514338e-08
7.1676802e-08
7.1566176e-08
7.0295074e-08
7.0371315e-08
7.0457825e-08
7.0553437e-08
7.0656842e-08
7.0766611e-08
7.0881218e-08
7.0999065e-08
7.1118507e-08
7.1237892e-08
7.1355605e-08
7.1470159e-08
7.1580351e-08
7.1685569e-08
7.1786303e-08
7.1884931e-08
7.1986673e-08
7.2100294e-08
7.2237691e-08
7.2411165e-08
7.2627381e-08
7.2877803e-08
7.3124891e-08
7.3281283e-08
7.3152255e-08
7.2044723e-08
7.2114121e-08
7.2192852e-08
7.2279841e-08
7.2373876e-08
7.2473632e-08
7.2577693e-08
7.2684574e-08
7.2792747e-08
7.2900677e-08
7.300687e-08
7.3109956e-08
7.3208859e-08
7.3303093e-08
7.3393296e-08
7.3482022e-08
7.357471e-08
7.3680388e-08
7.3811232e-08
7.3979745e-08
7.419256e-08
7.4440614e-08
7.4685058e-08
7.4835374e-08
7.4687131e-08
7.3722158e-08
7.3785142e-08
7.3856585e-08
7.3935494e-08
7.4020751e-08
7.4111126e-08
7.4205306e-08
7.4301911e-08
7.4399523e-08
7.4496717e-08
7.4592109e-08
7.4684443e-08
7.4772754e-08
7.485668e-08
7.4936994e-08
7.5016417e-08
7.5100592e-08
7.5198794e-08
7.5323459e-08
7.5487277e-08
7.5696841e-08
7.5942586e-08
7.6184435e-08
7.6328924e-08
7.6161768e-08
7.5316635e-08
7.5373648e-08
7.5438307e-08
7.5509697e-08
7.5586785e-08
7.5668431e-08
7.5753417e-08
7.5840461e-08
7.5928246e-08
7.6015447e-08
7.6100785e-08
7.6183106e-08
7.6261553e-08
7.6335874e-08
7.640697e-08
7.6477712e-08
7.6553935e-08
7.6645142e-08
7.6764007e-08
7.6923391e-08
7.7129839e-08
7.7373309e-08
7.7612537e-08
7.7751319e-08
7.7568661e-08
7.6817987e-08
7.6869489e-08
7.6927889e-08
7.6992344e-08
7.7061899e-08
7.7135498e-08
7.7212009e-08
7.7290239e-08
7.7368964e-08
7.7446954e-08
7.7523022e-08
7.759611e-08
7.7665457e-08
7.7730913e-08
7.7793494e-08
7.7856211e-08
7.7925066e-08
7.8009768e-08
7.8123201e-08
7.8278368e-08
7.8481756e-08
7.8722862e-08
7.8959298e-08
7.9092396e-08
7.8895279e-08
7.8217397e-08
7.8263874e-08
7.831657e-08
7.8374708e-08
7.8437405e-08
7.850368e-08
7.8572477e-08
7.8642688e-08
7.8713171e-08
7.878278e-08
7.8850413e-08
7.8915098e-08
7.8976159e-08
7.9033539e-08
7.9088355e-08
7.9143735e-08
7.920583e-08
7.9284517e-08
7.9392846e-08
7.954392e-08
7.9744135e-08
7.9982532e-08
8.0215663e-08
8.0342527e-08
8.0130477e-08
7.9508352e-08
7.9550324e-08
7.959791e-08
7.9650394e-08
7.9706956e-08
7.9766682e-08
7.9828587e-08
7.9891634e-08
7.9954753e-08
8.0016875e-08
8.0076974e-08
8.013415e-08
8.0187805e-08
8.0237957e-08
8.0285809e-08
8.0334586e-08
8.0390549e-08
8.0463694e-08
8.0567173e-08
8.0714116e-08
8.0910772e-08
8.1145736e-08
8.1374603e-08
8.1494348e-08
8.1267133e-08
8.0687305e-08
8.072533e-08
8.0768445e-08
8.0815989e-08
8.0867197e-08
8.0921213e-08
8.0977112e-08
8.1033918e-08
8.1090626e-08
8.114623e-08
8.1199767e-08
8.1250403e-08
8.1297599e-08
8.1341439e-08
8.1383187e-08
8.1426134e-08
8.1476607e-08
8.154465e-08
8.1643418e-08
8.1785952e-08
8.1978261e-08
8.220847e-08
8.2431388e-08
8.2542559e-08
8.2300407e-08
8.1752979e-08
8.1787654e-08
8.1826981e-08
8.1870346e-08
8.1917034e-08
8.1966237e-08
8.2017079e-08
8.2068636e-08
8.2119952e-08
8.2170075e-08
8.2218092e-08
8.226322e-08
8.2304971e-08
8.2343471e-08
8.2380024e-08
8.2417952e-08
8.246358e-08
8.2526905e-08
8.2620944e-08
8.2758477e-08
8.294511e-08
8.3168431e-08
8.3382559e-08
8.3481805e-08
8.3220194e-08
8.2702727e-08
8.2734677e-08
8.2770927e-08
8.2810905e-08
8.2853939e-08
8.2899259e-08
8.294603e-08
8.2993365e-08
8.3040348e-08
8.3086062e-08
8.3129636e-08
8.3170326e-08
8.3207676e-08
8.324184e-08
8.3274137e-08
8.3307864e-08
8.3349277e-08
8.3408196e-08
8.3497317e-08
8.3628913e-08
8.3807937e-08
8.4021313e-08
8.4222704e-08
8.4306317e-08
8.402603e-08
8.3524183e-08
8.3554038e-08
8.3587928e-08
8.3625305e-08
8.3665535e-08
8.3707887e-08
8.3751553e-08
8.3795675e-08
8.3839356e-08
8.3881702e-08
8.3921881e-08
8.3959176e-08
8.3993149e-08
8.4023968e-08
8.4052936e-08
8.4083265e-08
8.4121047e-08
8.417579e-08
8.4259658e-08
8.4384106e-08
8.4553084e-08
8.4752604e-08
8.4936201e-08
8.4999411e-08
8.4701178e-08
8.4179819e-08
8.4208197e-08
8.4240446e-08
8.4275968e-08
8.4314178e-08
8.4354394e-08
8.4395836e-08
8.4437655e-08
8.4478955e-08
8.4518854e-08
8.4556574e-08
8.4591418e-08
8.4622959e-08
8.465137e-08
8.4677914e-08
8.4705602e-08
8.4740272e-08
8.4790978e-08
8.4869171e-08
8.498519e-08
8.5141549e-08
8.5323087e-08
8.5483284e-08
8.5520494e-08
8.5204339e-08
8.4578254e-08
8.4605758e-08
8.4637124e-08
8.4671471e-08
8.4708314e-08
8.4747066e-08
8.4786985e-08
8.4827217e-08
8.486684e-08
8.4904988e-08
8.4940975e-08
8.4974133e-08
8.500404e-08
8.5030902e-08
8.5055913e-08
8.5081662e-08
8.5113624e-08
8.5160278e-08
8.5232228e-08
8.5338866e-08
8.5480699e-08
8.5641065e-08
8.5773612e-08
8.5782165e-08
8.5462746e-08
8.4479194e-08
8.4506411e-08
8.4537756e-08
8.4571509e-08
8.4607389e-08
8.4645051e-08
8.4683824e-08
8.472284e-08
8.4761128e-08
8.4797853e-08
8.4832495e-08
8.4864432e-08
8.489327e-08
8.4919322e-08
8.4943688e-08
8.4968118e-08
8.4997558e-08
8.5039599e-08
8.5103256e-08
8.5200115e-08
8.532733e-08
8.5466248e-08
8.5571364e-08
8.5555181e-08
8.5252112e-08
)
;

boundaryField
{
    Walls
    {
        type            nutUWallFunction;
        Cmu             0.09;
        kappa           0.41;
        E               9.8;
        value           uniform 0;
    }
    Inlet
    {
        type            calculated;
        value           nonuniform List<scalar> 3(5.7646497e-05 1.9758522e-05 7.8929255e-07);
    }
    Outlet
    {
        type            calculated;
        value           nonuniform List<scalar> 
86
(
0
0
0
0
0
0
0
0
0
0
0
0
0
0
0
0
0
0
0
0
0
0
0
0
0
0
0
0
0
0
1.2301892e-05
1.2672084e-05
1.1215784e-05
0
0
0
0
8.4561786e-07
3.9813731e-07
0
0
0
0
0
0
4.1108685e-08
4.218893e-08
4.3386656e-08
4.4655861e-08
4.598709e-08
4.7366984e-08
4.8793093e-08
5.0264081e-08
5.1772094e-08
5.3320249e-08
5.4907005e-08
5.6524623e-08
5.8166952e-08
0
0
0
0
0
0
0
0
0
0
0
0
0
0
0
0
0
0
0
0
0
0
0
0
0
0
1.106398e-05
1.2692366e-05
)
;
    }
    Front
    {
        type            wedge;
    }
    Back
    {
        type            wedge;
    }
    defaultFaces
    {
        type            empty;
    }
}


// ************************************************************************* //
