/*--------------------------------*- C++ -*----------------------------------*\
| =========                 |                                                 |
| \\      /  F ield         | OpenFOAM: The Open Source CFD Toolbox           |
|  \\    /   O peration     | Version:  4.0                                   |
|   \\  /    A nd           | Web:      www.OpenFOAM.org                      |
|    \\/     M anipulation  |                                                 |
\*---------------------------------------------------------------------------*/
FoamFile
{
    version     2.0;
    format      ascii;
    class       volScalarField;
    location    "0.15";
    object      omega;
}
// * * * * * * * * * * * * * * * * * * * * * * * * * * * * * * * * * * * * * //

dimensions      [0 0 -1 0 0 0 0];

internalField   nonuniform List<scalar> 
1740
(
64.671552
700.71022
14918.412
181.68602
1495.2467
15028.442
309.70586
2029.5547
15114.509
406.87151
2288.2101
15197.944
509.08378
2529.9461
15269.901
625.18304
2812.6329
15320.27
726.13506
3039.9052
15368.58
819.94689
3164.5424
15406.47
933.43435
3314.9726
15446.394
1065.1001
3530.7124
15476.76
1164.3969
3640.5048
15491.253
1249.7164
3704.6992
15513.004
1348.962
3811.0643
15528.752
1438.1733
3903.6124
15534.774
1501.2961
3983.7117
15539.671
1530.5253
4011.42
15546.852
1581.6212
4013.5745
15556.816
1667.3326
4011.508
15559.101
1699.9233
4020.1905
15564.116
1735.4108
4044.9774
15567.796
1771.8369
4075.1142
15563.978
1800.1497
4105.672
15567.107
1817.6694
4130.1043
15572.99
1864.2607
4117.5563
15575.461
1903.7422
4129.6242
15572.791
1927.6843
4155.6415
15568.792
1953.0325
4197.8806
15568.141
1994.1155
4245.6217
15563.158
2017.4156
4245.3541
15554.677
2142.951
4321.2324
15496.975
3201.8119
4586.92
10700.043
3330.0565
4232.2074
5905.6655
1573.234
1859.8652
2151.2223
826.58755
901.90158
959.04742
481.09066
499.56845
509.5823
303.78127
307.64474
307.85436
205.92233
206.31304
204.9904
149.42678
149.15565
148.01058
116.49127
116.21206
115.47268
98.067602
97.893567
97.486966
88.708141
88.628506
88.445422
84.60169
84.585113
84.534503
83.13377
83.142362
83.137085
82.202132
82.209432
82.209377
81.365768
81.379362
81.387489
80.592634
80.609097
80.621145
79.935069
79.948834
79.958986
79.424848
79.433965
79.439964
79.047573
79.05273
79.055063
78.768689
78.771173
78.77104
78.555346
78.556198
78.554607
78.383513
78.383416
78.381038
78.237491
78.23686
78.234101
78.107511
78.106593
78.103691
77.987603
77.986544
77.983637
77.874132
77.873018
77.870185
77.76489
77.763772
77.761058
77.658554
77.657463
77.654892
77.554359
77.553313
77.550896
77.451904
77.450914
77.448656
77.351035
77.350105
77.348005
77.251764
77.250897
77.248952
77.154223
77.153419
77.151625
77.058625
77.057883
77.056233
76.965214
76.964532
76.963021
76.874178
76.873554
76.872174
76.785424
76.784855
76.783599
76.698021
76.697504
76.696365
76.608818
76.608351
76.607321
76.509251
76.50883
76.507903
76.378391
76.378014
76.377185
76.168943
76.168608
76.167874
75.781189
75.780898
75.78026
75.018828
75.01859
75.018069
73.522108
73.521951
73.521605
70.68183
70.681819
70.681788
65.561234
65.561481
65.562014
56.905569
56.906182
56.907537
43.39615
43.397066
43.399131
24.283378
24.284164
24.285965
13478.413
13533.476
5976.7146
5319.3665
2081.5091
1880.1614
922.26307
853.7834
492.33616
464.94781
299.58372
287.58433
200.78668
195.14981
145.77257
142.95557
114.27318
112.81809
96.872983
96.134289
88.168763
87.825304
84.44278
84.311367
83.103966
83.037384
82.188747
82.140298
81.375845
81.338501
80.614768
80.585803
79.954222
79.931779
79.435027
79.417408
79.04963
79.035393
78.765301
78.753375
78.548802
78.538476
78.375338
78.366168
78.228608
78.220324
78.098461
78.090898
77.978698
77.971747
77.865546
77.859137
77.75672
77.7508
77.650848
77.645377
77.547137
77.542084
77.445172
77.440507
77.344784
77.340485
77.245982
77.242027
77.148893
77.145262
77.053728
77.050401
76.960729
76.957689
76.870083
76.867313
76.781698
76.779181
76.694642
76.692362
76.605766
76.603707
76.506504
76.504653
76.375934
76.374281
76.166766
76.165305
75.7793
75.778038
75.017282
75.016253
73.521073
73.520377
70.681713
70.681596
65.562771
65.563717
56.909562
56.91219
43.402335
43.40671
24.288857
24.29311
12058.199
2044.5382
696.69426
367.38075
277.45231
251.55053
242.8107
238.04626
233.77879
229.19503
224.17477
218.74035
212.91048
206.67062
199.99523
192.86933
185.28212
177.20486
168.54962
159.09152
148.33017
135.27005
118.10912
93.795375
56.14126
12058.133
2037.9227
697.76416
373.8303
281.42764
252.08431
239.88229
231.80864
224.71996
217.79913
210.8663
203.90919
196.93665
189.92068
182.82956
175.65299
168.38111
160.97829
153.34885
145.28018
136.3344
125.65804
111.6097
90.91805
56.034482
12058.18
2030.1145
718.27913
430.44289
359.17943
332.04482
314.57645
299.86603
286.33445
273.40241
260.95854
249.02158
237.62307
226.66444
216.05861
205.7948
195.8659
186.2361
176.81944
167.44292
157.76176
147.09848
134.02984
115.22258
81.326022
12058.529
2031.2342
817.44979
609.20223
550.5996
513.55512
480.63431
450.15481
422.24865
396.03263
371.41995
348.44911
327.276
307.54472
288.97813
271.56749
255.29585
240.11086
225.92646
212.60989
199.94898
187.58148
174.77393
159.59573
134.27388
12061.54
2150.8439
1232.5309
1078.8195
990.32748
907.77207
829.48193
758.14009
694.46294
635.73879
581.71047
532.29856
488.34221
448.63504
412.16805
378.99346
348.98759
321.95394
297.66885
275.88729
256.34005
238.74793
222.84788
208.66399
197.35259
12087.242
3817.3641
2805.9604
2402.3669
2094.5922
1826.268
1591.3421
1388.5195
1213.0159
1061.5457
931.09076
818.8337
722.31646
639.16018
567.33053
505.33823
451.9043
405.89707
366.31616
332.27977
303.00888
277.83665
256.23671
238.21571
225.05129
10354.517
7894.5932
6091.2844
4784.127
3816.3088
3082.2476
2513.6929
2066.8652
1712.3562
1428.9999
1200.9757
1016.3764
866.2101
743.54195
642.88649
559.90304
491.17225
434.00228
386.26398
346.25761
312.61152
284.22849
260.27205
240.51091
226.21983
4081.5747
3301.2079
2839.9051
2465.8095
2147.4593
1867.5526
1623.3862
1412.252
1231.2207
1076.0847
943.06167
828.77079
730.24601
645.30148
572.10207
509.06456
454.81606
408.16527
368.07459
333.63601
304.04991
278.63317
256.84151
238.66732
225.37942
1593.4287
1399.4848
1269.7831
1161.8924
1060.031
963.03526
874.45312
795.78078
724.15055
659.29032
601.23886
550.01365
503.20229
460.52806
421.85559
386.96998
355.61505
327.51657
302.39096
279.94323
259.86932
241.86803
225.66138
211.26321
199.79694
771.53788
708.6147
662.68364
622.36732
582.26249
542.35351
504.98587
470.67274
438.90273
409.64597
382.93787
358.5578
335.83458
314.62031
294.8694
276.53439
259.5472
243.81562
229.21857
215.5943
202.71348
190.21267
177.3847
162.37896
137.62977
435.53958
411.95773
393.45454
376.45173
358.92797
340.85423
323.21614
306.47754
290.68481
275.88202
262.07971
249.16645
236.92948
225.28747
214.21561
203.7099
193.71865
184.16471
174.92326
165.7857
156.38702
146.04324
133.34138
114.96889
81.604561
275.23978
264.91375
256.38659
248.37921
240.03012
231.26504
222.44375
213.83552
205.5488
197.63501
190.10211
182.90183
175.95319
169.20918
162.64771
156.25685
149.99909
143.79819
137.51149
130.87956
123.43496
114.3297
101.98098
83.266127
51.293122
189.4333
184.45655
180.1582
176.04529
171.73657
167.15825
162.44223
157.72886
153.10225
148.60512
144.24758
140.01074
135.86039
131.77038
127.72389
123.70429
119.67619
115.56584
111.22812
106.3927
100.58056
92.976934
82.213656
65.83897
38.191131
140.10656
137.53746
135.22566
132.97058
130.59885
128.06158
125.40609
122.70255
120.00489
117.34501
114.73505
112.17108
109.64068
107.13196
104.6352
102.13678
99.605498
96.971399
94.091787
90.702307
86.36068
80.416858
72.10563
61.042963
49.203983
111.33142
109.93951
108.63498
107.33607
105.96702
104.50185
102.95949
101.37611
99.785441
98.211201
96.666117
95.153828
93.672301
92.217583
90.783699
89.35701
87.903443
86.346343
84.531825
82.182817
78.857842
73.967111
66.97588
58.074985
49.803948
95.359259
94.59763
93.848792
93.082774
92.271051
91.405088
90.49638
89.566619
88.638175
87.728945
86.850665
86.009018
85.204264
84.433096
83.68745
82.948446
82.173138
81.270868
80.06555
78.243762
75.30069
70.524569
63.113846
52.58622
38.228494
87.443225
87.037056
86.606618
86.143807
85.642232
85.103738
84.538758
83.963101
83.393829
82.845935
82.330466
81.854105
81.415649
81.009288
80.62338
80.234013
79.790867
79.190353
78.233096
76.561411
73.579917
68.381205
59.703462
45.933968
24.89188
84.141076
83.927956
83.669391
83.365117
83.0179
82.634087
82.223807
81.800794
81.381197
80.980755
80.611727
80.286587
80.000874
79.7451
79.503254
79.245681
78.919154
78.417887
77.525225
75.847176
72.719461
67.125793
57.6177
42.424069
20.038311
82.932907
82.78631
82.59577
82.36145
82.085273
81.7706
81.423119
81.05295
80.67514
80.30831
79.968451
79.677661
79.431965
79.221418
79.029385
78.825782
78.551768
78.089877
77.215034
75.519885
72.317478
66.54999
56.801589
41.490969
19.77269
82.058231
81.937239
81.774542
81.569605
81.324023
81.042141
80.732357
80.40801
80.08618
79.783812
79.513231
79.281005
79.090943
78.929925
78.780712
78.613002
78.367279
77.925341
77.060827
75.365298
72.155974
66.398015
56.757294
41.856845
21.134626
81.270039
81.164513
81.019786
80.836894
80.619975
80.376596
80.117728
79.856649
79.606628
79.37819
79.177193
79.004038
78.861874
78.739368
78.620563
78.47645
78.248803
77.820804
76.968187
75.287384
72.108753
66.431408
56.99423
42.559748
22.672376
80.52991
80.441601
80.320352
80.169197
79.994069
79.80321
79.606255
79.412875
79.231276
79.067043
78.922695
78.797865
78.690072
78.594792
78.49715
78.369371
78.154605
77.737774
76.897418
75.235428
72.093431
66.492853
57.204276
43.01205
23.405176
79.888584
79.820525
79.728055
79.61459
79.48553
79.347409
79.207007
79.070456
78.942527
78.82623
78.722761
78.631606
78.550438
78.473752
78.390921
78.274801
78.069562
77.661532
76.831473
75.185079
72.070314
66.51781
57.303314
43.199218
23.655237
79.385131
79.335493
79.269128
79.188714
79.098138
79.001812
78.904072
78.808675
78.718469
78.635251
78.559742
78.491534
78.428647
78.365967
78.29381
78.186169
77.98799
77.586546
76.764012
75.128225
72.029961
66.502224
57.318394
43.256373
23.864608
79.01116
78.975269
78.92822
78.871802
78.808522
78.741161
78.672409
78.604594
78.539509
78.478338
78.4216
78.369002
78.318896
78.266806
78.20208
78.100621
77.907658
77.511011
76.693705
75.064828
71.976572
66.462322
57.290686
43.238859
23.873957
78.734576
78.707911
78.673726
78.633148
78.587736
78.539217
78.489271
78.439382
78.390735
78.34416
78.300049
78.258157
78.216998
78.172319
78.113478
78.016682
77.827637
77.434554
76.621072
74.997281
71.916736
66.414105
57.257667
43.235104
24.023958
78.52325
78.502544
78.476598
78.446126
78.412108
78.375634
78.337783
78.299539
78.261718
78.224921
78.18944
78.155026
78.120267
78.081034
78.026904
77.933527
77.747496
77.357218
76.546864
74.927508
71.854167
66.363353
57.226207
43.251424
24.147534
78.353331
78.3365
78.315854
78.291864
78.265169
78.236486
78.20654
78.176007
78.145475
78.115387
78.085952
78.056896
78.026823
77.991654
77.941017
77.850525
77.666964
77.279055
76.471524
74.856448
71.790282
66.31099
57.190554
43.254461
24.283626
78.209159
78.19494
78.177811
78.158103
78.136258
78.112772
78.088154
78.062893
78.037427
78.012091
77.987026
77.961924
77.935385
77.903341
77.855449
77.767357
77.58587
77.200053
76.395202
74.78444
71.725798
66.25893
57.156715
43.257117
24.462742
78.080972
78.068605
78.053922
78.037172
78.018678
77.998803
77.977925
77.956412
77.934602
77.912755
77.890959
77.868874
77.845083
77.815521
77.769868
77.683866
77.504092
77.120146
76.317837
74.711355
71.660442
66.206642
57.122286
43.239367
24.418335
77.962795
77.951817
77.938929
77.924328
77.908265
77.891018
77.872883
77.85415
77.835088
77.815904
77.796641
77.776933
77.755345
77.727805
77.684
77.5997
77.42151
77.039251
76.239281
74.636819
71.593317
66.152251
57.085043
43.217127
24.396678
77.850988
77.841109
77.829609
77.816651
77.802439
77.787198
77.771168
77.754586
77.737674
77.720597
77.703368
77.685594
77.665824
77.639973
77.597731
77.514889
77.338144
76.957342
76.159451
74.560619
71.524046
66.095681
57.047293
43.194978
24.448482
77.74334
77.734372
77.723997
77.712356
77.699619
77.685978
77.671632
77.656782
77.641615
77.626266
77.610723
77.594569
77.576337
77.55193
77.511032
77.429448
77.253927
76.87445
76.078394
74.482797
71.452643
66.037111
57.012047
43.19225
24.451928
77.638527
77.630342
77.620915
77.610371
77.598859
77.586543
77.573596
77.56019
77.546488
77.532601
77.518493
77.503731
77.486831
77.463683
77.423959
77.343471
77.169011
76.790697
75.996239
74.403489
71.379067
65.975253
56.97188
43.181754
24.449734
77.535785
77.52829
77.519687
77.51009
77.499628
77.488446
77.476696
77.464532
77.452094
77.439473
77.426618
77.413079
77.397354
77.375318
77.336632
77.257103
77.08356
76.706254
75.913124
74.322757
71.303012
65.908404
56.921893
43.157318
24.340988
77.434713
77.42784
77.419972
77.411209
77.401671
77.391485
77.380787
77.369714
77.358391
77.346893
77.335153
77.322704
77.308032
77.286992
77.249229
77.170538
76.997763
76.621255
75.829204
74.24076
71.224771
65.837484
56.864548
43.12087
24.318422
77.335158
77.328854
77.32165
77.313639
77.304928
77.295633
77.285877
77.275783
77.26546
77.254972
77.244238
77.232777
77.219058
77.198919
77.161981
77.084016
76.911866
76.53595
75.744682
74.157701
71.144704
65.763068
56.798499
43.055968
24.217414
77.237134
77.231354
77.224759
77.217434
77.209476
77.20099
77.192089
77.182883
77.17347
77.163903
77.154086
77.143529
77.130682
77.111363
77.075164
76.997823
76.826158
76.450615
75.659804
74.073792
71.063161
65.686272
56.728661
42.995889
24.222875
77.140775
77.135482
77.12945
77.122756
77.115489
77.107746
77.099628
77.091236
77.08266
77.073938
77.064967
77.055241
77.043197
77.02463
76.989096
76.912288
76.740972
76.365583
75.574862
73.989331
70.980522
65.607845
56.654965
42.918255
24.228283
77.046295
77.041457
77.035946
77.029837
77.023209
77.016151
77.008756
77.001117
76.993313
76.985373
76.977184
76.968229
76.956928
76.939052
76.904121
76.827768
76.656686
76.281261
75.490322
73.904867
70.897667
65.530322
56.588063
42.863814
24.185069
76.95394
76.949526
76.944502
76.938935
76.9329
76.926478
76.919755
76.912813
76.905725
76.898511
76.891048
76.882808
76.872197
76.854961
76.820579
76.74462
76.573686
76.198085
75.406701
73.821015
70.815262
65.454102
56.526869
42.827896
24.17613
76.863898
76.85988
76.85531
76.850249
76.844766
76.838935
76.832834
76.826541
76.820118
76.813579
76.806792
76.799218
76.789249
76.772606
76.738729
76.663116
76.492273
76.116408
75.324427
73.738264
70.733638
65.378587
56.467758
42.799155
24.180636
76.776079
76.772431
76.768284
76.763694
76.758724
76.753443
76.747922
76.742231
76.736427
76.730515
76.724357
76.717403
76.708031
76.69194
76.658528
76.583226
76.412438
76.036261
75.243598
73.656781
70.652895
65.303019
56.404812
42.748279
24.116285
76.689553
76.68625
76.682498
76.678347
76.673855
76.669084
76.664102
76.658972
76.653743
76.648415
76.642841
76.636464
76.627647
76.612067
76.579085
76.504065
76.333307
75.956796
75.163402
73.575781
70.572223
65.226593
56.339231
42.686063
23.98995
76.601172
76.598192
76.594808
76.591067
76.587021
76.582728
76.578248
76.573639
76.568945
76.56416
76.559129
76.553286
76.544983
76.529877
76.497291
76.422524
76.251782
75.874932
75.080802
73.492306
70.48882
65.147019
56.27163
42.628328
23.840702
76.502375
76.4997
76.496664
76.493309
76.489683
76.485839
76.481831
76.477712
76.47352
76.469242
76.464716
76.459369
76.451541
76.436869
76.404643
76.330105
76.159369
75.782204
74.987407
73.398166
70.394935
65.057171
56.194151
42.569685
23.779364
76.372248
76.369864
76.367164
76.364184
76.360967
76.35756
76.35401
76.350365
76.346655
76.342861
76.338814
76.333931
76.32654
76.312263
76.280359
76.206019
76.035288
75.657866
74.862586
73.273026
70.270916
64.938822
56.091529
42.496629
23.739475
76.163514
76.161424
76.159066
76.156477
76.153689
76.150742
76.147674
76.144524
76.141314
76.138013
76.134444
76.13001
76.123031
76.109109
76.077479
76.003299
75.832573
75.455
74.659591
73.070582
70.07145
64.748553
55.923165
42.36888
23.666568
75.776503
75.774732
75.772764
75.770633
75.768363
75.765976
75.763497
75.760949
75.758339
75.755618
75.752587
75.748635
75.742066
75.728467
75.69706
75.622992
75.452291
75.074796
74.279992
72.693415
69.701514
64.396536
55.60921
42.121739
23.512142
75.015021
75.013643
75.01218
75.010673
75.009135
75.007559
75.005941
75.004279
75.002546
75.00065
74.998355
74.995021
74.988928
74.975654
74.944427
74.870451
74.699912
74.323088
73.5306
71.950649
68.975343
63.707698
54.99674
41.650048
23.254108
73.519569
73.518741
73.518007
73.517442
73.51705
73.516779
73.516576
73.516391
73.516123
73.515585
73.514468
73.51208
73.506671
73.493818
73.46282
73.389073
73.219239
72.844707
72.058633
70.494724
67.556144
62.365873
53.804013
40.713406
22.680408
70.681486
70.681513
70.681906
70.682787
70.684186
70.686006
70.688124
70.690399
70.692574
70.69427
70.695083
70.694237
70.689941
70.67783
70.647414
70.574542
70.407048
70.03887
69.268629
67.741054
64.880517
59.84723
51.578528
38.989952
21.710292
65.564845
65.566339
65.568633
65.571642
65.575569
65.580371
65.585857
65.591728
65.597398
65.60218
65.605712
65.607138
65.60463
65.594057
65.56544
65.495344
65.334148
64.981277
64.24671
62.796349
60.093296
55.363862
47.645276
35.983406
20.09419
56.915393
56.919682
56.925863
56.931949
56.938781
56.946858
56.956044
56.965762
56.974826
56.982246
56.988321
56.99226
56.992282
56.985011
56.961525
56.8986
56.751483
56.430473
55.768088
54.469675
52.06407
47.885712
41.128283
31.032534
17.427225
43.412642
43.422131
43.436763
43.447315
43.456336
43.466202
43.477229
43.488497
43.498076
43.505018
43.5113
43.516563
43.51943
43.518436
43.506563
43.458664
43.338045
43.073509
42.535389
41.507518
39.618202
36.363478
31.158058
23.509616
13.445737
24.300009
24.313824
24.33694
24.350349
24.358492
24.366116
24.374282
24.382123
24.387723
24.390643
24.393957
24.3979
24.402069
24.40753
24.410268
24.385747
24.309905
24.135556
23.770687
23.167576
22.081556
20.225997
17.291697
13.065001
7.6772045
)
;

boundaryField
{
    Walls
    {
        Cmu             0.09;
        kappa           0.41;
        E               9.8;
        beta1           0.075;
        type            omegaWallFunction;
        value           nonuniform List<scalar> 
38
(
12058.199
12058.133
12058.18
12058.529
12061.54
12087.242
13478.413
13533.476
14918.412
15028.442
15114.509
15197.944
15269.901
15320.27
15368.58
15406.47
15446.394
15476.76
15491.253
15513.004
15528.752
15534.774
15539.671
15546.852
15556.816
15559.101
15564.116
15567.796
15563.978
15567.107
15572.99
15575.461
15572.791
15568.792
15568.141
15563.158
15554.677
15496.975
)
;
    }
    Inlet
    {
        type            turbulentMixingLengthDissipationRateInlet;
        mixingLength    0.03;
        phi             phi;
        k               k;
        value           nonuniform List<scalar> 3(0.0038856603 0.0041958171 0.0051751162);
    }
    Outlet
    {
        type            inletOutlet;
        inletValue      uniform 1e-05;
        value           nonuniform List<scalar> 
86
(
1e-05
1e-05
1e-05
1e-05
1e-05
1e-05
1e-05
1e-05
1e-05
1e-05
1e-05
1e-05
1e-05
1e-05
1e-05
1e-05
1e-05
1e-05
1e-05
1e-05
1e-05
1e-05
1e-05
1e-05
1e-05
1e-05
1e-05
1e-05
1e-05
1e-05
226.21983
225.37942
199.79694
1e-05
1e-05
1e-05
1e-05
49.203983
49.803948
1e-05
1e-05
1e-05
1e-05
1e-05
1e-05
23.405176
23.655237
23.864608
23.873957
24.023958
24.147534
24.283626
24.462742
24.418335
24.396678
24.448482
24.451928
24.449734
1e-05
1e-05
1e-05
1e-05
1e-05
1e-05
1e-05
1e-05
1e-05
1e-05
1e-05
1e-05
1e-05
1e-05
1e-05
1e-05
1e-05
1e-05
1e-05
1e-05
1e-05
1e-05
1e-05
1e-05
1e-05
1e-05
197.35259
225.05129
)
;
    }
    Front
    {
        type            wedge;
    }
    Back
    {
        type            wedge;
    }
    defaultFaces
    {
        type            empty;
    }
}


// ************************************************************************* //
