/*--------------------------------*- C++ -*----------------------------------*\
| =========                 |                                                 |
| \\      /  F ield         | OpenFOAM: The Open Source CFD Toolbox           |
|  \\    /   O peration     | Version:  4.0                                   |
|   \\  /    A nd           | Web:      www.OpenFOAM.org                      |
|    \\/     M anipulation  |                                                 |
\*---------------------------------------------------------------------------*/
FoamFile
{
    version     2.0;
    format      ascii;
    class       volScalarField;
    location    "0.15";
    object      p;
}
// * * * * * * * * * * * * * * * * * * * * * * * * * * * * * * * * * * * * * //

dimensions      [0 2 -2 0 0 0 0];

internalField   nonuniform List<scalar> 
1740
(
491.6845
491.76532
491.72009
475.02082
475.16052
475.18123
458.44468
458.44716
458.60452
441.69557
441.78792
441.7907
424.7989
424.9082
424.80839
408.18979
408.14502
408.13135
391.57706
391.52353
391.52418
374.74573
374.63137
374.75853
357.75843
357.71212
357.83508
340.70543
340.73759
340.67165
323.96501
323.82859
323.83327
307.45273
307.1593
307.11253
291.0384
290.8158
290.53083
274.80438
274.98894
274.87027
258.71876
259.03222
259.24485
242.57861
242.57611
242.89507
226.08108
226.06076
226.17659
209.56344
209.57233
209.4573
193.06205
192.92849
192.72052
176.16291
176.01191
175.85104
159.13996
159.21674
159.28119
142.64971
142.89547
143.08037
126.67908
126.70084
126.74096
110.57329
110.47654
110.18058
94.295101
94.299596
94.025338
78.049982
78.099178
78.434756
61.980926
62.107278
62.693274
46.217242
46.305997
46.613561
30.841065
30.745995
30.654151
16.148203
15.917725
15.22715
3.9951076
3.4415933
1.3527963
-0.66604952
-0.6175614
-0.53129565
-0.19879649
-0.20136269
-0.21077965
-0.075484904
-0.081170322
-0.092112679
-0.061069042
-0.062944169
-0.065257668
-0.054613857
-0.054628355
-0.053889962
-0.04879308
-0.048454803
-0.047253614
-0.043615824
-0.043167412
-0.041984415
-0.038760017
-0.038305094
-0.037221771
-0.034226005
-0.033817001
-0.032885842
-0.03030036
-0.029950436
-0.029164672
-0.02707003
-0.026779683
-0.026131741
-0.024431303
-0.024191303
-0.023663619
-0.022259539
-0.022058307
-0.021617864
-0.020420504
-0.020249482
-0.019877605
-0.018825492
-0.01868063
-0.018366506
-0.01742701
-0.017304456
-0.017038318
-0.016191782
-0.016087243
-0.015859978
-0.015090578
-0.015000585
-0.014804798
-0.014098729
-0.014020605
-0.013850533
-0.013195744
-0.013127419
-0.01297858
-0.01236498
-0.01230485
-0.012173747
-0.011593479
-0.011540224
-0.011424073
-0.010872092
-0.010824488
-0.010720689
-0.010192966
-0.010150167
-0.010056743
-0.0095483584
-0.0095099131
-0.0094259264
-0.0089338139
-0.0088991876
-0.0088235069
-0.0083469316
-0.008315567
-0.008246974
-0.0077854118
-0.0077569222
-0.0076945943
-0.0072475239
-0.0072215993
-0.0071648636
-0.0067319847
-0.0067083677
-0.0066566653
-0.0062378358
-0.0062163105
-0.0061691738
-0.005764335
-0.0057447198
-0.0057017548
-0.0053108658
-0.0052930061
-0.0052538775
-0.0048768667
-0.0048606296
-0.0048250488
-0.0044617766
-0.0044470462
-0.0044147616
-0.0040649913
-0.0040516663
-0.0040224575
-0.0036858354
-0.0036738263
-0.0036474984
-0.0033235421
-0.0033127693
-0.0032891487
-0.0029772419
-0.0029676341
-0.0029465655
-0.0026459578
-0.0026374515
-0.002618796
-0.0023286063
-0.0023211456
-0.0023047795
-0.0020240014
-0.0020175379
-0.0020033517
-0.0017308542
-0.0017253464
-0.0017132406
-0.0014477683
-0.0014431823
-0.0014330617
-0.0011732108
-0.0011694958
-0.0011612077
-0.00090546152
-0.00090249474
-0.00089608682
-0.00064303857
-0.00064101147
-0.0006364511
-0.00038470555
-0.00038341949
-0.00038074364
-0.00012838504
-0.00012795149
-0.00012706334
-1.4583536
-1.0153988
-0.42566625
-0.32875292
-0.19348298
-0.16701551
-0.090142819
-0.080240061
-0.061751972
-0.053789912
-0.05049639
-0.044868523
-0.044449223
-0.04016416
-0.03976728
-0.036545685
-0.035444958
-0.032989814
-0.031447961
-0.029535552
-0.027994551
-0.026472274
-0.025173155
-0.023943326
-0.022875673
-0.021862961
-0.020961075
-0.020115306
-0.01932598
-0.018614911
-0.017901172
-0.01730028
-0.016643325
-0.016131996
-0.015522022
-0.015083427
-0.014513232
-0.01413405
-0.013596947
-0.013266559
-0.012756394
-0.012466418
-0.0119778
-0.011721625
-0.011250247
-0.011022549
-0.010565325
-0.010361747
-0.009916945
-0.0097337455
-0.0092999934
-0.0091343849
-0.0087098176
-0.0085600296
-0.0081438921
-0.0080080698
-0.0076008763
-0.0074772619
-0.0070795029
-0.00696681
-0.0065788338
-0.0064759999
-0.0060981804
-0.0060043172
-0.0056370165
-0.0055513731
-0.0051948975
-0.0051168317
-0.0047713987
-0.0047003561
-0.0043660682
-0.0043015647
-0.0039783925
-0.0039200011
-0.0036077712
-0.003555113
-0.0032535
-0.0032062364
-0.0029147631
-0.0028725901
-0.0025906321
-0.0025532765
-0.0022800679
-0.0022472833
-0.0019819227
-0.0019534842
-0.0016949439
-0.0016706484
-0.0014177549
-0.0013973853
-0.0011486681
-0.0011320518
-0.0008864179
-0.00087359309
-0.00062957927
-0.00062054137
-0.0003767309
-0.00037141651
-0.00012573596
-0.00012397562
-0.026421981
-0.025336022
-0.023552474
-0.021410215
-0.019188551
-0.017034852
-0.015055648
-0.013305782
-0.011797798
-0.010491793
-0.009390658
-0.008457955
-0.0076475147
-0.0069163522
-0.0062266763
-0.0055654534
-0.0049262337
-0.0043043736
-0.0036960891
-0.00309931
-0.0025129329
-0.0019367493
-0.0013710176
-0.00081587116
-0.00026846143
-0.027516994
-0.026241262
-0.024246528
-0.021966039
-0.019688921
-0.017557703
-0.015653648
-0.014005445
-0.012598103
-0.011407
-0.010367238
-0.009436318
-0.0085828442
-0.0077862857
-0.0070367816
-0.0063185648
-0.0056200056
-0.0049333251
-0.0042503407
-0.0035724487
-0.002900728
-0.0022366241
-0.0015821274
-0.00093754774
-0.0003011701
-0.033026821
-0.03152065
-0.02940341
-0.027142367
-0.025114251
-0.023432593
-0.022060347
-0.020873801
-0.019710753
-0.018546475
-0.017361827
-0.016156487
-0.014939686
-0.01371912
-0.012493807
-0.011260074
-0.010017909
-0.0087712622
-0.0075296278
-0.0062966112
-0.0050779247
-0.0038807403
-0.0027120679
-0.001576075
-0.00048175174
-0.052024109
-0.050214666
-0.048212747
-0.046601037
-0.045175686
-0.043669976
-0.041913914
-0.039877426
-0.037667247
-0.035329687
-0.032892819
-0.030408155
-0.027912907
-0.025422252
-0.02294071
-0.020480548
-0.018054098
-0.015671314
-0.013341012
-0.011070394
-0.0088663482
-0.0067379993
-0.0046897956
-0.0027218197
-0.0008480487
-0.10904167
-0.10627828
-0.10250143
-0.096708918
-0.090556148
-0.083872394
-0.077113611
-0.070453116
-0.063983091
-0.05777618
-0.051922033
-0.046477513
-0.041377316
-0.036467989
-0.031875579
-0.027635398
-0.023733369
-0.020144558
-0.016838796
-0.013783314
-0.010944705
-0.0082876375
-0.0057840593
-0.0034081457
-0.0011427328
-0.28315574
-0.23440807
-0.20843086
-0.17231225
-0.14266923
-0.11682734
-0.094806334
-0.076625553
-0.061771476
-0.049672236
-0.03982325
-0.031815751
-0.025365312
-0.020229617
-0.016070763
-0.012721694
-0.010023606
-0.0078472365
-0.006089922
-0.0046677544
-0.0035102196
-0.0025557975
-0.001755374
-0.0010601552
-0.00047334223
-0.40482048
-0.18727092
-0.12728365
-0.083139536
-0.04427925
-0.01356522
0.0066875727
0.017781322
0.023095569
0.025284129
0.025684054
0.024935703
0.023457787
0.021557863
0.019442548
0.017250493
0.015069513
0.012952
0.010924231
0.0089958206
0.0071644958
0.0054217414
0.0037476465
0.0021391807
0.0005043447
-0.26422455
-0.2252209
-0.19113291
-0.15968603
-0.13123323
-0.10660757
-0.085912461
-0.068981941
-0.055250705
-0.044174654
-0.035241374
-0.028054558
-0.022333913
-0.017714475
-0.01399015
-0.010995902
-0.0085921071
-0.0066644462
-0.0051226299
-0.0038887619
-0.0028983899
-0.0020964372
-0.0014386451
-0.00087781016
-0.00042110576
-0.14608098
-0.13116603
-0.11940826
-0.10920184
-0.099667371
-0.09055741
-0.082073595
-0.0741572
-0.066773908
-0.059931231
-0.053610131
-0.047664138
-0.042070351
-0.036929449
-0.032224346
-0.027916407
-0.023962234
-0.020311052
-0.016952379
-0.013852019
-0.010978715
-0.0083021776
-0.0057933225
-0.0034191148
-0.0011546783
-0.071576614
-0.06511659
-0.060611695
-0.057251713
-0.05442837
-0.051732141
-0.048990261
-0.046127193
-0.043172614
-0.040155151
-0.037136965
-0.034142658
-0.031167879
-0.028223301
-0.025325295
-0.022490767
-0.019736128
-0.017083649
-0.014514018
-0.012029978
-0.0096315647
-0.0073188423
-0.0050922851
-0.0029530266
-0.00091953902
-0.044887074
-0.037835986
-0.032843889
-0.029719194
-0.027916615
-0.026679947
-0.025546646
-0.024378871
-0.023150856
-0.021854674
-0.020511192
-0.019123584
-0.017691406
-0.01622182
-0.014728421
-0.013224675
-0.011719944
-0.010224412
-0.0087440874
-0.0072868063
-0.0058590171
-0.0044663203
-0.0031134947
-0.0018032815
-0.00054780562
-0.0380657
-0.031808435
-0.026669086
-0.022510291
-0.019307592
-0.017021909
-0.015398792
-0.014153361
-0.013135243
-0.012246414
-0.011442815
-0.01066691
-0.0098797014
-0.0090811443
-0.0082695476
-0.0074465125
-0.0066184235
-0.0057905803
-0.004967661
-0.0041550837
-0.003356809
-0.0025757642
-0.001813673
-0.0010690492
-0.00033788402
-0.035047382
-0.029994134
-0.025539585
-0.021839958
-0.018716229
-0.0161626
-0.014137404
-0.012550464
-0.011260081
-0.010205759
-0.0092819894
-0.0084438347
-0.0076716934
-0.0069460087
-0.0062493944
-0.0055753008
-0.0049209284
-0.0042842696
-0.0036632321
-0.0030580508
-0.0024686481
-0.001894977
-0.0013369471
-0.00079353159
-0.0002602065
-0.032687927
-0.028719555
-0.024993561
-0.021653699
-0.018724485
-0.016223432
-0.014143831
-0.012465664
-0.011104092
-0.0099423355
-0.0089312381
-0.008039245
-0.0072399681
-0.0065101341
-0.0058229732
-0.0051718618
-0.0045500535
-0.0039522516
-0.0033751594
-0.0028153132
-0.0022711468
-0.0017419504
-0.0012273841
-0.00072715457
-0.00024003541
-0.030063302
-0.026951801
-0.02389037
-0.021016559
-0.018400954
-0.016081803
-0.01407735
-0.012375219
-0.010933973
-0.0096980774
-0.0086292412
-0.0077020014
-0.0068750858
-0.0061211507
-0.0054303808
-0.0047920076
-0.0041934077
-0.0036273655
-0.0030875352
-0.0025689207
-0.0020684003
-0.0015840886
-0.0011148784
-0.00065986848
-0.00021820597
-0.027271497
-0.024820785
-0.022335413
-0.019923138
-0.01765573
-0.015579296
-0.013717823
-0.012081171
-0.010648987
-0.0093953149
-0.0082933926
-0.007318302
-0.006468574
-0.0057179482
-0.0050407892
-0.0044194598
-0.0038406386
-0.0033030256
-0.002798083
-0.0023188823
-0.0018610408
-0.0014215044
-0.00099835156
-0.00058974578
-0.00019395241
-0.024673815
-0.022710489
-0.020681231
-0.018665641
-0.016725402
-0.014903822
-0.013224751
-0.011700826
-0.010331341
-0.0091091235
-0.0080195212
-0.0070482324
-0.0061837485
-0.0054123339
-0.0047283403
-0.0041136912
-0.0035590152
-0.0030478919
-0.0025714951
-0.002122447
-0.0016973279
-0.0012926409
-0.00090573969
-0.00053470004
-0.00017632495
-0.022486743
-0.020879905
-0.019196491
-0.017497891
-0.015832953
-0.014237195
-0.012734743
-0.011339883
-0.010059495
-0.0088943564
-0.0078410315
-0.0068928661
-0.0060411491
-0.0052775922
-0.0045934107
-0.0039773267
-0.0034191437
-0.0029079073
-0.0024369292
-0.0020013164
-0.0015944182
-0.0012115775
-0.00084890299
-0.00050227877
-0.00016669866
-0.020663494
-0.019329208
-0.017914499
-0.016468374
-0.015030236
-0.013629326
-0.012288227
-0.01102249
-0.0098408382
-0.008747561
-0.0077432831
-0.0068264364
-0.0059935474
-0.0052398496
-0.0045583849
-0.0039414142
-0.00338086
-0.0028686584
-0.0023984625
-0.0019645669
-0.0015613015
-0.0011837571
-0.00082765386
-0.00048869501
-0.00016154782
-0.019113205
-0.017992879
-0.016794691
-0.015555572
-0.01430736
-0.013076284
-0.011880889
-0.010736387
-0.0096523541
-0.008634696
-0.0076866535
-0.006809268
-0.0060021247
-0.0052626451
-0.0045872897
-0.0039707375
-0.0034073624
-0.0028905041
-0.0024157114
-0.0019771629
-0.0015698055
-0.0011889285
-0.00083044747
-0.00048959436
-0.00016050711
-0.017770576
-0.016821827
-0.015798934
-0.014731577
-0.01364427
-0.012558898
-0.011493302
-0.010460084
-0.0094685877
-0.0085261039
-0.0076369745
-0.0068038521
-0.0060277912
-0.0053083234
-0.0046438433
-0.0040312684
-0.0034667714
-0.0029460735
-0.0024651206
-0.0020192023
-0.0016039386
-0.0012150783
-0.00084883093
-0.00049940768
-0.00016202673
-0.016583921
-0.015774673
-0.014896132
-0.013971221
-0.01302087
-0.012062222
-0.011110584
-0.010177687
-0.0092730882
-0.0084032277
-0.0075732283
-0.0067866801
-0.0060456058
-0.0053508016
-0.0047019508
-0.0040976466
-0.0035356486
-0.0030131435
-0.0025270412
-0.0020737271
-0.0016495697
-0.0012509067
-0.00087431231
-0.00051319152
-0.00016506954
-0.01551989
-0.014825018
-0.014065771
-0.013260346
-0.012425779
-0.01157682
-0.010725809
-0.009883426
-0.0090583616
-0.0082572054
-0.0074850701
-0.006745683
-0.0060417504
-0.0053748301
-0.0047454999
-0.0041534733
-0.0035977061
-0.0030764905
-0.0025876046
-0.002128447
-0.0016961529
-0.0012876784
-0.00089987618
-0.00052830178
-0.00017088981
-0.014556545
-0.01395562
-0.013295325
-0.012590188
-0.011854097
-0.011099378
-0.010336718
-0.0095752852
-0.0088227796
-0.0080855033
-0.0073684589
-0.006675509
-0.006009556
-0.0053725231
-0.0047655717
-0.004189151
-0.0036430316
-0.0031263185
-0.0026376045
-0.002175104
-0.0017367057
-0.001320061
-0.00092269792
-0.00054239815
-0.00017673216
-0.01367706
-0.013153642
-0.012575688
-0.011954913
-0.011302565
-0.010629035
-0.0099434202
-0.009253747
-0.0085668161
-0.0078883215
-0.0072230414
-0.0065747634
-0.0059464161
-0.005340137
-0.0047574101
-0.0041991197
-0.0036655413
-0.003156386
-0.0026709607
-0.0022081761
-0.0017666346
-0.0013447393
-0.00094093925
-0.0005536248
-0.00018079508
-0.012867265
-0.012408247
-0.011899108
-0.011349464
-0.010768484
-0.010164917
-0.0095465251
-0.0089201944
-0.0082919949
-0.0076671349
-0.0070498973
-0.0064438821
-0.0058519676
-0.0052763843
-0.0047187861
-0.0041803114
-0.003661569
-0.0031627901
-0.0026837876
-0.0022240587
-0.0017828331
-0.0013591785
-0.00095219519
-0.00056059262
-0.00018299451
-0.01211512
-0.011709907
-0.011258626
-0.010769209
-0.010249288
-0.0097060813
-0.009146321
-0.0085759566
-0.0080002749
-0.0074239559
-0.0068509117
-0.0062844648
-0.0057273536
-0.0051818368
-0.0046496492
-0.0041320932
-0.0036300729
-0.0031441438
-0.0026745239
-0.0022211591
-0.0017837775
-0.0013619609
-0.00095527386
-0.00056275374
-0.0001835706
-0.011410561
-0.011050601
-0.010648276
-0.010210133
-0.0097426144
-0.0092517375
-0.0087432448
-0.0082223181
-0.0076935934
-0.0071611826
-0.006628664
-0.0060990957
-0.0055750637
-0.005058778
-0.0045520158
-0.004056196
-0.0035724142
-0.0031014514
-0.0026438186
-0.0021998101
-0.0017695287
-0.0013529321
-0.00094988809
-0.00055982585
-0.00018235915
-0.010745441
-0.010423864
-0.010063262
-0.0096690859
-0.0092467416
-0.008801427
-0.0083379517
-0.0078608374
-0.0073741572
-0.0068815553
-0.0063862641
-0.0058911033
-0.0053985174
-0.0049106054
-0.0044291667
-0.003955666
-0.0034912919
-0.0030370069
-0.0025935374
-0.0021614353
-0.0017410808
-0.0013327223
-0.00093652754
-0.00055210495
-0.00017955658
-0.010113516
-0.0098247345
-0.0094999473
-0.0091437375
-0.008760669
-0.0083551729
-0.0079314434
-0.0074933534
-0.0070444877
-0.0065881107
-0.0061271391
-0.0056641656
-0.0052014831
-0.0047410998
-0.0042847556
-0.0038339205
-0.0033898391
-0.0029535803
-0.0025260481
-0.0021079656
-0.0016999232
-0.0013023954
-0.00091581175
-0.00054016055
-0.00017577654
-0.0095101034
-0.0092495529
-0.008955752
-0.0086325683
-0.0082838932
-0.0079135074
-0.0075250412
-0.0071219231
-0.0067072729
-0.0062840222
-0.0058548115
-0.0054220244
-0.0049878012
-0.0045540487
-0.0041224441
-0.0036944331
-0.003271285
-0.0028541259
-0.0024439545
-0.0020416353
-0.0016479129
-0.001263438
-0.00088885779
-0.00052444049
-0.00017068006
-0.0089319647
-0.0086958007
-0.0084289494
-0.008134716
-0.0078163841
-0.0074771922
-0.0071203029
-0.0067486991
-0.0063652133
-0.0059724213
-0.005572729
-0.0051683285
-0.0047612135
-0.0043531838
-0.0039458513
-0.0035406491
-0.0031388455
-0.002741583
-0.0023499083
-0.001964771
-0.0015870336
-0.0012174809
-0.00085689637
-0.00050566115
-0.00016442873
-0.0083765093
-0.0081617224
-0.00791855
-0.0076498505
-0.0073584432
-0.0070471933
-0.0067187894
-0.0063758479
-0.0060208973
-0.0056562704
-0.0052841425
-0.0049065233
-0.0045252733
-0.0041420866
-0.0037585057
-0.0033759387
-0.002995655
-0.0026188057
-0.0022464532
-0.0018795902
-0.0015191462
-0.0011659965
-0.00082101077
-0.00048458217
-0.00015751995
-0.0078413411
-0.0076458018
-0.0074238705
-0.0071780033
-0.0069107637
-0.0066246849
-0.0063221069
-0.0060053866
-0.0056767556
-0.0053383126
-0.0049920364
-0.004639775
-0.0042832577
-0.0039240783
-0.0035637077
-0.0032035068
-0.002844736
-0.0024885533
-0.0021360318
-0.0017881801
-0.0014459553
-0.0011102723
-0.00078203151
-0.00046162704
-0.00014997569
-0.0073253642
-0.007147051
-0.0069442774
-0.0067191825
-0.0064739776
-0.0062107926
-0.0059318536
-0.0056392762
-0.0053350398
-0.0050210364
-0.0046990797
-0.0043709079
-0.004038097
-0.0037021319
-0.003364411
-0.0030262434
-0.0026888593
-0.002353407
-0.0020209633
-0.0016925386
-0.0013690962
-0.0010515576
-0.00074083159
-0.00043733242
-0.00014200642
-0.0068281934
-0.0066652559
-0.0064797308
-0.0062734833
-0.0060483926
-0.0058063499
-0.0055493313
-0.0052791799
-0.0049977041
-0.0047066591
-0.0044077089
-0.0041024624
-0.0037923737
-0.0034788342
-0.0031631692
-0.0028466323
-0.0025304043
-0.002215603
-0.0019032861
-0.0015944591
-0.0012900737
-0.00099103188
-0.00069824896
-0.0004122237
-0.00013381921
-0.0063493918
-0.0062003993
-0.0060305401
-0.0058414352
-0.0056347592
-0.0054122367
-0.0051755481
-0.0049263499
-0.004666289
-0.0043969677
-0.0041199079
-0.0038365209
-0.0035482205
-0.0032563338
-0.0029621101
-0.0026667364
-0.0023713385
-0.0020769888
-0.001784708
-0.0014954726
-0.0012102068
-0.0009297877
-0.00065512396
-0.00038675547
-0.00012552715
-0.005888657
-0.0057524132
-0.0055969174
-0.0054235932
-0.0052339297
-0.0050294489
-0.0048116572
-0.0045820693
-0.0043421656
-0.0040933817
-0.0038371046
-0.0035746437
-0.0033073113
-0.0030363526
-0.0027629461
-0.0024882145
-0.0022132286
-0.0019390109
-0.0016665366
-0.0013967298
-0.0011304753
-0.00086863141
-0.00061210762
-0.00036126562
-0.00011707675
-0.0054457643
-0.0053212539
-0.0051790138
-0.0050203004
-0.0048464389
-0.00465878
-0.0044586816
-0.0042475049
-0.0040265873
-0.0037972333
-0.0035607131
-0.0033182703
-0.0030710908
-0.0028203223
-0.0025670706
-0.002312393
-0.002057302
-0.001802765
-0.0015497063
-0.0012990047
-0.0010515035
-0.00080801716
-0.00056938016
-0.0003361144
-0.00010893367
-0.0050205063
-0.0049068564
-0.0047769167
-0.0046318012
-0.0044726863
-0.0043007788
-0.0041173004
-0.003923476
-0.0037205172
-0.0035096141
-0.0032919323
-0.0030686129
-0.0028407518
-0.0026094094
-0.002375614
-0.0021403523
-0.0019045728
-0.0016691857
-0.0014350623
-0.0012030398
-0.00097392097
-0.00074847738
-0.00052751959
-0.00031138318
-0.00010081496
-0.0046126484
-0.0045091011
-0.0043906285
-0.00425822
-0.0041129213
-0.0039558126
-0.0037879923
-0.0036105647
-0.0034246274
-0.0032312644
-0.0030315412
-0.0028265006
-0.0026171527
-0.0024044792
-0.0021894292
-0.0019729189
-0.0017558312
-0.0015390171
-0.0013232947
-0.0011094506
-0.00089824119
-0.00069039204
-0.00048665622
-0.00028722683
-9.2879292e-05
-0.0042218925
-0.0041277805
-0.0040200395
-0.0038995481
-0.0037672352
-0.0036240687
-0.0034710358
-0.0033091317
-0.0031393493
-0.0029626734
-0.0027800745
-0.0025925031
-0.0024008878
-0.0022061317
-0.0020091102
-0.0018106687
-0.0016116216
-0.0014127592
-0.0012148459
-0.0010186129
-0.00082476568
-0.00063397523
-0.00044693657
-0.00026376399
-8.5205485e-05
-0.0038478495
-0.0037625818
-0.0036649158
-0.0035556309
-0.003435558
-0.0033055572
-0.0031665166
-0.0030193297
-0.0028648951
-0.002704104
-0.0025378359
-0.0023669585
-0.0021923158
-0.0020147357
-0.0018350271
-0.0016539647
-0.0014722863
-0.0012907237
-0.0011099867
-0.00093075974
-0.00075368713
-0.00057938563
-0.00040848231
-0.00024107117
-7.7805027e-05
-0.0034900235
-0.0034130717
-0.0033248924
-0.0032261757
-0.0031176555
-0.0030001104
-0.0028743288
-0.002741114
-0.0026012739
-0.0024556145
-0.0023049205
-0.0021499919
-0.0019915833
-0.001830446
-0.0016673348
-0.0015029712
-0.0013379716
-0.0011730278
-0.0010088005
-0.00084593729
-0.00068501932
-0.00052660575
-0.00037132286
-0.00021911951
-7.0658226e-05
-0.0031477978
-0.0030786859
-0.0029994589
-0.0029107276
-0.0028131472
-0.0027074009
-0.0025942014
-0.0024742623
-0.0023483073
-0.0022170581
-0.0020812217
-0.0019415263
-0.0017986269
-0.0016531563
-0.0015058331
-0.0013573636
-0.0012084152
-0.001059558
-0.0009113425
-0.00076429804
-0.00061896849
-0.00047587375
-0.00033559889
-0.00019804959
-6.3804121e-05
-0.0028204327
-0.0027587299
-0.0026879704
-0.0026086949
-0.0025214818
-0.0024269464
-0.0023256965
-0.0022183772
-0.002105632
-0.0019881086
-0.0018663589
-0.0017410074
-0.0016128884
-0.0014826221
-0.0013507252
-0.0012177235
-0.0010842044
-0.00095071376
-0.00081776973
-0.0006858664
-0.00055548948
-0.00042710834
-0.00030125584
-0.00017778617
-5.7207908e-05
-0.0025070662
-0.0024523807
-0.0023896514
-0.0023193527
-0.0022419901
-0.0021580819
-0.0020681976
-0.0019728559
-0.0018725469
-0.0017679466
-0.0016598064
-0.001548647
-0.0014348991
-0.0013191329
-0.0012018685
-0.0010836085
-0.00096486661
-0.00084612243
-0.00072784411
-0.00061048041
-0.0004944662
-0.00038021883
-0.00026824127
-0.00015830975
-5.0874021e-05
-0.0022067145
-0.0021586931
-0.0021035927
-0.0020418234
-0.0019738182
-0.0018999938
-0.0018207724
-0.0017367557
-0.0016486463
-0.0015568476
-0.0014617985
-0.0013640034
-0.0012639214
-0.0011620329
-0.0010588028
-0.00095468314
-0.00085012014
-0.00074554004
-0.00064135647
-0.0005379687
-0.00043576167
-0.00033510323
-0.00023646726
-0.00013957384
-4.4794664e-05
-0.0019182836
-0.0018766035
-0.001828753
-0.0017750671
-0.0017158349
-0.0016515343
-0.0015828159
-0.00151007
-0.0014336255
-0.0013539111
-0.0012713502
-0.0011863731
-0.0010993955
-0.0010108318
-0.00092108744
-0.00083055796
-0.00073962938
-0.0006486752
-0.00055805675
-0.00046812268
-0.00037920954
-0.00029163609
-0.00020584639
-0.00012152559
-3.8944128e-05
-0.0016405602
-0.0016049016
-0.0015638437
-0.0015177651
-0.0014671516
-0.0014124379
-0.0013538484
-0.0012917238
-0.001226419
-0.0011583004
-0.0010877346
-0.0010150877
-0.00094071921
-0.00086498358
-0.00078822816
-0.00071079211
-0.00063300595
-0.00055518996
-0.00047765457
-0.00040069964
-0.00032461457
-0.00024967067
-0.00017628004
-0.00010409114
-3.3296693e-05
-0.0013720809
-0.0013420861
-0.00130772
-0.0012693333
-0.0012272038
-0.0011815375
-0.0011325994
-0.0010806913
-0.001026113
-0.00096917144
-0.00091017433
-0.00084942736
-0.00078723236
-0.00072388646
-0.00065968052
-0.0005948987
-0.00052981781
-0.00046470658
-0.00039982538
-0.00033542642
-0.00027175364
-0.00020903164
-0.00014763592
-8.7191475e-05
-2.783859e-05
-0.0011115395
-0.0010872506
-0.0010595653
-0.0010286024
-0.00099453888
-0.00095758592
-0.0009179734
-0.00087594373
-0.00083174402
-0.0007856233
-0.0007378311
-0.00068861491
-0.00063821962
-0.00058688662
-0.00053485197
-0.00048234608
-0.00042959339
-0.00037681228
-0.0003242146
-0.00027200562
-0.00022038338
-0.00016952961
-0.0001197688
-7.0742018e-05
-2.2554936e-05
-0.00085776613
-0.00083919703
-0.00081793325
-0.00079409859
-0.00076785111
-0.00073936095
-0.00070880981
-0.00067638701
-0.00064228213
-0.00060668982
-0.00056980319
-0.00053181339
-0.00049290956
-0.00045327833
-0.00041310211
-0.00037255911
-0.00033182286
-0.00029106208
-0.0002504407
-0.00021011813
-0.00017024682
-0.00013096843
-9.2534834e-05
-5.4654677e-05
-1.7422749e-05
-0.0006094445
-0.00059633662
-0.00058128753
-0.00056439544
-0.00054577702
-0.00052555653
-0.00050386458
-0.00048083542
-0.00045660806
-0.0004313192
-0.00040510685
-0.00037810816
-0.00035045813
-0.00032228866
-0.00029372971
-0.00026490823
-0.00023594777
-0.00020696845
-0.00017808666
-0.00014941652
-0.00012106597
-9.3138043e-05
-6.579605e-05
-3.8851578e-05
-1.2400427e-05
-0.00036484161
-0.00035704256
-0.0003480708
-0.00033798697
-0.00032686175
-0.00031477107
-0.00030179431
-0.00028801305
-0.00027351048
-0.00025837004
-0.00024267436
-0.00022650613
-0.00020994641
-0.00019307446
-0.00017596827
-0.00015870393
-0.00014135578
-0.00012399602
-0.00010669457
-8.9518131e-05
-7.2533054e-05
-5.5801461e-05
-3.9405371e-05
-2.3263226e-05
-7.4420978e-06
-0.00012179265
-0.00011919866
-0.00011621042
-0.00011284958
-0.00010913957
-0.00010510589
-0.00010077527
-9.6175261e-05
-9.1333636e-05
-8.6278454e-05
-8.1037612e-05
-7.5638705e-05
-7.0108862e-05
-6.447466e-05
-5.8762108e-05
-5.2996781e-05
-4.7203526e-05
-4.140648e-05
-3.562899e-05
-2.9892878e-05
-2.4220567e-05
-1.8632797e-05
-1.3151789e-05
-7.7629995e-06
-2.4922448e-06
)
;

boundaryField
{
    Walls
    {
        type            zeroGradient;
    }
    Inlet
    {
        type            fixedValue;
        value           uniform 500;
    }
    Outlet
    {
        type            fixedValue;
        value           uniform 0;
    }
    Front
    {
        type            wedge;
    }
    Back
    {
        type            wedge;
    }
    defaultFaces
    {
        type            empty;
    }
}


// ************************************************************************* //
