/*--------------------------------*- C++ -*----------------------------------*\
| =========                 |                                                 |
| \\      /  F ield         | OpenFOAM: The Open Source CFD Toolbox           |
|  \\    /   O peration     | Version:  4.0                                   |
|   \\  /    A nd           | Web:      www.OpenFOAM.org                      |
|    \\/     M anipulation  |                                                 |
\*---------------------------------------------------------------------------*/
FoamFile
{
    version     2.0;
    format      ascii;
    class       surfaceScalarField;
    location    "0.15";
    object      phi;
}
// * * * * * * * * * * * * * * * * * * * * * * * * * * * * * * * * * * * * * //

dimensions      [0 3 -1 0 0 0 0];

internalField   nonuniform List<scalar> 
3364
(
-2.2386353e-10
1.5964184e-08
-4.6483725e-10
4.8155519e-08
8.641856e-08
-7.3179871e-10
1.669595e-08
-1.6756462e-09
4.9099411e-08
8.4742948e-08
-6.1191748e-10
1.7307841e-08
-1.7665619e-09
5.0254099e-08
8.297639e-08
-1.3261451e-10
1.7440425e-08
4.0771926e-11
5.0080702e-08
8.3017126e-08
1.4185144e-11
1.7426203e-08
6.9095826e-10
4.9403859e-08
8.3708044e-08
-3.2832114e-12
1.7429458e-08
-2.0626232e-10
4.9606784e-08
8.3501751e-08
-1.0776694e-10
1.7537199e-08
-4.3489212e-10
4.9933892e-08
8.3066842e-08
4.2957062e-10
1.7107586e-08
1.9924434e-10
5.0164164e-08
8.3266056e-08
2.6097291e-10
1.6846579e-08
2.1549414e-10
5.0209559e-08
8.3481496e-08
-3.942033e-10
1.7240753e-08
-2.7022445e-10
5.0085516e-08
8.3211226e-08
-1.6295649e-10
1.7403687e-08
-3.9690645e-10
5.0319448e-08
8.2814296e-08
8.8678208e-10
1.6516865e-08
1.0009462e-09
5.0205249e-08
8.3815205e-08
8.3721048e-10
1.5679616e-08
1.840339e-09
4.9202073e-08
8.5655493e-08
-4.6529019e-10
1.6144881e-08
4.6831486e-10
4.8268451e-08
8.6123773e-08
-7.8959509e-10
1.6934428e-08
-1.4172984e-09
4.8896136e-08
8.4706449e-08
2.0635454e-11
1.691373e-08
-1.7976747e-09
5.0714398e-08
8.2908738e-08
-4.4422167e-11
1.6958104e-08
-9.0866002e-10
5.1578566e-08
8.2000045e-08
-3.921789e-10
1.7350243e-08
2.5801684e-10
5.0928336e-08
8.2258037e-08
2.2789707e-10
1.7122304e-08
9.0286495e-10
5.0253343e-08
8.3160868e-08
5.7310208e-10
1.6549159e-08
7.9755226e-10
5.0028855e-08
8.3958383e-08
5.4562755e-12
1.654368e-08
4.5074035e-11
4.9989208e-08
8.4003416e-08
-3.4413145e-10
1.6887786e-08
-1.0983478e-09
5.0743384e-08
8.2905028e-08
5.9088271e-12
1.6881813e-08
-9.6726159e-10
5.1716489e-08
8.1937736e-08
-7.5010985e-12
1.6889249e-08
7.9977323e-10
5.090918e-08
8.2737495e-08
-1.6789614e-10
1.7057117e-08
1.0700506e-09
4.9671252e-08
8.3807529e-08
-2.656356e-11
1.708366e-08
-9.5437689e-10
5.0599033e-08
8.2853107e-08
-4.2316194e-11
1.7125945e-08
-1.8479042e-09
5.2404557e-08
8.1005136e-08
-1.1911731e-10
1.7245041e-08
-8.7014698e-10
5.3155548e-08
8.013493e-08
2.6841555e-10
1.6976652e-08
3.3177121e-10
5.3092272e-08
8.04667e-08
1.6054035e-09
1.5371445e-08
6.0904463e-09
4.8607348e-08
8.6557137e-08
1.1191661e-08
4.1791348e-09
4.9009142e-08
1.078801e-08
9.8207757e-09
1.2574294e-07
4.7014328e-09
-5.2276093e-10
1.6886168e-08
-1.3981882e-09
-1.7994667e-09
2.8504561e-08
-4.0728227e-10
-1.1544283e-10
-1.4650089e-09
-3.4038729e-10
-5.8697918e-10
-2.6773911e-09
-9.9003893e-11
-1.6424017e-11
-3.7658367e-10
-6.2772224e-11
-1.5480502e-10
-8.0871596e-10
-8.9721497e-12
-7.4504297e-12
-4.4543098e-11
-2.7197229e-11
-5.8360535e-11
-1.4098084e-10
-1.6285279e-12
-5.8216794e-12
-1.0202943e-11
-1.8622379e-11
-3.493992e-11
-3.3622217e-11
-3.6297935e-13
-5.4587077e-12
-1.8439836e-12
-1.7141165e-11
-2.9070379e-11
-7.7138493e-12
1.8649539e-13
-5.6452298e-12
2.5859002e-13
-1.7213545e-11
-2.8067948e-11
-7.4434986e-13
-2.1037722e-13
-5.434782e-12
-1.2139017e-12
-1.621013e-11
-2.6057954e-11
-3.2240389e-12
-7.6481009e-13
-4.6698685e-12
-3.1065881e-12
-1.3868294e-11
-2.2268005e-11
-6.8964642e-12
-8.9348278e-13
-3.7762865e-12
-3.5776925e-12
-1.1183992e-11
-1.7862649e-11
-7.9829256e-12
-7.3740691e-13
-3.0387987e-12
-2.937257e-12
-8.9840655e-12
-1.4262644e-11
-6.537176e-12
-5.4066481e-13
-2.4980714e-12
-2.1363938e-12
-7.388272e-12
-1.171468e-11
-4.6843112e-12
-3.7289319e-13
-2.125132e-12
-1.5184662e-12
-6.2426489e-12
-9.909674e-12
-3.3234409e-12
-2.9028642e-13
-1.8348124e-12
-1.1301123e-12
-5.4027834e-12
-8.6271071e-12
-2.4126535e-12
-2.3046693e-13
-1.6043223e-12
-8.929875e-13
-4.7402322e-12
-7.6094677e-12
-1.910605e-12
-1.8701403e-13
-1.4172928e-12
-7.2759159e-13
-4.1996326e-12
-6.7704584e-12
-1.5665832e-12
-1.5317501e-13
-1.2641078e-12
-5.9997454e-13
-3.7528193e-12
-6.0723656e-12
-1.2980557e-12
-1.2574462e-13
-1.1383572e-12
-4.9461804e-13
-3.3839391e-12
-5.4895247e-12
-1.0774543e-12
-1.0194681e-13
-1.0364073e-12
-4.0177752e-13
-3.0841071e-12
-5.0151079e-12
-8.7619651e-13
-8.1977878e-14
-9.5442835e-13
-3.2317089e-13
-2.842917e-12
-4.6332899e-12
-7.0499664e-13
-6.6396062e-14
-8.8803263e-13
-2.6201531e-13
-2.6473036e-12
-4.3223346e-12
-5.729823e-13
-5.470741e-14
-8.3332648e-13
-2.1590188e-13
-2.4861169e-12
-4.064874e-12
-4.7337681e-13
-4.7245614e-14
-7.8608274e-13
-1.8313182e-13
-2.3502395e-12
-3.847517e-12
-4.0050473e-13
-4.1913639e-14
-7.4417133e-13
-1.6681798e-13
-2.2253446e-12
-3.6554235e-12
-3.5892803e-13
-3.5785516e-14
-7.0838823e-13
-1.4122582e-13
-2.1199138e-12
-3.4874928e-12
-3.091732e-13
-3.170775e-14
-6.7668296e-13
-1.2537913e-13
-2.0262519e-12
-3.3374036e-12
-2.754847e-13
-2.9098891e-14
-6.4758654e-13
-1.1551875e-13
-1.9398411e-12
-3.1980167e-12
-2.5492144e-13
-2.7046543e-14
-6.205424e-13
-1.0765966e-13
-1.8592367e-12
-3.0671751e-12
-2.3851614e-13
-2.5608635e-14
-5.9493608e-13
-1.0195642e-13
-1.7828971e-12
-2.9431278e-12
-2.2601775e-13
-2.4544191e-14
-5.7039407e-13
-9.7667812e-14
-1.7097812e-12
-2.8240651e-12
-2.1674364e-13
-2.3683193e-14
-5.4671292e-13
-9.4314769e-14
-1.6391567e-12
-2.7085676e-12
-2.0982432e-13
-2.2979351e-14
-5.2373547e-13
-9.1545778e-14
-1.5705968e-12
-2.5962559e-12
-2.0386855e-13
-2.237456e-14
-5.0136266e-13
-8.9130223e-14
-1.5038471e-12
-2.4866647e-12
-1.9873145e-13
-2.180818e-14
-4.7955607e-13
-8.6904707e-14
-1.438756e-12
-2.3796425e-12
-1.9393596e-13
-2.1099195e-14
-4.5845831e-13
-8.4348904e-14
-1.3755112e-12
-2.27549e-12
-1.8850953e-13
-2.0358294e-14
-4.381013e-13
-8.1380843e-14
-1.3144929e-12
-2.1748748e-12
-1.8200313e-13
-1.9503319e-14
-4.1859911e-13
-7.7945302e-14
-1.2560548e-12
-2.0784554e-12
-1.7437092e-13
-1.8509896e-14
-4.0009021e-13
-7.398418e-14
-1.2005838e-12
-1.9868809e-12
-1.6556411e-13
-1.7386227e-14
-3.8270485e-13
-6.9512519e-14
-1.1484604e-12
-1.9007748e-12
-1.5562323e-13
-1.6139668e-14
-3.6656592e-13
-6.455628e-14
-1.1000462e-12
-1.8207399e-12
-1.445952e-13
-1.4772881e-14
-3.5179365e-13
-5.910955e-14
-1.0557116e-12
-1.7474209e-12
-1.3243182e-13
-1.3278933e-14
-3.3851524e-13
-5.3129279e-14
-1.015863e-12
-1.6815891e-12
-1.1896381e-13
-1.1668179e-14
-3.2684748e-13
-4.6754337e-14
-9.8077825e-13
-1.6235345e-12
-1.0481117e-13
-9.958223e-15
-3.1688958e-13
-4.0078643e-14
-9.5065896e-13
-1.5736848e-12
-8.9930154e-14
-8.1968064e-15
-3.0869304e-13
-3.3354864e-14
-9.2550181e-13
-1.5322194e-12
-7.4821568e-14
-6.5946966e-15
-3.0209854e-13
-2.5742708e-14
-9.0635452e-13
-1.5004849e-12
-5.747834e-14
-4.3474941e-15
-2.977512e-13
-1.7784697e-14
-8.9291793e-13
-1.4786391e-12
-3.9631354e-14
-2.48476e-15
-2.9526659e-13
-9.437596e-15
-8.8596566e-13
-1.467007e-12
-2.1070576e-14
-5.2363852e-16
-2.027972e-15
-4.6068181e-15
1.3555451e-07
-9.8168385e-09
-8.7778687e-09
1.4432613e-07
2.0517848e-08
-1.8313084e-09
-1.5813999e-09
1.3320853e-08
-3.789995e-09
-7.185717e-10
-7.6043347e-10
-4.6108166e-09
-1.2983478e-09
-2.2888903e-10
-2.7317534e-10
-1.7855436e-09
-2.8869712e-10
-8.116527e-11
-9.3246419e-11
-4.6861099e-10
-7.0820646e-11
-4.3966042e-11
-3.9020981e-11
-1.2504208e-10
-1.5405545e-11
-3.6274604e-11
-3.4401491e-11
-2.002424e-11
-7.4530841e-13
-3.6273954e-11
-3.9036368e-11
3.8895873e-12
-5.5647947e-12
-3.3933223e-11
-3.7980537e-11
-6.6204878e-12
-1.215816e-11
-2.8671355e-11
-3.2738485e-11
-1.7399908e-11
-1.362838e-11
-2.3025708e-11
-2.6415404e-11
-1.9951185e-11
-1.1148598e-11
-1.8414167e-11
-2.1295911e-11
-1.6267934e-11
-7.9510757e-12
-1.514736e-11
-1.7628425e-11
-1.1618508e-11
-5.5568587e-12
-1.2913932e-11
-1.5191129e-11
-7.9941559e-12
-4.0068039e-12
-1.1319781e-11
-1.3372822e-11
-5.8251293e-12
-3.1836922e-12
-1.0046691e-11
-1.1962411e-11
-4.5941183e-12
-2.6180587e-12
-8.9952105e-12
-1.078444e-11
-3.7960419e-12
-2.184053e-12
-8.1092109e-12
-9.7697291e-12
-3.1987745e-12
-1.8147208e-12
-7.3719465e-12
-8.9410217e-12
-2.6434416e-12
-1.4855544e-12
-6.7625973e-12
-8.2618909e-12
-2.1647032e-12
-1.1953395e-12
-6.2722688e-12
-7.7060992e-12
-1.751154e-12
-9.7715912e-13
-5.8681107e-12
-7.2437309e-12
-1.4395542e-12
-8.0851139e-13
-5.5329977e-12
-6.8570459e-12
-1.195226e-12
-6.8105625e-13
-5.2524696e-12
-6.5288636e-12
-1.0092699e-12
-5.9185748e-13
-5.0195643e-12
-6.2441949e-12
-8.7655814e-13
-5.411033e-13
-4.7876583e-12
-5.9903561e-12
-7.9497358e-13
-4.7742755e-13
-4.5857389e-12
-5.7531758e-12
-7.1463828e-13
-4.3873507e-13
-4.4019477e-12
-5.5314708e-12
-6.6046913e-13
-4.1352442e-13
-4.2269606e-12
-5.3209613e-12
-6.2406136e-13
-3.933571e-13
-4.0596411e-12
-5.116965e-12
-5.9737899e-13
-3.7784982e-13
-3.8985533e-12
-4.9190436e-12
-5.7579479e-13
-3.6679013e-13
-3.7416045e-12
-4.7254245e-12
-5.6043103e-13
-3.5721267e-13
-3.5882758e-12
-4.5350994e-12
-5.4755757e-13
-3.487224e-13
-3.4382989e-12
-4.3474118e-12
-5.364277e-13
-3.4070317e-13
-3.2915442e-12
-4.1637854e-12
-5.2434541e-13
-3.3165031e-13
-3.1484145e-12
-3.9843023e-12
-5.1114739e-13
-3.205498e-13
-3.0098776e-12
-3.8100691e-12
-4.9479528e-13
-3.073046e-13
-2.8769525e-12
-3.6426358e-12
-4.7474862e-13
-2.9191895e-13
-2.750605e-12
-3.4833077e-12
-4.5125623e-13
-2.7453727e-13
-2.6316973e-12
-3.3331896e-12
-4.2466333e-13
-2.5515206e-13
-2.5211458e-12
-3.1936479e-12
-3.9470046e-13
-2.3359723e-13
-2.4199849e-12
-3.0660644e-12
-3.6118626e-13
-2.1003537e-13
-2.328917e-12
-2.9508936e-12
-3.2521078e-13
-1.8524662e-13
-2.2484845e-12
-2.8490567e-12
-2.8708717e-13
-1.5932004e-13
-2.179097e-12
-2.7606367e-12
-2.4774292e-13
-1.3183373e-13
-2.1220866e-12
-2.6890304e-12
-2.034423e-13
-1.0131509e-13
-2.0782513e-12
-2.6340905e-12
-1.5625664e-13
-6.9139968e-14
-2.0487438e-12
-2.5973188e-12
-1.05913e-13
-3.7193513e-14
-2.0326219e-12
-2.5769092e-12
-5.7604314e-14
-8.2413735e-15
-1.2885783e-14
-1.3880569e-11
1.3880328e-11
-2.7494447e-11
1.3608455e-11
-3.9526255e-11
1.2024577e-11
-5.0424701e-11
1.0891105e-11
-6.1356761e-11
1.0925459e-11
-7.394384e-11
1.2581604e-11
-8.9679365e-11
1.5731291e-11
-1.0967536e-10
1.9992973e-11
-1.3438148e-10
2.4704387e-11
-1.6477946e-10
3.0397149e-11
-1.9948137e-10
3.4701769e-11
-2.3647959e-10
3.6998555e-11
-2.7395194e-10
3.7473015e-11
-3.1074136e-10
3.6790259e-11
-3.4682077e-10
3.6080344e-11
-3.8207416e-10
3.5254332e-11
-4.161409e-10
3.4067645e-11
-4.4847347e-10
3.2333365e-11
-4.7824465e-10
2.9771863e-11
-5.0474971e-10
2.650559e-11
-5.2736844e-10
2.2619109e-11
-5.455504e-10
1.8182197e-11
-5.5883538e-10
1.3285113e-11
-5.6677133e-10
7.9359736e-12
2.2088843e-12
-5.5592474e-11
6.947575e-11
-1.1870559e-10
7.6726216e-11
-1.8823433e-10
8.1558757e-11
-2.6664455e-10
8.9307044e-11
-3.5683534e-10
1.01122e-10
-4.6091232e-10
1.1666414e-10
-5.8055243e-10
1.3537666e-10
-7.1660062e-10
1.5604601e-10
-8.6721649e-10
1.753246e-10
-1.0282791e-09
1.9146359e-10
-1.1975607e-09
2.0398655e-10
-1.3728345e-09
2.1227512e-10
-1.551855e-09
2.1649573e-10
-1.7324208e-09
2.173579e-10
-1.9116318e-09
2.1529267e-10
-2.0869103e-09
2.1053368e-10
-2.2562446e-09
2.0340237e-10
-2.4201837e-09
1.9627259e-10
-2.578634e-09
1.8822197e-10
-2.7182376e-09
1.6610862e-10
-2.8349109e-09
1.3929159e-10
-2.9258995e-09
1.0916981e-10
-2.9890791e-09
7.646363e-11
-3.0204998e-09
3.9355362e-11
1.0260614e-11
-1.4195988e-10
2.1144242e-10
-3.044313e-10
2.3920825e-10
-4.9179086e-10
2.6893059e-10
-7.0885601e-10
3.0638461e-10
-9.5997959e-10
3.5225744e-10
-1.2475544e-09
4.0424979e-10
-1.5744565e-09
4.6228852e-10
-2.0025747e-09
5.8417251e-10
-2.4686233e-09
6.4138e-10
-2.9439198e-09
6.6676548e-10
-3.4135171e-09
6.7358792e-10
-3.8688589e-09
6.6761971e-10
-4.3042156e-09
6.5185424e-10
-4.7148043e-09
6.2794732e-10
-5.0949672e-09
5.9545545e-10
-5.4401687e-09
5.5573426e-10
-5.7469751e-09
5.1020724e-10
-6.0105882e-09
4.5988346e-10
-6.2277897e-09
4.054207e-10
-6.4093767e-09
3.4769247e-10
-6.5575084e-09
2.8741969e-10
-6.6737193e-09
2.2537689e-10
-6.7591517e-09
1.6189208e-10
-6.8168568e-09
9.705622e-11
3.1853564e-11
-3.9682461e-10
6.0828101e-10
-8.3870215e-10
6.8110689e-10
-1.3464164e-09
7.7666763e-10
-2.1599377e-09
1.119926e-09
-3.039983e-09
1.2323192e-09
-3.8812552e-09
1.2455347e-09
-4.632863e-09
1.2139057e-09
-5.2023607e-09
1.153677e-09
-5.634681e-09
1.073705e-09
-5.9487227e-09
9.8081016e-10
-6.158252e-09
8.831189e-10
-6.2768644e-09
7.8623259e-10
-6.3150726e-09
6.9006226e-10
-6.2771557e-09
5.9002953e-10
-6.176368e-09
4.9466634e-10
-6.0288041e-09
4.0816848e-10
-5.8504383e-09
3.3183941e-10
-5.656665e-09
2.6610778e-10
-5.4620069e-09
2.1076008e-10
-5.2794191e-09
1.6510193e-10
-5.1199446e-09
1.2794237e-10
-4.9917696e-09
9.7199018e-11
-4.9008698e-09
7.0989302e-11
-4.8511301e-09
4.7313467e-11
2.3644879e-11
-2.2488011e-09
2.857105e-09
-4.0269353e-09
2.4592661e-09
-5.554682e-09
2.3044381e-09
-6.2597702e-09
1.82503e-09
-6.3601167e-09
1.3326781e-09
-5.9092729e-09
7.9470066e-10
-5.1586408e-09
4.6328181e-10
-4.1806261e-09
1.7566938e-10
-3.0390184e-09
-6.7896207e-11
-1.7908678e-09
-2.6733466e-10
-5.4865627e-10
-3.5908781e-10
6.7874546e-10
-4.4116829e-10
1.9164185e-09
-5.4761071e-10
3.2992465e-09
-7.9279727e-10
4.6569921e-09
-8.6307653e-10
5.9433333e-09
-8.7816828e-10
7.1335637e-09
-8.5838497e-10
8.2122378e-09
-8.1255859e-10
9.1688942e-09
-7.4588715e-10
9.9959338e-09
-6.6192709e-10
1.068724e-08
-5.6335173e-10
1.1236623e-08
-4.521707e-10
1.1637627e-08
-3.3000038e-10
1.1884428e-08
-1.9947233e-10
-5.9234325e-11
9.114256e-10
1.9457638e-09
4.0674981e-09
-6.9675532e-10
7.7642001e-09
-1.392192e-09
1.144987e-08
-1.860608e-09
1.5185288e-08
-2.4027136e-09
1.8845416e-08
-2.8653976e-09
2.2446512e-08
-3.1377807e-09
2.5834038e-08
-3.2118178e-09
2.8915324e-08
-3.1491385e-09
3.1661272e-08
-3.0132359e-09
3.4138531e-08
-2.8362953e-09
3.6322305e-08
-2.6248887e-09
3.8180903e-08
-2.4061531e-09
3.9583596e-08
-2.1954339e-09
4.0699277e-08
-1.9787012e-09
4.1583908e-08
-1.7627426e-09
4.2278925e-08
-1.5533446e-09
4.2818105e-08
-1.351682e-09
4.3230297e-08
-1.1580228e-09
4.3540236e-08
-9.7181034e-10
4.3768652e-08
-7.9171209e-10
4.3932267e-08
-6.157308e-10
4.4043453e-08
-4.4113178e-10
4.4109829e-08
-2.6579423e-10
-8.3802072e-11
1.4857307e-07
-2.2999604e-09
1.4731674e-07
5.60488e-10
1.4483596e-07
1.0893729e-09
1.4143938e-07
1.5366726e-09
1.3694855e-07
2.0887276e-09
1.3152439e-07
2.5592864e-09
1.2553761e-07
2.8494369e-09
1.1938151e-07
2.944674e-09
1.1332788e-07
2.9048221e-09
1.0753166e-07
2.7832648e-09
1.020639e-07
2.6317189e-09
9.6976139e-08
2.4630961e-09
9.2297674e-08
2.2725104e-09
8.8031049e-08
2.0713697e-09
8.4184869e-08
1.8676405e-09
8.075633e-08
1.665943e-09
7.7733944e-08
1.4691761e-09
7.5103549e-08
1.2788359e-09
7.2850033e-08
1.0956082e-09
7.0959149e-08
9.1918087e-10
6.9419055e-08
7.4848248e-10
6.8221546e-08
5.8187247e-10
6.7363619e-08
4.1688449e-10
6.6846526e-08
2.5138567e-10
7.9620998e-11
1.2745204e-08
-1.7241897e-09
1.5135667e-08
-1.8298619e-09
1.7812658e-08
-1.5875054e-09
2.0574087e-08
-1.2246456e-09
2.3430216e-08
-7.6729545e-10
2.6373257e-08
-3.8365378e-10
2.9323568e-08
-1.0078143e-10
3.2121559e-08
1.4677213e-10
3.4715354e-08
3.1111578e-10
3.7084532e-08
4.141742e-10
3.9190882e-08
5.2545537e-10
4.0874059e-08
7.8000502e-10
4.2201619e-08
9.4503398e-10
4.3262062e-08
1.0110087e-09
4.4098627e-08
1.0311547e-09
4.4747316e-08
1.0173317e-09
4.5240567e-08
9.7600013e-10
4.5608613e-08
9.1086269e-10
4.5877268e-08
8.2702405e-10
4.6068948e-08
7.2756899e-10
4.6202515e-08
6.1498124e-10
4.6293531e-08
4.9092061e-10
4.6352779e-08
3.5769824e-10
4.6387514e-08
2.1671108e-10
6.5149794e-11
-5.3981466e-09
-9.368723e-10
-6.0887224e-09
-1.1392974e-09
-6.4460387e-09
-1.2302008e-09
-6.3960127e-09
-1.2746827e-09
-5.8958966e-09
-1.2674208e-09
-5.0629026e-09
-1.2166546e-09
-4.021196e-09
-1.1424922e-09
-2.8227012e-09
-1.0517238e-09
-1.5605737e-09
-9.5101014e-10
-2.9876548e-10
-8.4762982e-10
9.7072348e-10
-7.4402714e-10
2.3887694e-09
-6.380321e-10
3.8667715e-09
-5.3295704e-10
5.3139991e-09
-4.3620566e-10
6.6948406e-09
-3.4967176e-10
7.9857739e-09
-2.7358493e-10
9.1693253e-09
-2.0753328e-10
1.0245469e-08
-1.6526216e-10
1.1202915e-08
-1.3040163e-10
1.2032092e-08
-1.0158801e-10
1.2725273e-08
-7.8179011e-11
1.3275489e-08
-5.927498e-11
1.3677054e-08
-4.3845728e-11
1.3924006e-08
-3.0221401e-11
-1.6861483e-11
-2.4271424e-09
-2.9527652e-10
-3.2302808e-09
-3.3616333e-10
-4.0649778e-09
-3.9551059e-10
-4.8784244e-09
-4.6124519e-10
-5.6152176e-09
-5.3063853e-10
-6.1674067e-09
-6.6447753e-10
-6.5928135e-09
-7.1709806e-10
-6.9008116e-09
-7.4373866e-10
-7.0979508e-09
-7.5388372e-10
-7.1951298e-09
-7.504634e-10
-7.2024099e-09
-7.3675903e-10
-7.1249991e-09
-7.1545426e-10
-6.9714823e-09
-6.864845e-10
-6.7573303e-09
-6.5036756e-10
-6.4988016e-09
-6.0820953e-10
-6.2113468e-09
-5.61048e-10
-5.9084669e-09
-5.1042064e-10
-5.6156495e-09
-4.5808629e-10
-5.3428244e-09
-4.0323297e-10
-5.0983321e-09
-3.4608586e-10
-4.8897161e-09
-2.8680026e-10
-4.7234806e-09
-2.2551525e-10
-4.6049439e-09
-1.6238703e-10
-4.5374912e-09
-9.7678443e-11
-3.2496141e-11
-6.7698761e-10
-8.6898474e-11
-9.228026e-10
-9.0347114e-11
-1.2120876e-09
-1.0622504e-10
-1.5399244e-09
-1.3340872e-10
-1.9129534e-09
-1.5761082e-10
-2.3883494e-09
-1.8908399e-10
-2.8861198e-09
-2.1933132e-10
-3.3855899e-09
-2.4427335e-10
-3.8764646e-09
-2.6301486e-10
-4.3513587e-09
-2.7557606e-10
-4.8053184e-09
-2.8280685e-10
-5.2341566e-09
-2.8662412e-10
-5.6315518e-09
-2.8909783e-10
-5.9882531e-09
-2.9367525e-10
-6.2886413e-09
-3.0783057e-10
-6.5517125e-09
-2.979862e-10
-6.7812048e-09
-2.8093783e-10
-6.980814e-09
-2.5848658e-10
-7.1523453e-09
-2.3171115e-10
-7.2971954e-09
-2.0124519e-10
-7.4163985e-09
-1.6760647e-10
-7.5106441e-09
-1.3127892e-10
-7.5802722e-09
-9.2768161e-11
-7.6254906e-09
-5.2469133e-11
-1.2275261e-11
-1.8720734e-10
-2.4732312e-11
-2.6417275e-10
-1.338075e-11
-3.6290465e-10
-7.4923031e-12
-4.8567419e-10
-1.0638576e-11
-6.299991e-10
-1.3285644e-11
-7.9814782e-10
-2.0935419e-11
-9.8411235e-10
-3.3367383e-11
-1.182483e-09
-4.590379e-11
-1.3875854e-09
-5.7913962e-11
-1.5955249e-09
-6.763838e-11
-1.8050449e-09
-7.3289172e-11
-2.0155289e-09
-7.6142751e-11
-2.2265412e-09
-7.8088491e-11
-2.441838e-09
-7.8381713e-11
-2.6725604e-09
-7.7111672e-11
-2.8961854e-09
-7.4365108e-11
-3.1068295e-09
-7.0297788e-11
-3.3003134e-09
-6.5007006e-11
-3.4733919e-09
-5.8637148e-11
-3.6233308e-09
-5.1310867e-11
-3.7477734e-09
-4.316846e-11
-3.844719e-09
-3.4337959e-11
-3.9125725e-09
-2.4919394e-11
-3.9501296e-09
-1.4916717e-11
-4.3908071e-12
-2.0508659e-11
-2.4247296e-11
-2.2587369e-11
-1.1301464e-11
-2.9679647e-11
-3.9952735e-13
-4.6699019e-11
6.3811955e-12
-7.0079743e-11
1.0095377e-11
-1.0172133e-10
1.0706358e-11
-1.4284546e-10
7.7568203e-12
-1.9225853e-10
3.5092325e-12
-2.4614854e-10
-4.0241064e-12
-3.0484456e-10
-8.9426315e-12
-3.6552195e-10
-1.261215e-11
-4.2624505e-10
-1.5420116e-11
-4.869289e-10
-1.7405199e-11
-5.4676184e-10
-1.8549411e-11
-6.0475758e-10
-1.9116646e-11
-6.6011166e-10
-1.9011814e-11
-7.1207814e-10
-1.8332152e-11
-7.5990761e-10
-1.7178436e-11
-8.0297706e-10
-1.5568629e-11
-8.4061125e-10
-1.3677637e-11
-8.7219707e-10
-1.1583616e-11
-8.972084e-10
-9.3276033e-12
-9.151981e-10
-6.9306722e-12
-9.2576381e-10
-4.3519821e-12
-1.3693954e-12
1.3926159e-11
-3.4283328e-11
2.9221066e-11
-2.6595786e-11
4.6765217e-11
-1.7943091e-11
6.3567555e-11
-1.0420572e-11
7.8643598e-11
-4.9801181e-12
9.176036e-11
-2.4098798e-12
9.9872506e-11
-3.5482338e-13
1.0465366e-10
-1.2714484e-12
1.0487873e-10
-4.2487158e-12
1.0243037e-10
-6.4938491e-12
9.9173769e-11
-9.3551455e-12
9.5789297e-11
-1.2035263e-11
9.3132099e-11
-1.4747639e-11
9.0804179e-11
-1.6221146e-11
8.9536579e-11
-1.7848713e-11
8.9155061e-11
-1.8629974e-11
8.9487833e-11
-1.8664613e-11
9.0299654e-11
-1.7989953e-11
9.1430283e-11
-1.6698962e-11
9.2669137e-11
-1.4916203e-11
9.3827828e-11
-1.2742028e-11
9.4743584e-11
-1.0243091e-11
9.5258301e-11
-7.4451356e-12
9.531844e-11
-4.4118852e-12
-1.5176371e-12
-3.1328554e-12
-3.7770596e-11
5.1639182e-12
-3.4892131e-11
1.7612325e-11
-3.0391038e-11
3.2116446e-11
-2.4924219e-11
4.6738765e-11
-1.9601961e-11
5.9234739e-11
-1.4905382e-11
7.0735585e-11
-1.1855205e-11
7.9580844e-11
-1.0116255e-11
8.5758331e-11
-1.0425763e-11
9.1223092e-11
-1.1958188e-11
9.5639837e-11
-1.3771483e-11
9.8294262e-11
-1.4689298e-11
1.0001206e-10
-1.6465066e-11
1.0161133e-10
-1.7820054e-11
1.0310029e-10
-1.9337333e-11
1.0442836e-10
-1.9957716e-11
1.058356e-10
-2.0071547e-11
1.0730009e-10
-1.9454137e-11
1.088143e-10
-1.8212894e-11
1.1034192e-10
-1.6443548e-11
1.1181401e-10
-1.4213863e-11
1.1316531e-10
-1.1594134e-11
1.1436166e-10
-8.6412553e-12
1.153807e-10
-5.4307057e-12
-1.9765565e-12
-2.0901404e-11
-3.4268977e-11
-2.2450409e-11
-3.334294e-11
-2.1553203e-11
-3.128803e-11
-1.8803499e-11
-2.7673698e-11
-1.5036336e-11
-2.3368898e-11
-1.0887319e-11
-1.9054177e-11
-7.7187863e-12
-1.5023525e-11
-5.2836028e-12
-1.255124e-11
-4.7636647e-12
-1.0945519e-11
-6.3192334e-12
-1.0402454e-11
-8.5908969e-12
-1.1499673e-11
-1.1224304e-11
-1.2055763e-11
-1.4990685e-11
-1.2698576e-11
-1.9701065e-11
-1.3109583e-11
-2.4936174e-11
-1.4102149e-11
-3.0404084e-11
-1.4489749e-11
-3.5436311e-11
-1.5039277e-11
-4.0194544e-11
-1.4695874e-11
-4.4558707e-11
-1.3848713e-11
-4.8376825e-11
-1.2625423e-11
-5.1583835e-11
-1.1006853e-11
-5.4150085e-11
-9.0278898e-12
-5.6055785e-11
-6.7355687e-12
-5.7364506e-11
-4.1219969e-12
-1.3265854e-12
-2.6224178e-11
-2.7996127e-11
-3.1446547e-11
-2.8120604e-11
-3.5939508e-11
-2.6795056e-11
-3.9391576e-11
-2.4221598e-11
-4.1894372e-11
-2.0866065e-11
-4.3666532e-11
-1.7281984e-11
-4.4867917e-11
-1.3822115e-11
-4.666518e-11
-1.0753959e-11
-4.9803304e-11
-7.807391e-12
-5.3034257e-11
-7.1715115e-12
-5.8272246e-11
-6.2617073e-12
-6.4396692e-11
-5.9313562e-12
-7.1034498e-11
-6.0608237e-12
-7.7621377e-11
-6.5227709e-12
-8.4752345e-11
-6.9712611e-12
-9.1878591e-11
-7.3635955e-12
-9.9180217e-11
-7.7377524e-12
-1.061787e-10
-7.6974985e-12
-1.1270024e-10
-7.3272944e-12
-1.1845609e-10
-6.8696994e-12
-1.2339266e-10
-6.0704121e-12
-1.2741902e-10
-5.0016575e-12
-1.3043266e-10
-3.7220509e-12
-1.3242131e-10
-2.1334672e-12
-6.5474092e-13
-2.1581133e-11
-2.2683119e-11
-2.6791047e-11
-2.2910872e-11
-3.1733219e-11
-2.1853012e-11
-3.6021623e-11
-1.9933284e-11
-3.9536174e-11
-1.7351586e-11
-4.252196e-11
-1.4296262e-11
-4.514598e-11
-1.1198155e-11
-4.7665706e-11
-8.2342958e-12
-4.9828115e-11
-5.6450479e-12
-5.315366e-11
-3.8460379e-12
-5.7308798e-11
-2.1066471e-12
-6.1844781e-11
-1.3954573e-12
-6.6913088e-11
-9.9260901e-13
-7.2504001e-11
-9.319563e-13
-7.8465279e-11
-1.0100896e-12
-8.457396e-11
-1.2550269e-12
-9.069113e-11
-1.6207013e-12
-9.6529735e-11
-1.8590169e-12
-1.0186884e-10
-1.9883124e-12
-1.0669772e-10
-2.0409498e-12
-1.1081479e-10
-1.9534716e-12
-1.1406734e-10
-1.7492323e-12
-1.1634682e-10
-1.4426947e-12
-1.17494e-10
-9.8639907e-13
-3.3769969e-13
-1.5322278e-11
-1.8979493e-11
-1.8982967e-11
-1.9250328e-11
-2.2391354e-11
-1.8444769e-11
-2.5420272e-11
-1.6904494e-11
-2.7730371e-11
-1.5041591e-11
-2.9776018e-11
-1.2250703e-11
-3.1422449e-11
-9.5518029e-12
-3.2801898e-11
-6.8549192e-12
-3.4072859e-11
-4.3741556e-12
-3.5710361e-11
-2.2086047e-12
-3.7407193e-11
-4.0988292e-13
-3.968212e-11
8.7940008e-13
-4.2439247e-11
1.7644462e-12
-4.5539605e-11
2.168327e-12
-4.9038859e-11
2.4890862e-12
-5.272785e-11
2.4338843e-12
-5.6549723e-11
2.2010887e-12
-6.0285399e-11
1.8765737e-12
-6.3840872e-11
1.567073e-12
-6.7109349e-11
1.2274382e-12
-6.995736e-11
8.9445064e-13
-7.2279977e-11
5.732958e-13
-7.4068476e-11
3.4571568e-13
-7.5203894e-11
1.4893575e-13
-3.9358078e-14
-1.0501809e-11
-1.6471975e-11
-1.2930031e-11
-1.6822234e-11
-1.4859954e-11
-1.6514966e-11
-1.6544085e-11
-1.5220475e-11
-1.8097196e-11
-1.3488578e-11
-1.8636337e-11
-1.1711645e-11
-1.9080569e-11
-9.10764e-12
-1.9256656e-11
-6.6788931e-12
-1.9276926e-11
-4.3539398e-12
-1.9293123e-11
-2.1924586e-12
-1.9388226e-11
-3.1482726e-13
-1.9773317e-11
1.2644449e-12
-2.0480055e-11
2.4711386e-12
-2.1618672e-11
3.3068979e-12
-2.2958002e-11
3.8283685e-12
-2.4565076e-11
4.0409094e-12
-2.6318705e-11
3.9546676e-12
-2.8150949e-11
3.7087657e-12
-3.007425e-11
3.4903202e-12
-3.1906207e-11
3.0593403e-12
-3.3572032e-11
2.5602204e-12
-3.5027021e-11
2.0282299e-12
-3.6113325e-11
1.4319633e-12
-3.6806129e-11
8.416899e-13
2.12844e-13
-7.5773581e-12
-1.4719886e-11
-9.1714839e-12
-1.5228239e-11
-1.0654996e-11
-1.5031576e-11
-1.1446425e-11
-1.4429157e-11
-1.2030977e-11
-1.2904121e-11
-1.2527015e-11
-1.1215685e-11
-1.2353111e-11
-9.2816086e-12
-1.1598568e-11
-7.43349e-12
-1.0929755e-11
-5.0228008e-12
-1.0133899e-11
-2.9883558e-12
-9.3320056e-12
-1.1167589e-12
-8.6083528e-12
5.407572e-13
-8.0519127e-12
1.9146654e-12
-7.7277887e-12
2.9827419e-12
-7.629976e-12
3.7305242e-12
-7.7679392e-12
4.1788407e-12
-8.1722832e-12
4.3589791e-12
-8.7715492e-12
4.3079984e-12
-9.3885862e-12
4.1073231e-12
-1.0062599e-11
3.7333188e-12
-1.0733237e-11
3.2308228e-12
-1.1335259e-11
2.6302169e-12
-1.1995213e-11
2.0918818e-12
-1.2328183e-11
1.1746304e-12
1.3831019e-13
-5.9473397e-12
-1.3366802e-11
-7.2238499e-12
-1.3951859e-11
-8.2637376e-12
-1.3991809e-11
-9.1467976e-12
-1.3546206e-11
-9.3624486e-12
-1.2688563e-11
-9.3806907e-12
-1.119752e-11
-9.0672982e-12
-9.5950651e-12
-8.6421745e-12
-7.8586681e-12
-7.6270928e-12
-6.0379298e-12
-6.4644268e-12
-4.1510633e-12
-5.2862671e-12
-2.2949555e-12
-4.0551214e-12
-6.9042168e-13
-2.8682003e-12
7.2771396e-13
-1.7901789e-12
1.9046921e-12
-8.6965597e-13
2.8099742e-12
-1.3812055e-13
3.4472791e-12
3.907793e-13
3.8300534e-12
7.0841086e-13
3.9903412e-12
9.0589191e-13
3.9098163e-12
9.9909105e-13
3.6400941e-12
1.0298099e-12
3.2000787e-12
1.0442019e-12
2.6157999e-12
1.2575934e-12
1.8784649e-12
1.312152e-12
1.1200523e-12
4.1783708e-13
-5.0293897e-12
-1.2133587e-11
-6.0945413e-12
-1.2886832e-11
-7.004968e-12
-1.3081497e-11
-7.6860925e-12
-1.2865184e-11
-8.1410825e-12
-1.2233662e-11
-8.0952552e-12
-1.1243423e-11
-7.7752182e-12
-9.9151666e-12
-7.2073188e-12
-8.4266234e-12
-6.3904885e-12
-6.8548092e-12
-5.3188574e-12
-5.2227378e-12
-3.984542e-12
-3.6293096e-12
-2.586636e-12
-2.0883624e-12
-1.1766087e-12
-6.8234481e-13
2.1743504e-13
5.1061943e-13
1.5577143e-12
1.469668e-12
2.7602778e-12
2.2446902e-12
3.7936744e-12
2.7966326e-12
4.6771934e-12
3.1067988e-12
5.396441e-12
3.1905461e-12
5.9734551e-12
3.063058e-12
6.4285539e-12
2.7449589e-12
6.7855741e-12
2.2587592e-12
7.1848579e-12
1.4791605e-12
7.2996524e-12
1.0052431e-12
5.7338797e-13
-4.2549883e-12
-1.1077494e-11
-5.2041163e-12
-1.193782e-11
-5.9934864e-12
-1.2292233e-11
-6.6428148e-12
-1.2215951e-11
-7.0154778e-12
-1.1861083e-11
-7.1415058e-12
-1.1117468e-11
-6.9124087e-12
-1.0144328e-11
-6.3904021e-12
-8.9486861e-12
-5.6190334e-12
-7.6262277e-12
-4.6284635e-12
-6.2133523e-12
-3.4578168e-12
-4.7999963e-12
-2.134152e-12
-3.4120632e-12
-6.4715864e-13
-2.1693708e-12
9.1324706e-13
-1.049816e-12
2.4780876e-12
-9.5199832e-14
3.9008695e-12
8.2188313e-13
5.1945655e-12
1.5029131e-12
6.3584884e-12
1.9428539e-12
7.3787894e-12
2.1702242e-12
8.2449864e-12
2.1968415e-12
8.9481256e-12
2.0418013e-12
9.4782151e-12
1.7286523e-12
9.6066372e-12
1.3507212e-12
9.7783097e-12
8.3355891e-13
2.7419095e-13
-3.5179461e-12
-1.0203084e-11
-4.3680541e-12
-1.1087806e-11
-5.0654586e-12
-1.1594919e-11
-5.5934305e-12
-1.1688064e-11
-5.9443439e-12
-1.1510246e-11
-6.031854e-12
-1.1030026e-11
-5.9179733e-12
-1.0258269e-11
-5.5169736e-12
-9.3497402e-12
-4.7954218e-12
-8.3478282e-12
-3.9210833e-12
-7.0877346e-12
-2.8500239e-12
-5.8710951e-12
-1.59076e-12
-4.6713627e-12
-1.3811178e-13
-3.6220513e-12
1.4285884e-12
-2.6165455e-12
2.9569328e-12
-1.6235709e-12
4.4061566e-12
-6.273649e-13
5.8335004e-12
7.5547136e-14
7.1312485e-12
6.4508537e-13
8.303609e-12
9.9784498e-13
9.327271e-12
1.1731622e-12
1.0178707e-11
1.1903492e-12
1.0832729e-11
1.0746163e-12
1.1314399e-11
8.6903626e-13
1.1600584e-11
5.473649e-13
1.1383802e-13
-2.8907964e-12
-9.4770686e-12
-3.5786045e-12
-1.0400075e-11
-4.179589e-12
-1.0994009e-11
-4.6052797e-12
-1.1262444e-11
-4.918829e-12
-1.1196763e-11
-5.000533e-12
-1.0948383e-11
-4.8342073e-12
-1.042465e-11
-4.491142e-12
-9.6928562e-12
-3.9691434e-12
-8.8698729e-12
-3.16119e-12
-7.8957296e-12
-2.1636895e-12
-6.8686333e-12
-1.0001078e-12
-5.8349784e-12
3.4416345e-13
-4.9663533e-12
1.8066207e-12
-4.0790304e-12
3.1678787e-12
-2.984854e-12
4.6061124e-12
-2.0656212e-12
5.9993457e-12
-1.3177064e-12
7.3565307e-12
-7.1211797e-13
8.6060952e-12
-2.5173596e-13
9.7124548e-12
6.678781e-14
1.0648631e-11
2.5415939e-13
1.1399369e-11
3.2386714e-13
1.2008302e-11
2.6009124e-13
1.2391447e-11
1.6421401e-13
1.4761464e-13
-2.3477396e-12
-8.88055e-12
-2.9165919e-12
-9.8312889e-12
-3.4222691e-12
-1.0488396e-11
-3.7876055e-12
-1.0897168e-11
-3.9956196e-12
-1.0988806e-11
-4.0827784e-12
-1.0861278e-11
-3.967373e-12
-1.0540105e-11
-3.6332188e-12
-1.0027056e-11
-3.1421891e-12
-9.3609446e-12
-2.4408854e-12
-8.5970716e-12
-1.5563735e-12
-7.7531801e-12
-5.0865749e-13
-6.882726e-12
6.0982981e-13
-6.084869e-12
1.8885353e-12
-5.3577615e-12
3.2075018e-12
-4.3038434e-12
4.5542381e-12
-3.4123778e-12
5.8917086e-12
-2.6551951e-12
7.1849027e-12
-2.0053281e-12
8.3927551e-12
-1.4596026e-12
9.4747413e-12
-1.0152109e-12
1.0396508e-11
-6.6761793e-13
1.1124222e-11
-4.0385664e-13
1.1606782e-11
-2.2247766e-13
1.1879798e-11
-1.0880713e-13
-6.548649e-14
-1.9078299e-12
-8.4123336e-12
-2.383348e-12
-9.3558291e-12
-2.7996631e-12
-1.0072138e-11
-3.1473198e-12
-1.0549566e-11
-3.3066964e-12
-1.082948e-11
-3.3679682e-12
-1.0800054e-11
-3.2701215e-12
-1.0637997e-11
-2.9988566e-12
-1.0298362e-11
-2.5501493e-12
-9.8096897e-12
-1.9407188e-12
-9.2065368e-12
-1.1759355e-12
-8.517995e-12
-2.7553273e-13
-7.7831574e-12
6.6424372e-13
-7.0246714e-12
1.719179e-12
-6.4127199e-12