/*--------------------------------*- C++ -*----------------------------------*\
| =========                 |                                                 |
| \\      /  F ield         | OpenFOAM: The Open Source CFD Toolbox           |
|  \\    /   O peration     | Version:  4.0                                   |
|   \\  /    A nd           | Web:      www.OpenFOAM.org                      |
|    \\/     M anipulation  |                                                 |
\*---------------------------------------------------------------------------*/
FoamFile
{
    version     2.0;
    format      ascii;
    class       volVectorField;
    location    "0.15";
    object      U;
}
// * * * * * * * * * * * * * * * * * * * * * * * * * * * * * * * * * * * * * //

dimensions      [0 1 -1 0 0 0 0];

internalField   nonuniform List<vector> 
1740
(
(1.4446528 -0.0015475243 5.1341405e-06)
(1.4707159 -0.012472807 8.2735266e-07)
(1.5918694 -0.0059391328 3.9166803e-08)
(1.486511 -0.014772624 8.0610046e-06)
(1.4930569 -0.041405225 1.4414707e-06)
(1.6000245 -0.025677163 2.837184e-07)
(1.6006929 -0.017108831 1.0204912e-05)
(1.5382377 -0.038273367 2.3437799e-06)
(1.5072794 -0.023511174 4.4619967e-07)
(1.5989776 -0.0038912505 1.3372135e-05)
(1.5494713 -0.0037060572 3.3460714e-06)
(1.5332268 -0.0026294718 5.4406455e-07)
(1.6075308 0.00086597371 1.4928245e-05)
(1.5197653 0.011161043 4.229257e-06)
(1.5510876 0.00066703324 8.0749386e-07)
(1.585219 -0.0031012292 1.643907e-05)
(1.4982705 -0.0029438169 5.156448e-06)
(1.5274642 -0.0053099596 9.9175779e-07)
(1.5938508 -0.0030710088 1.7136947e-05)
(1.5140736 -0.0081863183 5.7809423e-06)
(1.5053361 -0.0056796612 1.1521806e-06)
(1.6140924 0.0043252787 1.7822171e-05)
(1.5303533 0.015531743 6.5853424e-06)
(1.5197545 0.0016865577 1.3662977e-06)
(1.5206759 0.00029247497 1.8626504e-05)
(1.5290419 0.013718929 7.2694151e-06)
(1.5414865 0.0035513156 1.5206039e-06)
(1.545538 -0.012789399 1.9246473e-05)
(1.5342872 -0.0091665687 7.8958255e-06)
(1.5372778 -0.0047431916 1.7826647e-06)
(1.6349287 -0.011874704 1.9670653e-05)
(1.5493842 -0.0054452728 8.574607e-06)
(1.5148137 -0.0020734155 1.9462517e-06)
(1.5735189 0.024386853 1.9804527e-05)
(1.5178209 0.03132632 9.1531704e-06)
(1.4983017 0.012962524 2.1280867e-06)
(1.4442984 0.023514174 2.0253636e-05)
(1.5286272 0.044156488 9.7091837e-06)
(1.5538644 0.02146923 2.3472091e-06)
(1.4296302 -0.011622765 2.063633e-05)
(1.5148043 -0.0011891988 1.0186153e-05)
(1.6332937 0.0051770242 2.5165787e-06)
(1.5393257 -0.018589234 2.0803551e-05)
(1.4641328 -0.032874995 1.0615008e-05)
(1.5662442 -0.01672888 2.7328838e-06)
(1.5649859 0.0047019436 2.0818321e-05)
(1.4841553 -0.025070656 1.0998919e-05)
(1.5095201 -0.020519 2.9063912e-06)
(1.5064635 -0.0016484811 2.099049e-05)
(1.5970371 -0.012030069 1.1311332e-05)
(1.507184 -0.013467514 3.0749012e-06)
(1.6172411 -0.019360654 2.137379e-05)
(1.599875 -0.0017274731 1.1895449e-05)
(1.5073214 0.0042556967 3.2731522e-06)
(1.5974494 0.0042094155 2.1628071e-05)
(1.5067655 0.015680665 1.2252403e-05)
(1.5141565 0.0093321968 3.4248348e-06)
(1.5154694 0.019945559 2.1764469e-05)
(1.5210191 0.021068088 1.2579052e-05)
(1.5075029 0.0049316981 3.6275563e-06)
(1.5012226 0.0010454256 2.2234094e-05)
(1.5536104 0.00028035585 1.299984e-05)
(1.5721638 7.7238249e-05 3.7917285e-06)
(1.554305 -0.003871093 2.2118381e-05)
(1.5188503 -0.022588335 1.327764e-05)
(1.5586527 -0.015338534 3.9738929e-06)
(1.5370708 0.0095034248 2.1783825e-05)
(1.565898 -0.015975669 1.3473912e-05)
(1.4802034 -0.015880784 4.1255663e-06)
(1.553691 0.0010757874 2.1899321e-05)
(1.6019534 0.0097773866 1.3955745e-05)
(1.4793668 0.0044108522 4.265152e-06)
(1.557033 -0.0077908534 2.243348e-05)
(1.514646 0.0086987765 1.4254259e-05)
(1.5407493 0.013395855 4.4064716e-06)
(1.5472714 -0.007486841 2.2486815e-05)
(1.4983745 -0.0089426971 1.4553882e-05)
(1.5598357 -0.0032167674 4.584272e-06)
(1.5482937 -0.0064883456 2.2466041e-05)
(1.5634238 -0.022808277 1.4795046e-05)
(1.4667877 -0.010934745 4.738227e-06)
(1.5134786 -0.0050659276 2.2745043e-05)
(1.5665645 -0.012866595 1.508901e-05)
(1.4339671 -0.0062116343 4.882296e-06)
(1.4622076 0.0088521428 2.245848e-05)
(1.5197837 0.0093616148 1.518725e-05)
(1.4114461 0.0036143478 4.9071835e-06)
(1.2582113 0.04032992 2.3646651e-05)
(1.34552 0.11560755 1.5718768e-05)
(1.3239692 0.065574776 5.5689745e-06)
(0.82001034 0.36553003 1.1807491e-05)
(0.79769514 0.93399403 9.941683e-06)
(0.72645453 1.2463988 5.4241808e-06)
(0.21429666 0.10827634 1.479618e-06)
(0.18574315 0.36133099 3.0280584e-06)
(0.077893319 0.49290019 6.9499319e-07)
(-0.03047364 -0.01418399 1.2506986e-06)
(-0.027867249 -0.028522728 1.7223536e-06)
(-0.022961439 -0.034319043 6.452248e-07)
(-0.0071544716 -0.0029117771 4.8103733e-07)
(-0.0072415397 -0.0072241732 7.9763496e-07)
(-0.007645652 -0.010418472 4.2418894e-07)
(-0.0010948839 -0.00023901678 1.4059498e-07)
(-0.0014020187 -0.00077455507 2.9937416e-07)
(-0.0020250955 -0.0015178294 1.9500875e-07)
(-0.00065051382 -4.3529848e-05 4.0538473e-08)
(-0.00077195532 -0.00017112862 1.0355893e-07)
(-0.00096042813 -0.00036904186 7.2412974e-08)
(-0.00058390371 -1.8715336e-05 9.8086737e-09)
(-0.00061156859 -3.1795153e-05 3.0003489e-08)
(-0.00063635106 -7.7450617e-05 1.8295356e-08)
(-0.00053253805 3.7675449e-06 -9.0503336e-10)
(-0.00054116653 1.2661927e-05 3.4954924e-09)
(-0.00053539398 -5.5504863e-07 -2.1404519e-09)
(-0.00049768267 -8.4973099e-06 -2.5591757e-09)
(-0.00049770903 -1.1580784e-05 -2.842258e-09)
(-0.00048463367 -3.5998978e-05 -6.0818564e-09)
(-0.0004480587 -2.4021072e-05 -1.2720287e-09)
(-0.00044428966 -5.0904891e-05 -2.0312284e-09)
(-0.0004287421 -8.702858e-05 -4.0398502e-09)
(-0.0003791982 -2.8448486e-05 -1.6756185e-10)
(-0.00037434258 -6.2935418e-05 -3.9186566e-10)
(-0.00035947631 -0.00010310723 -1.536159e-09)
(-0.00031126273 -2.3548897e-05 1.7927325e-10)
(-0.00030656612 -5.1563081e-05 2.8245895e-10)
(-0.00029298798 -8.4484455e-05 -2.5286757e-10)
(-0.00025535668 -1.66552e-05 6.5544104e-11)
(-0.00025153372 -3.8138125e-05 2.7414522e-10)
(-0.000240599 -5.886163e-05 9.4870617e-11)
(-0.00021306251 -1.165649e-05 -1.086662e-10)
(-0.00021013943 -2.6858995e-05 6.8056778e-11)
(-0.00020191774 -4.2667601e-05 6.4773645e-11)
(-0.00018249373 -9.214744e-06 -1.8643276e-10)
(-0.00018012835 -2.0144413e-05 -8.0458692e-11)
(-0.00017346346 -3.2183557e-05 -2.5401207e-11)
(-0.00015911474 -7.3769207e-06 -1.8869096e-10)
(-0.00015708966 -1.5847895e-05 -1.2807695e-10)
(-0.00015151356 -2.5229393e-05 -6.7169706e-11)
(-0.00014001766 -5.9703722e-06 -1.5527283e-10)
(-0.00013835814 -1.289212e-05 -1.1262386e-10)
(-0.00013377893 -2.0636551e-05 -6.1793567e-11)
(-0.00012423162 -4.8933455e-06 -1.1811107e-10)
(-0.00012292874 -1.0629255e-05 -8.140214e-11)
(-0.00011922078 -1.7110542e-05 -4.0392101e-11)
(-0.00011129842 -4.0160343e-06 -9.1865977e-11)
(-0.00011027676 -8.7524514e-06 -5.8550711e-11)
(-0.00010726342 -1.4092891e-05 -2.4175898e-11)
(-0.00010075471 -3.2817604e-06 -7.7791182e-11)
(-9.9948673e-05 -7.0957465e-06 -4.9376219e-11)
(-9.7476539e-05 -1.1422661e-05 -1.8855432e-11)
(-9.2175692e-05 -2.6722866e-06 -7.0239552e-11)
(-9.1535574e-05 -5.7038734e-06 -4.8339297e-11)
(-8.9485225e-05 -9.1799614e-06 -2.0080501e-11)
(-8.5163513e-05 -2.1837407e-06 -6.4842796e-11)
(-8.4655302e-05 -4.6206867e-06 -4.8737362e-11)
(-8.2937248e-05 -7.4450548e-06 -2.2615652e-11)
(-7.9323241e-05 -1.811796e-06 -5.8989291e-11)
(-7.893069e-05 -3.8066412e-06 -4.7218337e-11)
(-7.7497635e-05 -6.1496582e-06 -2.3928863e-11)
(-7.4386665e-05 -1.5694107e-06 -5.3551768e-11)
(-7.408763e-05 -3.2443147e-06 -4.4585735e-11)
(-7.2896331e-05 -5.2143346e-06 -2.4019705e-11)
(-7.0275544e-05 -1.391749e-06 -4.9206779e-11)
(-7.0032539e-05 -2.9354663e-06 -4.1923955e-11)
(-6.8996535e-05 -4.7053578e-06 -2.3397971e-11)
(-6.6811215e-05 -1.1879828e-06 -4.6090253e-11)
(-6.660992e-05 -2.4830752e-06 -3.9707239e-11)
(-6.5684678e-05 -4.0317117e-06 -2.2795539e-11)
(-6.3715464e-05 -1.0574124e-06 -4.2465779e-11)
(-6.3562262e-05 -2.2112818e-06 -3.6994459e-11)
(-6.2761232e-05 -3.5986191e-06 -2.206634e-11)
(-6.0872624e-05 -9.6932937e-07 -3.9919949e-11)
(-6.0760535e-05 -2.0408752e-06 -3.4777788e-11)
(-6.0067827e-05 -3.328509e-06 -2.0938878e-11)
(-5.8247008e-05 -9.0108196e-07 -3.8359754e-11)
(-5.8163597e-05 -1.8967104e-06 -3.359664e-11)
(-5.7550304e-05 -3.0992697e-06 -2.0528285e-11)
(-5.5784742e-05 -8.5159539e-07 -3.6856994e-11)
(-5.5723623e-05 -1.7962192e-06 -3.2308014e-11)
(-5.5175709e-05 -2.9319532e-06 -2.0142743e-11)
(-5.3444854e-05 -8.1349251e-07 -3.5648485e-11)
(-5.3401355e-05 -1.7226048e-06 -3.1196882e-11)
(-5.2907877e-05 -2.8104629e-06 -1.9803916e-11)
(-5.1198554e-05 -7.8181213e-07 -3.4910117e-11)
(-5.1168869e-05 -1.6638525e-06 -3.0437832e-11)
(-5.072102e-05 -2.7180368e-06 -1.9587355e-11)
(-4.9027539e-05 -7.5532062e-07 -3.4130958e-11)
(-4.9008577e-05 -1.6166761e-06 -2.9395103e-11)
(-4.8599274e-05 -2.6396719e-06 -1.9237855e-11)
(-4.6922008e-05 -7.3203748e-07 -3.3244431e-11)
(-4.6911317e-05 -1.5756481e-06 -2.8061936e-11)
(-4.6534912e-05 -2.5722261e-06 -1.8552718e-11)
(-4.4878769e-05 -7.1003527e-07 -3.2439455e-11)
(-4.4874427e-05 -1.5374159e-06 -2.6851594e-11)
(-4.4526412e-05 -2.5095373e-06 -1.7866139e-11)
(-4.2899786e-05 -6.8382213e-07 -3.2067017e-11)
(-4.2900261e-05 -1.4909142e-06 -2.6064267e-11)
(-4.2576966e-05 -2.437845e-06 -1.7434657e-11)
(-4.0990805e-05 -6.5727279e-07 -3.1637818e-11)
(-4.0994868e-05 -1.4394794e-06 -2.5399942e-11)
(-4.0693254e-05 -2.3528937e-06 -1.7173813e-11)
(-3.9160133e-05 -6.2756716e-07 -3.1279108e-11)
(-3.9166844e-05 -1.3796943e-06 -2.4821472e-11)
(-3.8884396e-05 -2.2542048e-06 -1.6971393e-11)
(-3.741774e-05 -5.9385e-07 -3.1016785e-11)
(-3.7426391e-05 -1.3101268e-06 -2.4329961e-11)
(-3.7160989e-05 -2.1401747e-06 -1.6806947e-11)
(-3.5774469e-05 -5.5635725e-07 -3.0820374e-11)
(-3.5784507e-05 -1.2311992e-06 -2.3914502e-11)
(-3.5534296e-05 -2.0111989e-06 -1.6676978e-11)
(-3.4241352e-05 -5.1527682e-07 -3.0672225e-11)
(-3.4252326e-05 -1.1434729e-06 -2.3563878e-11)
(-3.4015626e-05 -1.8683904e-06 -1.6575863e-11)
(-3.2829208e-05 -4.7070868e-07 -3.056553e-11)
(-3.2840709e-05 -1.0472436e-06 -2.3282151e-11)
(-3.2615973e-05 -1.7114912e-06 -1.6527446e-11)
(-3.1548673e-05 -4.2257706e-07 -3.0514625e-11)
(-3.1560379e-05 -9.4190068e-07 -2.3113538e-11)
(-3.1346348e-05 -1.5375238e-06 -1.6605204e-11)
(-3.041066e-05 -3.7096606e-07 -3.0583792e-11)
(-3.0422307e-05 -8.2868065e-07 -2.3109498e-11)
(-3.021825e-05 -1.3538453e-06 -1.6757184e-11)
(-2.9427904e-05 -3.1645916e-07 -3.0700401e-11)
(-2.9440517e-05 -7.0964716e-07 -2.3204013e-11)
(-2.9249285e-05 -1.1612294e-06 -1.6985731e-11)
(-2.8617326e-05 -2.6061395e-07 -3.0893618e-11)
(-2.8636217e-05 -5.8927692e-07 -2.3412483e-11)
(-2.84503e-05 -9.6626807e-07 -1.7283958e-11)
(-2.7976082e-05 -2.0978696e-07 -3.1122112e-11)
(-2.7989034e-05 -4.5960762e-07 -2.3597643e-11)
(-2.7802114e-05 -7.4353864e-07 -1.7452306e-11)
(-2.7478426e-05 -1.3920788e-07 -3.1280446e-11)
(-2.7489973e-05 -3.1377808e-07 -2.3408318e-11)
(-2.7302659e-05 -5.1311226e-07 -1.7044186e-11)
(-2.7155616e-05 -8.0188521e-08 -3.0994299e-11)
(-2.717063e-05 -1.6837963e-07 -2.1980063e-11)
(-2.6986392e-05 -2.7254351e-07 -1.5244055e-11)
(-2.6996827e-05 -1.7985265e-08 -2.8121701e-11)
(-2.7004616e-05 -3.498972e-08 -1.7014028e-11)
(-2.6826625e-05 -5.9061635e-08 -1.0602944e-11)
(-0.048175442 1.9359127 -3.4854628e-07)
(-0.033345887 1.6851162 -3.4315219e-06)
(-0.064643975 0.33417659 -2.4603167e-07)
(-0.044101004 0.14716965 -9.9341769e-07)
(-0.017526978 -0.043163652 -1.1788864e-07)
(-0.012985763 -0.045456609 -5.3803434e-07)
(-0.0069247671 -0.013959557 6.782044e-09)
(-0.0059429686 -0.015860846 -2.7417528e-07)
(-0.0020988685 -0.0026819835 6.8662598e-09)
(-0.0018667514 -0.003787953 -1.5416109e-07)
(-0.00092378301 -0.00062291164 -1.0563486e-08)
(-0.00072779207 -0.00094603744 -9.6269565e-08)
(-0.00057466556 -0.0001383843 -1.9441304e-08)
(-0.00044698102 -0.00017109653 -6.3643269e-08)
(-0.00048123374 -8.39434e-06 -1.953552e-08)
(-0.00038426535 1.3472502e-05 -4.1681301e-08)
(-0.00044347704 -5.7447688e-05 -1.4294571e-08)
(-0.00037410311 -6.2628096e-05 -2.5038839e-08)
(-0.00039662621 -0.00012352925 -8.0359536e-09)
(-0.0003471548 -0.00015080764 -1.3145024e-08)
(-0.00033409859 -0.00014056209 -3.4957879e-09)
(-0.00029788985 -0.00017007067 -5.8778831e-09)
(-0.00027274698 -0.00011495636 -1.1539813e-09)
(-0.00024571008 -0.00013876561 -2.212822e-09)
(-0.00022459597 -7.9657312e-05 -2.6827241e-10)
(-0.00020420169 -9.9185307e-05 -7.010929e-10)
(-0.00018938332 -5.6344885e-05 -4.5961865e-11)
(-0.00017336447 -6.8232486e-05 -1.9986944e-10)
(-0.0001633109 -4.1058595e-05 -3.252385e-11)
(-0.00015030884 -4.9285206e-05 -6.9667826e-11)
(-0.0001432082 -3.2561104e-05 -4.1575397e-11)
(-0.00013260367 -3.9217647e-05 -3.6578866e-11)
(-0.00012702424 -2.7015081e-05 -3.3106013e-11)
(-0.00011840655 -3.204797e-05 -1.7812601e-11)
(-0.00011373526 -2.2647057e-05 -1.6744754e-11)
(-0.0001067173 -2.69653e-05 -2.1090879e-12)
(-0.00010278786 -1.8970815e-05 -4.7121965e-12)
(-9.7040136e-05 -2.2352217e-05 7.4030515e-12)
(-9.3795723e-05 -1.5336797e-05 -1.4269815e-12)
(-8.9056272e-05 -1.8215683e-05 9.7960464e-12)
(-8.6427219e-05 -1.2295734e-05 -3.3065191e-12)
(-8.2483606e-05 -1.4778135e-05 7.6404152e-12)
(-8.0371653e-05 -1.0031014e-05 -6.4406081e-12)
(-7.7061739e-05 -1.2199087e-05 4.2227409e-12)
(-7.5344779e-05 -8.3133147e-06 -9.0010036e-12)
(-7.2549079e-05 -1.0145595e-05 1.1008363e-12)
(-7.1090759e-05 -7.017054e-06 -1.0504777e-11)
(-6.8725226e-05 -8.554334e-06 -1.0834818e-12)
(-6.7435818e-05 -6.1667336e-06 -1.1124389e-11)
(-6.5416531e-05 -7.4230136e-06 -2.4649919e-12)
(-6.4301368e-05 -5.5015628e-06 -1.1531244e-11)
(-6.2525142e-05 -6.7507772e-06 -3.5071752e-12)
(-6.1550599e-05 -4.8728523e-06 -1.1887576e-11)
(-5.9968073e-05 -6.0196932e-06 -4.3924092e-12)
(-5.9010289e-05 -4.4888819e-06 -1.1754232e-11)
(-5.7619455e-05 -5.5497818e-06 -4.9739381e-12)
(-5.6612434e-05 -4.2202083e-06 -1.1736176e-11)
(-5.5383545e-05 -5.2457122e-06 -5.3526869e-12)
(-5.4335449e-05 -4.0046492e-06 -1.1821669e-11)
(-5.3231627e-05 -5.0102609e-06 -5.6913676e-12)
(-5.2148459e-05 -3.8440384e-06 -1.1937797e-11)
(-5.1148549e-05 -4.8203797e-06 -6.1115799e-12)
(-5.0029402e-05 -3.7289172e-06 -1.2057171e-11)
(-4.9116847e-05 -4.686986e-06 -6.4874738e-12)
(-4.7965114e-05 -3.6272377e-06 -1.2148198e-11)
(-4.712681e-05 -4.5730378e-06 -6.8204599e-12)
(-4.5949967e-05 -3.5389971e-06 -1.1955993e-11)
(-4.5175445e-05 -4.4738517e-06 -6.9538325e-12)
(-4.3984089e-05 -3.4565478e-06 -1.1654728e-11)
(-4.3264929e-05 -4.3728044e-06 -6.945946e-12)
(-4.2071927e-05 -3.3630823e-06 -1.1488458e-11)
(-4.1401323e-05 -4.2608043e-06 -6.9800404e-12)
(-4.0221086e-05 -3.2485954e-06 -1.1475523e-11)
(-3.9593416e-05 -4.1210638e-06 -7.1270478e-12)
(-3.8441407e-05 -3.1134314e-06 -1.1516897e-11)
(-3.7851953e-05 -3.9521875e-06 -7.3257798e-12)
(-3.6744054e-05 -2.9570102e-06 -1.157269e-11)
(-3.6188813e-05 -3.7555777e-06 -7.5301121e-12)
(-3.5140673e-05 -2.7805465e-06 -1.16321e-11)
(-3.4616141e-05 -3.5339443e-06 -7.7203174e-12)
(-3.3642858e-05 -2.5844985e-06 -1.1703352e-11)
(-3.3145964e-05 -3.2852343e-06 -7.9146478e-12)
(-3.2262033e-05 -2.3669613e-06 -1.1822374e-11)
(-3.1790191e-05 -3.006573e-06 -8.1464332e-12)
(-3.1009321e-05 -2.1267789e-06 -1.2031414e-11)
(-3.0560215e-05 -2.7052002e-06 -8.4127413e-12)
(-2.9896686e-05 -1.8746978e-06 -1.2274918e-11)
(-2.946989e-05 -2.3870816e-06 -8.7070433e-12)
(-2.8947027e-05 -1.6108817e-06 -1.2577143e-11)
(-2.8540909e-05 -2.0570892e-06 -9.0489344e-12)
(-2.8154316e-05 -1.3357255e-06 -1.2911636e-11)
(-2.7755343e-05 -1.6945782e-06 -9.4025766e-12)
(-2.7504512e-05 -1.0263628e-06 -1.3076165e-11)
(-2.710377e-05 -1.3018006e-06 -9.5956935e-12)
(-2.7005645e-05 -7.033335e-07 -1.2654745e-11)
(-2.6608518e-05 -8.8466973e-07 -9.287863e-12)
(-2.6695286e-05 -3.7673892e-07 -1.1011213e-11)
(-2.631051e-05 -4.7913017e-07 -7.9913648e-12)
(-2.6547203e-05 -8.2952924e-08 -7.2734497e-12)
(-2.6174325e-05 -1.0676283e-07 -5.1577381e-12)
(0.0028596039 -3.7548852e-05 -4.4206839e-08)
(0.002750075 -0.0001562749 -1.0331379e-07)
(0.0025495914 -0.00019323528 -1.4324632e-07)
(0.0023153762 -0.00024515938 -1.6593315e-07)
(0.0020771566 -0.0002666665 -1.7497361e-07)
(0.0018497903 -0.00029634288 -1.7438887e-07)
(0.001643209 -0.00032596176 -1.6775713e-07)
(0.0014620275 -0.00036503502 -1.5778886e-07)
(0.001306271 -0.00041407705 -1.4626523e-07)
(0.0011726206 -0.00047234153 -1.3430126e-07)
(0.001057862 -0.00053802039 -1.2260249e-07)
(0.00095785619 -0.00060512716 -1.115031e-07)
(0.00086851213 -0.00066822353 -1.0108954e-07)
(0.00078646928 -0.0007241377 -9.1289191e-08)
(0.00070920034 -0.00077284607 -8.2001723e-08)
(0.0006351776 -0.00081527435 -7.3160744e-08)
(0.00056344227 -0.00085148391 -6.4738426e-08)
(0.00049333453 -0.00088133337 -5.6724144e-08)
(0.00042421853 -0.00090476291 -4.9074168e-08)
(0.00035605127 -0.00092113562 -4.1785111e-08)
(0.00028882396 -0.00092939684 -3.4831407e-08)
(0.00022259424 -0.00092976024 -2.8019775e-08)
(0.00015747235 -0.00092430815 -2.1112455e-08)
(9.3475497e-05 -0.00090513 -1.3899853e-08)
(3.0215001e-05 -0.00086972916 -6.3736459e-09)
(0.00034736482 -0.00017671741 -6.1012193e-08)
(0.00032586833 -0.00063045112 -1.3997656e-07)
(0.00030796608 -0.00089374971 -1.8977943e-07)
(0.00030123584 -0.0012322549 -2.1433434e-07)
(0.00031085553 -0.0014932593 -2.2070544e-07)
(0.00033517949 -0.0017794503 -2.1626158e-07)
(0.00036673029 -0.0020640807 -2.0598408e-07)
(0.00039612417 -0.0023668177 -1.9296947e-07)
(0.00041416762 -0.0026873595 -1.7886625e-07)
(0.00042165464 -0.0029989989 -1.6464176e-07)
(0.00041732307 -0.0032955786 -1.5105071e-07)
(0.00040303283 -0.0035757104 -1.3836985e-07)
(0.00038169834 -0.0038366121 -1.2662154e-07)
(0.00035600972 -0.0040755292 -1.1560893e-07)
(0.00032793659 -0.0042902121 -1.0515415e-07)
(0.00029796756 -0.0044778475 -9.5158333e-08)
(0.00026642624 -0.0046373499 -8.5580438e-08)
(0.00023375028 -0.0047713488 -7.6407369e-08)
(0.00020062721 -0.0048829174 -6.7465214e-08)
(0.00016733673 -0.0049627764 -5.8742455e-08)
(0.00013426324 -0.004998962 -5.0264065e-08)
(0.00010178177 -0.00499197 -4.1545311e-08)
(7.0228362e-05 -0.004946233 -3.2150205e-08)
(3.9815168e-05 -0.0048463023 -2.1357529e-08)
(1.1175422e-05 -0.0046288847 -9.190245e-09)
(0.001286877 -0.00039784056 -1.0088938e-07)
(0.001260935 -0.001713447 -2.222459e-07)
(0.0012591861 -0.002312956 -2.8845364e-07)
(0.001292235 -0.0032611017 -3.1093407e-07)
(0.0013351296 -0.0040310351 -3.0861313e-07)
(0.0013667922 -0.0048331388 -2.9524803e-07)
(0.0013739358 -0.0056234328 -2.7733089e-07)
(0.0013532743 -0.0065553446 -2.5839412e-07)
(0.0013110695 -0.0076042317 -2.3935184e-07)
(0.0012509104 -0.0085771202 -2.2064956e-07)
(0.0011776781 -0.0094237688 -2.0342231e-07)
(0.0010963011 -0.010138712 -1.8774343e-07)
(0.0010103631 -0.01072607 -1.7357608e-07)
(0.00092172811 -0.011191608 -1.6038576e-07)
(0.00083112995 -0.011544753 -1.4784185e-07)
(0.00074003596 -0.011790721 -1.3580013e-07)
(0.00064970178 -0.011935671 -1.2422236e-07)
(0.00056102755 -0.011983005 -1.131938e-07)
(0.00047495906 -0.01193965 -1.0211631e-07)
(0.00039175772 -0.011823597 -9.1173479e-08)
(0.00031172101 -0.011654257 -8.0164212e-08)
(0.00023524554 -0.011442639 -6.8601603e-08)
(0.00016245437 -0.011197782 -5.5611863e-08)
(9.3272897e-05 -0.010886962 -3.9505797e-08)
(2.8614119e-05 -0.010454887 -1.9535151e-08)
(0.0039887775 -0.0011429078 -1.8521106e-07)
(0.0039281006 -0.0049445311 -3.7467845e-07)
(0.0038349386 -0.0063512918 -4.5195098e-07)
(0.003643715 -0.0096532748 -4.5871485e-07)
(0.003424525 -0.012611696 -4.3777801e-07)
(0.0031609594 -0.01523559 -4.0950673e-07)
(0.0028773615 -0.017104755 -3.7980563e-07)
(0.0025884732 -0.018121339 -3.5366161e-07)
(0.0023116289 -0.018443315 -3.2876755e-07)
(0.0020490254 -0.018339672 -3.0343803e-07)
(0.0018047252 -0.017917181 -2.8096155e-07)
(0.0015830047 -0.017292029 -2.607385e-07)
(0.0013799635 -0.016512547 -2.4318293e-07)
(0.0011871896 -0.015605388 -2.2681705e-07)
(0.0010112791 -0.014628581 -2.1112787e-07)
(0.00085425672 -0.013628449 -1.9603207e-07)
(0.00071537988 -0.012640914 -1.8142449e-07)
(0.00059310269 -0.011696278 -1.6713876e-07)
(0.00048541138 -0.010816368 -1.5322258e-07)
(0.00039035762 -0.01001822 -1.3945933e-07)
(0.00030589233 -0.0093150955 -1.2559698e-07)
(0.00022979159 -0.0087118366 -1.1116782e-07)
(0.0001602218 -0.0082113492 -9.5261409e-08)
(9.5570886e-05 -0.0077660201 -7.6110749e-08)
(3.4533395e-05 -0.0074081368 -4.8175928e-08)
(0.012102673 -0.0088501205 -3.7462091e-07)
(0.0096561705 -0.025989319 -6.3506678e-07)
(0.0083729779 -0.028641263 -6.9219374e-07)
(0.0065622369 -0.033018727 -6.7044256e-07)
(0.00509445 -0.030553425 -6.2622471e-07)
(0.0038215048 -0.026801154 -5.7731008e-07)
(0.0027621804 -0.022092144 -5.3066508e-07)
(0.0019182046 -0.017130252 -4.8761221e-07)
(0.0012579118 -0.012161961 -4.5069242e-07)
(0.00074826463 -0.0075496777 -4.169702e-07)
(0.00036144784 -0.0033767315 -3.8655945e-07)
(7.3358708e-05 0.00023053911 -3.5812922e-07)
(-0.00013283876 0.0034432098 -3.3571339e-07)
(-0.0002706542 0.0065373888 -3.1441782e-07)
(-0.00035797484 0.0094112938 -2.9367894e-07)
(-0.00040418661 0.011913234 -2.7383887e-07)
(-0.00041823652 0.01400084 -2.5477612e-07)
(-0.00040739983 0.015688421 -2.3632935e-07)
(-0.00037749772 0.017003388 -2.1839178e-07)
(-0.00033328236 0.017975924 -2.0081946e-07)
(-0.00027878558 0.018633066 -1.8343073e-07)
(-0.00021768171 0.019005437 -1.6589488e-07)
(-0.00015259501 0.019091783 -1.4745114e-07)
(-8.6378167e-05 0.018972079 -1.3071878e-07)
(-1.9573435e-05 0.01828643 -1.1468567e-07)
(0.015478239 0.022921749 -7.6299727e-07)
(0.0042406679 -0.0023209189 -1.0672005e-06)
(0.0012977385 0.047283435 -1.0615151e-06)
(-0.00070382461 0.050090498 -9.8359926e-07)
(-0.0024077472 0.064476883 -9.0481405e-07)
(-0.0036643851 0.074897363 -8.1810493e-07)
(-0.0043678764 0.082166043 -7.4024159e-07)
(-0.0045990475 0.088249675 -6.7218713e-07)
(-0.0045387241 0.092749042 -6.124137e-07)
(-0.004328914 0.095568815 -5.6041446e-07)
(-0.0040441753 0.097165758 -5.1566747e-07)
(-0.0037024365 0.097707855 -4.6845982e-07)
(-0.0033535237 0.09751213 -4.4086371e-07)
(-0.003015191 0.096374489 -4.1101542e-07)
(-0.0026722544 0.094303637 -3.812469e-07)
(-0.0023367653 0.091918718 -3.5425204e-07)
(-0.0020195982 0.089327954 -3.2900287e-07)
(-0.0017221897 0.086616318 -3.0503886e-07)
(-0.0014443354 0.083857819 -2.8209271e-07)
(-0.0011848215 0.081111089 -2.5997445e-07)
(-0.00094177428 0.078411036 -2.3852779e-07)
(-0.00071288596 0.075804205 -2.1756326e-07)
(-0.00049562903 0.073244468 -1.9687027e-07)
(-0.00028846088 0.07097928 -1.7696083e-07)
(-8.576319e-05 0.067451301 -1.5777751e-07)
(-0.00096690712 1.1673795 -2.5058028e-06)
(-0.00047287177 0.95782098 -1.9896008e-06)
(-0.00089934165 0.86318392 -1.6115547e-06)
(-0.00065715771 0.7715339 -1.3215585e-06)
(-0.00059598797 0.67618086 -1.1031869e-06)
(-0.00053310993 0.58535657 -9.415811e-07)
(-0.00046424043 0.50733686 -8.2087048e-07)
(-0.00039919332 0.44388693 -7.3077026e-07)
(-0.00034073038 0.39154256 -6.5772705e-07)
(-0.00028731059 0.3468675 -6.0071338e-07)
(-0.00023951304 0.30831195 -5.5474642e-07)
(-0.00019665097 0.27514418 -5.1267749e-07)
(-0.00015851572 0.24678746 -4.7619986e-07)
(-0.00013150717 0.22253267 -4.435438e-07)
(-0.00010877251 0.20170695 -4.1358084e-07)
(-9.0206147e-05 0.18383151 -3.8564592e-07)
(-7.4810348e-05 0.16848318 -3.5913234e-07)
(-6.1802367e-05 0.15529922 -3.3368537e-07)
(-5.0530329e-05 0.143975 -3.0912876e-07)
(-4.0683006e-05 0.13426086 -2.8536274e-07)
(-3.194478e-05 0.12593474 -2.6231713e-07)
(-2.3978907e-05 0.11886264 -2.3986129e-07)
(-1.6531711e-05 0.11276071 -2.1807254e-07)
(-9.5181665e-06 0.10802371 -1.969546e-07)
(-2.7270001e-06 0.10191632 -1.7459873e-07)
(-0.013403274 0.087379401 -1.1926107e-06)
(-0.0029081479 0.096084395 -1.2254949e-06)
(-0.00041004193 0.10255 -1.1752679e-06)
(0.001356869 0.10454496 -1.0823912e-06)
(0.0028837956 0.10694853 -9.7886961e-07)
(0.004009182 0.10884999 -8.7842643e-07)
(0.0046226904 0.11064166 -7.8853549e-07)
(0.0047886299 0.11228801 -7.1094032e-07)
(0.004681159 0.11317363 -6.2791039e-07)
(0.0044145669 0.11329565 -5.8136889e-07)
(0.0041064912 0.11266062 -5.3847227e-07)
(0.0037788046 0.11110052 -4.9211742e-07)
(0.0034123145 0.10871247 -4.5262764e-07)
(0.0030451932 0.10578047 -4.1815536e-07)
(0.002689587 0.10257667 -3.8731124e-07)
(0.0023507384 0.099234727 -3.5913008e-07)
(0.0020309798 0.095839548 -3.3294989e-07)
(0.0017304163 0.092459559 -3.0830822e-07)
(0.0014498931 0.089147179 -2.8487433e-07)
(0.0011881162 0.085941003 -2.6239676e-07)
(0.00094332614 0.082861077 -2.4064855e-07)
(0.00071348044 0.079941632 -2.1931458e-07)
(0.00049599858 0.077126079 -1.9901239e-07)
(0.00028896435 0.074669311 -1.7880801e-07)
(8.6348362e-05 0.070917215 -1.5905705e-07)
(-0.010067493 -0.042858058 -7.4842581e-07)
(-0.0083612082 -0.040403725 -8.0780277e-07)
(-0.0068143331 -0.038396141 -7.93018e-07)
(-0.0053473439 -0.034789986 -7.474683e-07)
(-0.0040094847 -0.029727427 -6.9083762e-07)
(-0.0028641457 -0.02402742 -6.3109274e-07)
(-0.0019274578 -0.018175923 -5.7651036e-07)
(-0.0011934235 -0.012478043 -5.2674753e-07)
(-0.00063106732 -0.007378721 -4.7998291e-07)
(-0.00021070107 -0.0028530566 -4.4507393e-07)
(9.7830432e-05 0.0010193528 -4.1265361e-07)
(0.00031645618 0.0047266537 -3.8205946e-07)
(0.0004595832 0.0082580421 -3.5419775e-07)
(0.00054683765 0.011435095 -3.2878246e-07)
(0.00058984333 0.014174221 -3.0534026e-07)
(0.0005981093 0.016469916 -2.8341346e-07)
(0.00057979827 0.018340916 -2.6275274e-07)
(0.00054203495 0.019825857 -2.4306867e-07)
(0.00048850779 0.020963805 -2.2412503e-07)
(0.0004234364 0.02177834 -2.0569634e-07)
(0.00035018189 0.022291347 -1.8745794e-07)
(0.00027127653 0.022523717 -1.6861653e-07)
(0.00018969636 0.022490649 -1.5223065e-07)
(0.00010784881 0.022246021 -1.3350147e-07)
(2.6015643e-05 0.021402652 -1.1652992e-07)
(-0.0053026016 -0.01743855 -4.3428169e-07)
(-0.004885262 -0.019820997 -5.0181367e-07)
(-0.0045283064 -0.022413809 -5.1274492e-07)
(-0.0041545712 -0.024286634 -4.9560655e-07)
(-0.0037458403 -0.025448843 -4.6806335e-07)
(-0.0033349722 -0.025791583 -4.3899316e-07)
(-0.0029537344 -0.025493323 -4.0354006e-07)
(-0.0026008895 -0.024761664 -3.7058141e-07)
(-0.0022790932 -0.02377682 -3.408495e-07)
(-0.0019890454 -0.022600311 -3.1579837e-07)
(-0.0017287842 -0.021317408 -2.9299124e-07)
(-0.0014904818 -0.019916357 -2.7183645e-07)
(-0.0012729569 -0.018458409 -2.5229887e-07)
(-0.0010810928 -0.016995371 -2.342205e-07)
(-0.00091327989 -0.015559848 -2.1731623e-07)
(-0.00076674407 -0.01418406 -2.0110181e-07)
(-0.00063882232 -0.012891209 -1.8581028e-07)
(-0.00052626663 -0.011707748 -1.7108744e-07)
(-0.00042822878 -0.01065484 -1.5673521e-07)
(-0.00034249549 -0.0097333704 -1.4256039e-07)
(-0.00026708947 -0.0089418673 -1.2828219e-07)
(-0.0002001313 -0.0082785015 -1.1348159e-07)
(-0.00013984903 -0.0077375418 -9.7872536e-08)
(-8.433944e-05 -0.0072722805 -7.8046179e-08)
(-3.1718088e-05 -0.0069184081 -4.9457189e-08)
(-0.0017632152 -0.0047806994 -2.6201243e-07)
(-0.0017483765 -0.005658349 -3.192184e-07)
(-0.0017787058 -0.0065512537 -3.3879574e-07)
(-0.0018190098 -0.007431819 -3.3598121e-07)
(-0.0018380355 -0.0083241903 -3.2159835e-07)
(-0.0018161237 -0.0093785452 -3.0187314e-07)
(-0.0017573607 -0.010523897 -2.7874224e-07)
(-0.0016725971 -0.011517865 -2.5616781e-07)
(-0.0015711545 -0.012352073 -2.3555944e-07)
(-0.0014596495 -0.013027393 -2.1731061e-07)
(-0.001343655 -0.013563471 -2.0074422e-07)
(-0.0012274771 -0.013966108 -1.8546196e-07)
(-0.0011128284 -0.014248953 -1.712622e-07)
(-0.0010005274 -0.01440976 -1.5818232e-07)
(-0.00089146555 -0.014439006 -1.4606338e-07)
(-0.00078620626 -0.014362648 -1.3446245e-07)
(-0.00068548635 -0.014215841 -1.231273e-07)
(-0.00059012383 -0.014018951 -1.1211622e-07)
(-0.00049884862 -0.013782961 -1.0134137e-07)
(-0.00041152141 -0.01351489 -9.0681044e-08)
(-0.00032793123 -0.013220522 -7.9875594e-08)
(-0.00024792311 -0.012906282 -6.8463555e-08)
(-0.00017142611 -0.012576386 -5.5662767e-08)
(-9.8504592e-05 -0.012186779 -3.9412342e-08)
(-3.0437881e-05 -0.011689761 -1.9542567e-08)
(-0.00052504438 -0.0012812307 -1.6187157e-07)
(-0.00041712011 -0.0015816514 -2.0193845e-07)
(-0.00038645718 -0.0019252909 -2.1974938e-07)
(-0.00041492939 -0.0022968216 -2.221345e-07)
(-0.00048311995 -0.0026814092 -2.1518587e-07)
(-0.00055151351 -0.0031055902 -2.0314597e-07)
(-0.00059786663 -0.003551904 -1.8849121e-07)
(-0.00061956828 -0.00397559 -1.7343984e-07)
(-0.00062269827 -0.0043680625 -1.5916823e-07)
(-0.00060992369 -0.004720545 -1.4609234e-07)
(-0.00058788594 -0.005034393 -1.3409606e-07)
(-0.00055908906 -0.0053127717 -1.2300147e-07)
(-0.00052451979 -0.0055612061 -1.1268132e-07)
(-0.00048556634 -0.0057898397 -1.0306762e-07)
(-0.00044385218 -0.0060172515 -9.4073501e-08)
(-0.00040042477 -0.0062328244 -8.5488687e-08)
(-0.00035592131 -0.0064072668 -7.719623e-08)
(-0.00031097714 -0.0065348952 -6.9169255e-08)
(-0.0002660038 -0.0066149332 -6.1356917e-08)
(-0.00022141575 -0.0066471704 -5.3786931e-08)
(-0.00017754711 -0.0066331029 -4.6268387e-08)
(-0.00013467998 -0.0065764946 -3.8351921e-08)
(-9.3075192e-05 -0.0064829249 -2.97022e-08)
(-5.2909989e-05 -0.0063334627 -1.9506309e-08)
(-1.5075015e-05 -0.0060500882 -8.2573987e-09)
(-0.00029013786 -0.00015941049 -1.0083209e-07)
(-0.00016805613 -0.00014379043 -1.2583226e-07)
(-9.2464864e-05 -0.0001532389 -1.3860556e-07)
(-4.8215103e-05 -0.00020485012 -1.4174118e-07)
(-3.2898814e-05 -0.00028061469 -1.3839782e-07)
(-4.3501897e-05 -0.00037297351 -1.3118436e-07)
(-6.6963607e-05 -0.00048691506 -1.2194877e-07)
(-8.924054e-05 -0.00061471985 -1.1209227e-07)
(-0.00010696731 -0.00074482632 -1.0245743e-07)
(-0.00012110212 -0.0008710894 -9.3418862e-08)
(-0.00013188854 -0.00099157532 -8.503528e-08)
(-0.00013792859 -0.0010999856 -7.7253265e-08)
(-0.00013852785 -0.0011960845 -7.0005028e-08)
(-0.00013490466 -0.0012802805 -6.3234217e-08)
(-0.0001283752 -0.0013540423 -5.6882702e-08)
(-0.00011936325 -0.0014167223 -5.0861073e-08)
(-0.00010855195 -0.0014661829 -4.5111792e-08)
(-9.6492866e-05 -0.0015031908 -3.9619451e-08)
(-8.3600274e-05 -0.0015282773 -3.4379036e-08)
(-7.0341847e-05 -0.0015416141 -2.9396636e-08)
(-5.7008113e-05 -0.0015434622 -2.4596114e-08)