/*--------------------------------*- C++ -*----------------------------------*\
| =========                 |                                                 |
| \\      /  F ield         | OpenFOAM: The Open Source CFD Toolbox           |
|  \\    /   O peration     | Version:  4.0                                   |
|   \\  /    A nd           | Web:      www.OpenFOAM.org                      |
|    \\/     M anipulation  |                                                 |
\*---------------------------------------------------------------------------*/
FoamFile
{
    version     2.0;
    format      ascii;
    class       volScalarField;
    location    "0.34";
    object      nut;
}
// * * * * * * * * * * * * * * * * * * * * * * * * * * * * * * * * * * * * * //

dimensions      [0 2 -1 0 0 0 0];

internalField   nonuniform List<scalar> 
1740
(
1.3951629e-05
1.3086072e-05
1.2338267e-06
9.6810336e-06
6.8452648e-06
1.8122205e-06
2.0880106e-05
5.4282106e-06
2.2783434e-06
2.4677774e-05
4.8836635e-06
2.7158555e-06
1.6424556e-05
4.4465049e-06
3.105557e-06
1.7250423e-05
4.09797e-06
3.4142816e-06
1.4273198e-05
3.8791413e-06
3.6329085e-06
1.2454801e-05
3.7477861e-06
3.8321467e-06
1.1083043e-05
3.6534044e-06
3.999672e-06
9.757156e-06
3.584641e-06
4.1484501e-06
8.8606161e-06
3.5341341e-06
4.2510974e-06
8.071105e-06
3.5136491e-06
4.3690878e-06
7.2894051e-06
3.5422673e-06
4.4750531e-06
6.8170764e-06
3.5418324e-06
4.4792676e-06
6.4828472e-06
3.5161611e-06
4.5463613e-06
6.1738275e-06
3.5100745e-06
4.6011171e-06
5.884486e-06
3.5027483e-06
4.5828627e-06
5.6230217e-06
3.4993055e-06
4.618584e-06
5.3656166e-06
3.5069695e-06
4.6545338e-06
5.1729557e-06
3.5280679e-06
4.6437253e-06
5.0171932e-06
3.5003723e-06
4.647564e-06
4.8642844e-06
3.4935627e-06
4.690152e-06
4.7066233e-06
3.5154963e-06
4.7291568e-06
4.5862892e-06
3.5585683e-06
4.7308543e-06
4.4692515e-06
3.5838109e-06
4.7230915e-06
4.354969e-06
3.597932e-06
4.6755398e-06
4.2605733e-06
3.5642821e-06
4.6510302e-06
4.1802711e-06
3.5515586e-06
4.6436979e-06
4.1377981e-06
3.5609524e-06
4.6080572e-06
3.0663188e-06
3.3509139e-06
4.30618e-06
1.9330323e-06
2.142686e-06
4.4130224e-06
7.1801352e-06
7.3581171e-06
6.714272e-06
6.5429228e-06
6.7477968e-06
6.3778719e-06
5.1862948e-06
5.1235803e-06
4.8751057e-06
4.3392447e-06
4.2669689e-06
4.1308164e-06
3.7819298e-06
3.7389451e-06
3.6780152e-06
3.3857406e-06
3.367927e-06
3.3514448e-06
3.0666898e-06
3.0637771e-06
3.0700684e-06
2.7661339e-06
2.7702467e-06
2.785856e-06
2.4459832e-06
2.4523225e-06
2.4695692e-06
2.0890836e-06
2.0951299e-06
2.1101014e-06
1.7004445e-06
1.7051272e-06
1.7162998e-06
1.3050987e-06
1.3082021e-06
1.3155023e-06
9.3910452e-07
9.4086928e-07
9.4501605e-07
6.3453736e-07
6.353778e-07
6.3737783e-07
4.0668249e-07
4.069913e-07
4.0776191e-07
2.5191981e-07
2.5197686e-07
2.5216416e-07
1.5537776e-07
1.5536196e-07
1.5535675e-07
9.9394418e-08
9.9368984e-08
9.9326185e-08
6.8792895e-08
6.8777853e-08
6.8751575e-08
5.3155559e-08
5.3154286e-08
5.3155723e-08
4.5947794e-08
4.5957251e-08
4.5981463e-08
4.3303217e-08
4.33193e-08
4.3357937e-08
4.3036146e-08
4.3055677e-08
4.3101765e-08
4.3957717e-08
4.3978669e-08
4.4027548e-08
4.5444863e-08
4.5466043e-08
4.5514935e-08
4.7183909e-08
4.7204634e-08
4.7252011e-08
4.9023748e-08
4.9043642e-08
4.9088734e-08
5.0894755e-08
5.0913624e-08
5.0956093e-08
5.276584e-08
5.2783596e-08
5.2823337e-08
5.4622787e-08
5.4639405e-08
5.4676432e-08
5.6457914e-08
5.64734e-08
5.6507786e-08
5.8265427e-08
5.8279808e-08
5.8311652e-08
6.0039504e-08
6.0052817e-08
6.0082232e-08
6.1773611e-08
6.1785899e-08
6.1813004e-08
6.3460348e-08
6.3471661e-08
6.349658e-08
6.5091533e-08
6.5101924e-08
6.5124787e-08
6.6658398e-08
6.6667925e-08
6.6688866e-08
6.8151864e-08
6.8160588e-08
6.817975e-08
6.9562867e-08
6.9570853e-08
6.9588386e-08
7.0882683e-08
7.0890002e-08
7.0906062e-08
7.2103179e-08
7.2109905e-08
7.2124656e-08
7.3216846e-08
7.3223053e-08
7.3236663e-08
7.4216488e-08
7.4222255e-08
7.4234894e-08
7.5094434e-08
7.5099842e-08
7.5111682e-08
7.5837156e-08
7.5842274e-08
7.5853471e-08
7.6424607e-08
7.6429496e-08
7.6440196e-08
7.6824563e-08
7.6829293e-08
7.6839657e-08
7.6973926e-08
7.6978621e-08
7.6988981e-08
7.6697019e-08
7.6702079e-08
7.6713595e-08
4.1710024e-06
4.4974158e-06
6.695867e-06
8.4221277e-06
5.9953422e-06
6.0385073e-06
4.7275964e-06
4.8318349e-06
4.0813354e-06
4.187884e-06
3.6786034e-06
3.7775895e-06
3.377494e-06
3.4664142e-06
3.1064437e-06
3.1840211e-06
2.8232578e-06
2.8883829e-06
2.5026663e-06
2.5547682e-06
2.1363718e-06
2.17564e-06
1.735147e-06
1.7626247e-06
1.3276369e-06
1.3451729e-06
9.5191874e-07
9.6192652e-07
6.4076889e-07
6.4576864e-07
4.091397e-07
4.1125757e-07
2.5257228e-07
2.5327783e-07
1.5541111e-07
1.555676e-07
9.9291997e-08
9.9289699e-08
6.8727721e-08
6.8718903e-08
5.3167049e-08
5.3195028e-08
4.6024237e-08
4.608919e-08
4.3421204e-08
4.3510977e-08
4.3175533e-08
4.3277864e-08
4.4104845e-08
4.4210852e-08
4.5591553e-08
4.5695815e-08
4.7325685e-08
4.7425333e-08
4.9158399e-08
4.9252158e-08
5.1021354e-08
5.1108833e-08
5.2884143e-08
5.2965388e-08
5.4732892e-08
5.4808139e-08
5.6560078e-08
5.6629628e-08
5.8359976e-08
5.8424146e-08
6.0126794e-08
6.0185893e-08
6.1854011e-08
6.190834e-08
6.3534239e-08
6.3584089e-08
6.5159307e-08
6.5204969e-08
6.6720462e-08
6.676223e-08
6.8208644e-08
6.8246818e-08
6.9614808e-08
6.96497e-08
7.0930255e-08
7.0962188e-08
7.2146868e-08
7.2176176e-08
7.3257151e-08
7.3284173e-08
7.4253913e-08
7.4278991e-08
7.5129487e-08
7.5152953e-08
7.5870301e-08
7.5892475e-08
7.6456274e-08
7.6477459e-08
7.6855196e-08
7.6875674e-08
7.7004208e-08
7.7024225e-08
7.672888e-08
7.6748603e-08
4.5900768e-10
1.3256285e-08
1.9320724e-07
8.2706209e-07
1.6445691e-06
2.2313062e-06
2.5761585e-06
2.7842829e-06
2.9280475e-06
3.043055e-06
3.1463648e-06
3.2515719e-06
3.356033e-06
3.4585718e-06
3.5583731e-06
3.6540904e-06
3.7432992e-06
3.8219188e-06
3.8833367e-06
3.9170847e-06
3.9066962e-06
3.8260971e-06
3.6329131e-06
3.2502432e-06
2.4411958e-06
2.1500788e-10
2.6907095e-08
3.6023156e-07
1.3783712e-06
2.5721423e-06
3.3806939e-06
3.853682e-06
4.1600394e-06
4.3942852e-06
4.5991482e-06
4.7950774e-06
4.9942593e-06
5.1948918e-06
5.3958287e-06
5.5953901e-06
5.7908376e-06
5.9774607e-06
6.147568e-06
6.2885982e-06
6.3804735e-06
6.3911648e-06
6.268732e-06
5.925968e-06
5.2027277e-06
3.6711393e-06
6.6080596e-10
7.8873443e-08
8.581668e-07
2.5091584e-06
3.7949062e-06
4.5314215e-06
4.9949052e-06
5.3403057e-06
5.6401897e-06
5.9268809e-06
6.2156013e-06
6.5129847e-06
6.8176263e-06
7.1282995e-06
7.4435171e-06
7.7601814e-06
8.0720733e-06
8.3692868e-06
8.6343554e-06
8.8388456e-06
8.93656e-06
8.8505523e-06
8.4463888e-06
7.4672006e-06
5.272347e-06
3.1219609e-09
2.855172e-07
2.0640852e-06
4.005406e-06
5.0460219e-06
5.6336413e-06
6.0402706e-06
6.3826307e-06
6.7109115e-06
7.0436303e-06
7.3915194e-06
7.7576424e-06
8.1383769e-06
8.5323535e-06
8.9393003e-06
9.3577658e-06
9.7827094e-06
1.0204595e-05
1.0606867e-05
1.0961876e-05
1.1223847e-05
1.1315069e-05
1.1093034e-05
1.0250851e-05
7.8642675e-06
2.3320289e-08
1.1383069e-06
3.9904775e-06
5.6002715e-06
6.4523729e-06
6.9734388e-06
7.3567657e-06
7.7027382e-06
8.0519519e-06
8.4062739e-06
8.7790931e-06
9.1771888e-06
9.590223e-06
1.0013536e-05
1.0449545e-05
1.090275e-05
1.1372321e-05
1.1853535e-05
1.233642e-05
1.2802851e-05
1.3222007e-05
1.354428e-05
1.3693941e-05
1.3576443e-05
1.3164396e-05
1.9513501e-07
2.7516537e-06
5.8983415e-06
7.7054486e-06
8.6228052e-06
9.0419991e-06
9.2394914e-06
9.3767762e-06
9.5154299e-06
9.6738411e-06
9.8601833e-06
1.0080813e-05
1.0336274e-05
1.062663e-05
1.0952873e-05
1.1315814e-05
1.1715377e-05
1.2149381e-05
1.261262e-05
1.3095188e-05
1.3579511e-05
1.4037128e-05
1.4425618e-05
1.4697417e-05
1.4796445e-05
4.3416202e-06
4.3174641e-06
4.3628404e-06
4.4727932e-06
4.6474658e-06
4.8780887e-06
5.1546961e-06
5.4730277e-06
5.8333771e-06
6.2365969e-06
6.6821618e-06
7.1674055e-06
7.6869547e-06
8.2338272e-06
8.8011622e-06
9.3838858e-06
9.9791175e-06
1.0585087e-05
1.1199575e-05
1.1817869e-05
1.2429821e-05
1.3016802e-05
1.3548936e-05
1.3990589e-05
1.4275652e-05
9.1162009e-06
9.3718695e-06
9.770698e-06
1.0191775e-05
1.0369792e-05
1.0334651e-05
1.0218003e-05
1.0120811e-05
1.0083244e-05
1.0107219e-05
1.0188659e-05
1.032294e-05
1.0508002e-05
1.0743404e-05
1.1028787e-05
1.1363359e-05
1.1744971e-05
1.2169553e-05
1.2630073e-05
1.3114529e-05
1.3602891e-05
1.406399e-05
1.4452657e-05
1.4719995e-05
1.4812588e-05
6.4118086e-06
6.8214091e-06
7.2533778e-06
7.654009e-06
7.9560015e-06
8.172671e-06
8.364159e-06
8.570295e-06
8.7993967e-06
9.065958e-06
9.366722e-06
9.6924879e-06
1.003819e-05
1.0409831e-05
1.0811125e-05
1.1242581e-05
1.1701294e-05
1.2180243e-05
1.2666388e-05
1.3137741e-05
1.3558844e-05
1.3874881e-05
1.4005054e-05
1.3851919e-05
1.339324e-05
5.1442871e-06
5.5006058e-06
5.8508774e-06
6.1671173e-06
6.4323907e-06
6.6592771e-06
6.877991e-06
7.1089192e-06
7.3629912e-06
7.64668e-06
7.9579092e-06
8.2938126e-06
8.6540737e-06
9.0397228e-06
9.4503688e-06
9.8825544e-06
1.0328574e-05
1.0774819e-05
1.1199206e-05
1.1567066e-05
1.1824217e-05
1.1883766e-05
1.1594401e-05
1.0640006e-05
8.0726546e-06
4.4292589e-06
4.7180464e-06
5.0073965e-06
5.2766864e-06
5.5199123e-06
5.7450335e-06
5.9664334e-06
6.1967656e-06
6.4444069e-06
6.7133798e-06
7.0033158e-06
7.312941e-06
7.6419184e-06
7.9893579e-06
8.3528294e-06
8.7260022e-06
9.0976539e-06
9.4497781e-06
9.7548522e-06
9.9717163e-06
1.0039011e-05
9.8636897e-06
9.2977299e-06
8.0790408e-06
5.5772939e-06
3.9633095e-06
4.1900825e-06
4.4250266e-06
4.6521285e-06
4.8673415e-06
5.07512e-06
5.2833729e-06
5.4996733e-06
5.7295733e-06
5.9758346e-06
6.238681e-06
6.5173099e-06
6.8106886e-06
7.1166039e-06
7.4305255e-06
7.7444806e-06
8.0456623e-06
8.3147556e-06
8.5237656e-06
8.6330878e-06
8.587388e-06
8.3091745e-06
7.68632e-06
6.5359553e-06
4.3874568e-06
3.6121916e-06
3.7907633e-06
3.9808777e-06
4.1705866e-06
4.3561571e-06
4.5394255e-06
4.7247384e-06
4.9167334e-06
5.1190284e-06
5.333554e-06
5.56064e-06
5.7996267e-06
6.0490752e-06
6.3061758e-06
6.5658377e-06
6.819766e-06
7.0554366e-06
7.2548517e-06
7.393143e-06
7.4370369e-06
7.3431882e-06
7.0560264e-06
6.502725e-06
5.5697121e-06
3.9096154e-06
3.2997587e-06
3.4407467e-06
3.5937706e-06
3.7502354e-06
3.9066267e-06
4.0631948e-06
4.2221581e-06
4.3862363e-06
4.557685e-06
4.7377789e-06
4.9267237e-06
5.1238131e-06
5.3274115e-06
5.5345444e-06
5.7402677e-06
5.9369591e-06
6.1135657e-06
6.2548225e-06
6.3405754e-06
6.3454122e-06
6.2389922e-06
5.9879224e-06
5.5617821e-06
4.9547344e-06
4.2605995e-06
2.9797417e-06
3.0902197e-06
3.2116731e-06
3.338016e-06
3.4661231e-06
3.5953916e-06
3.7267401e-06
3.861645e-06
4.0014345e-06
4.1468569e-06
4.2979271e-06
4.4538958e-06
4.6131471e-06
4.7729019e-06
4.9287932e-06
5.0743686e-06
5.2006012e-06
5.2954893e-06
5.3438955e-06
5.3279e-06
5.2281849e-06
5.0276426e-06
4.7205322e-06
4.3374633e-06
4.0082047e-06
2.6251423e-06
2.7097874e-06
2.8036144e-06
2.9023537e-06
3.0033639e-06
3.1056531e-06
3.2093689e-06
3.3151848e-06
3.4237943e-06
3.5355702e-06
3.6503833e-06
3.767509e-06
3.8855175e-06
4.0020719e-06
4.1136528e-06
4.2152545e-06
4.3001119e-06
4.3595643e-06
4.3831802e-06
4.3593831e-06
4.2769515e-06
4.1281175e-06
3.9148879e-06
3.6621045e-06
3.4116561e-06
2.2275533e-06
2.289831e-06
2.3592748e-06
2.4328912e-06
2.508556e-06
2.5851678e-06
2.6624426e-06
2.7405568e-06
2.8197878e-06
2.900257e-06
2.9817621e-06
3.0636781e-06
3.1448712e-06
3.2235769e-06
3.2972482e-06
3.3624016e-06
3.4145096e-06
3.448016e-06
3.4565718e-06
3.4336078e-06
3.3733312e-06
3.2719998e-06
3.1281347e-06
2.9346006e-06
2.6124357e-06
1.7985842e-06
1.8417263e-06
1.8900517e-06
1.941504e-06
1.9944433e-06
2.0478406e-06
2.10122e-06
2.1544729e-06
2.2076241e-06
2.2606424e-06
2.3133113e-06
2.3651502e-06
2.415359e-06
2.4627637e-06
2.5057551e-06
2.542243e-06
2.5696542e-06
2.5850187e-06
2.5851958e-06
2.5672455e-06
2.5288137e-06
2.4679308e-06
2.3800869e-06
2.2449027e-06
1.9615173e-06
1.3680804e-06
1.3956323e-06
1.4266042e-06
1.4596384e-06
1.4935363e-06
1.5274472e-06
1.5608676e-06
1.5935613e-06
1.6254228e-06
1.6563485e-06
1.6861476e-06
1.7144909e-06
1.7408861e-06
1.7646657e-06
1.784986e-06
1.8008403e-06
1.8111053e-06
1.8146358e-06
1.8104176e-06
1.7977291e-06
1.7761082e-06
1.7445413e-06
1.6983075e-06
1.6188568e-06
1.4316114e-06
9.7507076e-07
9.9095685e-07
1.0088691e-06
1.0279491e-06
1.0473857e-06
1.066551e-06
1.0850116e-06
1.1025155e-06
1.1189178e-06
1.1341049e-06
1.1479341e-06
1.1602089e-06
1.1706743e-06
1.1790265e-06
1.1849345e-06
1.1880768e-06
1.1881887e-06
1.1851264e-06
1.1789355e-06
1.1698685e-06
1.1581889e-06
1.1433837e-06
1.1219817e-06
1.0819562e-06
9.8370163e-07
6.5242277e-07
6.6053632e-07
6.6971212e-07
6.7944065e-07
6.8921364e-07
6.9860541e-07
7.0730919e-07
7.1511711e-07
7.2190065e-07
7.2756887e-07
7.3203577e-07
7.3520453e-07
7.3697329e-07
7.3724795e-07
7.3596928e-07
7.3314472e-07
7.2887762e-07
7.2339181e-07
7.1703861e-07
7.1025636e-07
7.0338403e-07
6.9614606e-07
6.8650964e-07
6.682816e-07
6.2421497e-07
4.1415667e-07
4.1775367e-07
4.2183871e-07
4.2613095e-07
4.3033409e-07
4.3418867e-07
4.3749634e-07
4.4012046e-07
4.4196982e-07
4.4298736e-07
4.431296e-07
4.4236222e-07
4.4066292e-07
4.3803179e-07
4.3451113e-07
4.3020979e-07
4.2531343e-07
4.2008102e-07
4.1482301e-07
4.0986056e-07
4.0541538e-07
4.0135249e-07
3.967197e-07
3.8900704e-07
3.7231488e-07
2.5431365e-07
2.5564759e-07
2.571785e-07
2.5876066e-07
2.6023385e-07
2.6145303e-07
2.6230334e-07
2.6270355e-07
2.6260114e-07
2.6196469e-07
2.6077717e-07
2.5903379e-07
2.5674267e-07
2.5393264e-07
2.5065775e-07
2.4702681e-07
2.4319777e-07
2.3935697e-07
2.3569269e-07
2.3237755e-07
2.2952742e-07
2.2709589e-07
2.2472522e-07
2.2161783e-07
2.1627373e-07
1.5584723e-07
1.562374e-07
1.5669154e-07
1.5713836e-07
1.5749742e-07
1.5769373e-07
1.5766679e-07
1.5737356e-07
1.5678713e-07
1.5589377e-07
1.5469011e-07
1.5318195e-07
1.5138582e-07
1.4933336e-07
1.4706798e-07
1.446709e-07
1.4225096e-07
1.3990806e-07
1.377259e-07
1.3577154e-07
1.3410134e-07
1.3271128e-07
1.3148258e-07
1.3017566e-07
1.2843365e-07
9.9332116e-08
9.9415606e-08
9.9519596e-08
9.9610991e-08
9.9650967e-08
9.9602318e-08
9.9434421e-08
9.9125315e-08
9.866157e-08
9.8037141e-08
9.7252005e-08
9.6311449e-08
9.5226554e-08
9.4015954e-08
9.2708112e-08
9.1341334e-08
8.9978936e-08
8.8694614e-08
8.7584099e-08
8.6601151e-08
8.5754526e-08
8.5052911e-08
8.4454371e-08
8.3860236e-08
8.3077667e-08
6.8732829e-08
6.8769309e-08
6.8819734e-08
6.8869029e-08
6.8898798e-08
6.8890736e-08
6.8829296e-08
6.8702889e-08
6.8503971e-08
6.8228593e-08
6.7875798e-08
6.7447341e-08
6.6948338e-08
6.6388424e-08
6.5783666e-08
6.5152292e-08
6.4527381e-08
6.3949971e-08
6.3472691e-08
6.3100868e-08
6.2775039e-08
6.2502893e-08
6.2265244e-08
6.2007585e-08
6.1597285e-08
5.3244189e-08
5.3315294e-08
5.3404779e-08
5.3505592e-08
5.3608693e-08
5.3704598e-08
5.3784676e-08
5.3841835e-08
5.3870622e-08
5.3867086e-08
5.3828691e-08
5.3754434e-08
5.3645379e-08
5.3505452e-08
5.33422e-08
5.3166841e-08
5.2992703e-08
5.2841907e-08
5.2740165e-08
5.2713938e-08
5.2687295e-08
5.2663052e-08
5.2627215e-08
5.2540789e-08
5.2303268e-08
4.6178863e-08
4.6294012e-08
4.6432944e-08
4.6591896e-08
4.6765735e-08
4.6948725e-08
4.7135094e-08
4.7319438e-08
4.7496874e-08
4.7663116e-08
4.7814617e-08
4.794886e-08
4.8064791e-08
4.8163314e-08
4.8247713e-08
4.8323938e-08
4.8397105e-08
4.8479459e-08
4.8586019e-08
4.8736696e-08
4.8867908e-08
4.8975837e-08
4.9046548e-08
4.904543e-08
4.8881814e-08
4.3628598e-08
4.3774512e-08
4.3947526e-08
4.4145037e-08
4.4363383e-08
4.4598227e-08
4.48449e-08
4.5098624e-08
4.5354729e-08
4.5608829e-08
4.5857053e-08
4.6096347e-08
4.6324802e-08
4.6541966e-08
4.6749078e-08
4.6949281e-08
4.7144465e-08
4.734159e-08
4.755024e-08
4.7784569e-08
4.7991591e-08
4.8163738e-08
4.8285973e-08
4.8324631e-08
4.819328e-08
4.340934e-08
4.3570052e-08
4.3758802e-08
4.39733e-08
4.4210387e-08
4.4466272e-08
4.4736756e-08
4.5017441e-08
4.5303926e-08
4.5592025e-08
4.587801e-08
4.6158862e-08
4.6432526e-08
4.6698092e-08
4.6955897e-08
4.7207466e-08
4.7455161e-08
4.7701553e-08
4.7953495e-08
4.8221357e-08
4.8459827e-08
4.8659111e-08
4.880261e-08
4.8855641e-08
4.8730531e-08
4.4345646e-08
4.450899e-08
4.4699563e-08
4.4915149e-08
4.5152808e-08
4.5409058e-08
4.5680054e-08
4.5961771e-08
4.6250193e-08
4.6541522e-08
4.6832399e-08
4.7120112e-08
4.7402796e-08
4.7679554e-08
4.7950501e-08
4.8216703e-08
4.8480171e-08
4.8742253e-08
4.9007651e-08
4.9283971e-08
4.9531643e-08
4.9739331e-08
4.9888693e-08
4.9943124e-08
4.9812975e-08
4.5827461e-08
4.5985979e-08
4.6169954e-08
4.6377227e-08
4.6605048e-08
4.6850219e-08
4.710925e-08
4.7378521e-08
4.7654459e-08
4.7933718e-08
4.8213375e-08
4.8491123e-08
4.8765416e-08
4.9035574e-08
4.9301778e-08
4.9564976e-08
4.9826721e-08
5.0089003e-08
5.0353995e-08
5.0627336e-08
5.0874e-08
5.108146e-08
5.1229745e-08
5.128025e-08
5.1138646e-08
4.7550468e-08
4.770038e-08
4.7873616e-08
4.8068111e-08
4.8281318e-08
4.8510335e-08
4.8752031e-08
4.9003192e-08
4.9260676e-08
4.9521583e-08
4.9783423e-08
5.0044292e-08
5.0303001e-08
5.0559161e-08
5.0813151e-08
5.1065999e-08
5.1319187e-08
5.1574558e-08
5.1833246e-08
5.2099047e-08
5.2340556e-08
5.2544238e-08
5.2688679e-08
5.2733624e-08
5.2580763e-08
4.9369379e-08
4.9509228e-08
4.9670258e-08
4.9850526e-08
5.0047701e-08
5.0259162e-08
5.0482119e-08
5.0713732e-08
5.0951257e-08
5.1192189e-08
5.1434438e-08
5.1676476e-08
5.1917464e-08
5.2157318e-08
5.2396666e-08
5.263669e-08
5.2878887e-08
5.3124881e-08
5.3375301e-08
5.3632275e-08
5.3867341e-08
5.4066037e-08
5.4205573e-08
5.4244169e-08
5.4081335e-08
5.1217813e-08
5.134739e-08
5.1496159e-08
5.1662308e-08
5.1843711e-08
5.2038008e-08
5.2242711e-08
5.245531e-08
5.2673408e-08
5.2894852e-08
5.3117902e-08
5.334137e-08
5.3564745e-08
5.3788246e-08
5.4012758e-08
5.4239641e-08
5.4470418e-08
5.4706418e-08
5.4948485e-08
5.5196775e-08
5.5425355e-08
5.5618883e-08
5.575307e-08
5.5783953e-08
5.5609918e-08
5.3066313e-08
5.3185985e-08
5.332306e-08
5.3475856e-08
5.3642432e-08
5.382066e-08
5.4008316e-08
5.4203174e-08
5.4403136e-08
5.4606356e-08
5.4811401e-08
5.5017392e-08
5.5224122e-08
5.5432094e-08
5.5642452e-08
5.585675e-08
5.6076589e-08
5.6303183e-08
5.6537057e-08
5.677724e-08
5.6999742e-08
5.7188333e-08
5.7317129e-08
5.7339314e-08
5.7147127e-08
5.4901402e-08
5.5011745e-08
5.5137894e-08
5.5278292e-08
5.5431164e-08
5.5594585e-08
5.5766556e-08
5.59451e-08
5.6128372e-08
5.6314798e-08
5.6503217e-08
5.6693028e-08
5.6884304e-08
5.7077819e-08
5.7274968e-08
5.7477502e-08
5.7687119e-08
5.7904952e-08
5.8131154e-08
5.8363956e-08
5.8580898e-08
5.8764908e-08
5.8888672e-08
5.8903095e-08
5.8695338e-08
5.6715677e-08
5.6817306e-08
5.6933311e-08
5.7062253e-08
5.7202506e-08
5.7352321e-08
5.7509896e-08
5.7673467e-08
5.7841415e-08
5.8012402e-08
5.8185511e-08
5.8360395e-08
5.8537384e-08
5.871751e-08
5.8902406e-08
5.909402e-08
5.9294146e-08
5.9503842e-08
5.9722837e-08
5.9949032e-08
6.0160854e-08
6.034048e-08
6.0459207e-08
6.0465562e-08
6.0241102e-08
5.8503424e-08
5.8596922e-08
5.8703511e-08
5.8821856e-08
5.8950467e-08
5.908775e-08
5.9232077e-08
5.938187e-08
5.9535711e-08
5.969247e-08
5.9851452e-08
6.0012543e-08
6.017631e-08
6.034403e-08
6.0517561e-08
6.0699039e-08
6.0890364e-08
6.1092543e-08
6.1305e-08
6.152499e-08
6.1731938e-08
6.1907174e-08
6.2020592e-08
6.2018393e-08
6.1776448e-08
6.0258821e-08
6.0344729e-08
6.044256e-08
6.0551079e-08
6.0668915e-08
6.0794615e-08
6.0926704e-08
6.106377e-08
6.1204575e-08
6.1348177e-08
6.1494083e-08
6.1642392e-08
6.1793894e-08
6.1950092e-08
6.211306e-08
6.2285112e-08
6.2468252e-08
6.2663447e-08
6.2869845e-08
6.3084039e-08
6.3286281e-08
6.345705e-08
6.3564895e-08
6.3553916e-08
6.329535e-08
6.1975315e-08
6.2054133e-08
6.2143807e-08
6.2243194e-08
6.2351034e-08
6.2465998e-08
6.2586749e-08
6.2712026e-08
6.284075e-08
6.2972154e-08
6.3105928e-08
6.3242366e-08
6.3382468e-08
6.3527944e-08
6.3681073e-08
6.3844337e-08
6.4019836e-08
6.4208501e-08
6.4409221e-08
6.4617968e-08
6.4815628e-08
6.498186e-08
6.5083942e-08
6.5064031e-08
6.4788509e-08
6.3645493e-08
6.3717693e-08
6.379977e-08
6.3890667e-08
6.3989224e-08
6.4094227e-08
6.4204462e-08
6.4318807e-08
6.4436325e-08
6.4556408e-08
6.4678916e-08
6.4804322e-08
6.4933817e-08
6.5069309e-08
6.5213261e-08
6.5368314e-08
6.5536652e-08
6.5719172e-08
6.591452e-08
6.61181e-08
6.6311277e-08
6.6472922e-08
6.6569112e-08
6.6540226e-08
6.6248861e-08
6.5261174e-08
6.5327212e-08
6.5402228e-08
6.5485243e-08
6.5575192e-08
6.5670963e-08
6.5771457e-08
6.5875673e-08
6.5982809e-08
6.6092398e-08
6.6204454e-08
6.6319619e-08
6.6439256e-08
6.6565454e-08
6.6700845e-08
6.684821e-08
6.7009813e-08
6.7186511e-08
6.7376725e-08
6.7575338e-08
6.7764098e-08
6.7921128e-08
6.8011393e-08
6.7973576e-08
6.766401e-08
6.6813609e-08
6.6873936e-08
6.6942415e-08
6.7018144e-08
6.710014e-08
6.7187386e-08
6.7278887e-08
6.7373752e-08
6.7471301e-08
6.7571195e-08
6.7673591e-08
6.7779277e-08
6.7889778e-08
6.800734e-08
6.813475e-08
6.8274911e-08
6.8430151e-08
6.8601287e-08
6.8786534e-08
6.8980313e-08
6.916463e-08
6.9316941e-08
6.9401126e-08
6.9354012e-08
6.9027502e-08
6.829375e-08
6.834882e-08
6.8411291e-08
6.8480327e-08
6.8555022e-08
6.8634445e-08
6.8717695e-08
6.8803981e-08
6.889273e-08
6.8983723e-08
6.9077237e-08
6.9174199e-08
6.9276269e-08
6.9385837e-08
6.950582e-08
6.9639222e-08
6.978842e-08
6.9954187e-08
7.0134546e-08
7.0323506e-08
7.0503243e-08
7.0650602e-08
7.0728391e-08
7.0671344e-08
7.032482e-08
6.9692575e-08
6.9742855e-08
6.9799854e-08
6.9862798e-08
6.9930852e-08
7.0003162e-08
7.0078909e-08
7.0157392e-08
7.0238137e-08
7.0321024e-08
7.0406443e-08
7.0495434e-08
7.0589778e-08
7.0691983e-08
7.0805069e-08
7.0932122e-08
7.1075545e-08
7.1236059e-08
7.1411505e-08
7.1595528e-08
7.1770401e-08
7.191244e-08
7.1983508e-08
7.1916618e-08
7.1552884e-08
7.1001409e-08
7.1047376e-08
7.1099453e-08
7.1156921e-08
7.1219006e-08
7.1284924e-08
7.135393e-08
7.1425401e-08
7.1498947e-08
7.1574538e-08
7.1652656e-08
7.1734438e-08
7.1821763e-08
7.1917228e-08
7.2023932e-08
7.2145009e-08
7.2282866e-08
7.2438156e-08
7.2608548e-08
7.2787359e-08
7.2956901e-08
7.3093082e-08
7.3156996e-08
7.3080206e-08
7.2700005e-08
7.2212156e-08
7.2254302e-08
7.2302019e-08
7.2354637e-08
7.2411439e-08
7.2471698e-08
7.2534734e-08
7.2599995e-08
7.266716e-08
7.2736274e-08
7.2807895e-08
7.2883237e-08
7.2964249e-08
7.3053591e-08
7.3154408e-08
7.3269848e-08
7.3402291e-08
7.3552299e-08
7.3717367e-08
7.3890498e-08
7.4054019e-08
7.4183582e-08
7.4239709e-08
7.4152852e-08
7.3757284e-08
7.3317333e-08
7.3356154e-08
7.3400078e-08
7.3448479e-08
7.3500684e-08
7.3556021e-08
7.3613863e-08
7.3673715e-08
7.3735317e-08
7.3798773e-08
7.3864701e-08
7.3934367e-08
7.4009768e-08
7.4093594e-08
7.4188999e-08
7.4299107e-08
7.4426233e-08
7.4570825e-08
7.4730207e-08
7.4896898e-08
7.5053452e-08
7.5175428e-08
7.5223134e-08
7.5127053e-08
7.4724293e-08
7.430975e-08
7.434574e-08
7.4386433e-08
7.4431237e-08
7.4479522e-08
7.4530656e-08
7.4584059e-08
7.4639285e-08
7.4696121e-08
7.4754717e-08
7.4815733e-08
7.4880468e-08
7.4950938e-08
7.5029832e-08
7.5120274e-08
7.5225325e-08
7.5347186e-08
7.5486174e-08
7.5639656e-08
7.5798469e-08
7.5946813e-08
7.605996e-08
7.6098313e-08
7.5993483e-08
7.5591242e-08
7.518172e-08
7.5215355e-08
7.5253355e-08
7.5295155e-08
7.5340158e-08
7.5387765e-08
7.5437436e-08
7.5488764e-08
7.5541573e-08
7.559605e-08
7.5652878e-08
7.571337e-08
7.5779537e-08
7.5854034e-08
7.5939921e-08
7.6040147e-08
7.6156731e-08
7.6289654e-08
7.6435516e-08
7.6585644e-08
7.6724527e-08
7.6827384e-08
7.68549e-08
7.6739551e-08
7.6328746e-08
7.5919645e-08
7.5951391e-08
7.5987222e-08
7.60266e-08
7.6068948e-08
7.6113694e-08
7.6160328e-08
7.6208474e-08
7.6257988e-08
7.6309077e-08
7.6362432e-08
7.6419357e-08
7.6481822e-08
7.6552403e-08
7.6634039e-08
7.6729504e-08
7.684059e-08
7.6966989e-08
7.7104961e-08
7.7245791e-08
7.7374063e-08
7.7465163e-08
7.7480276e-08
7.7352832e-08
7.6931719e-08
7.6503411e-08
7.6533707e-08
7.6567867e-08
7.6605374e-08
7.6645666e-08
7.6688188e-08
7.6732449e-08
7.6778102e-08
7.6825028e-08
7.6873441e-08
7.6924023e-08
7.6978058e-08
7.7037447e-08
7.7104658e-08
7.7182481e-08
7.7273494e-08
7.7379247e-08
7.7499129e-08
7.7629032e-08
7.7760037e-08
7.7876764e-08
7.795493e-08
7.7956599e-08
7.7817302e-08
7.7394364e-08
7.6900753e-08
7.6929986e-08
7.6962907e-08
7.6999022e-08
7.7037785e-08
7.7078641e-08
7.7121116e-08
7.7164887e-08
7.7209853e-08
7.725622e-08
7.7304641e-08
7.7356378e-08
7.7413247e-08
7.7477575e-08
7.7552025e-08
7.7639002e-08
7.7739849e-08
7.7853708e-08
7.7975798e-08
7.8096888e-08
7.8201671e-08
7.8266365e-08
7.8254334e-08
7.8104109e-08
7.7680797e-08
7.7048717e-08
7.7077202e-08
7.7109301e-08
7.7144413e-08
7.7182084e-08
7.7221755e-08
7.7262957e-08
7.7305387e-08
7.7348956e-08
7.7393831e-08
7.7440614e-08
7.7490564e-08
7.7545373e-08
7.760722e-08
7.7678753e-08
7.7762465e-08
7.7859459e-08
7.7969498e-08
7.8085204e-08
7.8197204e-08
7.8290604e-08
7.8342396e-08
7.8317702e-08
7.8159307e-08
7.7744181e-08
7.677268e-08
7.680075e-08
7.6833064e-08
7.6867576e-08
7.690452e-08
7.6943441e-08
7.6983867e-08
7.7025515e-08
7.7068283e-08
7.7112258e-08
7.7157956e-08
7.7206647e-08
7.7259841e-08
7.7319549e-08
7.7388888e-08
7.7472349e-08
7.7568172e-08
7.7687497e-08
7.7801519e-08
7.7906593e-08
7.7990493e-08
7.8031632e-08
7.7997388e-08
7.7836685e-08
7.7446286e-08
)
;

boundaryField
{
    Walls
    {
        type            nutUWallFunction;
        Cmu             0.09;
        kappa           0.41;
        E               9.8;
        value           uniform 0;
    }
    Inlet
    {
        type            calculated;
        value           nonuniform List<scalar> 3(1.1794465e-05 2.4175631e-05 7.7243613e-07);
    }
    Outlet
    {
        type            calculated;
        value           nonuniform List<scalar> 
86
(
0
0
0
0
0
0
0
0
0
0
0
0
0
0
0
0
0
0
0
0
0
0
0
0
0
0
0
0
0
0
1.4275652e-05
1.4812588e-05
1.339324e-05
0
0
0
0
4.2605995e-06
4.0082047e-06
3.4116561e-06
0
0
0
9.8370163e-07
6.2421497e-07
3.7231488e-07
2.1627373e-07
1.2843365e-07
8.3077667e-08
6.1597285e-08
5.2303268e-08
4.8881814e-08
4.819328e-08
4.8730531e-08
4.9812975e-08
5.1138646e-08
5.2580763e-08
5.4081335e-08
5.5609918e-08
5.7147127e-08
5.8695338e-08
6.0241102e-08
0
0
0
0
0
0
0
0
0
0
0
0
0
0
0
0
0
0
0
0
0
0
1.3164396e-05
1.4796445e-05
)
;
    }
    Front
    {
        type            wedge;
    }
    Back
    {
        type            wedge;
    }
    defaultFaces
    {
        type            empty;
    }
}


// ************************************************************************* //
