/*--------------------------------*- C++ -*----------------------------------*\
| =========                 |                                                 |
| \\      /  F ield         | OpenFOAM: The Open Source CFD Toolbox           |
|  \\    /   O peration     | Version:  4.0                                   |
|   \\  /    A nd           | Web:      www.OpenFOAM.org                      |
|    \\/     M anipulation  |                                                 |
\*---------------------------------------------------------------------------*/
FoamFile
{
    version     2.0;
    format      ascii;
    class       volScalarField;
    location    "0.34";
    object      omega;
}
// * * * * * * * * * * * * * * * * * * * * * * * * * * * * * * * * * * * * * //

dimensions      [0 0 -1 0 0 0 0];

internalField   nonuniform List<scalar> 
1740
(
65.924234
699.47555
14920.85
176.31995
1455.0452
15028.362
289.83559
1941.6062
15114.078
380.61697
2203.4635
15197.485
475.30475
2483.3535
15271.627
593.59584
2818.4098
15328.287
721.04148
3096.4123
15371.937
826.70189
3237.1805
15409.773
924.77157
3380.229
15443.767
1041.8901
3513.0831
15472.415
1135.5482
3599.4342
15486.842
1232.3282
3717.7934
15510.144
1373.7549
3914.696
15534.129
1448.3997
3990.019
15534.248
1501.4823
3962.7
15546.385
1552.6729
3981.3785
15556.744
1607.8969
3995.0134
15554.225
1660.7392
4010.0227
15563.353
1722.3313
4052.0874
15566.911
1758.77
4130.8088
15563.517
1781.7492
4058.7389
15567.501
1811.4156
4043.6612
15574.932
1862.2988
4081.1437
15582.534
1884.0142
4176.6365
15581.859
1922.3183
4236.1182
15577.403
1955.1197
4293.3701
15570.184
1980.1138
4213.9063
15567.541
2007.258
4183.7543
15565.259
2023.3105
4197.4961
15558.487
2138.9317
4272.882
15502.294
3195.0286
4544.978
10727.169
3334.8643
4229.3073
5930.7658
1572.4986
1858.7389
2152.7428
825.03476
899.74902
957.537
479.33253
497.41645
507.37389
301.4155
305.09251
305.09934
201.95394
202.24949
200.77371
142.71845
142.3874
141.12897
105.68008
105.34988
104.51115
81.671006
81.441044
80.925142
65.720219
65.57536
65.265795
55.005921
54.917621
54.73231
47.854986
47.801652
47.690084
43.207891
43.175902
43.108557
40.328552
40.30987
40.269801
38.663553
38.653578
38.630944
37.783664
37.779585
37.768064
37.319506
37.316143
37.307353
36.986067
36.983064
36.975805
36.713898
36.711596
36.705858
36.469436
36.467994
36.463772
36.236209
36.235726
36.233003
36.010685
36.011032
36.009593
35.798738
35.799558
35.798972
35.609211
35.610139
35.60997
35.447922
35.448735
35.448691
35.315676
35.316295
35.31624
35.209516
35.209947
35.209839
35.124798
35.125076
35.124915
35.056712
35.056876
35.056676
35.00101
35.001093
35.000869
34.954151
34.954178
34.953942
34.91311
34.9131
34.91286
34.874977
34.874943
34.874707
34.836363
34.836314
34.836087
34.792555
34.792499
34.792285
34.736281
34.736222
34.736024
34.655914
34.655857
34.655678
34.532929
34.532876
34.532721
34.338424
34.338381
34.338255
34.028652
34.028622
34.028531
33.539675
33.539662
33.539615
32.781709
32.781719
32.78173
31.634379
31.634421
31.634505
29.94516
29.94524
29.94542
27.536255
27.536389
27.536703
24.221567
24.221788
24.22233
19.844947
19.845417
19.846649
14.342709
14.344265
14.34854
7.7451924
7.7494295
7.7612531
13479.891
13534.618
5991.9625
5330.1283
2083.1514
1880.9427
921.73368
853.68808
490.6386
463.4885
296.78551
284.77882
196.41458
190.63707
138.75715
135.81264
103.1911
101.62094
80.176176
79.306883
64.832753
64.33467
54.476511
54.181328
47.53581
47.355283
43.014203
42.901155
40.212143
40.140588
38.5965
38.551316
37.748125
37.719556
37.29229
37.270302
36.963555
36.945483
36.695844
36.680626
36.455683
36.442733
36.226655
36.21568
36.004763
35.995607
35.795351
35.787877
35.607236
35.601264
35.446587
35.441893
35.314584
35.310925
35.208505
35.205652
35.123818
35.121573
35.055755
35.053963
35.000081
34.998624
34.953258
34.952051
34.91226
34.911243
34.874174
34.873307
34.835613
34.834865
34.791863
34.791213
34.735651
34.735087
34.655352
34.654868
34.532444
34.532037
34.338031
34.337703
34.028369
34.028131
33.539528
33.539395
32.781735
32.781733
31.63463
31.634795
29.945704
29.946097
27.537214
27.537939
24.223178
24.224408
19.848044
19.849983
14.351008
14.353615
7.7653765
7.7678204
12058.193
2043.6424
696.65971
369.1901
281.36042
257.12298
249.97159
246.91303
244.54552
242.12294
239.56513
236.78066
233.8982
230.93096
227.84567
224.57946
221.02104
216.97731
212.11918
205.89638
197.39149
185.05479
166.18886
135.75162
82.056727
12058.133
2037.3663
697.76242
374.74667
283.29339
254.4525
242.90934
235.68669
229.5695
223.76092
218.06655
212.42516
206.89599
201.46172
196.10106
190.7866
185.46306
180.02816
174.29671
167.94817
160.43266
150.78359
137.20237
115.9896
77.744147
12058.179
2030.5791
718.67233
430.79199
359.44396
332.5154
315.14515
300.64353
287.40222
274.84775
262.86342
251.27463
240.29127
229.81946
219.7976
210.2122
201.04281
192.24394
183.71602
175.28147
166.627
157.17019
145.70232
129.26078
98.53284
12058.527
2031.8724
817.6835
609.00372
550.1529
512.95326
479.93135
449.41143
421.42756
395.11604
370.4397
347.42905
326.2184
306.35482
287.69052
270.23217
253.96737
238.86346
224.86529
211.88203
199.77281
188.31014
177.0498
164.79741
146.25331
12061.53
2151.1896
1232.5534
1078.5808
989.8392
907.03403
828.56878
757.18252
693.29459
634.1943
579.85299
530.21619
486.11759
445.83609
408.8601
375.19505
344.70353
317.21296
292.541
270.4943
250.87621
233.51088
218.28321
205.36396
195.83033
12087.242
3824.0997
2809.095
2403.9215
2095.1204
1826.0562
1590.7792
1387.5758
1211.7321
1059.9832
929.24352
816.68694
719.78813
636.13023
563.78755
501.25178
447.2286
400.58878
360.35674
325.69735
295.90182
270.39509
248.77195
231.12809
218.70179
10361.946
7901.6568
6096.8981
4787.7864
3817.8373
3082.0831
2512.6395
2065.5844
1711.1345
1427.8232
1199.7013
1014.8619
864.35868
741.29255
640.19318
556.71373
487.42079
429.61679
381.1862
340.46742
306.15431
277.24034
253.00929
233.34123
219.52026
4089.3651
3305.2862
2842.1421
2466.8174
2147.4445
1866.9449
1622.312
1410.8637
1229.619
1074.2426
940.92485
826.26214
727.28879
641.84828
568.10141
504.45827
449.5449
402.18515
361.37636
326.26628
296.1357
270.40379
248.65572
230.96859
218.5384
1594.2529
1399.7297
1269.5783
1161.3497
1059.1555
961.92204
873.29495
794.26919
722.25048
657.00304
598.6304
547.01267
499.61457
456.30896
416.97299
381.40833
349.38231
320.66317
295.0173
272.22616
252.08991
234.43842
219.15836
206.40124
197.13572
771.23662
707.98467
661.77471
621.19723
580.84041
540.70147
503.11677
468.48125
436.37677
406.77556
379.71833
354.93671
331.74428
310.0376
289.80586
271.03393
253.69048
237.73284
223.10855
209.75177
197.56605
186.38069
175.81851
164.79005
148.38161
434.05023
410.29721
391.56754
374.32556
356.56667
338.26559
320.39417
303.38592
287.31455
272.23313
258.15105
244.94508
232.40633
220.48644
209.2154
198.58803
188.59573
179.21618
170.40303
162.06242
153.99726
145.7705
136.33443
122.87754
96.246135
272.3841
261.91149
253.21697
245.03798
236.51496
227.575
218.5791
209.79054
201.33027
193.25655
185.57764
178.24349
171.18026
164.36264
157.80167
151.49976
145.44651
139.61019
133.92198
128.24299
122.29433
115.50312
106.64082
92.880528
66.630806
184.80113
179.71116
175.30049
171.0765
166.66225
161.98885
157.1912
152.41067
147.73576
143.21111
138.84701
134.62374
130.51087
126.49161
122.56013
118.70527
114.90283
111.10531
107.22507
103.10349
98.452855
92.743669
84.972285
73.092826
51.741491
132.85779
130.20854
127.83497
125.53245
123.12773
120.57175
117.91185
115.21819
112.54521
109.92419
107.36457
104.85843
102.38973
99.943446
97.504991
95.052996
92.552139
89.943928
87.13279
83.96423
80.191771
75.434183
69.155015
60.853263
51.097182
100.04608
98.597945
97.265972
95.960874
94.599188
93.149736
91.627805
90.06683
88.497494
86.939299
85.398743
83.871492
82.346356
80.808264
79.237621
77.606083
75.870797
73.967152
71.799043
69.226818
66.056331
62.044906
56.981451
51.02877
45.770659
78.430137
77.606014
76.830535
76.063771
75.264547
74.413898
73.515597
72.584863
71.6378
70.685314
69.730893
68.770627
67.794416
66.786516
65.724224
64.574627
63.290014
61.802261
60.016367
57.804529
55.005146
51.439228
46.979
41.757662
36.152474
63.826338
63.337617
62.868025
62.399098
61.910455
61.390778
60.83977
60.263955
59.671169
59.066808
58.451723
57.821421
57.165761
56.468176
55.703864
54.836746
53.815421
52.56842
50.99918
48.981649
46.357542
42.933864
38.460938
32.474211
23.2032
53.874529
53.571799
53.274151
52.973219
52.65881
52.324405
51.968669
51.594037
51.203944
50.800456
50.382587
49.945137
49.477619
48.962759
48.374203
47.673331
46.805255
45.694226
44.23879
42.306898
39.729869
36.288178
31.659687
25.226644
15.415505
47.162908
46.967062
46.768971
46.565128
46.350519
46.121605
45.877171
45.617905
45.345021
45.058742
44.756963
44.433969
44.078975
43.674132
43.191817
42.591115
41.813589
40.778534
39.378043
37.472126
34.883212
31.385537
26.672949
20.26017
11.238414
42.776697
42.645081
42.507288
42.361906
42.206677
42.039907
41.860801
41.669442
41.466022
41.249851
41.018214
40.765103
40.479534
40.143218
39.727461
39.189269
38.466855
37.474793
36.099328
34.19462
31.580935
28.044998
23.338607
17.165609
9.2240561
40.058325
39.967202
39.867718
39.759351
39.64122
39.512633
39.373313
39.223184
39.061989
38.888576
38.69993
38.489878
38.247314
37.953652
37.579418
37.07991
36.390569
35.422312
34.057502
32.147691
29.515887
25.967271
21.311472
15.402208
8.2324724
38.49621
38.431458
38.35705
38.272796
38.178454
38.073896
37.959109
37.834026
37.698166
37.550103
37.386593
37.201332
36.983103
36.713239
36.361963
35.883299
35.210561
34.252357
32.889585
30.973892
28.332238
24.784006
20.175622
14.443787
7.7189743
37.68192
37.63441
37.576651
37.50847
37.429826
37.340773
37.24136
37.131444
37.010376
36.876487
36.726309
36.553352
36.346267
36.086199
35.743895
35.272124
34.602207
33.641915
32.273402
30.350535
27.702971
24.156473
19.571905
13.911369
7.3379059
37.240698
37.20276
37.155999
37.100093
37.034835
36.960067
36.875575
36.780898
36.675022
36.555879
36.419561
36.259097
36.062582
35.810281
35.472616
35.000833
34.324054
33.351953
31.970227
30.03828
27.386427
23.840453
19.263321
13.615578
7.0659585
36.920777
36.888692
36.848645
36.800211
36.743075
36.676962
36.601519
36.516125
36.419591
36.309705
36.182519
36.03124
35.844459
35.603412
35.278044
34.823382
34.168132
33.213379
31.8239
29.884687
27.231459
23.687273
19.114725
13.474301
6.9285845
36.659304
36.631063
36.595253
36.551391
36.499117
36.438111
36.367994
36.288159
36.197526
36.094138
35.974465
35.832221
35.656414
35.428367
35.117487
34.679144
34.042688
33.108723
31.743177
29.804179
27.154619
23.61562
19.049501
13.418441
6.9123204
36.423959
36.398461
36.365559
36.324773
36.275779
36.218338
36.152213
36.077039
35.99209
35.895841
35.785185
35.654096
35.49155
35.278545
34.984188
34.561102
33.941109
33.025179
31.682825
29.75433
27.114069
23.583889
19.026284
13.399405
6.8737817
36.199097
36.175931
36.145537
36.107531
36.061741
36.008144
35.946785
35.877632
35.800299
35.713526
35.614298
35.496427
35.348473
35.150839
34.871965
34.463592
33.85788
32.956496
31.63013
29.718588
27.090418
23.571258
19.024984
13.410998
6.9251572
35.981186
35.960515
35.933049
35.898578
35.85714
35.808957
35.754321
35.69341
35.625955
35.550666
35.464309
35.360305
35.226699
35.043361
34.778273
34.382872
33.789068
32.899527
31.586154
29.690405
27.074333
23.56637
19.031786
13.431319
6.9597454
35.775713
35.757953
35.734188
35.704368
35.668694
35.62753
35.581259
35.530067
35.473585
35.410295
35.336627
35.245593
35.124817
34.953814
34.700382
34.316144
33.731612
32.851533
31.548747
29.666364
27.061074
23.563026
19.03861
13.448722
6.977813
35.591359
35.576756
35.55717
35.532643
35.503438
35.469924
35.432429
35.391009
35.345082
35.292856
35.230438
35.150512
35.04041
34.879431
34.635277
34.259602
33.682857
32.810331
31.516068
29.644638
27.048353
23.558129
19.040511
13.457031
7.0203995
35.434065
35.422498
35.406997
35.387633
35.364644
35.33832
35.308858
35.276129
35.239329
35.196414
35.143238
35.072251
34.970594
34.817444
34.580476
34.21144
33.641107
32.774338
31.48686
29.624335
27.035504
23.551658
19.039113
13.458594
7.0240915
35.304855
35.295918
35.283973
35.269085
35.251427
35.231181
35.208397
35.18277
35.153302
35.117753
35.07179
35.007702
34.912508
34.765317
34.533801
34.169793
33.604248
32.74225
31.460265
29.605046
27.022568
23.54471
19.038513
13.464597
7.0316699
35.200979
35.19415
35.185061
35.173754
35.160332
35.144875
35.127303
35.107167
35.083317
35.053368
35.012856
34.953956
34.863612
34.720889
34.493471
34.133266
33.571401
32.713264
31.435744
29.586601
27.009678
23.537756
19.040074
13.481329
7.0683511
35.117963
35.112743
35.105833
35.097249
35.087037
35.075192
35.061533
35.045502
35.025839
35.000052
34.963582
34.908532
34.821787
34.682392
34.458046
34.100733
33.541755
32.686861
31.412953
29.568987
26.997064
23.530894
19.042493
13.505573
7.1749437
35.051143
35.047116
35.041819
35.035247
35.027404
35.018219
35.007438
34.994423
34.977835
34.955106
34.921612
34.869399
34.785318
34.648398
34.426357
34.071251
33.514531
32.662212
31.391559
29.552237
26.985011
23.524054
19.041769
13.511135
7.1997594
34.996385
34.993233
34.989114
34.984012
34.977896
34.970651
34.96197
34.951158
34.936819
34.916332
34.885025
34.834906
34.752797
34.617722
34.397419
34.044013
33.489102
32.638964
31.37129
29.536317
26.97383
23.51837
19.042706
13.519778
7.2145955
34.950241
34.947729
34.944472
34.940442
34.935584
34.929755
34.922607
34.913408
34.900719
34.881882
34.852189
34.803619
34.722977
34.589282
34.370297
34.018217
33.46479
32.616568
31.351718
29.520863
26.963279
23.513823
19.045321
13.529723
7.2275108
34.909753
34.907716
34.905093
34.90185
34.897917
34.893128
34.887109
34.879098
34.86763
34.850016
34.821523
34.774108
34.694562
34.561904
34.343923
33.992886
33.440685
32.594138
31.331833
29.504957
26.952268
23.508921
19.04761
13.53902
7.2092971
34.87206
34.87038
34.868231
34.865575
34.862331
34.858315
34.853137
34.846014
34.835458
34.818761
34.791167
34.744619
34.665896
34.534021
34.316807
33.966593
33.41541
32.570325
31.310321
29.487123
26.93905
23.501497
19.047144
13.54702
7.2292735
34.833809
34.832403
34.830617
34.828406
34.825683
34.822254
34.817713
34.811263
34.8014
34.785397
34.758486
34.712594
34.634492
34.503206
34.286578
33.937012
33.386675
32.542863
31.284916
29.465032
26.921181
23.48909
19.041975
13.551067
7.2401006
34.790312
34.789124
34.787621
34.785757
34.783439
34.780464
34.776416
34.770486
34.761158
34.745691
34.719304
34.673911
34.596279
34.465438
34.249255
33.900202
33.350572
32.50788
31.251788
29.434911
26.894953
23.468053
19.028605
13.550404
7.2549816
34.734315
34.733306
34.732033
34.73045
34.728456
34.725842
34.722187
34.71667
34.707763
34.692718
34.666739
34.621732
34.544457
34.413951
34.198109
33.84947
33.300458
32.458805
31.204494
29.390558
26.854587
23.433339
19.002933
13.541711
7.2454035
34.65421
34.653356
34.652279
34.65093
34.649207
34.646894
34.643563
34.638384
34.629823
34.615119
34.589466
34.544762
34.467764
34.337516
34.121949
33.773678
33.225276
32.384722
31.132369
29.321752
26.790623
23.376619
18.957822
13.516901
7.2532052
34.531487
34.530775
34.529875
34.528735
34.527251
34.525201
34.522152
34.517267
34.509001
34.494585
34.469205
34.424751
34.34798
34.217953
34.002651
33.65479
33.107138
32.267998
31.018223
29.212052
26.687764
23.284143
18.880902
13.460814
7.2094812
34.337263
34.336691
34.335962
34.335023
34.333764
34.331962
34.329175
34.32456
34.316565
34.302411
34.277277
34.233052
34.156501
34.026718
33.811762
33.464508
32.918009
32.081046
30.835211
29.035807
26.52218
23.134733
18.755171
13.368249
7.1581429
34.027809
34.027386
34.026836
34.026102
34.025073
34.02352
34.020995
34.016649
34.008923
33.995031
33.970152
33.926177
33.849902
33.720485
33.506122
33.159947
32.615463
31.782193
30.542874
28.754459
26.258214
22.897076
18.555722
13.222112
7.0805041
33.53921
33.538956
33.538604
33.538095
33.537314
33.536027
33.533781
33.529723
33.522289
33.508691
33.484115
33.44048
33.364641
33.235885
33.022648
32.678494
32.137655
31.310823
30.082518
28.312246
25.844378
22.525586
18.244225
12.991163
6.9518092
32.781714
32.781661
32.78154
32.781288
32.780785
32.779793
32.777857
32.774121
32.767024
32.753789
32.729629
32.686526
32.611458
32.483945
32.272842
31.932428
31.398105
30.582395
29.37255
27.63201
25.209859
21.958357
17.771043
12.641762
6.7553685
31.634989
31.635188
31.635349
31.635402
31.635219
31.634559
31.632968
31.629599
31.622906
31.61015
31.586609
31.544391
31.470707
31.345486
31.138288
30.804557
30.281542
29.484571
28.304918
26.612212
24.261994
21.114675
17.070878
12.127481
6.4665703
29.946582
29.947117
29.947643
29.948076
29.948275
29.947991
29.94678
29.943822
29.937624
29.925525
29.902935
29.862203
29.790944
29.669778
29.469413
29.147141
28.643065
27.876772
26.745729
25.127362
22.887221
19.897159
16.068353
11.403652
6.078698
27.538847
27.539849
27.540856
27.541769
27.54242
27.542544
27.541714
27.539179
27.533557
27.522339
27.50117
27.462832
27.395618
27.281257
27.092285
26.788824
26.315233
25.597217
24.540746
23.034363
20.957302
18.196575
14.677011
10.407839
5.5529578
24.225951
24.227586
24.229173
24.230659
24.231829
24.232375
24.231901
24.229783
24.224839
24.214796
24.19566
24.160967
24.100077
23.996403
23.8253
23.551058
23.124128
22.478761
21.5326
20.188987
18.344832
15.906166
12.814699
9.0892648
4.8934175
19.85235
19.854638
19.856729
19.858683
19.860328
19.861253
19.861099
19.859432
19.85535
19.846855
19.830443
19.800905
19.749152
19.661048
19.516245
19.285001
18.925734
18.384151
17.593821
16.476688
14.951079
12.945161
10.419255
7.3984347
4.0182486
14.356556
14.359118
14.362156
14.364108
14.365833
14.366909
14.366993
14.365854
14.362876
14.356324
14.343359
14.32058
14.280995
14.213883
14.105436
13.935476
13.668123
13.26477
12.681894
11.863047
10.750515
9.2960245
7.4777064
5.3230304
2.9316413
7.7702165
7.7731133
7.7814473
7.7835614
7.7847054
7.7854533
7.7855816
7.7849939
7.7833196
7.7793242
7.7712339
7.7575891
7.734227
7.695204
7.6363654
7.5596896
7.411109
7.1800124
6.8566233
6.4076476
5.8007149
5.0108786
4.0299742
2.8802465
1.6211498
)
;

boundaryField
{
    Walls
    {
        Cmu             0.09;
        kappa           0.41;
        E               9.8;
        beta1           0.075;
        type            omegaWallFunction;
        value           nonuniform List<scalar> 
38
(
12058.193
12058.133
12058.179
12058.527
12061.53
12087.242
13479.891
13534.618
14920.85
15028.362
15114.078
15197.485
15271.627
15328.287
15371.937
15409.773
15443.767
15472.415
15486.842
15510.144
15534.129
15534.248
15546.385
15556.744
15554.225
15563.353
15566.911
15563.517
15567.501
15574.932
15582.534
15581.859
15577.403
15570.184
15567.541
15565.259
15558.487
15502.294
)
;
    }
    Inlet
    {
        type            turbulentMixingLengthDissipationRateInlet;
        mixingLength    0.03;
        phi             phi;
        k               k;
        value           nonuniform List<scalar> 3(0.0041415858 0.0041955434 0.0053597554);
    }
    Outlet
    {
        type            inletOutlet;
        inletValue      uniform 1e-05;
        value           nonuniform List<scalar> 
86
(
1e-05
1e-05
1e-05
1e-05
1e-05
1e-05
1e-05
1e-05
1e-05
1e-05
1e-05
1e-05
1e-05
1e-05
1e-05
1e-05
1e-05
1e-05
1e-05
1e-05
1e-05
1e-05
1e-05
1e-05
1e-05
1e-05
1e-05
1e-05
1e-05
1e-05
219.52026
218.5384
197.13572
1e-05
1e-05
1e-05
1e-05
51.097182
45.770659
36.152474
1e-05
1e-05
1e-05
9.2240561
8.2324724
7.7189743
7.3379059
7.0659585
6.9285845
6.9123204
6.8737817
6.9251572
6.9597454
6.977813
7.0203995
7.0240915
7.0316699
7.0683511
7.1749437
7.1997594
7.2145955
7.2275108
1e-05
1e-05
1e-05
1e-05
1e-05
1e-05
1e-05
1e-05
1e-05
1e-05
1e-05
1e-05
1e-05
1e-05
1e-05
1e-05
1e-05
1e-05
1e-05
1e-05
1e-05
1e-05
195.83033
218.70179
)
;
    }
    Front
    {
        type            wedge;
    }
    Back
    {
        type            wedge;
    }
    defaultFaces
    {
        type            empty;
    }
}


// ************************************************************************* //
