/*--------------------------------*- C++ -*----------------------------------*\
| =========                 |                                                 |
| \\      /  F ield         | OpenFOAM: The Open Source CFD Toolbox           |
|  \\    /   O peration     | Version:  4.0                                   |
|   \\  /    A nd           | Web:      www.OpenFOAM.org                      |
|    \\/     M anipulation  |                                                 |
\*---------------------------------------------------------------------------*/
FoamFile
{
    version     2.0;
    format      ascii;
    class       volScalarField;
    location    "0.43";
    object      k;
}
// * * * * * * * * * * * * * * * * * * * * * * * * * * * * * * * * * * * * * //

dimensions      [0 2 -2 0 0 0 0];

internalField   nonuniform List<scalar> 
1740
(
0.0092772295
0.0092473954
0.018606876
0.0093792141
0.0099745988
0.027333813
0.0096056524
0.010459217
0.034995772
0.00983641
0.010677209
0.042036496
0.010022326
0.011014276
0.047795795
0.010074885
0.01139964
0.052871573
0.010125535
0.011782921
0.056750989
0.010119473
0.012060273
0.059860505
0.010096491
0.012194471
0.062692485
0.01004007
0.012518975
0.064862186
0.010012552
0.012688812
0.066430127
0.0099430795
0.01281895
0.067847643
0.0098694581
0.013116786
0.069272644
0.0098025393
0.013572985
0.070581808
0.0097455948
0.013878018
0.071654754
0.0097154163
0.01418238
0.071838764
0.009649348
0.014272508
0.072053608
0.0095101973
0.014215804
0.072270278
0.0093363844
0.014198231
0.072697541
0.0091738539
0.014338682
0.073137893
0.0090278447
0.014192807
0.072532588
0.0088736676
0.014074414
0.073079746
0.0087306363
0.014272262
0.074219408
0.0086396081
0.014884171
0.074535046
0.0086493985
0.015354929
0.07432552
0.0085819678
0.015154406
0.073597819
0.0084093411
0.015149117
0.0732969
0.0083578222
0.015348048
0.072755639
0.0083247857
0.015184318
0.07197947
0.0089333422
0.01606057
0.066895539
0.012597536
0.017946917
0.047450529
0.023936939
0.03124072
0.039967248
0.010285064
0.012552336
0.013750049
0.0042552941
0.0045830784
0.0046452377
0.002070056
0.002111836
0.0020857377
0.0011389653
0.001139644
0.00112153
0.0006878155
0.00068519782
0.00067706055
0.00044517625
0.00044378663
0.00044095065
0.00030272853
0.00030232203
0.00030180799
0.00021261322
0.00021266665
0.00021301871
0.00015193274
0.00015213981
0.00015271604
0.00010905514
0.00010927603
0.00010982021
7.7788526e-05
7.7971193e-05
7.8400345e-05
5.4676364e-05
5.4809243e-05
5.511423e-05
3.76496e-05
3.773794e-05
3.7937978e-05
2.5326951e-05
2.5381236e-05
2.5503233e-05
1.6658173e-05
1.6689146e-05
1.6758461e-05
1.0768107e-05
1.0784526e-05
1.0821195e-05
6.913375e-06
6.9214365e-06
6.9394778e-06
4.488243e-06
4.4919828e-06
4.5003658e-06
3.0233339e-06
3.0250562e-06
3.0289062e-06
2.1750602e-06
2.1759315e-06
2.1778739e-06
1.7078093e-06
1.7083815e-06
1.7096521e-06
1.4681786e-06
1.4686803e-06
1.4697891e-06
1.3603008e-06
1.360806e-06
1.3619194e-06
1.3264096e-06
1.3269286e-06
1.3280703e-06
1.3328324e-06
1.3333546e-06
1.3345022e-06
1.360531e-06
1.3610431e-06
1.3621676e-06
1.3990362e-06
1.399528e-06
1.4006072e-06
1.4427233e-06
1.4431886e-06
1.4442091e-06
1.488609e-06
1.4890448e-06
1.4900001e-06
1.5350903e-06
1.5354957e-06
1.536384e-06
1.5812395e-06
1.5816149e-06
1.5824371e-06
1.6264136e-06
1.62676e-06
1.6275186e-06
1.6700287e-06
1.6703475e-06
1.6710456e-06
1.7114126e-06
1.7117055e-06
1.7123464e-06
1.7496837e-06
1.7499522e-06
1.7505397e-06
1.7836257e-06
1.7838714e-06
1.7844091e-06
1.8115418e-06
1.8117665e-06
1.8122579e-06
1.8310819e-06
1.8312872e-06
1.831736e-06
1.8390452e-06
1.8392326e-06
1.8396423e-06
1.8311756e-06
1.8313467e-06
1.8317206e-06
1.8019887e-06
1.8021449e-06
1.8024861e-06
1.7446966e-06
1.744839e-06
1.74515e-06
1.6513442e-06
1.6514732e-06
1.6517552e-06
1.5133061e-06
1.5134205e-06
1.5136711e-06
1.3223425e-06
1.3224368e-06
1.3226464e-06
1.0724223e-06
1.0724854e-06
1.0726331e-06
7.6275169e-07
7.6277292e-07
7.6283677e-07
4.0359953e-07
4.0359036e-07
4.0358654e-07
0.056296407
0.060969275
0.046166092
0.046662348
0.012492415
0.011352998
0.0043499708
0.0041207307
0.001996579
0.0019382215
0.0010922268
0.0010771409
0.00066793281
0.00066583032
0.00043896418
0.00044071617
0.00030227743
0.00030487057
0.00021416871
0.00021659519
0.00015388302
0.00015584816
0.00011078259
0.00011225461
7.9114839e-05
8.0154903e-05
5.5606207e-05
5.6302419e-05
3.8254863e-05
3.8695729e-05
2.5694432e-05
2.5957614e-05
1.686642e-05
1.7014026e-05
1.0878134e-05
1.0955698e-05
6.9675128e-06
7.0056599e-06
4.5134188e-06
4.5311772e-06
3.0348996e-06
3.0430528e-06
2.1808905e-06
2.1849891e-06
1.7116125e-06
1.7142619e-06
1.4714861e-06
1.473764e-06
1.3636136e-06
1.3658766e-06
1.3298021e-06
1.3321082e-06
1.3362395e-06
1.3385483e-06
1.3638677e-06
1.3661236e-06
1.4022371e-06
1.4043972e-06
1.4457488e-06
1.4477875e-06
1.4914404e-06
1.4933457e-06
1.5377224e-06
1.5394916e-06
1.5836753e-06
1.585311e-06
1.6286604e-06
1.6301679e-06
1.6720958e-06
1.6734818e-06
1.7133105e-06
1.7145821e-06
1.751423e-06
1.7525876e-06
1.7852172e-06
1.7862822e-06
1.8129964e-06
1.8139691e-06
1.8324102e-06
1.8332978e-06
1.8402575e-06
1.8410671e-06
1.8322819e-06
1.8330201e-06
1.8029981e-06
1.8036708e-06
1.7456164e-06
1.7462286e-06
1.652178e-06
1.6527322e-06
1.5140481e-06
1.5145421e-06
1.3229665e-06
1.3233871e-06
1.0728709e-06
1.0731853e-06
7.6295968e-07
7.631188e-07
4.0360151e-07
4.0360603e-07
3.736154e-06
2.6944598e-05
0.00013432451
0.00030476601
0.00046191557
0.0005728592
0.00064317936
0.0006868227
0.00071555424
0.00073650565
0.00075372392
0.00077025109
0.00078571203
0.00079987388
0.00081242881
0.00082282868
0.00083009292
0.00083256116
0.00082752374
0.00081071118
0.00077558722
0.00071248412
0.00060791641
0.0004447835
0.00020201055
2.4970516e-06
5.4668201e-05
0.00025075757
0.00051536076
0.00072711706
0.00085859492
0.00093455928
0.0009791009
0.0010076398
0.0010282061
0.0010450506
0.0010607196
0.001075063
0.0010878188
0.0010985927
0.0011067631
0.0011112015
0.001109999
0.0010999654
0.0010759899
0.0010300913
0.00095003251
0.00081756949
0.00060717916
0.00028750782
7.8845594e-06
0.00015969061
0.00061518406
0.0010785748
0.001361435
0.0015041443
0.0015716082
0.0016031936
0.0016188818
0.0016271341
0.0016323277
0.0016353684
0.0016374836
0.0016380187
0.0016364763
0.0016323836
0.0016246831
0.0016115846
0.0015896825
0.0015533927
0.0014937112
0.0013959527
0.0012354537
0.00096933409
0.00052200353
3.7356497e-05
0.00057834297
0.0016835955
0.0024338613
0.0027702481
0.0028839884
0.00289334
0.0028631228
0.0028231864
0.0027784392
0.002733915
0.0026914925
0.0026516799
0.0026113347
0.0025698707
0.0025277027
0.0024843303
0.0024383242
0.0023869434
0.0023254286
0.00224589
0.0021350698
0.0019686785
0.0016938299
0.0011537338
0.00027983261
0.0024435109
0.0049099158
0.0060300449
0.0063753988
0.0063132053
0.0060836514
0.0058202891
0.0055717566
0.0053210729
0.0050812437
0.0048571567
0.0046540602
0.0044575313
0.0042665316
0.0040858771
0.0039164978
0.0037577833
0.0036079217
0.0034634485
0.0033187256
0.0031655195
0.0029928366
0.0027923383
0.0025823696
0.0023575749
0.010533962
0.016570357
0.018511245
0.018047382
0.016489711
0.01467666
0.01299102
0.01151083
0.010236595
0.0091468009
0.0082188622
0.0074276008
0.0067491582
0.0061657207
0.0056640463
0.005232819
0.0048617447
0.0045414279
0.0042630445
0.004017766
0.0037966439
0.0035911026
0.0034004617
0.0032401553
0.045079083
0.034122496
0.026569391
0.021389205
0.01773324
0.015033867
0.012951614
0.01130072
0.0099729951
0.008893068
0.008003564
0.0072609056
0.0066321732
0.0060928615
0.0056249988
0.0052160444
0.0048573176
0.004542288
0.0042654509
0.0040215721
0.0038050777
0.0036100117
0.0034306687
0.0032684148
0.0031384098
0.037338128
0.030985942
0.02775669
0.025115553
0.022241174
0.01926674
0.01655184
0.014256357
0.012378292
0.010839758
0.0095712905
0.0085162499
0.0076312095
0.0068863731
0.0062579936
0.0057265986
0.0052758678
0.0048921277
0.0045636673
0.0042799838
0.0040310345
0.0038070558
0.0035989066
0.0034057418
0.0032433687
0.010209582
0.0095361731
0.0091963697
0.0088758782
0.0084131757
0.0078480394
0.0072913861
0.0067959061
0.0063450287
0.0059473044
0.0055997098
0.0052958799
0.0050107277
0.0047471792
0.0045066162
0.0042882643
0.0040901411
0.0039093215
0.0037419185
0.0035829107
0.0034255929
0.0032610349
0.0030777772
0.0028672499
0.0026479209
0.0039619076
0.0038887959
0.0038663415
0.0038254841
0.0037311102
0.0035962736
0.0034567948
0.0033276477
0.003211251
0.0031097566
0.0030221762
0.002945404
0.0028738604
0.0028069641
0.0027445276
0.0026857245
0.0026289018
0.0025714675
0.0025096543
0.0024379818
0.0023481613
0.0022268086
0.0020496118
0.0017629433
0.0012047027
0.0019215819
0.0019350929
0.0019601069
0.0019748508
0.0019684075
0.0019442799
0.0019134008
0.0018827366
0.0018553471
0.0018325436
0.0018141257
0.0017988494
0.0017850516
0.0017720825
0.0017595822
0.0017463467
0.0017305097
0.0017092906
0.0016786435
0.0016326212
0.0015622017
0.001453046
0.0012810253
0.0010033537
0.00054292651
0.0010815883
0.0011000136
0.0011236091
0.0011436326
0.0011555358
0.0011601023
0.0011608992
0.0011609244
0.0011619148
0.0011646199
0.0011690097
0.0011745245
0.0011803883
0.0011859317
0.0011904093
0.0011926234
0.0011907664
0.0011822258
0.001163296
0.0011287145
0.0010709157
0.00097885484
0.00083629637
0.00061998733
0.00029952016
0.00067301976
0.00068719718
0.00070435181
0.00072065565
0.00073397085
0.0007442521
0.00075271389
0.00076065952
0.00076899218
0.00077814506
0.00078812947
0.00079865422
0.00080924887
0.00081933573
0.00082813737
0.00083452264
0.00083688896
0.00083301968
0.00081990588
0.00079351722
0.00074852394
0.00067801719
0.00057334779
0.00042395499
0.00021297379
0.00044715867
0.00045732159
0.00046937127
0.00048152465
0.00049269656
0.00050268258
0.00051187849
0.00052084201
0.00053001675
0.00053963219
0.00054969279
0.0005600123
0.0005702501
0.00057992078
0.00058834403
0.00059456473
0.0005972755
0.00059473715
0.0005847063
0.000564395
0.00053053777
0.0004797697
0.00040986701
0.00032352257
0.00024063526
0.00030998826
0.00031720693
0.00032566762
0.00033449576
0.00034311517
0.00035134044
0.00035928065
0.00036716189
0.00037518916
0.00038346979
0.00039198628
0.00040059679
0.0004090369
0.00041691058
0.00042365914
0.0004285157
0.00043046304
0.00042820115
0.00042014352
0.00040447917
0.00037938531
0.00034357951
0.00029761959
0.00024678777
0.00020664229
0.0002204652
0.00022558141
0.00023152699
0.00023785896
0.00024425845
0.00025058707
0.00025685468
0.00026314372
0.00026953896
0.00027607908
0.00028273069
0.00028937704
0.00029580915
0.00030171274
0.000306647
0.00031001978
0.00031106745
0.00030884924
0.0003022726
0.00029017781
0.00027153404
0.00024583714
0.00021385605
0.00017899769
0.00015018266
0.00015867937
0.00016227763
0.00016643252
0.00017091112
0.0001755321
0.00018019815
0.00018488781
0.00018962215
0.00019442802
0.00019930905
0.00020422532
0.00020908091
0.00021371307
0.00021787998
0.00022124687
0.00022337224
0.00022369958
0.000221562
0.00021620911
0.00020686828
0.00019285005
0.00017368142
0.00014912005
0.00011835405
7.553788e-05
0.00011426179
0.00011675064
0.00011961064
0.00012271504
0.00012595741
0.00012927154
0.00013262917
0.00013602668
0.00013946505
0.00014293249
0.00014639043
0.0001497629
0.00015292708
0.00015570396
0.000157849
0.0001590444
0.00015889598
0.0001569385
0.00015265328
0.00014549855
0.00013494273
0.00012045871
0.00010134771
7.6039141e-05
4.013644e-05
8.1528737e-05
8.3205569e-05
8.5124951e-05
8.721572e-05
8.9414007e-05
9.1675012e-05
9.3973291e-05
9.6296711e-05
9.8636245e-05
0.00010097561
0.00010328207
0.00010549839
0.00010753599
0.0001092681
0.00011052368
0.0001110827
0.00011067459
0.00010898122
0.00010564515
0.00010028008
9.2473458e-05
8.1757065e-05
6.7499848e-05
4.866966e-05
2.3543923e-05
5.720459e-05
5.8294232e-05
5.9537218e-05
6.0892487e-05
6.232125e-05
6.3793423e-05
6.5288769e-05
6.6794115e-05
6.8298189e-05
6.9785556e-05
7.1230943e-05
7.2593696e-05
7.3813138e-05
7.4803923e-05
7.545206e-05
7.5611809e-05
7.5104365e-05
7.3718544e-05
7.1213193e-05
6.7319177e-05
6.1736809e-05
5.4124057e-05
4.4077929e-05
3.1145994e-05
1.5073702e-05
3.9260081e-05
3.9936679e-05
4.0705927e-05
4.1543606e-05
4.2426109e-05
4.3333583e-05
4.4250996e-05
4.5167112e-05
4.6071856e-05
4.6952894e-05
4.7792119e-05
4.856239e-05
4.9224419e-05
4.9723811e-05
4.9988487e-05
4.992655e-05
4.9424934e-05
4.8348755e-05
4.6541121e-05
4.38229e-05
3.9992776e-05
3.4832264e-05
2.8132069e-05
1.9779957e-05
9.9815073e-06
2.6291735e-05
2.6690034e-05
2.7141111e-05
2.7630741e-05
2.8144538e-05
2.8669737e-05
2.919585e-05
2.9714357e-05
3.0217533e-05
3.0696485e-05
3.1139217e-05
3.1528647e-05
3.1840728e-05
3.2042673e-05
3.2091287e-05
3.1931457e-05
3.1494879e-05
3.0698973e-05
2.9445943e-05
2.7622478e-05
2.5102074e-05
2.1755778e-05
1.7484148e-05
1.2294001e-05
6.4182166e-06
1.7200285e-05
1.7421236e-05
1.7670291e-05
1.7939181e-05
1.8219247e-05
1.8502501e-05
1.8782027e-05
1.9051961e-05
1.9306882e-05
1.9540892e-05
1.9746531e-05
1.9913639e-05
2.0028296e-05
2.0071704e-05
2.0019186e-05
1.9839118e-05
1.9491864e-05
1.8928739e-05
1.8091106e-05
1.6910389e-05
1.5310923e-05
1.3219706e-05
1.0589619e-05
7.4443588e-06
3.9235267e-06
1.1053145e-05
1.1168224e-05
1.1297201e-05
1.1435368e-05
1.1577622e-05
1.1719112e-05
1.1855497e-05
1.1982999e-05
1.2098111e-05
1.2197155e-05
1.2275722e-05
1.2328047e-05
1.2346393e-05
1.2320398e-05
1.2236416e-05
1.2076829e-05
1.1819202e-05
1.1435507e-05
1.0891445e-05
1.0146653e-05
9.1571112e-06
7.882027e-06
6.2978759e-06
4.4208232e-06
2.3237196e-06
7.053461e-06
7.1096717e-06
7.1722353e-06
7.2385352e-06
7.3056573e-06
7.3707657e-06
7.4312573e-06
7.4848198e-06
7.5293155e-06
7.5625587e-06
7.5820267e-06
7.5845273e-06
7.5658347e-06
7.5202928e-06
7.4403595e-06
7.3161469e-06
7.1349222e-06
6.8805586e-06
6.5330297e-06
6.0686065e-06
5.4616865e-06
4.6891226e-06
3.738153e-06
2.6177169e-06
1.3652694e-06
4.5533871e-06
4.5793698e-06
4.6080216e-06
4.6379181e-06
4.6674501e-06
4.6950122e-06
4.7191031e-06
4.7383635e-06
4.751536e-06
4.7573477e-06
4.7543636e-06
4.7407974e-06
4.714298e-06
4.6717017e-06
4.6087438e-06
4.519669e-06
4.3968452e-06
4.2303055e-06
4.0079438e-06
3.7153948e-06
3.3372701e-06
2.8598613e-06
2.2756678e-06
1.5895302e-06
8.2272658e-07
3.0532257e-06
3.0650567e-06
3.0779619e-06
3.0911733e-06
3.1038206e-06
3.1150106e-06
3.1238918e-06
3.1296752e-06
3.1316179e-06
3.1289607e-06
3.120844e-06
3.1061923e-06
3.0835755e-06
3.0510421e-06
3.0059219e-06
2.9445451e-06
2.8619381e-06
2.7515501e-06
2.6051524e-06
2.4133444e-06
2.1661609e-06
1.8548267e-06
1.4745499e-06
1.0282407e-06
5.2931466e-07
2.1900928e-06
2.1960103e-06
2.2024335e-06
2.2089481e-06
2.2150809e-06
2.2203335e-06
2.2242166e-06
2.2262591e-06
2.225997e-06
2.222937e-06
2.2164976e-06
2.2059307e-06
2.1902172e-06
2.1679392e-06
2.1371242e-06
2.095055e-06
2.0380638e-06
1.961378e-06
1.858848e-06
1.7234776e-06
1.5480259e-06
1.3262061e-06
1.0546244e-06
7.3539752e-07
3.7831425e-07
1.7175567e-06
1.7213908e-06
1.7255958e-06
1.7299426e-06
1.7341635e-06
1.7379687e-06
1.7410609e-06
1.7431359e-06
1.7438734e-06
1.7429064e-06
1.7397778e-06
1.7338762e-06
1.7243497e-06
1.7099987e-06
1.6891439e-06
1.6594733e-06
1.6178785e-06
1.5603388e-06
1.4818332e-06
1.3765112e-06
1.238426e-06
1.06248e-06
8.4595733e-07
5.9054354e-07
3.0386672e-07
1.4765929e-06
1.479908e-06
1.4836084e-06
1.4875576e-06
1.4915913e-06
1.4955249e-06
1.4991583e-06
1.5022713e-06
1.5046118e-06
1.5058699e-06
1.5056377e-06
1.5033525e-06
1.4982192e-06
1.4891119e-06
1.4744535e-06
1.4520792e-06
1.4190984e-06
1.3717902e-06
1.3055903e-06
1.2151985e-06
1.0952353e-06
9.4112377e-07
7.5045813e-07
5.2481326e-07
2.71149e-07
1.3686829e-06
1.3719865e-06
1.3757181e-06
1.3797851e-06
1.3840738e-06
1.3884513e-06
1.3927649e-06
1.3968348e-06
1.4004405e-06
1.4032952e-06
1.4050074e-06
1.4050261e-06
1.402566e-06
1.3965126e-06
1.3853059e-06
1.3668115e-06
1.3381928e-06
1.2958163e-06
1.2352542e-06
1.1514186e-06
1.0391344e-06
8.9401928e-07
7.1381495e-07
5.0013555e-07
2.6031981e-07
1.3349641e-06
1.3383314e-06
1.3421554e-06
1.3463639e-06
1.3508676e-06
1.3555586e-06
1.3603073e-06
1.3649535e-06
1.3692907e-06
1.3730409e-06
1.3758156e-06
1.3770609e-06
1.3759836e-06
1.3714553e-06
1.3618976e-06
1.3451546e-06
1.3183687e-06
1.2778922e-06
1.2192925e-06
1.13751e-06
1.0273915e-06
8.8457831e-07
7.068422e-07
4.9580516e-07
2.6024615e-07
1.3414038e-06
1.3447707e-06
1.3486009e-06
1.3528323e-06
1.3573873e-06
1.362171e-06
1.3670655e-06
1.3719204e-06
1.3765362e-06
1.3806376e-06
1.3838342e-06
1.3855647e-06
1.3850212e-06
1.3810524e-06
1.3720474e-06
1.3558069e-06
1.3294199e-06
1.289176e-06
1.2305742e-06
1.1484917e-06
1.037705e-06
8.9378973e-07
7.1450016e-07
5.0158666e-07
2.6416936e-07
1.3689102e-06
1.3721938e-06
1.3759296e-06
1.3800607e-06
1.3845164e-06
1.389209e-06
1.3940274e-06
1.3988271e-06
1.4034122e-06
1.4075081e-06
1.4107209e-06
1.4124804e-06
1.4119621e-06
1.4079891e-06
1.3989124e-06
1.3824808e-06
1.3557154e-06
1.3148224e-06
1.2552024e-06
1.1716273e-06
1.0587559e-06
9.1204811e-07
7.2919305e-07
5.1208063e-07
2.7056179e-07
1.4070626e-06
1.4102002e-06
1.4137679e-06
1.4177122e-06
1.4219668e-06
1.4264489e-06
1.4310522e-06
1.4356363e-06
1.4400074e-06
1.4438909e-06
1.4468891e-06
1.4484222e-06
1.4476491e-06
1.4433657e-06
1.4338837e-06
1.4168964e-06
1.3893512e-06
1.3473617e-06
1.2862173e-06
1.2005647e-06
1.0849222e-06
9.3460042e-07
7.4715108e-07
5.2437735e-07
2.7628309e-07
1.4503004e-06
1.4532557e-06
1.456613e-06
1.4603218e-06
1.4643195e-06
1.4685269e-06
1.4728417e-06
1.4771263e-06
1.481189e-06
1.4847545e-06
1.4874207e-06
1.4885984e-06
1.4874295e-06
1.482683e-06
1.4726303e-06
1.4549081e-06
1.426388e-06
1.3830871e-06
1.3201777e-06
1.2321732e-06
1.1134428e-06
9.5914315e-07
7.6669108e-07
5.3785696e-07
2.8301518e-07
1.4956921e-06
1.4984489e-06
1.5015778e-06
1.5050308e-06
1.5087482e-06
1.5126544e-06
1.5166502e-06
1.5206007e-06
1.5243154e-06
1.5275179e-06
1.5298019e-06
1.5305684e-06
1.5289423e-06
1.5236654e-06
1.5129688e-06
1.4944325e-06
1.4648515e-06
1.4201447e-06
1.3553655e-06
1.2648897e-06
1.1429355e-06
9.8450484e-07
7.8688927e-07
5.5185954e-07
2.9021201e-07
1.5416686e-06
1.5442242e-06
1.5471218e-06
1.5503159e-06
1.5537498e-06
1.5573508e-06
1.5610225e-06
1.5646321e-06
1.56799e-06
1.5708186e-06
1.5727068e-06
1.5730457e-06
1.5709431e-06
1.5651138e-06
1.5537486e-06
1.5343706e-06
1.5036987e-06
1.4575537e-06
1.3908685e-06
1.2978812e-06
1.1726575e-06
1.010049e-06
8.0724589e-07
5.6610106e-07
2.979262e-07
1.5873222e-06
1.5896812e-06
1.5923532e-06
1.5952953e-06
1.5984532e-06
1.6017569e-06
1.6051125e-06
1.608389e-06
1.6113974e-06
1.6138583e-06
1.6153556e-06
1.6152704e-06
1.6126934e-06
1.6063123e-06
1.5942779e-06
1.5740572e-06
1.5422932e-06
1.4947095e-06
1.4261198e-06
1.3306246e-06
1.2021388e-06
1.0353664e-06
8.2740617e-07
5.8030527e-07
3.0527304e-07
1.6320202e-06
1.634191e-06
1.6366477e-06
1.6393492e-06
1.6422438e-06
1.6452638e-06
1.6483176e-06
1.6512756e-06
1.653949e-06
1.6560565e-06
1.6571765e-06
1.6566802e-06
1.6536408e-06
1.6467194e-06
1.6340272e-06
1.6129759e-06
1.5801341e-06
1.5311298e-06
1.46066e-06
1.3626907e-06
1.2309911e-06
1.0601265e-06
8.4711139e-07
5.9406989e-07
3.126052e-07
1.6751837e-06
1.6771767e-06
1.6794298e-06
1.6819042e-06
1.6845504e-06
1.6873028e-06
1.6900716e-06
1.6927284e-06
1.6950844e-06
1.6968558e-06
1.6976159e-06
1.6967253e-06
1.6932401e-06
1.6857949e-06
1.6724625e-06
1.6506002e-06
1.6167044e-06
1.5663108e-06
1.4940039e-06
1.3936211e-06
1.2587946e-06
1.083962e-06
8.6605157e-07
6.0715492e-07
3.1894308e-07
1.7161426e-06
1.7179686e-06
1.7200308e-06
1.7222923e-06
1.7247055e-06
1.7272069e-06
1.7297083e-06
1.7320822e-06
1.7341391e-06
1.7355932e-06
1.7360118e-06
1.7347452e-06
1.7308328e-06
1.7228831e-06
1.7089315e-06
1.6862833e-06
1.651366e-06
1.5996275e-06
1.5255467e-06
1.4228419e-06
1.2850209e-06
1.1064104e-06
8.8387788e-07
6.195546e-07
3.2531883e-07
1.7540159e-06
1.7556859e-06
1.7575699e-06
1.7596327e-06
1.7618286e-06
1.7640957e-06
1.7663471e-06
1.7684562e-06
1.7702327e-06
1.7713881e-06
1.771484e-06
1.7698605e-06
1.7655404e-06
1.7571076e-06
1.7425615e-06
1.7191587e-06
1.6832622e-06
1.6302399e-06
1.5544753e-06
1.4495814e-06
1.3089591e-06
1.1268453e-06
9.0007208e-07
6.3084714e-07
3.3126027e-07
1.7875875e-06
1.7891125e-06
1.7908308e-06
1.792709e-06
1.7947027e-06
1.7967519e-06
1.7987708e-06
1.8006329e-06
1.8021473e-06
1.8030226e-06
1.8028148e-06
1.8008539e-06
1.7961472e-06
1.787255e-06
1.7721439e-06
1.7480261e-06
1.7112076e-06
1.6569867e-06
1.5796666e-06
1.4727757e-06
1.3296333e-06
1.1444129e-06
9.1393019e-07
6.4046137e-07
3.3626749e-07
1.8151605e-06
1.8165512e-06
1.8181163e-06
1.8198235e-06
1.8216302e-06
1.8234775e-06
1.8252806e-06
1.8269132e-06
1.8281836e-06
1.8287974e-06
1.8283051e-06
1.8260274e-06
1.8209572e-06
1.8116338e-06
1.7959951e-06
1.7712154e-06
1.7335542e-06
1.6782555e-06
1.5995641e-06
1.4909528e-06
1.3456948e-06
1.1579344e-06
9.2447255e-07
6.4756753e-07
3.3960348e-07
1.8343844e-06
1.8356513e-06
1.837075e-06
1.8386247e-06
1.8402589e-06
1.8419198e-06
1.8435235e-06
1.8449438e-06
1.845988e-06
1.846359e-06
1.8456023e-06
1.8430305e-06
1.837624e-06
1.827905e-06
1.8117887e-06
1.7864216e-06
1.7480313e-06
1.6918289e-06
1.6120314e-06
1.5020951e-06
1.3552955e-06
1.1657972e-06
9.3042134e-07
6.5140438e-07
3.4119479e-07
1.8420573e-06
1.8432106e-06
1.8445045e-06
1.8459093e-06
1.8473848e-06
1.8488742e-06
1.8502942e-06
1.8515189e-06
1.8523545e-06
1.8525021e-06
1.851503e-06
1.8486635e-06
1.8429553e-06
1.832889e-06
1.8163663e-06
1.7905197e-06
1.751566e-06
1.6947137e-06
1.6141922e-06
1.503494e-06
1.355958e-06
1.1658336e-06
9.3002813e-07
6.5083416e-07
3.4074782e-07
1.8339221e-06
1.8349713e-06
1.836146e-06
1.8374178e-06
1.8387474e-06
1.840079e-06
1.8413302e-06
1.8423752e-06
1.8430202e-06
1.842965e-06
1.8417488e-06
1.8386752e-06
1.8327121e-06
1.8223674e-06
1.8055425e-06
1.7793765e-06
1.7401043e-06
1.6829723e-06
1.6022773e-06
1.4916155e-06
1.3444667e-06
1.1552399e-06
9.2097047e-07
6.4400015e-07
3.3799489e-07
1.8044919e-06
1.8054454e-06
1.8065106e-06
1.8076598e-06
1.8088549e-06
1.8100411e-06
1.8111371e-06
1.812018e-06
1.8124907e-06
1.8122558e-06
1.8108539e-06
1.8075907e-06
1.8014391e-06
1.7909172e-06
1.7739457e-06
1.7476983e-06
1.7084682e-06
1.6515949e-06
1.5715133e-06
1.4620114e-06
1.31681e-06
1.1305778e-06
9.0055953e-07
6.2912671e-07
3.2970617e-07
1.7469746e-06
1.7478393e-06
1.7488026e-06
1.7498377e-06
1.7509075e-06
1.7519588e-06
1.7529117e-06
1.7536434e-06
1.7539634e-06
1.7535765e-06
1.7520293e-06
1.7486385e-06
1.7423945e-06
1.7318448e-06
1.7149571e-06
1.6889788e-06
1.6503155e-06
1.5944714e-06
1.5161109e-06
1.4093248e-06
1.268196e-06
1.0877743e-06
8.6561396e-07
6.0414631e-07
3.1624963e-07
1.6534064e-06
1.6541861e-06
1.6550517e-06
1.6559775e-06
1.6569275e-06
1.6578507e-06
1.6586702e-06
1.6592673e-06
1.6594567e-06
1.6589521e-06
1.6573142e-06
1.6538826e-06
1.6476844e-06
1.6373235e-06
1.6208534e-06
1.5956481e-06
1.5582964e-06
1.5045585e-06
1.4294427e-06
1.3274733e-06
1.1932355e-06
1.0222904e-06
8.1258409e-07
5.6653693e-07
2.95933e-07
1.5151418e-06
1.5158344e-06
1.5166003e-06
1.5174142e-06
1.5182423e-06
1.5190378e-06
1.5197295e-06
1.5202055e-06
1.5202906e-06
1.5197137e-06
1.5180594e-06
1.5147076e-06
1.5087486e-06
1.498881e-06
1.483296e-06
1.4595637e-06
1.4245454e-06
1.3743709e-06
1.3045259e-06
1.2101163e-06
1.0863795e-06
9.2951944e-07
7.3796402e-07
5.1423925e-07
2.6927788e-07
1.3238974e-06
1.324493e-06
1.3251469e-06
1.3258342e-06
1.3265254e-06
1.3271823e-06
1.3277443e-06
1.3281115e-06
1.328126e-06
1.3275398e-06
1.3259703e-06
1.3228607e-06
1.3174013e-06
1.3084365e-06
1.2943598e-06
1.2730252e-06
1.2416767e-06
1.1969462e-06
1.1349479e-06
1.0515238e-06
9.427052e-07
8.0544797e-07
6.3867891e-07
4.448138e-07
2.3324193e-07
1.0735716e-06
1.0740595e-06
1.0745835e-06
1.0751176e-06
1.0756439e-06
1.0761396e-06
1.0765625e-06
1.0768338e-06
1.0768247e-06
1.0763199e-06
1.0749709e-06
1.0723128e-06
1.0676868e-06
1.0601556e-06
1.0483666e-06
1.0305702e-06
1.0045222e-06
9.6750873e-07
9.1642899e-07
8.4800587e-07
7.5917167e-07
6.4772212e-07
5.1306905e-07
3.5741734e-07
1.8828948e-07
7.6333347e-07
7.6372851e-07
7.6412024e-07
7.644806e-07
7.6481824e-07
7.6513415e-07
7.6541063e-07
7.6560174e-07
7.6562511e-07
7.6531089e-07
7.6434305e-07
7.6238363e-07
7.5900475e-07
7.5362819e-07
7.4502913e-07
7.3203878e-07
7.1307708e-07
6.8625186e-07
6.49391e-07
6.0019924e-07
5.3652359e-07
4.5717068e-07
3.6189096e-07
2.5254193e-07
1.3461112e-07
4.036524e-07
4.0396131e-07
4.0422253e-07
4.0441285e-07
4.0457121e-07
4.0471763e-07
4.0485438e-07
4.0496944e-07
4.0503387e-07
4.049451e-07
4.0446893e-07
4.0343709e-07
4.017608e-07
3.9948181e-07
3.9496737e-07
3.8794178e-07
3.7763618e-07
3.6318058e-07
3.434073e-07
3.1701443e-07
2.8259363e-07
2.4048136e-07
1.9032888e-07
1.3330427e-07
7.3189274e-08
)
;

boundaryField
{
    Walls
    {
        type            kqRWallFunction;
        value           nonuniform List<scalar> 
38
(
3.736154e-06
2.4970516e-06
7.8845594e-06
3.7356497e-05
0.00027983261
0.0023575749
0.056296407
0.060969275
0.018606876
0.027333813
0.034995772
0.042036496
0.047795795
0.052871573
0.056750989
0.059860505
0.062692485
0.064862186
0.066430127
0.067847643
0.069272644
0.070581808
0.071654754
0.071838764
0.072053608
0.072270278
0.072697541
0.073137893
0.072532588
0.073079746
0.074219408
0.074535046
0.07432552
0.073597819
0.0732969
0.072755639
0.07197947
0.066895539
)
;
    }
    Inlet
    {
        type            turbulentIntensityKineticEnergyInlet;
        intensity       0.05;
        value           nonuniform List<scalar> 3(0.0098682599 0.0083922969 0.010139225);
    }
    Outlet
    {
        type            inletOutlet;
        inletValue      uniform 0;
        value           nonuniform List<scalar> 
86
(
4.0359953e-07
4.0359036e-07
4.0358654e-07
4.0360151e-07
4.0360603e-07
4.036524e-07
4.0396131e-07
4.0422253e-07
4.0441285e-07
4.0457121e-07
4.0471763e-07
4.0485438e-07
4.0496944e-07
4.0503387e-07
4.049451e-07
4.0446893e-07
4.0343709e-07
4.017608e-07
3.9948181e-07
3.9496737e-07
3.8794178e-07
3.7763618e-07
3.6318058e-07
3.434073e-07
3.1701443e-07
2.8259363e-07
2.4048136e-07
1.9032888e-07
1.3330427e-07
7.3189274e-08
0.0031384098
0.0032433687
0.0026479209
0
0
0
0
0.00024063526
0.00020664229
0.00015018266
7.553788e-05
0
0
1.5073702e-05
9.9815073e-06
6.4182166e-06
3.9235267e-06
2.3237196e-06
1.3652694e-06
8.2272658e-07
5.2931466e-07
3.7831425e-07
3.0386672e-07
2.71149e-07
2.6031981e-07
2.6024615e-07
2.6416936e-07
2.7056179e-07
2.7628309e-07
2.8301518e-07
2.9021201e-07
2.979262e-07
3.0527304e-07
3.126052e-07
3.1894308e-07
3.2531883e-07
3.3126027e-07
3.3626749e-07
3.3960348e-07
3.4119479e-07
3.4074782e-07
3.3799489e-07
3.2970617e-07
3.1624963e-07
2.95933e-07
2.6927788e-07
2.3324193e-07
1.8828948e-07
1.3461112e-07
7.3189274e-08
0
0
0
0
0.0025823696
0.0032401553
)
;
    }
    Front
    {
        type            wedge;
    }
    Back
    {
        type            wedge;
    }
    defaultFaces
    {
        type            empty;
    }
}


// ************************************************************************* //
