/*--------------------------------*- C++ -*----------------------------------*\
| =========                 |                                                 |
| \\      /  F ield         | OpenFOAM: The Open Source CFD Toolbox           |
|  \\    /   O peration     | Version:  4.0                                   |
|   \\  /    A nd           | Web:      www.OpenFOAM.org                      |
|    \\/     M anipulation  |                                                 |
\*---------------------------------------------------------------------------*/
FoamFile
{
    version     2.0;
    format      ascii;
    class       volScalarField;
    location    "0.43";
    object      nut;
}
// * * * * * * * * * * * * * * * * * * * * * * * * * * * * * * * * * * * * * //

dimensions      [0 2 -1 0 0 0 0];

internalField   nonuniform List<scalar> 
1740
(
1.6627293e-05
1.310172e-05
1.2469508e-06
1.4445926e-05
7.0419255e-06
1.8188034e-06
1.6765898e-05
5.5887464e-06
2.3140402e-06
1.4730065e-05
4.9229595e-06
2.7642334e-06
2.0258476e-05
4.4275643e-06
3.1286766e-06
1.6664898e-05
4.0888155e-06
3.4475315e-06
1.3916344e-05
3.8740633e-06
3.6898767e-06
1.2031596e-05
3.7298138e-06
3.882188e-06
1.0702793e-05
3.6318623e-06
4.057049e-06
9.777122e-06
3.5746627e-06
4.1902523e-06
8.7719938e-06
3.5327455e-06
4.287147e-06
8.1823259e-06
3.495115e-06
4.3743232e-06
7.5555113e-06
3.4848255e-06
4.460148e-06
7.0480951e-06
3.500973e-06
4.540124e-06
6.6117475e-06
3.5144149e-06
4.6067375e-06
6.2176455e-06
3.5300833e-06
4.6177447e-06
5.9214926e-06
3.5298824e-06
4.6298982e-06
5.6792489e-06
3.5177098e-06
4.6441053e-06
5.4749358e-06
3.5097123e-06
4.6698342e-06
5.2764496e-06
3.5179099e-06
4.6960839e-06
5.0883447e-06
3.5010031e-06
4.6598788e-06
4.9175953e-06
3.4915908e-06
4.6927968e-06
4.7612712e-06
3.512429e-06
4.7615281e-06
4.609927e-06
3.5616278e-06
4.7808339e-06
4.4627808e-06
3.5943228e-06
4.7684327e-06
4.364209e-06
3.5784029e-06
4.7235409e-06
4.2893634e-06
3.5799608e-06
4.7051689e-06
4.2111864e-06
3.5939012e-06
4.6723459e-06
4.1620589e-06
3.5832707e-06
4.6258685e-06
2.3826999e-06
3.5599195e-06
4.3158696e-06
1.8186799e-06
2.1567793e-06
4.4069376e-06
7.171468e-06
7.3550942e-06
6.6884968e-06
6.5386402e-06
6.7457654e-06
6.3755238e-06
5.1720981e-06
5.1081335e-06
4.8618681e-06
4.333728e-06
4.2610238e-06
4.1255202e-06
3.790035e-06
3.7470052e-06
3.686755e-06
3.4151649e-06
3.3975645e-06
3.3820422e-06
3.1311427e-06
3.1289705e-06
3.1372231e-06
2.8847586e-06
2.8903003e-06
2.9092605e-06
2.638868e-06
2.6473518e-06
2.6693866e-06
2.3698689e-06
2.3786449e-06
2.3995995e-06
2.0677274e-06
2.0754781e-06
2.0933368e-06
1.736384e-06
1.7425791e-06
1.7566118e-06
1.3926241e-06
1.3971849e-06
1.4074285e-06
1.0615891e-06
1.0646932e-06
1.0716328e-06
7.6873457e-07
7.7068238e-07
7.7502949e-07
5.3131404e-07
5.3243815e-07
5.3494939e-07
3.5412704e-07
3.5472195e-07
3.5605842e-07
2.3132787e-07
2.3161723e-07
2.3227637e-07
1.5178767e-07
1.5192746e-07
1.5224331e-07
1.0307346e-07
1.0314041e-07
1.0329078e-07
7.4649555e-08
7.4684488e-08
7.4762913e-08
5.8964313e-08
5.8987198e-08
5.9038728e-08
5.0979406e-08
5.0998684e-08
5.1042366e-08
4.7496837e-08
4.7515375e-08
4.7557739e-08
4.6565191e-08
4.6583592e-08
4.6625953e-08
4.7031344e-08
4.7049509e-08
4.709146e-08
4.8232874e-08
4.825057e-08
4.8291389e-08
4.9799855e-08
4.9816878e-08
4.9855968e-08
5.1531894e-08
5.1548094e-08
5.1585073e-08
5.3323734e-08
5.3339019e-08
5.3373692e-08
5.5121379e-08
5.5135703e-08
5.516801e-08
5.6897059e-08
5.6910412e-08
5.6940382e-08
5.8635526e-08
5.8647924e-08
5.8675634e-08
6.032691e-08
6.0338385e-08
6.0363941e-08
6.1963227e-08
6.197382e-08
6.1997345e-08
6.3536847e-08
6.3546607e-08
6.3568233e-08
6.5039986e-08
6.5048967e-08
6.5068831e-08
6.6464699e-08
6.6472961e-08
6.6491207e-08
6.7803122e-08
6.7810729e-08
6.7827505e-08
6.9047764e-08
6.9054781e-08
6.907024e-08
7.0191736e-08
7.019823e-08
7.0212528e-08
7.1228794e-08
7.1234837e-08
7.124813e-08
7.2153144e-08
7.2158807e-08
7.2171253e-08
7.2958836e-08
7.2964207e-08
7.297597e-08
7.3626117e-08
7.3631232e-08
7.3642424e-08
7.4138824e-08
7.4143726e-08
7.4154449e-08
7.4467638e-08
7.4472355e-08
7.4482686e-08
7.4553067e-08
7.4557612e-08
7.456758e-08
7.422668e-08
7.423103e-08
7.4240594e-08
4.1762173e-06
4.5044754e-06
6.6057839e-06
8.3151719e-06
5.992115e-06
6.0335617e-06
4.7208465e-06
4.8261409e-06
4.0788747e-06
4.1874788e-06
3.6889275e-06
3.7897353e-06
3.4101077e-06
3.50192e-06
3.1770024e-06
3.2593196e-06
2.9519738e-06
3.0242273e-06
2.7097981e-06
2.771499e-06
2.4348523e-06
2.4858081e-06
2.1221576e-06
2.1626009e-06
1.7787833e-06
1.8094031e-06
1.423436e-06
1.4453544e-06
1.0824157e-06
1.097115e-06
7.8176799e-07
7.9093602e-07
5.388435e-07
5.4414138e-07
3.5813892e-07
3.6097582e-07
2.3331075e-07
2.3472672e-07
1.5273817e-07
1.5341551e-07
1.0352622e-07
1.0384892e-07
7.4885818e-08
7.5054746e-08
5.9119528e-08
5.9230663e-08
5.1110856e-08
5.1204915e-08
4.7624232e-08
4.771539e-08
4.6692529e-08
4.6783671e-08
4.7157382e-08
4.7247459e-08
4.8355384e-08
4.8442591e-08
4.9917012e-08
4.9999911e-08
5.1642548e-08
5.1720307e-08
5.3427325e-08
5.3499617e-08
5.5217762e-08
5.5284595e-08
5.6986353e-08
5.7047926e-08
5.8718e-08
5.8774599e-08
6.0402908e-08
6.0454856e-08
6.2033134e-08
6.2080762e-08
6.3601071e-08
6.3644707e-08
6.5098948e-08
6.5138919e-08
6.6518836e-08
6.6555466e-08
6.7852882e-08
6.7886496e-08
6.9093604e-08
6.9124529e-08
7.023412e-08
7.026268e-08
7.126819e-08
7.1294704e-08
7.2190017e-08
7.2214796e-08
7.2993667e-08
7.3017006e-08
7.3659247e-08
7.3681417e-08
7.4170568e-08
7.4191801e-08
7.4498226e-08
7.4518692e-08
7.4582597e-08
7.4602366e-08
7.4255021e-08
7.4273972e-08
3.0984423e-10
1.3189146e-08
1.9290182e-07
8.2596095e-07
1.6427473e-06
2.2292874e-06
2.574325e-06
2.7827386e-06
2.9268147e-06
3.0421605e-06
3.1459275e-06
3.2521345e-06
3.3575263e-06
3.4610293e-06
3.5618634e-06
3.6586785e-06
3.7490258e-06
3.8287791e-06
3.8912563e-06
3.9258966e-06
3.9161197e-06
3.8357282e-06
3.6422818e-06
3.2590601e-06
2.446591e-06
2.0708445e-10
2.6837114e-08
3.5945041e-07
1.3758463e-06
2.568365e-06
3.376719e-06
3.8499484e-06
4.1566843e-06
4.3913678e-06
4.5967479e-06
4.7934222e-06
4.9938523e-06
5.1957827e-06
5.3982065e-06
5.5994532e-06
5.7967823e-06
5.9854517e-06
6.1576954e-06
6.3008258e-06
6.3945843e-06
6.4066944e-06
6.2848878e-06
5.941532e-06
5.2159917e-06
3.6795598e-06
6.5387651e-10
7.8635877e-08
8.5598675e-07
2.5044372e-06
3.7897738e-06
4.5264784e-06
4.990265e-06
5.3360167e-06
5.6363178e-06
5.923562e-06
6.2130637e-06
6.5115724e-06
6.8176012e-06
7.1299909e-06
7.4473007e-06
7.7664524e-06
8.081213e-06
8.3816231e-06
8.6500395e-06
8.8577835e-06
8.9582832e-06
8.8740471e-06
8.469843e-06
7.4876033e-06
5.2842988e-06
3.097933e-09
2.8458974e-07
2.0591837e-06
3.998322e-06
5.0385143e-06
5.6261303e-06
6.0329227e-06
6.3755177e-06
6.7041258e-06
7.0373055e-06
7.3858342e-06
7.7528547e-06
8.1347614e-06
8.5303113e-06
8.9393136e-06
9.3603887e-06
9.7885312e-06
1.0214192e-05
1.0620713e-05
1.0980218e-05
1.1246535e-05
1.1341318e-05
1.1121081e-05
1.027733e-05
7.8817298e-06
2.3200461e-08
1.135756e-06
3.9841833e-06
5.5920903e-06
6.4429127e-06
6.9631098e-06
7.3459535e-06
7.691508e-06
8.0411534e-06
8.395623e-06
8.7687398e-06
9.16779e-06
9.5814356e-06
1.000608e-05
1.0443788e-05
1.089928e-05
1.1371833e-05
1.1856782e-05
1.2344171e-05
1.2815774e-05
1.3240499e-05
1.3568215e-05
1.3722402e-05
1.3607501e-05
1.3195472e-05
1.9504689e-07
2.7461668e-06
5.8905272e-06
7.6961334e-06
8.6126513e-06
9.030616e-06
9.2270348e-06
9.3635918e-06
9.5017626e-06
9.6602163e-06
9.8468743e-06
1.0068082e-05
1.0324373e-05
1.0615737e-05
1.0943249e-05
1.130791e-05
1.1709856e-05
1.2147082e-05
1.2614499e-05
1.3102232e-05
1.3592597e-05
1.4056797e-05
1.4451799e-05
1.4729132e-05
1.4831616e-05
4.341687e-06
4.310196e-06
4.3537621e-06
4.4670125e-06
4.6463813e-06
4.8798079e-06
5.1560718e-06
5.4717332e-06
5.8286162e-06
6.2286474e-06
6.6718547e-06
7.1558459e-06
7.6752172e-06
8.2227015e-06
8.7911722e-06
9.3755305e-06
9.9730871e-06
1.0582316e-05
1.1201173e-05
1.1824993e-05
1.2443514e-05
1.3037757e-05
1.3577222e-05
1.4025374e-05
1.4314851e-05
9.1128377e-06
9.3594078e-06
9.7613442e-06
1.0180878e-05
1.0358088e-05
1.0321998e-05
1.0204598e-05
1.0106948e-05
1.0069499e-05
1.0093921e-05
1.0176255e-05
1.0311887e-05
1.0498641e-05
1.0736141e-05
1.1024177e-05
1.1362115e-05
1.1747957e-05
1.2177764e-05
1.2644509e-05
1.3136031e-05
1.363192e-05
1.410036e-05
1.4495299e-05
1.4766895e-05
1.4861241e-05
6.4041887e-06
6.8128599e-06
7.2443863e-06
7.6441041e-06
7.9454417e-06
8.1619402e-06
8.3536555e-06
8.5608043e-06
8.790939e-06
9.0591974e-06
9.3619486e-06
9.6902218e-06
1.0039123e-05
1.0414735e-05
1.0820888e-05
1.1258175e-05
1.1723717e-05
1.2210312e-05
1.2704582e-05
1.3183977e-05
1.3612216e-05
1.3933392e-05
1.4065455e-05
1.3909926e-05
1.3445325e-05
5.138307e-06
5.4947178e-06
5.8452347e-06
6.1618994e-06
6.4280109e-06
6.6562009e-06
6.8766156e-06
7.1096857e-06
7.3664334e-06
7.6534239e-06
7.9686359e-06
8.3093247e-06
8.6753303e-06
9.0677588e-06
9.4861917e-06
9.9270543e-06
1.0382348e-05
1.0837967e-05
1.1271119e-05
1.1646181e-05
1.1907768e-05
1.1967537e-05
1.1672439e-05
1.0704027e-05
8.109033e-06
4.4303921e-06
4.7199827e-06
5.0103825e-06
5.2811907e-06
5.5265613e-06
5.7545416e-06
5.9795183e-06
6.2142133e-06
6.4671354e-06
6.7424131e-06
7.0397436e-06
7.3579372e-06
7.6966838e-06
8.0550436e-06
8.430286e-06
8.8156496e-06
9.1992749e-06
9.5623056e-06
9.8761644e-06
1.0098442e-05
1.0166344e-05
9.9851983e-06
9.4050678e-06
8.1613882e-06
5.6196415e-06
3.977558e-06
4.2066527e-06
4.4442625e-06
4.6746369e-06
4.8939474e-06
5.1068708e-06
5.3214292e-06
5.5453404e-06
5.7842798e-06
6.0410968e-06
6.3160542e-06
6.6083467e-06
6.9168284e-06
7.2389724e-06
7.5696998e-06
7.9002618e-06
8.2168489e-06
8.4989507e-06
8.7172348e-06
8.8306737e-06
8.7824681e-06
8.4935778e-06
7.8499497e-06
6.6653369e-06
4.4601112e-06
3.6513096e-06
3.834045e-06
4.0290065e-06
4.2245361e-06
4.4171697e-06
4.6089881e-06
4.8045125e-06
5.0085125e-06
5.2247127e-06
5.4551367e-06
5.7001008e-06
5.9588108e-06
6.2295437e-06
6.5089475e-06
6.791098e-06
7.0665977e-06
7.3215875e-06
7.536579e-06
7.6851643e-06
7.7326162e-06
7.6343496e-06
7.333818e-06
6.7571548e-06
5.787635e-06
4.0617201e-06
3.3809485e-06
3.5287698e-06
3.6896771e-06
3.855348e-06
4.0225988e-06
4.1919681e-06
4.365875e-06
4.5471839e-06
4.7382399e-06
4.9403337e-06
5.1535721e-06
5.3769959e-06
5.6084954e-06
5.844329e-06
6.0784529e-06
6.3018407e-06
6.501797e-06
6.6612955e-06
6.7584696e-06
6.7664624e-06
6.6540389e-06
6.3878645e-06
5.939181e-06
5.3071597e-06
4.6295443e-06
3.1242648e-06
3.2447863e-06
3.3777033e-06
3.517187e-06
3.6604748e-06
3.8072743e-06
3.9587253e-06
4.116432e-06
4.2817767e-06
4.455466e-06
4.6373313e-06
4.8262449e-06
5.0199426e-06
5.2146667e-06
5.4047064e-06
5.5819255e-06
5.7353601e-06
5.850953e-06
5.9115915e-06
5.8977208e-06
5.789089e-06
5.568916e-06
5.2340135e-06
4.8213311e-06
4.4728248e-06
2.8534431e-06
2.9514272e-06
3.0603967e-06
3.1762943e-06
3.2968139e-06
3.4212628e-06
3.5500053e-06
3.6838333e-06
3.8234671e-06
3.9691873e-06
4.120609e-06
4.2765297e-06
4.4347412e-06
4.5917651e-06
4.7425431e-06
4.8801497e-06
4.995597e-06
5.0778187e-06
5.113969e-06
5.0902582e-06
4.9937078e-06
4.8155992e-06
4.5583718e-06
4.2506815e-06
3.9843346e-06
2.551786e-06
2.6302775e-06
2.7180644e-06
2.8123076e-06
2.9111358e-06
3.0137045e-06
3.1199274e-06
3.2300869e-06
3.3444678e-06
3.4630709e-06
3.5853994e-06
3.7102992e-06
3.8357956e-06
3.9589015e-06
4.0754261e-06
4.1798186e-06
4.2651042e-06
4.3229802e-06
4.3441496e-06
4.3189771e-06
4.2385104e-06
4.0956285e-06
3.8845827e-06
3.58953e-06
3.0999076e-06
2.214201e-06
2.2754154e-06
2.3441623e-06
2.4184487e-06
2.4967892e-06
2.5783403e-06
2.6627775e-06
2.750079e-06
2.8402652e-06
2.9331795e-06
3.0283127e-06
3.1246626e-06
3.2206055e-06
3.3137717e-06
3.4009365e-06
3.4779508e-06
3.5397484e-06
3.5804598e-06
3.5936543e-06
3.5726719e-06
3.5108415e-06
3.4008526e-06
3.2306694e-06
2.9657073e-06
2.4526093e-06
1.8481566e-06
1.8940788e-06
1.9458132e-06
2.0019693e-06
2.0614022e-06
2.1233519e-06
2.1874063e-06
2.25338e-06
2.3211487e-06
2.3904912e-06
2.4609563e-06
2.5317518e-06
2.6016583e-06
2.6689544e-06
2.7313666e-06
2.7860522e-06
2.8296345e-06
2.8582899e-06
2.8678656e-06
2.8539266e-06
2.8114594e-06
2.7335339e-06
2.606966e-06
2.3981721e-06
1.9821382e-06
1.4729839e-06
1.5057194e-06
1.5426835e-06
1.5829224e-06
1.6255876e-06
1.6700467e-06
1.7158907e-06
1.7628715e-06
1.8108054e-06
1.8594659e-06
1.9084947e-06
1.9573229e-06
2.0051207e-06
2.0507593e-06
2.0927979e-06
2.1294942e-06
2.1588426e-06
2.1786237e-06
2.1864208e-06
2.1794957e-06
2.1542994e-06
2.105153e-06
2.0210366e-06
1.8770256e-06
1.5960545e-06
1.1156112e-06
1.1375317e-06
1.1623216e-06
1.1893418e-06
1.2179933e-06
1.2477877e-06
1.2783694e-06
1.3094935e-06
1.3409722e-06
1.3726104e-06
1.4041473e-06
1.4352137e-06
1.4653035e-06
1.4937608e-06
1.5197853e-06
1.5424529e-06
1.5607446e-06
1.5735642e-06
1.5797002e-06
1.5776507e-06
1.5651622e-06
1.538251e-06
1.4892922e-06
1.4028814e-06
1.2399588e-06
8.0246505e-07
8.1613328e-07
8.3159851e-07
8.4845064e-07
8.6628484e-07
8.847504e-07
9.035701e-07
9.2253684e-07
9.4149109e-07
9.6028275e-07
9.7874065e-07
9.9664874e-07
1.0137344e-06
1.0296687e-06
1.0440772e-06
1.0565571e-06
1.0666944e-06
1.0740612e-06
1.0781667e-06
1.0783102e-06
1.0732555e-06
1.0606392e-06
1.036016e-06
9.9121773e-07
9.0837691e-07
5.5080429e-07
5.5870617e-07
5.6764328e-07
5.7736367e-07
5.8760661e-07
5.9813595e-07
6.0875475e-07
6.193094e-07
6.2967924e-07
6.3976085e-07
6.4945212e-07
6.5864107e-07
6.6720329e-07
6.7500405e-07
6.8190823e-07
6.8779106e-07
6.9254253e-07
6.9605508e-07
6.9818637e-07
6.9867137e-07
6.96941e-07
6.9182495e-07
6.8114542e-07
6.6113199e-07
6.2397787e-07
3.6454758e-07
3.6878625e-07
3.7357526e-07
3.7876667e-07
3.8420064e-07
3.897273e-07
3.9521739e-07
4.0056757e-07
4.0569659e-07
4.1053945e-07
4.1504109e-07
4.1915172e-07
4.2282708e-07
4.2603147e-07
4.287423e-07
4.3095535e-07
4.3267956e-07
4.3391872e-07
4.3465265e-07
4.3480502e-07
4.3416172e-07
4.3224153e-07
4.2815061e-07
4.2038699e-07
4.0575125e-07
2.3651296e-07
2.3863383e-07
2.4102525e-07
2.4360422e-07
2.4627822e-07
2.4895848e-07
2.5156655e-07
2.5403857e-07
2.5632504e-07
2.5838878e-07
2.6020276e-07
2.617492e-07
2.6302044e-07
2.6402205e-07
2.6477602e-07
2.6531411e-07
2.6567513e-07
2.6587772e-07
2.659178e-07
2.6577857e-07
2.6539984e-07
2.6461743e-07
2.6311474e-07
2.6035944e-07
2.5506889e-07
1.5426941e-07
1.5527997e-07
1.5641274e-07
1.5762241e-07
1.5885772e-07
1.6006839e-07
1.6120937e-07
1.622437e-07
1.6314344e-07
1.6388904e-07
1.6446912e-07
1.6488061e-07
1.6513041e-07
1.6523961e-07
1.6525057e-07
1.6521212e-07
1.6515781e-07
1.6507686e-07
1.6493473e-07
1.6472568e-07
1.644478e-07
1.640566e-07
1.6344303e-07
1.6240755e-07
1.6041872e-07
1.0425595e-07
1.0473689e-07
1.0527371e-07
1.0584213e-07
1.0641458e-07
1.0696327e-07
1.0746304e-07
1.0789309e-07
1.0823783e-07
1.0848705e-07
1.0863591e-07
1.0868518e-07
1.0864185e-07
1.085207e-07
1.0834709e-07
1.0815718e-07
1.0799658e-07
1.0792798e-07
1.0784787e-07
1.0771779e-07
1.0755331e-07
1.0734803e-07
1.0705858e-07
1.0658998e-07
1.0567398e-07
7.5268441e-08
7.5521746e-08
7.5805462e-08
7.6106744e-08
7.6410882e-08
7.6702724e-08
7.6968315e-08
7.7195896e-08
7.7376573e-08
7.7504555e-08
7.7577196e-08
7.759516e-08
7.7562702e-08
7.7488454e-08
7.7386823e-08
7.7279677e-08
7.7193381e-08
7.7178787e-08
7.7220072e-08
7.7214459e-08
7.7174326e-08
7.7101636e-08
7.6973068e-08
7.6729275e-08
7.6196532e-08
5.9371792e-08
5.9540444e-08
5.9731921e-08
5.993942e-08
6.0154916e-08
6.0369957e-08
6.0576515e-08
6.0767541e-08
6.0937435e-08
6.108215e-08
6.1199345e-08
6.1288507e-08
6.1351216e-08
6.1391712e-08
6.1417804e-08
6.1442221e-08
6.1479196e-08
6.1556209e-08
6.1704321e-08
6.1809877e-08
6.1876843e-08
6.1906247e-08
6.1881468e-08
6.1759791e-08
6.1419287e-08
5.1324576e-08
5.1468702e-08
5.1634779e-08
5.1819001e-08
5.2016673e-08
5.2222666e-08
5.2431864e-08
5.2639465e-08
5.2841266e-08
5.3033793e-08
5.3214436e-08
5.3381634e-08
5.3535152e-08
5.3676502e-08
5.380952e-08
5.3941135e-08
5.4082168e-08
5.4247784e-08
5.4466491e-08
5.4650926e-08
5.4794256e-08
5.4894584e-08
5.4937326e-08
5.4887288e-08
5.4644264e-08
4.7831352e-08
4.7971607e-08
4.8134627e-08
4.831797e-08
4.8518484e-08
4.8732564e-08
4.8956404e-08
4.9186184e-08
4.9418266e-08
4.9649339e-08
4.9876585e-08
5.0097879e-08
5.0312044e-08
5.051916e-08
5.0720975e-08
5.0921516e-08
5.1128309e-08
5.1351313e-08
5.1612319e-08
5.1843872e-08
5.2033386e-08
5.2176467e-08
5.2258619e-08
5.2247709e-08
5.2055675e-08
4.6899491e-08
4.703972e-08
4.7203225e-08
4.7388117e-08
4.7591894e-08
4.7811605e-08
4.8044012e-08
4.8285746e-08
4.8533464e-08
4.8784011e-08
4.9034591e-08
4.928296e-08
4.9527633e-08
4.9768098e-08
5.0005086e-08
5.0241004e-08
5.0480809e-08
5.0733551e-08
5.1013993e-08
5.1267993e-08
5.1480577e-08
5.1645313e-08
5.1746856e-08
5.1753528e-08
5.1582774e-08
4.7361714e-08
4.7499916e-08
4.7661045e-08
4.7843416e-08
4.8044798e-08
4.8262541e-08
4.8493715e-08
4.8735245e-08
4.8984064e-08
4.9237275e-08
4.949231e-08
4.97471e-08
5.0000227e-08
5.0251066e-08
5.0499951e-08
5.0748494e-08
5.1000332e-08
5.1262776e-08
5.1546877e-08
5.1807103e-08
5.2027706e-08
5.2200456e-08
5.2308637e-08
5.2319479e-08
5.2149683e-08
4.855291e-08
4.8686052e-08
4.8841007e-08
4.9016173e-08
4.9209469e-08
4.9418454e-08
4.9640449e-08
4.9872668e-08
5.0112365e-08
5.0356984e-08
5.0604306e-08
5.0852584e-08
5.1100655e-08
5.1348018e-08
5.1594927e-08
5.184261e-08
5.2093866e-08
5.2354497e-08
5.2633226e-08
5.2890494e-08
5.311053e-08
5.3283504e-08
5.339107e-08
5.3398384e-08
5.3218805e-08
5.0104446e-08
5.0230228e-08
5.0376239e-08
5.0540942e-08
5.0722395e-08
5.0918358e-08
5.112641e-08
5.1344076e-08
5.1568961e-08
5.1798888e-08
5.2032027e-08
5.2267007e-08
5.2502988e-08
5.2739694e-08
5.2977447e-08
5.3217281e-08
5.3461363e-08
5.3714029e-08
5.3983374e-08
5.423327e-08
5.4448439e-08
5.461766e-08
5.472094e-08
5.4720906e-08
5.4524664e-08
5.1818025e-08
5.1935222e-08
5.2070877e-08
5.2223532e-08
5.2391395e-08
5.2572438e-08
5.2764506e-08
5.296544e-08
5.3173193e-08
5.3385967e-08
5.3602316e-08
5.3821243e-08
5.4042241e-08
5.4265294e-08
5.4490853e-08
5.4719876e-08
5.495411e-08
5.5196925e-08
5.5454825e-08
5.5695526e-08
5.590397e-08
5.6067637e-08
5.6165008e-08
5.6156514e-08
5.5944508e-08
5.3590162e-08
5.3698409e-08
5.3823354e-08
5.3963631e-08
5.4117602e-08
5.4283453e-08
5.4459288e-08
5.4643246e-08
5.4833612e-08
5.5028936e-08
5.5228132e-08
5.5430548e-08
5.5635997e-08
5.5844722e-08
5.6057328e-08
5.6274756e-08
5.6498445e-08
5.6730967e-08
5.6977245e-08
5.7208442e-08
5.7409615e-08
5.7567024e-08
5.765768e-08
5.7639927e-08
5.7411585e-08
5.5368049e-08
5.5467525e-08
5.5582052e-08
5.5710362e-08
5.585097e-08
5.6002263e-08
5.6162585e-08
5.6330347e-08
5.6504133e-08
5.6682808e-08
5.6865605e-08
5.7052192e-08
5.7242671e-08
5.7437532e-08
5.763754e-08
5.7843646e-08
5.8057043e-08
5.827961e-08
5.8514827e-08
5.873697e-08
5.893096e-08
5.9081955e-08
5.9165562e-08
5.9138129e-08
5.8893754e-08
5.7124603e-08
5.7215767e-08
5.7320487e-08
5.7437595e-08
5.756575e-08
5.7703518e-08
5.7849463e-08
5.8002238e-08
5.8160689e-08
5.8323959e-08
5.8491569e-08
5.8663467e-08
5.8840024e-08
5.9021953e-08
5.9210177e-08
5.9405671e-08
5.960943e-08
5.9822744e-08
6.004787e-08
6.0261526e-08
6.0448635e-08
6.0593299e-08
6.066977e-08
6.0632423e-08
6.0369195e-08
5.8844921e-08
5.8928343e-08
5.9023985e-08
5.9130771e-08
5.9247495e-08
5.9372885e-08
5.9505695e-08
5.9644791e-08
5.9789252e-08
5.9938465e-08
6.0092202e-08
6.0250666e-08
6.0414464e-08
6.058452e-08
6.07619e-08
6.0947614e-08
6.1142491e-08
6.1347317e-08
6.1563285e-08
6.1769107e-08
6.1949699e-08
6.2088195e-08
6.2157565e-08
6.2110047e-08
6.1827481e-08
6.0519275e-08
6.0595549e-08
6.0682852e-08
6.0780197e-08
6.0886496e-08
6.1000624e-08
6.11215e-08
6.1248179e-08
6.1379942e-08
6.1516391e-08
6.1657521e-08
6.180376e-08
6.1955929e-08
6.211514e-08
6.2282593e-08
6.2459333e-08
6.2646052e-08
6.2843097e-08
6.3050732e-08
6.3249318e-08
6.3423723e-08
6.3556191e-08
6.3618467e-08
6.3560613e-08
6.3258069e-08
6.2139727e-08
6.2209433e-08
6.2289106e-08
6.2377841e-08
6.2474657e-08
6.2578559e-08
6.2688614e-08
6.2804038e-08
6.2924292e-08
6.3049166e-08
6.3178854e-08
6.3313979e-08
6.3455558e-08
6.3604869e-08
6.3763231e-08
6.3931725e-08
6.4110924e-08
6.4300793e-08
6.4500793e-08
6.469263e-08
6.48611e-08
6.4987627e-08
6.5042812e-08
6.4974809e-08
6.4654158e-08
6.3698657e-08
6.3762347e-08
6.3835058e-08
6.3915959e-08
6.4004165e-08
6.4098794e-08
6.4199046e-08
6.4304279e-08
6.4414108e-08
6.4528492e-08
6.4647797e-08
6.4772821e-08
6.490475e-08
6.5045009e-08
6.5195027e-08
6.535591e-08
6.552813e-08
6.571132e-08
6.5904244e-08
6.6089694e-08
6.6252388e-08
6.6373e-08
6.6421052e-08
6.6342846e-08
6.6004048e-08
6.518828e-08
6.5246486e-08
6.5312865e-08
6.5386659e-08
6.5467068e-08
6.5553311e-08
6.56447e-08
6.5740721e-08
6.5841125e-08
6.5946014e-08
6.6055908e-08
6.6171757e-08
6.6294891e-08
6.6426865e-08
6.6569196e-08
6.6723016e-08
6.6888704e-08
6.7065606e-08
6.7251884e-08
6.7431174e-08
6.7588142e-08
6.7702795e-08
6.7743639e-08
6.7655043e-08
6.7297383e-08
6.6600657e-08
6.6653892e-08
6.6714547e-08
6.6781926e-08
6.6855306e-08
6.6933995e-08
6.7017406e-08
6.7105132e-08
6.7197044e-08
6.729337e-08
6.7394757e-08
6.7502288e-08
6.7617415e-08
6.7741799e-08
6.787703e-08
6.8024256e-08
6.8183772e-08
6.8354675e-08
6.8534611e-08
6.8707812e-08
6.8858965e-08
6.8967504e-08
6.9000995e-08
6.8901847e-08
6.8524778e-08
6.7927931e-08
6.7976698e-08
6.8032217e-08
6.8093848e-08
6.8160937e-08
6.8232869e-08
6.8309142e-08
6.8389447e-08
6.8473753e-08
6.8562396e-08
6.8656132e-08
6.875615e-08
6.8864003e-08
6.8981435e-08
6.911009e-08
6.9251121e-08
6.9404745e-08
6.9569839e-08
6.9743608e-08
6.9910617e-08
7.0055702e-08
7.0157827e-08
7.018376e-08
7.0074291e-08
6.9679335e-08
6.9162618e-08
6.9207413e-08
6.9258371e-08
6.9314904e-08
6.9376414e-08
6.9442356e-08
6.9512301e-08
6.958602e-08
6.9663569e-08
6.974537e-08
6.9832268e-08
6.9925536e-08
7.0026803e-08
7.0137874e-08
7.0260428e-08
7.039561e-08
7.0543554e-08
7.0702933e-08
7.0870535e-08
7.1031054e-08
7.1169648e-08
7.1264914e-08
7.1283003e-08
7.1163474e-08
7.0752597e-08
7.0297831e-08
7.0339139e-08
7.0386097e-08
7.043816e-08
7.049478e-08
7.055547e-08
7.0619864e-08
7.06878e-08
7.0759401e-08
7.0835162e-08
7.0915995e-08
7.1003235e-08
7.1098564e-08
7.1203825e-08
7.1320721e-08
7.1450376e-08
7.1592823e-08
7.174654e-08
7.1907619e-08
7.2061123e-08
7.2192637e-08
7.2280501e-08
7.2290513e-08
7.2161675e-08
7.1741556e-08
7.1327315e-08
7.1365608e-08
7.1409106e-08
7.1457301e-08
7.1509689e-08
7.1565829e-08
7.1625407e-08
7.1688315e-08
7.1754734e-08
7.1825208e-08
7.19007e-08
7.1982586e-08
7.2072583e-08
7.2172568e-08
7.2284269e-08
7.2408765e-08
7.2545952e-08
7.2694446e-08
7.28475e-08
7.2993178e-08
7.3116869e-08
7.3196689e-08
7.3198496e-08
7.3062481e-08
7.2647519e-08
7.2245247e-08
7.2280972e-08
7.2321519e-08
7.2366408e-08
7.2415171e-08
7.2467407e-08
7.2522844e-08
7.2581416e-08
7.2643346e-08
7.2709217e-08
7.2780024e-08
7.285718e-08
7.2942445e-08
7.3037756e-08
7.3144864e-08
7.3264689e-08
7.3396591e-08
7.3537788e-08
7.3682158e-08
7.3819313e-08
7.3934364e-08
7.4005281e-08
7.399804e-08
7.3853379e-08
7.3431849e-08
7.3045654e-08
7.307922e-08
7.311727e-08
7.315935e-08
7.3205019e-08
7.325391e-08
7.3305784e-08
7.3360611e-08
7.3418642e-08
7.3480486e-08
7.3547152e-08
7.3620037e-08
7.3700842e-08
7.3791381e-08
7.3893237e-08
7.4007195e-08
7.4132508e-08
7.4266181e-08
7.4402158e-08
7.453043e-08
7.4636104e-08
7.4697189e-08
7.4679845e-08
7.4524978e-08
7.4091593e-08
7.3708605e-08
7.3740435e-08
7.3776485e-08
7.3816316e-08
7.3859512e-08
7.390573e-08
7.3954757e-08
7.4006583e-08
7.4061475e-08
7.412005e-08
7.4183307e-08
7.4252622e-08
7.4329644e-08
7.4416083e-08
7.451336e-08
7.4622073e-08
7.4741307e-08
7.4867891e-08
7.4995706e-08
7.5114851e-08
7.5210536e-08
7.5260972e-08
7.5232709e-08
7.506734e-08
7.4625646e-08
7.4217826e-08
7.4248289e-08
7.4282763e-08
7.4320821e-08
7.4362067e-08
7.4406179e-08
7.4452965e-08
7.4502429e-08
7.4554842e-08
7.4610808e-08
7.4671295e-08
7.4737641e-08
7.4811443e-08
7.4894332e-08
7.4987606e-08
7.5091714e-08
7.5205526e-08
7.5325553e-08
7.5445485e-08
7.5555436e-08
7.5640768e-08
7.5680041e-08
7.5640416e-08
7.5464382e-08
7.501383e-08
7.454378e-08
7.4573188e-08
7.4606438e-08
7.4643106e-08
7.4682818e-08
7.4725279e-08
7.4770319e-08
7.4817952e-08
7.4868449e-08
7.4922386e-08
7.4980658e-08
7.5044558e-08
7.511565e-08
7.5195542e-08
7.5285466e-08
7.5385881e-08
7.549552e-08
7.5610034e-08
7.5722754e-08
7.5823846e-08
7.589892e-08
7.5927107e-08
7.5876509e-08
7.5691445e-08
7.5238417e-08
7.4626635e-08
7.4655271e-08
7.4687583e-08
7.4723138e-08
7.4761609e-08
7.4802742e-08
7.4846398e-08
7.489261e-08
7.4941659e-08
7.4994067e-08
7.5050589e-08
7.5112478e-08
7.5181351e-08
7.5258986e-08
7.5346455e-08
7.5444953e-08
7.5554075e-08
7.566565e-08
7.5772649e-08
7.5865837e-08
7.593129e-08
7.5949338e-08
7.5889324e-08
7.5698712e-08
7.5254536e-08
7.4297352e-08
7.4325488e-08
7.4357061e-08
7.4391609e-08
7.442892e-08
7.446882e-08
7.4511213e-08
7.4556178e-08
7.4604032e-08
7.465522e-08
7.4710242e-08
7.4770359e-08
7.4837596e-08
7.4914718e-08
7.5001014e-08
7.5101728e-08
7.522966e-08
7.5346537e-08
7.545062e-08
7.5537238e-08
7.5593121e-08
7.5602924e-08
7.553669e-08
7.5346656e-08
7.4936644e-08
)
;

boundaryField
{
    Walls
    {
        type            nutUWallFunction;
        Cmu             0.09;
        kappa           0.41;
        E               9.8;
        value           uniform 0;
    }
    Inlet
    {
        type            calculated;
        value           nonuniform List<scalar> 3(1.8363713e-05 3.7687436e-05 8.1221119e-07);
    }
    Outlet
    {
        type            calculated;
        value           nonuniform List<scalar> 
86
(
7.422668e-08
7.423103e-08
7.4240594e-08
7.4255021e-08
7.4273972e-08
7.4297352e-08
7.4325488e-08
7.4357061e-08
7.4391609e-08
7.442892e-08
7.446882e-08
7.4511213e-08
7.4556178e-08
7.4604032e-08
7.465522e-08
7.4710242e-08
7.4770359e-08
7.4837596e-08
7.4914718e-08
7.5001014e-08
7.5101728e-08
7.522966e-08
7.5346537e-08
7.545062e-08
7.5537238e-08
7.5593121e-08
7.5602924e-08
7.553669e-08
7.5346656e-08
7.4936644e-08
1.4314851e-05
1.4861241e-05
1.3445325e-05
0
0
0
0
4.6295443e-06
4.4728248e-06
3.9843346e-06
3.0999076e-06
0
0
1.5960545e-06
1.2399588e-06
9.0837691e-07
6.2397787e-07
4.0575125e-07
2.5506889e-07
1.6041872e-07
1.0567398e-07
7.6196532e-08
6.1419287e-08
5.4644264e-08
5.2055675e-08
5.1582774e-08
5.2149683e-08
5.3218805e-08
5.4524664e-08
5.5944508e-08
5.7411585e-08
5.8893754e-08
6.0369195e-08
6.1827481e-08
6.3258069e-08
6.4654158e-08
6.6004048e-08
6.7297383e-08
6.8524778e-08
6.9679335e-08
7.0752597e-08
7.1741556e-08
7.2647519e-08
7.3431849e-08
7.4091593e-08
7.4625646e-08
7.501383e-08
7.5238417e-08
7.5254536e-08
7.4936644e-08
0
0
0
0
1.3195472e-05
1.4831616e-05
)
;
    }
    Front
    {
        type            wedge;
    }
    Back
    {
        type            wedge;
    }
    defaultFaces
    {
        type            empty;
    }
}


// ************************************************************************* //
