/*--------------------------------*- C++ -*----------------------------------*\
| =========                 |                                                 |
| \\      /  F ield         | OpenFOAM: The Open Source CFD Toolbox           |
|  \\    /   O peration     | Version:  4.0                                   |
|   \\  /    A nd           | Web:      www.OpenFOAM.org                      |
|    \\/     M anipulation  |                                                 |
\*---------------------------------------------------------------------------*/
FoamFile
{
    version     2.0;
    format      ascii;
    class       volScalarField;
    location    "0.43";
    object      omega;
}
// * * * * * * * * * * * * * * * * * * * * * * * * * * * * * * * * * * * * * //

dimensions      [0 0 -1 0 0 0 0];

internalField   nonuniform List<scalar> 
1740
(
51.566782
705.81535
14921.901
138.09705
1416.459
15028.459
247.95527
1871.4782
15123.234
371.43567
2168.8598
15207.289
494.72261
2487.6603
15276.681
604.55725
2788.0054
15336.067
727.60023
3041.489
15380.186
841.07492
3233.4785
15419.27
943.35103
3357.636
15452.731
1026.8942
3502.1417
15479.303
1122.899
3591.7708
15495.183
1215.1899
3667.6761
15510.432
1306.2595
3763.9719
15531.467
1390.8069
3876.9179
15546.229
1473.9817
3948.8845
15554.338
1562.5555
4017.5765
15557.111
1629.5466
4043.3381
15562.676
1674.5519
4041.2099
15561.723
1705.2957
4045.4116
15567.478
1738.6414
4075.9093
15574.23
1774.2203
4053.926
15565.338
1804.4729
4030.9461
15572.749
1833.6776
4063.3597
15587.309
1874.1312
4179.0361
15590.386
1938.1186
4271.9949
15586.991
1966.4429
4234.9635
15581.069
1960.5103
4231.6432
15577.953
1984.6716
4270.5814
15571.544
2000.1605
4237.5581
15560.207
2123.3234
4283.1558
15499.898
3180.9651
4555.2087
10767.234
3337.8017
4247.4943
5975.5203
1572.9668
1860.7726
2156.6933
822.74041
897.21194
955.44298
477.66173
495.61703
505.56962
300.51577
304.14796
304.2052
201.40038
201.67323
200.19281
142.17692
141.83152
140.55444
104.94068
104.59883
103.74045
80.569859
80.331844
79.800622
64.110185
63.960706
63.642306
52.741547
52.651016
52.461797
44.799148
44.744709
44.631571
39.261394
39.228339
39.159523
35.465322
35.444897
35.402032
32.946289
32.933458
32.906145
31.352782
31.34476
31.32719
30.40747
30.40276
30.391627
29.885612
29.883081
29.875953
29.569221
29.566628
29.560352
29.331836
29.329495
29.32407
29.136948
29.134986
29.130405
28.963439
28.961903
28.958145
28.799445
28.798396
28.795474
28.639818
28.639278
28.637177
28.485003
28.484891
28.483499
28.339238
28.339395
28.338518
28.207546
28.207814
28.207257
28.093179
28.093451
28.093071
27.996706
27.996934
27.996646
27.916444
27.916614
27.916376
27.849273
27.849391
27.849182
27.791235
27.79131
27.791122
27.737683
27.737726
27.737554
27.682981
27.683001
27.682844
27.619811
27.619816
27.619674
27.538095
27.53809
27.537964
27.423525
27.423517
27.423408
27.255699
27.255691
27.255602
27.005865
27.005862
27.005799
26.634392
26.634399
26.634369
26.088194
26.088217
26.088231
25.298599
25.298645
25.298715
24.180466
24.180541
24.180681
22.633917
22.634019
22.634234
20.553931
20.554056
20.554336
17.836033
17.836126
17.836373
14.401186
14.401121
14.401106
10.23099
10.230651
10.23014
5.4373917
5.4369495
5.4361976
13480.239
13535.266
6014.1674
5342.0655
2084.8089
1881.6411
921.43873
853.83555
489.4926
462.86122
296.08248
284.2259
195.86854
190.13293
138.1693
135.21723
102.39841
100.80941
79.03493
78.15092
63.200143
62.695169
52.202809
51.907224
44.47694
44.299085
39.064774
38.954058
35.342118
35.27044
32.867081
32.818854
31.301148
31.267656
30.374062
30.350227
29.863659
29.846026
29.550038
29.535327
29.315275
29.30269
29.122878
29.111938
28.951728
28.942137
28.79009
28.78169
28.632769
28.625493
28.479976
28.473786
28.335744
28.330587
28.205084
28.200877
28.091366
28.087994
27.995303
27.992631
27.915311
27.913204
27.848329
27.846666
27.790431
27.789109
27.736987
27.735926
27.682373
27.681512
27.61928
27.618574
27.537634
27.537052
27.423134
27.422656
27.255383
27.254998
27.005636
27.005339
26.634267
26.634064
26.088202
26.088104
25.298778
25.298805
24.180856
24.181036
22.634539
22.634895
20.554759
20.55528
17.836812
17.837376
14.401295
14.401558
10.229728
10.22915
5.4353431
5.4340171
12058.169
2042.9372
696.33613
368.98355
281.1848
256.96964
249.84389
246.81539
244.48225
242.09954
239.58718
236.84479
234.01515
231.10867
228.09095
224.89778
221.41563
217.44821
212.66236
206.50345
198.04993
185.74938
166.90538
136.476
82.568175
12058.132
2037.0372
697.6138
374.57728
283.10504
254.26899
242.74592
235.54854
229.45922
223.6812
218.01764
212.40508
206.91069
201.51486
196.19642
190.92714
185.6504
180.26209
174.57479
168.2658
160.78359
151.16141
137.60247
116.40723
78.136472
12058.178
2030.7602
718.6841
430.66555
359.23911
332.29902
314.93481
300.44763
287.2233
274.68845
262.72508
251.148
240.18471
229.73643
219.74086
210.18394
201.04446
192.27596
183.77748
175.37036
166.74079
157.30734
145.865
129.45853
98.783877
12058.523
2032.1989
817.60335
608.7207
549.81447
512.60603
479.59176
449.08083
421.11179
394.81577
370.15656
347.16148
325.96899
306.1242
287.47964
270.04249
253.80011
238.71925
224.74417
211.78345
199.69617
188.25588
177.02222
164.81224
146.38078
12061.511
2151.44
1232.3519
1078.3168
989.52122
906.66461
828.1636
756.71626
692.90515
633.79131
579.47252
529.80672
485.73726
445.48227
408.52339
374.87587
344.40338
316.93114
292.27737
270.24888
250.64959
233.30404
218.0986
205.20581
195.7012
12087.221
3835.8785
2813.0516
2405.2656
2095.4502
1825.9786
1590.615
1387.3971
1211.4415
1059.6652
928.904
816.32852
719.42392
635.76916
563.42687
500.89243
446.87304
400.23973
360.0165
325.36782
295.58487
270.0931
248.48827
230.86641
218.46272
10382.849
7916.6922
6102.6282
4788.2572
3816.5701
3080.8317
2511.9149
2065.2907
1711.0399
1427.7687
1199.6011
1014.6817
864.10235
740.9805
639.84628
556.34659
487.04253
429.23383
380.80397
340.09086
305.78803
276.88902
252.67824
233.03584
219.24153
4097.3108
3310.6733
2843.5315
2466.9339
2147.2278
1866.5709
1621.9983
1410.5502
1229.2858
1073.8897
940.55137
825.86724
726.87591
641.4198
567.66082
504.00813
449.08812
401.72628
360.92087
325.82016
295.70555
269.99706
248.28095
230.63358
218.24345
1594.2039
1399.7313
1269.4477
1161.1404
1058.8682
961.54091
872.83778
793.83968
721.76917
656.49352
598.13507
546.51793
499.12005
455.81375
416.47379
380.90226
348.87751
320.16558
294.533
271.76251
251.65579
234.04459
218.81817
206.12977
196.9399
771.05311
707.73351
661.45188
620.82873
580.44552
540.28922
502.68838
468.04427
435.93022
406.32227
379.25892
354.46972
331.26812
309.55434
289.31817
270.54597
253.2088
237.26474
222.66239
209.33745
197.19575
186.07076
175.59413
164.69907
148.56305
433.72726
409.97881
391.20903
373.94045
356.17219
337.86877
319.99246
302.97264
286.88856
271.79343
257.69769
244.4774
231.92477
219.99664
208.72153
198.0962
188.1137
178.75298
169.96918
161.67061
153.66405
145.51999
136.20586
122.93909
96.612304
271.92269
261.49379
252.8224
244.64629
236.11529
227.165
218.15552
209.35134
200.87458
192.78286
185.08544
177.73349
170.65455
163.82597
157.25977
150.95998
144.91764
139.10255
133.44782
127.81748
121.9379
115.24647
106.53525
93.016654
67.155313
184.32284
179.23555
174.82022
170.58811
166.16315
161.47842
156.66811
151.87334
147.18363
142.64447
138.26588
134.02913
129.905
125.87838
121.94455
118.09398
114.3043
110.53021
106.68684
102.6195
98.046851
92.450779
84.850475
73.251852
52.434384
132.25835
129.59802
127.21202
124.89784
122.48215
119.91565
117.24534
114.54166
111.85942
109.22991
106.66248
104.14966
101.67613
99.227948
96.791739
94.347788
91.863141
89.282506
86.514601
83.410645
79.73169
75.106431
69.010695
60.959645
51.978173
99.219588
97.758959
96.416883
95.103206
93.735156
92.281359
90.75665
89.194207
87.624644
86.06727
84.528418
83.003824
81.482386
79.949612
78.387077
76.768436
75.054231
73.184855
71.071135
68.582285
65.534545
61.695941
56.862595
51.186645
46.199504
77.262869
76.431297
75.652607
74.885681
74.089246
73.244029
72.353323
71.432039
70.495955
69.55557
68.61381
67.666323
66.702687
65.707355
64.658769
63.526695
62.268322
60.823212
59.107242
57.006501
54.375237
51.050167
46.915007
42.110351
37.693286
62.183649
61.69601
61.231998
60.772556
60.296773
59.792906
59.260293
58.704969
58.134216
57.552692
56.960272
56.351494
55.715446
55.035464
54.288034
53.440654
52.448796
51.252142
49.77018
47.897517
45.499486
42.406537
38.387663
32.972018
24.367784
51.604073
51.309594
51.024899
50.741222
50.447755
50.137501
49.80858
49.462825
49.102826
48.729541
48.340594
47.929304
47.483954
46.986929
46.413392
45.729342
44.889061
43.831941
42.478565
40.725416
38.436007
35.420151
31.3705
25.639463
16.364792
44.113543
43.929307
43.747752
43.564963
43.375332
43.174667
42.961059
42.734342
42.494582
42.240525
41.968266
41.670115
41.333635
40.940416
40.46461
39.871006
39.11268
38.128121
36.837553
35.137584
32.891621
29.908927
25.892109
20.294482
11.878043
38.835856
38.715204
38.593282
38.468398
38.337676
38.198586
38.049493
37.889383
37.717024
37.529893
37.323102
37.088257
36.812316
36.476209
36.053199
35.506934
34.78918
33.837208
32.570671
30.887502
28.657488
25.710272
21.809565
16.593271
9.4443534
35.191545
35.108191
35.021226
34.929912
34.832792
34.728331
34.615187
34.492047
34.357055
34.207008
34.0364
33.836348
33.593326
33.287667
32.891808
32.368283
31.667535
30.725634
29.461996
27.777314
25.551842
22.64407
18.889556
14.099521
8.0498704
32.763713
32.703033
32.637277
32.566115
32.48878
32.404323
32.31166
32.209399
32.0954
31.96609
31.815596
31.634664
31.40934
31.119401
30.736509
30.222177
29.525681
28.582146
27.311122
25.616448
23.388722
20.511949
16.87633
12.402927
7.0655875
31.22758
31.181392
31.129217
31.070852
31.005858
30.933604
30.853191
30.763235
30.661455
30.544058
30.404907
30.234432
30.018281
29.73568
29.357596
28.844687
28.145368
27.194312
25.911572
24.203638
21.968751
19.108454
15.546781
11.260019
6.287926
30.32017
30.283731
30.240762
30.191061
30.134313
30.070032
29.997407
29.915051
29.820589
29.710067
29.577123
29.411896
29.199627
28.918987
28.540259
28.023387
27.316294
26.354029
25.057814
23.336098
21.091475
18.235237
14.709487
10.51608
5.726956
29.822725
29.793226
29.757194
29.714326
29.664244
29.606405
29.539926
29.46332
29.374093
29.26814
29.138917
28.976315
28.765197
28.483579
28.100579
27.575416
26.855815
25.878658
24.567854
22.833317
20.579087
17.720384
14.207311
10.054242
5.3525515
29.515814
29.491053
29.460654
29.424231
29.381323
29.331289
29.273132
29.205223
29.124898
29.027858
28.907332
28.752909
28.548939
28.272287
27.889427
27.356763
26.622084
25.626279
24.300181
22.555043
20.293796
17.432162
13.923309
9.7872921
5.1286194
29.285866
29.264348
29.237706
29.205508
29.16725
29.122246
29.069452
29.00719
28.932747
28.841791
28.727554
28.579722
28.382944
28.11484
27.743448
27.224684
26.500265
25.494318
24.155809
22.404325
20.140346
17.278628
13.773301
9.6466911
5.0089404
29.097093
29.077854
29.053758
29.024341
28.989076
28.947257
28.897822
28.839087
28.768358
28.681372
28.57151
28.428715
28.23802
27.977577
27.616125
27.110038
26.402054
25.413434
24.072084
22.320659
20.058819
17.200752
13.701213
9.5843147
4.9649799
28.928834
28.911286
28.889005
28.861517
28.828292
28.788636
28.741517
28.685313
28.61744
28.533808
28.428047
28.290397
28.106202
27.853901
27.502512
27.00868
26.31587
25.348195
24.015064
22.270084
20.01437
17.162727
13.670609
9.5619421
4.9474153
28.769704
28.753551
28.732735
28.706798
28.675253
28.637468
28.592506
28.538879
28.474182
28.394535
28.293783
28.162354
27.98571
27.742343
27.401349
26.919701
26.239673
25.287488
23.970523
22.235643
19.98814
17.144201
13.66026
9.561654
4.9620761
28.614765
28.59997
28.580633
28.556356
28.526733
28.491243
28.449085
28.398927
28.33852
28.264127
28.16968
28.04562
27.877341
27.643226
27.312289
26.841532
26.173227
25.234337
23.933321
22.209348
19.970533
17.134531
13.659277
9.5723919
5.000796
28.464362
28.451092
28.433553
28.411425
28.384405
28.352083
28.313775
28.268249
28.213331
28.145305
28.058062
27.941928
27.78214
27.556916
27.235182
26.774038
26.116236
25.188305
23.901139
22.187527
19.956876
17.12795
13.659616
9.5801228
5.0452143
28.322535
28.311013
28.295664
28.276247
28.252534
28.224186
28.19057
28.150477
28.101714
28.040495
27.96059
27.85217
27.700297
27.483046
27.169281
26.716201
26.066887
25.148385
23.872914
22.168615
19.945239
17.122259
13.659315
9.5869963
5.0655985
28.194195
28.184536
28.171605
28.155211
28.135163
28.111138
28.08249
28.047971
28.005308
27.950603
27.877487
27.77598
27.630999
27.420515
27.113371
26.666883
26.024473
25.113838
23.848099
22.151945
19.934953
17.116894
13.657585
9.5898151
5.0839509
28.082589
28.074732
28.06418
28.050767
28.0343
28.014432
27.99047
27.961089
27.923917
27.874941
27.807664
27.711979
27.572699
27.36773
27.065926
26.624742
25.98795
25.08398
23.826175
22.137052
19.92568
17.111689
13.653842
9.5827607
5.0671214
27.988338
27.982082
27.97366
27.962908
27.949618
27.933399
27.913493
27.888493
27.855935
27.8117
27.749187
27.658194
27.523461
27.32286
27.025275
26.588293
25.955985
25.057321
23.806364
22.123378
19.917062
17.106894
13.650689
9.5778196
5.0588555
27.909826
27.904904
27.898257
27.889724
27.879066
27.865847
27.849248
27.827789
27.798923
27.758449
27.699686
27.612363
27.48117
27.283965
26.989671
26.556001
25.927288
25.032973
23.787838
22.110193
19.908433
17.101889
13.647606
9.5742583
5.0549382
27.844012
27.840149
27.834916
27.828143
27.819567
27.808712
27.794705
27.776006
27.750005
27.712435
27.656556
27.572047
27.443567
27.248973
26.957232
26.526174
25.900367
25.009668
23.769506
22.096496
19.898835
17.095727
13.643847
9.5725224
5.0587062
27.787015
27.78397
27.779827
27.77441
27.767435
27.758392
27.746367
27.729775
27.705954
27.670589
27.616896
27.53452
27.408102
27.215505
26.925741
26.496749
25.873309
24.985639
23.749715
22.080832
19.886947
17.087144
13.637866
9.5708738
5.0567685
27.734258
27.731835
27.728519
27.72413
27.718367
27.710694
27.700166
27.685161
27.662982
27.629277
27.577231
27.496463
27.371605
27.18053
26.8923
26.464956
25.843469
24.958382
23.726154
22.061039
19.870816
17.074527
13.628452
9.5647954
5.0560882
27.680168
27.678215
27.675525
27.671911
27.667061
27.660418
27.651016
27.637204
27.616259
27.5838
27.53299
27.453431
27.329751
27.139839
26.852807
26.426798
25.806964
24.924151
23.695266
22.033772
19.847377
17.055176
13.61321
9.5523768
5.0419351
27.617478
27.615885
27.61367
27.610643
27.606482
27.600618
27.592065
27.579153
27.559136
27.527615
27.477735
27.399086
27.276299
27.087284
26.801206
26.376315
25.75795
24.87726
23.651596
21.99388
19.811889
17.02494
13.589171
9.5353046
5.0316768
27.536152
27.534838
27.532989
27.530413
27.52678
27.521511
27.513604
27.501376
27.482065
27.451255
27.402078
27.324122
27.202022
27.013719
26.728443
26.304563
25.687628
24.809119
23.586877
21.933547
19.757161
16.977465
13.551006
9.5088948
5.0187872
27.421916
27.420825
27.419266
27.417045
27.413825
27.409019
27.401615
27.389917
27.37115
27.340888
27.292256
27.214842
27.093297
26.905605
26.621081
26.198248
25.582909
24.706952
23.488808
21.841169
19.672582
16.903481
13.491011
9.4665726
4.9967394
27.254394
27.253491
27.252171
27.25024
27.247354
27.24292
27.235918
27.224643
27.20631
27.176488
27.128298
27.051341
26.930298
26.743219
26.459541
26.037997
25.424734
24.552168
23.339509
21.699902
19.542768
16.789565
13.39796
9.398406
4.9559223
27.004862
27.004126
27.003016
27.001333
26.998732
26.994611
26.987946
26.977025
26.959059
26.929616
26.881828
26.805318
26.684826
26.498507
26.21598
25.796284
25.186048
24.318425
23.11368
21.485937
19.34597
16.61678
13.256932
9.2959112
4.8966425
26.633713
26.633139
26.632225
26.630771
26.628427
26.624589
26.618227
26.607627
26.590003
26.560933
26.513574
26.437603
26.317856
26.132657
25.85191
25.435104
24.829568
23.969496
22.776633
21.166714
19.052475
16.359153
13.046983
9.145621
4.8160468
26.08789
26.087485
26.086771
26.085545
26.083454
26.079891
26.073827
26.063553
26.046294
26.017657
25.970853
25.895654
25.777062
25.593673
25.31582
24.903669
24.305569
23.457192
22.282441
20.699309
18.623322
15.982733
12.739852
8.9244069
4.7112846
25.298749
25.298536
25.298042
25.297062
25.295242
25.291975
25.286238
25.276337
25.259528
25.231474
25.185484
25.1115
24.994791
24.814376
24.541242
24.136557
23.550152
22.719685
21.572645
20.029425
18.009661
15.445751
12.302979
8.6108041
4.5384367
24.18117
24.181181
24.180943
24.180248
24.178739
24.175818
24.170476
24.161052
24.14486
24.117664
24.072943
24.000908
23.887252
23.711637
23.446036
23.053108
22.484907
21.68234
20.576364
19.091545
17.152998
14.698604
11.697796
8.1803477
4.3067093
22.635247
22.635519
22.635579
22.635213
22.634069
22.631566
22.626731
22.617959
22.602662
22.576771
22.534037
22.465115
22.356385
22.188546
21.93507
21.560716
21.020419
20.258999
19.212383
17.811158
15.987376
13.685795
10.880902
7.6019738
3.9941509
20.555833
20.556353
20.55669
20.556623
20.555813
20.553722
20.54945
20.54149
20.527415
20.503409
20.463625
20.399381
20.298074
20.141896
19.906444
19.559409
19.059681
18.357281
17.394675
16.110214
14.444512
12.350617
9.8090848
6.8503726
3.6083826
17.837997
17.8387
17.839225
17.839337
17.838738
17.83699
17.833329
17.826419
17.814081
17.792862
17.75743
17.70006
17.609623
17.470434
17.260983
16.952938
16.510444
15.890308
15.043284
13.917249
12.462925
10.642806
8.4436198
5.8943543
3.109319
14.401894
14.402757
14.403362
14.403442
14.40283
14.40128
14.39826
14.39272
14.38289
14.365798
14.336643
14.289015
14.213906
14.09865
13.925219
13.6706
13.30572
12.796036
12.102426
11.183894
10.002404
8.5308416
6.7618958
4.7220309
2.502571
10.2287
10.230068
10.230887
10.230842
10.230093
10.228691
10.226419
10.222661
10.216282
10.204952
10.184371
10.149893
10.095652
10.013797
9.888045
9.7029523
9.4379698
9.0695298
8.570256
7.9113243
7.0659091
6.0194163
4.7686676
3.3361457
1.7887443
5.4329311
5.4350307
5.4362359
5.4362697
5.4356722
5.434726
5.4334691
5.4317355
5.429115
5.4242035
5.4138351
5.3956822
5.3684354
5.3324877
5.2661604
5.1655507
5.0197778
4.8201363
4.5514179
4.1967967
3.7383512
3.1808474
2.5196878
1.7692129
0.97668203
)
;

boundaryField
{
    Walls
    {
        Cmu             0.09;
        kappa           0.41;
        E               9.8;
        beta1           0.075;
        type            omegaWallFunction;
        value           nonuniform List<scalar> 
38
(
12058.169
12058.132
12058.178
12058.523
12061.511
12087.221
13480.239
13535.266
14921.901
15028.459
15123.234
15207.289
15276.681
15336.067
15380.186
15419.27
15452.731
15479.303
15495.183
15510.432
15531.467
15546.229
15554.338
15557.111
15562.676
15561.723
15567.478
15574.23
15565.338
15572.749
15587.309
15590.386
15586.991
15581.069
15577.953
15571.544
15560.207
15499.898
)
;
    }
    Inlet
    {
        type            turbulentMixingLengthDissipationRateInlet;
        mixingLength    0.03;
        phi             phi;
        k               k;
        value           nonuniform List<scalar> 3(0.0045800841 0.0049931905 0.005057235);
    }
    Outlet
    {
        type            inletOutlet;
        inletValue      uniform 1e-05;
        value           nonuniform List<scalar> 
86
(
5.4373917
5.4369495
5.4361976
5.4353431
5.4340171
5.4329311
5.4350307
5.4362359
5.4362697
5.4356722
5.434726
5.4334691
5.4317355
5.429115
5.4242035
5.4138351
5.3956822
5.3684354
5.3324877
5.2661604
5.1655507
5.0197778
4.8201363
4.5514179
4.1967967
3.7383512
3.1808474
2.5196878
1.7692129
0.97668203
219.24153
218.24345
196.9399
1e-05
1e-05
1e-05
1e-05
51.978173
46.199504
37.693286
24.367784
1e-05
1e-05
9.4443534
8.0498704
7.0655875
6.287926
5.726956
5.3525515
5.1286194
5.0089404
4.9649799
4.9474153
4.9620761
5.000796
5.0452143
5.0655985
5.0839509
5.0671214
5.0588555
5.0549382
5.0587062
5.0567685
5.0560882
5.0419351
5.0316768
5.0187872
4.9967394
4.9559223
4.8966425
4.8160468
4.7112846
4.5384367
4.3067093
3.9941509
3.6083826
3.109319
2.502571
1.7887443
0.97668203
1e-05
1e-05
1e-05
1e-05
195.7012
218.46272
)
;
    }
    Front
    {
        type            wedge;
    }
    Back
    {
        type            wedge;
    }
    defaultFaces
    {
        type            empty;
    }
}


// ************************************************************************* //
