/*--------------------------------*- C++ -*----------------------------------*\
| =========                 |                                                 |
| \\      /  F ield         | OpenFOAM: The Open Source CFD Toolbox           |
|  \\    /   O peration     | Version:  4.0                                   |
|   \\  /    A nd           | Web:      www.OpenFOAM.org                      |
|    \\/     M anipulation  |                                                 |
\*---------------------------------------------------------------------------*/
FoamFile
{
    version     2.0;
    format      ascii;
    class       volScalarField;
    location    "0.43";
    object      p;
}
// * * * * * * * * * * * * * * * * * * * * * * * * * * * * * * * * * * * * * //

dimensions      [0 2 -2 0 0 0 0];

internalField   nonuniform List<scalar> 
1740
(
491.57622
491.68174
491.69936
474.76023
474.81939
475.10647
458.0645
457.89901
458.33956
441.78741
441.69824
441.78943
425.52952
425.55349
425.24084
409.08159
408.93848
408.52793
392.35965
392.09943
392.21504
375.38041
375.31677
375.61958
358.4892
358.82943
358.75097
341.78366
342.01767
341.96519
325.62309
325.33226
325.53646
309.77952
309.67352
309.85587
293.71988
293.85147
293.63925
277.5703
277.5131
276.98636
261.53143
261.4453
261.20305
245.0769
245.18389
245.30922
228.19537
228.36833
228.40764
211.77376
211.66728
211.5704
195.38457
195.23688
195.17196
178.3915
178.55454
178.50739
161.64467
161.74153
161.86489
145.35512
145.27594
145.41864
128.70891
128.67906
128.835
112.16676
112.1818
112.3678
95.936154
96.082626
96.224504
79.919501
79.935307
80.071762
63.58981
63.662276
63.531529
46.903178
47.086962
46.780085
31.125102
31.006639
30.782038
16.619024
16.123853
15.807853
4.4376447
3.6698598
1.8652727
-0.49795734
-0.48083681
-0.27117994
-0.084643314
-0.079730967
-0.04239857
0.037333465
0.037482159
0.040541739
0.04615724
0.047224401
0.049505823
0.042244921
0.042838002
0.043743078
0.037593434
0.03751856
0.036874487
0.033302981
0.032882431
0.031780116
0.029362072
0.028876406
0.027781236
0.026054832
0.02558332
0.024577519
0.023330873
0.022905124
0.02201615
0.021010865
0.020639713
0.019870172
0.018972527
0.018654035
0.017993553
0.017147631
0.016875634
0.016310178
0.015503747
0.015271701
0.01478762
0.014026659
0.013828627
0.013413765
0.012704214
0.012534856
0.01217867
0.011522351
0.011377062
0.011070442
0.01046617
0.010341092
0.010076289
0.0095214049
0.0094133294
0.0091838444
0.0086752648
0.0085815292
0.0083819743
0.0079165673
0.0078349654
0.0076608349
0.0072354975
0.0071641983
0.0070117376
0.0066233662
0.0065608518
0.0064269296
0.0060724055
0.0060174067
0.0058993962
0.00557557
0.0055270298
0.0054227249
0.0051264356
0.0050834711
0.0049910293
0.0047191882
0.0046810565
0.0045989215
0.0043486071
0.0043146826
0.0042415252
0.0040100244
0.0039797737
0.0039144778
0.0036992713
0.0036722442
0.0036138567
0.0034126169
0.0033884318
0.0033361452
0.0031467571
0.0031250936
0.0030782187
0.0028988064
0.0028793889
0.0028373474
0.0026662745
0.002648869
0.0026111625
0.0024470188
0.0024314256
0.0023976274
0.0022391981
0.0022252466
0.0021949926
0.0020412318
0.0020287764
0.0020017552
0.0018517629
0.001840679
0.0018166241
0.0016696218
0.0016598028
0.0016384859
0.0014937931
0.0014851478
0.0014663735
0.0013233859
0.0013158364
0.0012994376
0.00115761
0.0011510902
0.0011369249
0.0009957594
0.00099021358
0.00097816208
0.00083720126
0.00083258294
0.00082254534
0.00068136728
0.00067763837
0.00066953281
0.00052775372
0.00052488394
0.00051864489
0.00037583973
0.00037380575
0.00036938325
0.00022540707
0.00022419241
0.00022154937
7.5196077e-05
7.479146e-05
7.391049e-05
-1.1840789
-0.83886685
-0.2207616
-0.17162965
-0.029238209
-0.031602376
0.035977662
0.026652196
0.04703913
0.041239296
0.042281837
0.038435713
0.035212229
0.032581322
0.029919234
0.02753811
0.026132733
0.024132898
0.023148715
0.021473404
0.020788467
0.019369153
0.018814494
0.01759475
0.01708531
0.016028488
0.015528195
0.014609998
0.0141138
0.013314824
0.012832545
0.012136726
0.011676403
0.011069617
0.010635348
0.010105272
0.009698371
0.0092344399
0.008854688
0.0084477934
0.0080944464
0.0077367623
0.0074089017
0.0070937582
0.0067903432
0.0065120224
0.0062318184
0.0059854335
0.0057269661
0.0055083509
0.0052699331
0.0050755215
0.0048552957
0.0046820379
0.0044780628
0.0043233438
0.0041336862
0.0039952664
0.0038180647
0.0036940182
0.0035275086
0.0034161794
0.0032587086
0.0031586793
0.0030087158
0.0029187735
0.0027749389
0.0026940447
0.0025551299
0.0024823972
0.0023473562
0.0022820186
0.0021499559
0.002091354
0.0019615013
0.0019090684
0.0017807655
0.0017340146
0.0016066902
0.0015652024
0.0014383557
0.001401771
0.0012749539
0.0012429636
0.0011157677
0.0010881086
0.00096015598
0.00093660532
0.00080754402
0.00078791565
0.00065741609
0.00064155692
0.00050931654
0.00049710383
0.00036276986
0.00035410991
0.00021759601
0.00021241845
7.2592524e-05
7.0866342e-05
0.027781658
0.026867202
0.025435277
0.023863244
0.022287192
0.020785453
0.019331489
0.017903341
0.016497759
0.015123308
0.013791082
0.012506435
0.011272301
0.010091083
0.0089642068
0.0078918086
0.0068725353
0.0059036845
0.0049821627
0.0041063605
0.0032742778
0.0024826532
0.0017281961
0.0010086759
0.000323854
0.028198638
0.027167962
0.025576006
0.023913181
0.02224292
0.020679964
0.019156935
0.017651292
0.016165135
0.014713598
0.013315592
0.011977551
0.010703928
0.0094986873
0.0083628673
0.007295652
0.0062959592
0.0053648641
0.0044950994
0.0036823723
0.0029226317
0.0022090804
0.0015357515
0.00089972357
0.00029704231
0.025150165
0.023819338
0.021885242
0.020037982
0.018234143
0.016322682
0.014361364
0.012421886
0.010622875
0.0089939572
0.0075538742
0.0062882508
0.0051870429
0.004240624
0.0034374974
0.0027644924
0.0022068017
0.0017452578
0.0013674924
0.0010598181
0.00081264065
0.00061108898
0.00044085521
0.00028839483
0.00012940715
0.011329971
0.0092376596
0.006978807
0.0043812015
0.0018047816
-0.0004845587
-0.0023918995
-0.0038611759
-0.0049596173
-0.0057408531
-0.0062202651
-0.0064736426
-0.0065369898
-0.0064273306
-0.0061715132
-0.0057954519
-0.0053220826
-0.004771856
-0.0041643669
-0.0035304108
-0.0028672074
-0.0021898647
-0.0015109584
-0.00084663523
-0.0002370611
-0.03736946
-0.038127441
-0.039441629
-0.038715767
-0.037374502
-0.035355952
-0.033107028
-0.030693682
-0.028183626
-0.025679431
-0.023177763
-0.020798256
-0.018493346
-0.01617014
-0.014029237
-0.012080708
-0.010313242
-0.0087123143
-0.0072593894
-0.005921754
-0.0046973543
-0.0035645533
-0.0025066243
-0.0015034318
-0.00053850298
-0.19385049
-0.15143775
-0.13237705
-0.1041059
-0.081117818
-0.061539323
-0.045284858
-0.032372656
-0.022289461
-0.014455505
-0.0085296659
-0.0041094084
-0.00092065509
0.0012605382
0.0027675685
0.0036987693
0.0041753936
0.0042965455
0.0041396508
0.0037663746
0.0032247696
0.0025619152
0.0018158617
0.0010260456
0.00018814523
-0.27728492
-0.079328961
-0.036529466
-0.00694691
0.020912098
0.042801265
0.055869252
0.061013368
0.061280724
0.059155234
0.055742363
0.051633662
0.047153268
0.042530616
0.037933066
0.033460186
0.029174463
0.025098235
0.021231183
0.017559151
0.014058773
0.010705598
0.0074684106
0.0043317447
0.0012053541
-0.14175098
-0.12510366
-0.10549014
-0.085058872
-0.066026147
-0.049293292
-0.035382699
-0.024314814
-0.015742086
-0.0091428582
-0.0042137792
-0.00060992706
0.0019609696
0.0037305562
0.0048475653
0.0054331236
0.0056263381
0.0055047324
0.00513392
0.0045689304
0.0038553605
0.0030340673
0.0021397432
0.0012109451
0.0002401454
-0.039975446
-0.043499018
-0.044123958
-0.043123778
-0.041206554
-0.038684513
-0.035905023
-0.032977107
-0.029976784
-0.027098665
-0.024270414
-0.021474761
-0.018828449
-0.016394758
-0.014188433
-0.012241127
-0.010423275
-0.0087743692
-0.0072816505
-0.0059282526
-0.0046957447
-0.0035640473
-0.0025124441
-0.0015156254
-0.00055227248
0.017302456
0.010399435
0.0046720381
5.5242943e-05
-0.0034899342
-0.0060467826
-0.0078812958
-0.0091189148
-0.0098636752
-0.010249507
-0.010335512
-0.010187813
-0.0098527091
-0.0093659081
-0.0087512143
-0.0079944474
-0.0072291267
-0.0064157972
-0.0055637102
-0.0046841736
-0.003788166
-0.0028871795
-0.0019946907
-0.0011273463
-0.00032673543
0.034644475
0.029275927
0.024675084
0.020517866
0.016869876
0.013717861
0.010992099
0.0086798058
0.0067506585
0.0051468408
0.0038317744
0.0027618062
0.0018986892
0.0012085796
0.00067573166
0.00029315728
1.741162e-05
-0.00015989495
-0.00025310039
-0.00027913885
-0.00025367992
-0.00019196681
-0.00010997583
-2.350393e-05
3.6687469e-05
0.034546028
0.030415274
0.027161899
0.024431892
0.021896434
0.019550665
0.0174359
0.015510538
0.013753043
0.012147187
0.010686764
0.0093614525
0.0081551272
0.0070497795
0.006060541
0.0051869074
0.0044051561
0.0037035866
0.0030742507
0.0025020243
0.0019764861
0.0014899048
0.0010354901
0.00060975569
0.00020956319
0.029672723
0.026740842
0.024187348
0.022055981
0.02011191
0.01827794
0.016599787
0.015057803
0.013632069
0.012312176
0.011082943
0.0099381681
0.0088723069
0.0078952468
0.0069889412
0.0061387704
0.005335886
0.0045756266
0.0038530923
0.0031692187
0.0025214368
0.0019066559
0.0013224001
0.00076843527
0.00024662389
0.025171669
0.02296566
0.021025418
0.019280113
0.017671592
0.01616254
0.014764842
0.013465972
0.012248137
0.011096716
0.010014235
0.0090006091
0.0080593485
0.0071895653
0.0063761196
0.0056095013
0.004883655
0.0041946517
0.0035393742
0.0029173819
0.0023269016
0.0017652335
0.0012301672
0.00071932754
0.00023063242
0.022090376
0.020178692
0.018492595
0.016999922
0.015628923
0.014355671
0.013167581
0.012052866
0.011001909
0.010007357
0.0090698709
0.0081884479
0.0073595946
0.0065816051
0.0058476951
0.0051520773
0.004494157
0.003868152
0.0032710749
0.0027021071
0.0021597719
0.0016425472
0.0011481721
0.00067401444
0.00021725231
0.019758278
0.01814779
0.016705746
0.015370665
0.014155032
0.013020824
0.011956726
0.010960786
0.010027396
0.0091498586
0.0083223273
0.0075416984
0.0068062276
0.0061120992
0.0054545891
0.0048295476
0.0042289268
0.0036519785
0.0030974223
0.0025654709
0.0020558129
0.0015669982
0.0010972421
0.00064500142
0.0002084916
0.017912157
0.016526162
0.015263766
0.014117645
0.013047547
0.012033947
0.011084104
0.01018985
0.0093484807
0.0085536646
0.0077997186
0.0070859486
0.0064111746
0.0057718653
0.0051630712
0.0045800743
0.0040191368
0.0034789945
0.00295864
0.0024568436
0.0019730105
0.001506218
0.0010560884
0.0006227906
0.00020344967
0.016331096
0.015111286
0.013982115
0.012949652
0.012001623
0.011120051
0.010275622
0.0094728769
0.0087113965
0.0079855109
0.0072959899
0.0066401686
0.0060166541
0.0054228012
0.0048565328
0.004313375
0.003790241
0.0032853078
0.0027975676
0.0023259388
0.0018697482
0.0014285193
0.0010019192
0.00058961693
0.00019128521
0.01491913
0.013831856
0.012809978
0.011868092
0.011003093
0.010204232
0.0094537791
0.0087315776
0.0080387755
0.0073802605
0.0067538391
0.0061565041
0.0055861968
0.0050407321
0.0045181169
0.0040159015
0.003531511
0.0030633979
0.0026105784
0.0021719717
0.0017471086
0.001335609
0.00093714012
0.00055189952
0.00017948521
0.013633351
0.012661425
0.011734597
0.010871094
0.010073073
0.0093335675
0.0086479273
0.0080000819
0.0073770029
0.0067826019
0.0062148866
0.0056715255
0.0051506859
0.0046509587
0.0041707525
0.0037083868
0.0032619794
0.0028302009
0.0024123162
0.0020076742
0.0016156121
0.0012356188
0.00086727331
0.00051156741
0.00016750542
0.012454233
0.011584873
0.010743839
0.0099511129
0.0092128152
0.0085263806
0.0078883052
0.0072976008
0.0067386896
0.0062020923
0.0056883736
0.0051956089
0.0047218311
0.0042659371
0.0038266998
0.0034029651
0.0029935321
0.0025974645
0.0022140639
0.0018427637
0.001483035
0.001134425
0.00079648781
0.00046958355
0.00015317964
0.011378069
0.010601441
0.0098399773
0.0091142568
0.0084333601
0.0077984684
0.0072064751
0.0066557194
0.0061450223
0.0056584426
0.0051918056
0.0047441376
0.0043132838
0.0038981997
0.0034974865
0.0031104291
0.0027362073
0.0023740923
0.0020235467
0.0016840743
0.00135523
0.0010366002
0.00072781283
0.0004289678
0.0001397812
0.010400643
0.0097073325
0.0090192964
0.0083565028
0.0077298756
0.0071432208
0.0065959123
0.0060853393
0.0056071154
0.0051595172
0.0047348565
0.0043258081
0.0039333263
0.0035550638
0.0031896872
0.002836688
0.0024953052
0.0021648972
0.0018450362
0.0015353119
0.0012353454
0.00094482885
0.00066326088
0.00039091633
0.00012740726
0.0095149514
0.0088962133
0.0082752596
0.0076709089
0.0070948373
0.0065526247
0.0060455007
0.0055719029
0.0051287484
0.0047124816
0.0043180437
0.0039438312
0.0035853194
0.0032392467
0.0029061051
0.0025842138
0.0022729925
0.0019717473
0.0016802507
0.0013980566
0.0011247979
0.00086012888
0.00060374645
0.00035584814
0.00011615934
0.0087129565
0.0081607848
0.0076007973
0.0070504188
0.006521379
0.0060202874
0.0055497357
0.005109469
0.004697359
0.0043103904
0.0039451896
0.0035987033
0.0032677116
0.0029515715
0.0026474785
0.002353439
0.0020693126
0.0017949329
0.0015294654
0.0012724769
0.0010236601
0.00078267866
0.00054924406
0.00032372577
0.0001058032
0.0079865542
0.0074936394
0.0069889074
0.0064882286
0.0060029378
0.0055401658
0.0051034624
0.0046936766
0.0043097984
0.0039490879
0.0036098233
0.0032887199
0.0029832211
0.0026913746
0.0024113649
0.0021426661
0.0018837665
0.0016338244
0.001392118
0.001158034
0.00093141731
0.00071206669
0.00049960565
0.00029452849
9.644293e-05
0.0073282579
0.0068880057
0.0064332161
0.0059781403
0.005533496
0.0051065439
0.0047014545
0.0043199116
0.0039617472
0.0036254749
0.0033092991
0.0030108574
0.0027278826
0.0024584176
0.0022008218
0.0019538956
0.0017164048
0.0014873869
0.0012663144
0.0010528761
0.00084653374
0.00064698751
0.00045383658
0.00026758194
8.7788576e-05
0.0067314018
0.0063379061
0.0059281318
0.0055147735
0.0051077904
0.0047143252
0.0043388899
0.0039837878
0.0036495823
0.0033356016
0.0030404506
0.0027623945
0.0024994833
0.0022499133
0.0020120983
0.0017847097
0.0015665732
0.0013567626
0.0011546093
0.00095961728
0.00077132911
0.00058938821
0.00041339897
0.00024378031
8.0060405e-05
0.0061900618
0.0058380329
0.0054687475
0.005093439
0.0047212451
0.0043590199
0.0040114175
0.0036811592
0.0033693766
0.0030760237
0.002800122
0.0025405464
0.002295618
0.0020637567
0.0018434746
0.0016334508
0.0014325462
0.0012398119
0.0010545049
0.00087604065
0.00070392836
0.00053778902
0.00037719263
0.00022242293
7.3086966e-05
0.0056988652
0.0053835974
0.0050506665
0.004709969
0.0043698056
0.0040366436
0.003715125
0.0034082188
0.0031174687
0.0028432944
0.0025852821
0.0023425383
0.0021138372
0.0018978125
0.0016931212
0.0014985186
0.0013128942
0.0011352976
0.00096494413
0.00080119157
0.00064351729
0.0004915045
0.00034471529
0.00020325067
6.6788289e-05
0.005252832
0.0049701589
0.0046698261
0.0043605415
0.0040497853
0.0037435821
0.003446451
0.003161478
0.0028904919
0.0026342827
0.0023928449
0.002165593
0.0019516564
0.0017498986
0.0015591489
0.0013782684
0.001206205
0.0010420238
0.00088492405
0.00073423632
0.00058940268
0.00044997715
0.00031549642
0.00018602548
6.1159489e-05
0.0048472896
0.0045935185
0.0043224052
0.0040415837
0.003757764
0.0034765004
0.003202117
0.0029377151
0.002685305
0.0024459488
0.0022199564
0.0020070739
0.001806654
0.0016178482
0.0014396475
0.0012710405
0.0011110516
0.00095878583
0.00081345034
0.00067436238
0.00054094285
0.00041272086
0.00028916091
0.00017046056
5.6205359e-05
0.0044778254
0.0042497191
0.0040047939
0.0037497375
0.0034905478
0.0032323064
0.0029790958
0.0027339633
0.0024990124
0.0022754978
0.0020639752
0.0018644538
0.0016765412
0.0014995812
0.0013327652
0.0011752117
0.0010260392
0.00088440662
0.00074954674
0.00062077832
0.00049750953
0.00037924412
0.00026543122
0.00015645139
5.1794764e-05
0.0041403297
0.0039350397
0.0037135945
0.0034818568
0.0032451658
0.0030081478
0.0027746177
0.0025475167
0.002328977
0.0021203792
0.0019224634
0.0017354522
0.0015591703
0.0013931584
0.0012367591
0.0010892474
0.0009498416
0.00081776337
0.00069228403
0.00057273717
0.00045852956
0.00034915663
0.00024404038
0.00014382807
4.7808791e-05
0.0038309966
0.00364603
0.0034456625
0.0032350311
0.0030188893
0.0028014288
0.0025861741
0.00237594
0.0021728307
0.0019783017
0.0017932265
0.0016179944
0.0014526099
0.0012967882
0.0011500434
0.00101173
0.00088122933
0.00075780991
0.00064079503
0.00052954153
0.00042346172
0.00032204777
0.00022466736
0.00013237469
4.4245224e-05
0.0035463646
0.0033795379
0.0031981178
0.0030066128
0.0028092445
0.0026098012
0.002411523
0.0022170639
0.0020284762
0.0018472412
0.0016743232
0.0015102388
0.0013551388
0.0012088874
0.0010711373
0.00094139371
0.00081908744
0.00070358862
0.00059428383
0.00049055016
0.00039180691
0.00029753845
0.00020698855
0.00012193567
4.1100593e-05
0.0032833086
0.00313271
0.0029683599
0.0027942114
0.0026140159
0.002431181
0.0022486785
0.0020689877
0.0018940797
0.0017254313
0.0015640599
0.0014105755
0.0012652447
0.0011280572
0.00099878862
0.00087706001
0.00076239189
0.00065423922
0.00055202978
0.00045518334
0.00036312836
0.00027534115
0.00019065409
0.00011239363
3.8448526e-05
0.0030390052
0.0029029758
0.0027540474
0.0025956893
0.0024312289
0.0022637296
0.0020959036
0.0019300542
0.0017680537
0.0016113475
0.001460976
0.0013176134
0.0011816153
0.0010530743
0.00093187063
0.00081772561
0.00071024687
0.00060896535
0.00051336762
0.00042291843
0.00033705291
0.00025537874
0.00017541618
0.00010385607
3.6312055e-05
0.0028109316
0.0026880338
0.0025530877
0.0024091384
0.0022591365
0.0021058303
0.0019516856
0.0017988311
0.0016490311
0.001503681
0.0013638207
0.001230161
0.001103124
0.00098288365
0.00086940723
0.00076250333
0.00066185975
0.00056707822
0.00047770321
0.00039324178
0.00031316436
0.0002369354
0.0001630873
9.6580151e-05
3.3925419e-05
0.0025968629
0.0024858499
0.0023636298
0.0022328759
0.0020962019
0.0019560687
0.0018147111
0.001674086
0.001535844
0.0014013175
0.0012715276
0.0011472034
0.0010288104
0.00091658155
0.00081055815
0.00071062264
0.00061653447
0.00052796169
0.00044450812
0.0003657346
0.00029117196
0.0002203563
0.0001525393
8.9988391e-05
3.1137055e-05
0.0023948602
0.0022946517
0.0021840616
0.0020654359
0.0019410895
0.0018132205
0.0016838483
0.0015547633
0.0014274983
0.001303314
0.0011831991
0.0010678831
0.00095785688
0.00085339849
0.00075460474
0.00066141965
0.00057366553
0.00049107145
0.00041329837
0.00033996207
0.00027065262
0.00020497094
0.00014236589
8.3979333e-05
2.8687278e-05
0.0022032527
0.0021129121
0.002012994
0.0019055594
0.0017926548
0.0016762401
0.0015581345
0.0014399683
0.0013231557
0.0012088783
0.0010980816
0.00099148191
0.00088958091
0.00079268659
0.00070093745
0.00061432738
0.00053273209
0.00045593432
0.00038364695
0.00031553485
0.00025123602
0.00019038887
0.00013250529
7.8197537e-05
2.6529745e-05
0.0020206048
0.0019393184
0.0018492379
0.0017521717
0.0016499252
0.0015442449
0.0014367613
0.0013289534
0.0012221178
0.0011173524
0.0010155508
0.00091740495
0.00082341521
0.00073390639
0.00064904671
0.00056886891
0.00049329267
0.00042214653
0.00035518878
0.00029212738
0.00023263869
0.00017638806
0.00012292544
7.2576744e-05
2.4527804e-05
0.0018456844
0.0017727472
0.0016917762
0.001604356
0.001512078
0.0014164912
0.001319054
0.0012211
0.0011238103
0.001028197
0.00093509566
0.00084516522
0.00075889454
0.00067661409
0.00059851122
0.00052464764
0.00045497823
0.00038936988
0.00032762005
0.00026947431
0.0002146424
0.00016281487
0.00011357703
6.7080448e-05
2.2612157e-05
0.0016774334
0.0016122342
0.0015397391
0.0014613329
0.0013784152
0.0012923544
0.0012044491
0.0011158951
0.001027761
0.00094097208
0.00085630154
0.00077436856
0.00069564206
0.00062044919
0.00054898735
0.00048133855
0.00041748502
0.00035732534
0.0003006906
0.00024735968
0.00019707327
0.00014954816
0.00010440354
6.1676955e-05
2.0741844e-05
0.001514939
0.0014569484
0.0013923778
0.0013224337
0.0012483411
0.0011713041
0.0010924723
0.0010129111
0.00093358014
0.0008553178
0.00077883194
0.00070469684
0.00063335474
0.00056512215
0.00050019889
0.00043867974
0.0003805675
0.0003257866
0.00027419703
0.00022560765
0.0001797888
0.00013648534
9.5346747e-05
5.6337384e-05
1.8891205e-05
0.0013574072
0.0013061675
0.0012490427
0.0011870787
0.001121342
0.0010528857
0.00098272036
0.00091178802
0.00084094314
0.00077093783
0.00070241282
0.00063589353
0.00057179039
0.00051040304
0.00045192725
0.00039646432
0.0003440317
0.00029457461
0.00024797782
0.00020407732
0.00016267163
0.0001235342
8.6346071e-05
5.1022758e-05
1.7068733e-05
0.0012041401
0.0011592565
0.0011091631
0.0010547605
0.00099696993
0.00093670514
0.00087484671
0.00081222012
0.00074957815
0.00068758771
0.00062682143
0.00056775313
0.00051075729
0.00045611166
0.00040400265
0.00035453264
0.00030772877
0.00026355254
0.00022190993
0.00018266137
0.00014563166
0.00011062086
7.7344603e-05
4.5713047e-05
1.5285967e-05
0.0010545181
0.0010156521
0.00097223367
0.00092503065
0.00087483079
0.00082241839
0.00076855221
0.00071394683
0.00065925697
0.0006050659
0.00055187764
0.00050011252
0.00045010585
0.0004021096
0.00035629638
0.00031276519
0.00027154858
0.00023262059
0.00019590526
0.00016128513
0.00012860984
9.7704831e-05
6.8329772e-05
4.0400474e-05
1.3519813e-05
0.00090798739
0.0008748513
0.00083780392
0.00079749084
0.00075457648
0.00070972404
0.00066357748
0.00061674556
0.00056978836
0.0005232071
0.00047743727
0.00043284433
0.00038972212
0.00034829376
0.00030871454
0.0002710765
0.00023541405
0.00020171063
0.00016990567
0.00013990189
0.00011157259
8.4769059e-05
5.9292449e-05
3.5069403e-05
1.1756818e-05
0.00076405194
0.00073640428
0.00070547198
0.00067178749
0.00063589988
0.00059835863
0.00055969881
0.00052042778
0.00048101398
0.00044187833
0.00040338805
0.00036585296
0.00032952371
0.00029459226
0.0002611939
0.0002294108
0.00019927646
0.00017078108
0.00014387729
0.00011848619
9.4503548e-05
7.1806129e-05
5.0230901e-05
2.9718146e-05
9.9762742e-06
0.00062226784
0.00059990925
0.0005748804
0.00054760767
0.00051853154
0.00048809376
0.00045672541
0.00042483628
0.00039280592
0.00036097638
0.00032964715
0.00029907195
0.0002694571
0.00024096165
0.00021369884
0.00018773875
0.00016311172
0.00013981261
0.0001178053
9.702758e-05
7.7396127e-05
5.8811669e-05
4.1142153e-05
2.4344496e-05
8.1769486e-06
0.00048224507
0.00046501514
0.00044571897
0.00042468257
0.00040224316
0.00037873955
0.00035450293
0.00032984872
0.00030506974
0.00028043056
0.00025616351
0.00023246595
0.00020949911
0.00018738788
0.00016622189
0.0001460574
0.00012691985
0.00010880702
9.1692441e-05
7.5529068e-05
6.0252979e-05
4.5787274e-05
3.2028259e-05
1.895114e-05
6.3670164e-06
0.00034357114
0.00033134713
0.00031765275
0.00030271792
0.00028678077
0.00027008077
0.00025285238
0.00023531917
0.00021768904
0.00020015018
0.00018286818
0.00016598408
0.00014961336
0.00013384591
0.00011874658
0.00010435649
9.069482e-05
7.7760939e-05
6.5536771e-05
5.3989266e-05
4.3072905e-05
3.2732401e-05
2.2891013e-05
1.3542378e-05
4.5518359e-06
0.00020611653
0.00019880545
0.00019061312
0.00018167647
0.00017213744
0.00016213889
0.00015182078
0.00014131675
0.00013075116
0.00012023674
0.0001098728
9.9744055e-05
8.9920058e-05
8.0455047e-05
7.1388345e-05
6.2745068e-05
5.4537172e-05
4.6764712e-05
3.9417188e-05
3.2474948e-05
2.5910517e-05
1.9690095e-05
1.3763843e-05
8.1404991e-06
2.7399598e-06
6.8765223e-05
6.6327494e-05
6.3595759e-05
6.0615619e-05
5.7434354e-05
5.409957e-05
5.0657926e-05
4.7153984e-05
4.3629236e-05
4.0121298e-05
3.6663329e-05
3.328361e-05
3.0005409e-05
2.6846858e-05
2.3821148e-05
2.093672e-05
1.8197625e-05
1.5603942e-05
1.3152211e-05
1.0835885e-05
8.6455676e-06
6.5701161e-06
4.5848042e-06
2.7087052e-06
9.1612136e-07
)
;

boundaryField
{
    Walls
    {
        type            zeroGradient;
    }
    Inlet
    {
        type            fixedValue;
        value           uniform 500;
    }
    Outlet
    {
        type            fixedValue;
        value           uniform 0;
    }
    Front
    {
        type            wedge;
    }
    Back
    {
        type            wedge;
    }
    defaultFaces
    {
        type            empty;
    }
}


// ************************************************************************* //
