/*--------------------------------*- C++ -*----------------------------------*\
| =========                 |                                                 |
| \\      /  F ield         | OpenFOAM: The Open Source CFD Toolbox           |
|  \\    /   O peration     | Version:  4.0                                   |
|   \\  /    A nd           | Web:      www.OpenFOAM.org                      |
|    \\/     M anipulation  |                                                 |
\*---------------------------------------------------------------------------*/
FoamFile
{
    version     2.0;
    format      ascii;
    class       surfaceScalarField;
    location    "0.43";
    object      phi;
}
// * * * * * * * * * * * * * * * * * * * * * * * * * * * * * * * * * * * * * //

dimensions      [0 3 -1 0 0 0 0];

internalField   nonuniform List<scalar> 
3364
(
-1.2803139e-10
1.7820653e-08
-6.2109895e-10
4.9440958e-08
8.9048427e-08
-8.6337117e-11
1.790695e-08
-2.2393297e-09
5.1593957e-08
8.6809119e-08
4.9782597e-10
1.7409056e-08
-2.3537057e-09
5.4445491e-08
8.4455414e-08
2.5714571e-10
1.7151866e-08
3.2944356e-10
5.437317e-08
8.4784822e-08
-1.3738666e-10
1.7289219e-08
1.9595181e-09
5.2276205e-08
8.6744288e-08
8.0488987e-11
1.7208709e-08
1.2956185e-09
5.1061015e-08
8.8039863e-08
3.4553339e-10
1.6863149e-08
-1.1436147e-09
5.2550132e-08
8.6896216e-08
-1.608536e-10
1.7023981e-08
-1.5266546e-09
5.3915932e-08
8.536953e-08
-6.2984103e-10
1.7653811e-08
4.6302529e-10
5.2823029e-08
8.5832525e-08
6.116106e-11
1.7592601e-08
7.2244191e-10
5.2161687e-08
8.6554942e-08
1.164679e-09
1.6427858e-08
1.1030251e-10
5.3216005e-08
8.6665211e-08
4.0821217e-10
1.6019596e-08
-6.9208716e-11
5.3693357e-08
8.6595964e-08
-5.5360806e-10
1.6573169e-08
5.1474511e-10
5.2624926e-08
8.7110661e-08
-2.3888342e-10
1.6812018e-08
1.1220524e-09
5.1263938e-08
8.8232688e-08
-5.0105034e-11
1.6862101e-08
7.1251016e-10
5.0501314e-08
8.8945178e-08
-4.3039352e-10
1.7292484e-08
-6.7079753e-10
5.0741709e-08
8.8274355e-08
-6.2321414e-10
1.7915663e-08
-2.6965478e-10
5.0388115e-08
8.8004676e-08
-5.1488244e-11
1.7967099e-08
1.7560518e-10
5.0160976e-08
8.8180248e-08
2.3371041e-10
1.7733372e-08
-1.1139768e-10
5.0506046e-08
8.8068797e-08
-1.9467521e-10
1.7928009e-08
-8.4954666e-11
5.0396289e-08
8.7983808e-08
2.7637632e-12
1.7925176e-08
1.7512994e-10
5.0223878e-08
8.8158911e-08
5.1240435e-10
1.7412732e-08
3.9600342e-10
5.0340209e-08
8.8554854e-08
4.4064568e-10
1.6972045e-08
-2.2843691e-10
5.1009195e-08
8.832635e-08
9.4531627e-11
1.6877453e-08
-9.9753506e-10
5.210119e-08
8.7328778e-08
-7.7644998e-10
1.7653861e-08
-1.6092156e-09
5.2933969e-08
8.5719535e-08
-5.4264369e-10
1.8196511e-08
-1.0387975e-09
5.3430132e-08
8.4680705e-08
-2.5214769e-12
1.8198996e-08
6.7727332e-10
5.2750312e-08
8.5357943e-08
-3.883238e-10
1.858728e-08
9.5224307e-10
5.1409744e-08
8.6310166e-08
2.5321593e-10
1.8334077e-08
3.796054e-10
5.1283451e-08
8.6689806e-08
2.1901937e-09
1.6144091e-08
5.0001346e-09
4.8473639e-08
9.1689932e-08
1.1546607e-08
4.5968671e-09
4.8932772e-08
1.1085608e-08
1.1565503e-08
1.2905461e-07
5.0712533e-09
-4.7487164e-10
1.7544437e-08
-1.3891056e-09
-1.3015082e-09
3.0409513e-08
-3.6181018e-10
-1.1303196e-10
-1.4225614e-09
-3.2829564e-10
-3.7073635e-10
-2.3532493e-09
-1.0284558e-10
-1.0172214e-11
-3.9722256e-10
-3.3884746e-11
-2.1386963e-11
-7.4653439e-10
-1.4978061e-11
4.807542e-12
-6.5043736e-11
1.6185518e-11
3.9329716e-11
-1.2575475e-10
-1.9957845e-12
6.8034638e-12
-8.5560209e-12
2.2746105e-11
4.31562e-11
-1.2381866e-11
5.6959546e-13
6.2337105e-12
3.2614678e-12
2.0053936e-11
3.5947234e-11
1.0470349e-11
1.4521014e-12
4.7815409e-12
6.6103826e-12
1.4895463e-11
2.4972823e-11
1.7584448e-11
1.2744007e-12
3.5070884e-12
5.4281472e-12
1.0741582e-11
1.7869556e-11
1.2531209e-11
6.5956556e-13
2.8475239e-12
2.9495393e-12
8.4516033e-12
1.3905577e-11
6.9135069e-12
2.6881999e-13
2.5787278e-12
1.1460891e-12
7.5743918e-12
1.2125735e-11
2.9260206e-12
1.679835e-13
2.4107682e-12
6.2054396e-13
7.1218895e-12
1.1301027e-11
1.4453484e-12
1.6380686e-13
2.2469797e-12
7.2959999e-13
6.556137e-12
1.0448922e-11
1.5817672e-12
2.2722797e-13
2.0197611e-12
8.4046101e-13
5.9429247e-12
9.4920808e-12
1.7973346e-12
2.2045767e-13
1.799309e-12
8.4689259e-13
5.3164994e-12
8.4725227e-12
1.8664643e-12
2.0127315e-13
1.5980395e-12
8.0936299e-13
4.7084149e-12
7.5084575e-12
1.7734332e-12
1.7909338e-13
1.4189489e-12
7.0870745e-13
4.1788048e-12
6.6815171e-12
1.5356513e-12
1.5370615e-13
1.2652452e-12
6.0221408e-13
3.7303002e-12
5.9787904e-12
1.3049439e-12
1.3114789e-13
1.1340992e-12
5.134632e-13
3.3479878e-12
5.370297e-12
1.121959e-12
1.1536074e-13
1.0187398e-12
4.5202917e-13
3.0113211e-12
4.8389713e-12
9.8335625e-13
1.0267393e-13
9.1606667e-13
4.0170172e-13
2.7122939e-12
4.3652863e-12
8.7538673e-13
9.1729368e-14
8.2433755e-13
3.6105884e-13
2.442964e-12
3.9384888e-12
7.8785492e-13
8.2319614e-14
7.4201779e-13
3.2423598e-13
2.2010463e-12
3.5536029e-12
7.0911898e-13
7.4596682e-14
6.6742065e-13
2.9286272e-13
1.9827781e-12
3.2094123e-12
6.3704949e-13
6.6159503e-14
6.0126057e-13
2.6207403e-13
1.7868613e-12
2.8970477e-12
5.744343e-13
5.8169453e-14
5.4309053e-13
2.3060832e-13
1.6144201e-12
2.6198416e-12
5.0781018e-13
5.0846905e-14
4.9224304e-13
2.0155626e-13
1.4637085e-12
2.3764725e-12
4.4492138e-13
4.3972628e-14
4.4826987e-13
1.7453135e-13
1.3331477e-12
2.1621311e-12
3.8886909e-13
3.9014116e-14
4.0925527e-13
1.5406151e-13
1.2180985e-12
1.9814009e-12
3.3478852e-13
3.3839046e-14
3.7541584e-13
1.3364774e-13
1.1182883e-12
1.8221818e-12
2.9286407e-13
2.9159322e-14
3.4625622e-13
1.1572814e-13
1.0317182e-12
1.6815246e-12
2.5638315e-13
2.4764174e-14
3.2149185e-13
9.8163096e-14
9.5831835e-13
1.5576405e-12
2.2204557e-13
2.1739955e-14
2.9975178e-13
8.6296996e-14
8.9376065e-13
1.4589797e-12
1.849565e-13
1.8648785e-14
2.8110297e-13
7.3829287e-14
8.3857976e-13
1.3712785e-12
1.6152976e-13
1.5964793e-14
2.6513822e-13
6.3292323e-14
7.9125208e-13
1.294967e-12
1.3960349e-13
1.371185e-14
2.5142649e-13
5.4392474e-14
7.5057153e-13
1.2293704e-12
1.199892e-13
1.1794942e-14
2.3963172e-13
4.6793119e-14
7.1557362e-13
1.1729009e-12
1.0326306e-13
1.0149887e-14
2.2948205e-13
4.028577e-14
6.8543816e-13
1.1241824e-12
8.900509e-14
8.7239637e-15
2.2075834e-13
3.4620203e-14
6.595425e-13
1.0821455e-12
7.6658141e-14
7.5569484e-15
2.1320167e-13
2.9938771e-14
6.3716136e-13
1.0462875e-12
6.5798003e-14
6.4659486e-15
2.0673602e-13
2.5608005e-14
6.1802009e-13
1.0154949e-12
5.6402029e-14
5.5064584e-15
2.0122988e-13
2.1818144e-14
6.0170926e-13
9.8917732e-13
4.8137266e-14
4.6609468e-15
1.9656926e-13
1.8466568e-14
5.8790455e-13
9.6690104e-13
4.074445e-14
3.9047596e-15
1.9266484e-13
1.5478706e-14
5.7633154e-13
9.48237e-13
3.4144414e-14
3.223041e-15
1.8944213e-13
1.2802732e-14
5.6675282e-13
9.3278697e-13
2.8254457e-14
2.6080011e-15
1.8683448e-13
1.0327205e-14
5.590346e-13
9.2029408e-13
2.2821818e-14
2.0612808e-15
1.8477354e-13
8.22687e-15
5.5287001e-13
9.1029407e-13
1.8228646e-14
1.5955636e-15
1.8317834e-13
6.4636902e-15
5.4800293e-13
9.0237288e-13
1.4386686e-14
1.2080125e-15
1.819707e-13
4.7335828e-15
5.4447844e-13
8.9664999e-13
1.0458354e-14
6.8691554e-16
2.6362431e-15
5.7955197e-15
1.3855863e-07
-9.5093627e-09
-8.8119949e-09
1.4736427e-07
2.2236202e-08
-1.3372902e-09
-1.2921515e-09
1.4715793e-08
-3.2676615e-09
-4.2276576e-10
-4.94752e-10
-4.0649232e-09
-1.1256433e-09
-4.3608345e-11
-1.0295731e-10
-1.517379e-09
-2.189757e-10
4.9622045e-11
3.0930149e-11
-3.5284839e-10
-2.2019132e-11
5.9261e-11
6.2944867e-11
-5.4031115e-11
2.1118548e-11
4.8612647e-11
5.4120202e-11
2.9942921e-11
3.2995527e-11
3.3201001e-11
3.871838e-11
4.8396506e-11
2.2792225e-11
2.293966e-11
2.5771047e-11
3.5739055e-11
1.2205271e-11
1.7647858e-11
1.9822067e-11
1.8154169e-11
4.942822e-12
1.5631176e-11
1.7637003e-11
7.1280307e-12
2.6058511e-12
1.4470806e-11
1.6824219e-11
3.4188026e-12
2.550891e-12
1.3501768e-11
1.5869297e-11
3.5059248e-12
2.932354e-12
1.2366792e-11
1.4559838e-11
4.2418658e-12
3.2062078e-12
1.1027064e-11
1.3099979e-11
4.666082e-12
2.9787421e-12
9.8217585e-12
1.1665601e-11
4.4131216e-12
2.5948022e-12
8.7626087e-12
1.0424795e-11
3.835605e-12
2.2003763e-12
7.8671775e-12
9.4005167e-12
3.2246528e-12
1.8787779e-12
7.1103595e-12
8.5057378e-12
2.7735543e-12
1.6583065e-12
6.4354089e-12
7.7191572e-12
2.4448836e-12
1.4970885e-12
5.8137051e-12
7.0153808e-12
2.2008602e-12
1.3475116e-12
5.2540449e-12
6.3593709e-12
2.0035149e-12
1.2142344e-12
4.7489243e-12
5.7584546e-12
1.8151425e-12
1.0902571e-12
4.2957107e-12
5.21639e-12
1.6323129e-12
9.7782267e-13
3.8923158e-12
4.7347361e-12
1.4594675e-12
8.746119e-13
3.5255076e-12
4.3064063e-12
1.3029328e-12
7.6774106e-13
3.2026819e-12
3.9187128e-12
1.1554264e-12
6.6984262e-13
2.921703e-12
3.5814825e-12
1.0070655e-12
5.7766598e-13
2.6788208e-12
3.2879824e-12
8.7115979e-13
5.0649055e-13
2.4651904e-12
3.0307765e-12
7.6369111e-13
4.410901e-13
2.2804802e-12
2.8090449e-12
6.6281726e-13
3.8048009e-13
2.1220431e-12
2.6150728e-12
5.7444875e-13
3.2199274e-13
1.985005e-12
2.4428571e-12
4.942059e-13
2.8126315e-13
1.8652704e-12
2.3069342e-12
4.1718452e-13
2.4106124e-13
1.7638123e-12
2.1871402e-12
3.6085464e-13
2.0705131e-13
1.6767503e-12
2.0823942e-12
3.1179761e-13
1.7845657e-13
1.6015576e-12
1.9918868e-12
2.6896494e-13
1.5393458e-13
1.5366293e-12
1.9139383e-12
2.3188462e-13
1.3273621e-13
1.4805528e-12
1.846763e-12
1.9991363e-13
1.135581e-13
1.4327945e-12
1.7888602e-12
1.7146325e-13
9.7452926e-14
1.3917457e-12
1.7392904e-12
1.4702537e-13
8.3234739e-14
1.3566504e-12
1.6970353e-12
1.2549272e-13
7.045031e-14
1.3269469e-12
1.661242e-12
1.0624666e-13
5.901626e-14
1.3020774e-12
1.6312926e-12
8.8968783e-14
4.8852104e-14
1.2814823e-12
1.6064985e-12
7.3649411e-14
3.953852e-14
1.264768e-12
1.5863362e-12
5.9703928e-14
3.1640332e-14
1.2513589e-12
1.5700887e-12
4.7891132e-14
2.5009348e-14
1.2407388e-12
1.5572022e-12
3.7899155e-14
1.8179621e-14
1.2330202e-12
1.5477578e-12
2.7627532e-14
1.0096625e-14
1.5419017e-14
5.4740868e-12
-5.4728444e-12
1.0159393e-11
-4.6895133e-12
1.2690067e-11
-2.5346424e-12
1.3717022e-11
-1.0303127e-12
1.2739986e-11
9.7428984e-13
1.0151264e-11
2.5865432e-12
5.4516814e-12
4.697903e-12
-1.9358832e-12
7.3863188e-12
-1.2477163e-11
1.0540391e-11
-2.6433272e-11
1.3955504e-11
-4.3752609e-11
1.7318938e-11
-6.4262667e-11
2.0509779e-11
-8.7641776e-11
2.3378881e-11
-1.1340209e-10
2.5760074e-11
-1.409645e-10
2.7562115e-11
-1.6968949e-10
2.8724606e-11
-1.9882439e-10
2.9134454e-11
-2.2731594e-10
2.849103e-11
-2.5421469e-10
2.6898201e-11
-2.7862555e-10
2.4410318e-11
-2.9969807e-10
2.1072022e-11
-3.1673693e-10
1.7038433e-11
-3.2917802e-10
1.2440745e-11
-3.3648041e-10
7.3021405e-12
1.8610735e-12
-3.2228379e-11
2.6759556e-11
-7.4041025e-11
3.7129214e-11
-1.2693693e-10
5.0368281e-11
-1.9032649e-10
6.2366596e-11
-2.655094e-10
7.6164643e-11
-3.5266052e-10
8.9745027e-11
-4.5339126e-10
1.0543585e-10
-5.6886622e-10
1.2286822e-10
-6.9836168e-10
1.4004241e-10
-8.403911e-10
1.5599101e-10
-9.9291325e-10
1.6984667e-10
-1.1539447e-09
1.8154628e-10
-1.3213745e-09
1.908131e-10
-1.4931581e-09
1.975475e-10
-1.6674026e-09
2.0180988e-10
-1.8431032e-09
2.0442787e-10
-2.0302848e-09
2.1631811e-10
-2.2106531e-09
2.0886088e-10
-2.3758873e-09
1.9213331e-10
-2.5208429e-09
1.6936623e-10
-2.6416619e-09
1.4189093e-10
-2.7353389e-09
1.107148e-10
-2.7993701e-09
7.6471002e-11
-2.8298078e-09
3.7738639e-11
9.5757217e-12
-1.0796567e-10
1.3473392e-10
-2.4302521e-10
1.7220204e-10
-4.0239673e-10
2.0975515e-10
-5.8908414e-10
2.4906983e-10
-8.0607988e-10
2.9317592e-10
-1.0564661e-09
3.4014609e-10
-1.3459998e-09
3.9498325e-10
-1.7408082e-09
5.1768906e-10
-2.1772018e-09
5.7644699e-10
-2.627089e-09
6.0588769e-10
-3.0752556e-09
6.1802129e-10
-3.5120232e-09
6.183206e-10
-3.9304006e-09
6.0919588e-10
-4.3245468e-09
5.9169784e-10
-4.6885008e-09
5.657668e-10
-5.0166202e-09
5.3254925e-10
-5.2933848e-09
4.9308359e-10
-5.532305e-09
4.4778121e-10
-5.7376582e-09
3.9748572e-10
-5.9123659e-09
3.4407239e-10
-6.0578119e-09
2.8733471e-10
-6.1744952e-09
2.2739532e-10
-6.262455e-09
1.6442752e-10
-6.3236373e-09
9.8917257e-11
3.2811778e-11
-3.5721423e-10
4.9196503e-10
-7.592568e-10
5.7426973e-10
-1.22111e-09
6.7163572e-10
-1.9619311e-09
9.899158e-10
-2.7705544e-09
1.1018208e-09
-3.5505257e-09
1.1201353e-09
-4.2507567e-09
1.0952289e-09
-4.7755542e-09
1.0424983e-09
-5.1703659e-09
9.7126816e-10
-5.4528296e-09
8.88359e-10
-5.633149e-09
7.9834652e-10
-5.7217812e-09
7.0695736e-10
-5.7269618e-09
6.1437979e-10
-5.6534342e-09
5.1817263e-10
-5.516506e-09
4.2884028e-10
-5.3326128e-09
3.4865698e-10
-5.117959e-09
2.7843007e-10
-4.8887679e-09
2.1859004e-10
-4.6611006e-09
1.6981787e-10
-4.4537445e-09
1.3671542e-10
-4.275281e-09
1.0886997e-10
-4.1328575e-09
8.4970213e-11
-4.0322654e-09
6.3833694e-11
-3.9769891e-09
4.3638871e-11
2.3948766e-11
-2.2071516e-09
2.6991441e-09
-3.8896137e-09
2.256762e-09
-5.2908847e-09
2.0729358e-09
-5.9021801e-09
1.6012318e-09
-5.9042717e-09
1.1039293e-09
-5.4271312e-09
6.4300823e-10
-4.6593951e-09
3.2750385e-10
-3.6659638e-09
4.9076247e-11
-2.5086755e-09
-1.8601238e-10
-1.2799004e-09
-3.4040977e-10
-5.163109e-11
-4.2991873e-10
1.1760474e-09
-5.2072236e-10
2.4701627e-09
-6.7973667e-10
3.8789016e-09
-8.9056615e-10
5.2555859e-09
-9.4784211e-10
6.5610503e-09
-9.5680374e-10
7.772322e-09
-9.3283613e-10
8.8741597e-09
-8.832404e-10
9.8564577e-09
-8.1247132e-10
1.0715528e-08
-7.223446e-10
1.1440392e-08
-6.1598163e-10
1.2021068e-08
-4.9569205e-10
1.2447972e-08
-3.6305536e-10
1.2712033e-08
-2.204066e-10
-6.6032964e-11
1.2315963e-09
1.4676352e-09
4.5863093e-09
-1.0979016e-09
8.4111941e-09
-1.7518833e-09
1.2133721e-08
-2.1212685e-09
1.5826724e-08
-2.5890499e-09
1.9472319e-08
-3.0025586e-09
2.3039998e-08
-3.2401429e-09
2.6379541e-08
-3.2904291e-09
2.940512e-08
-3.2115489e-09
3.2128302e-08
-3.0635457e-09
3.4578685e-08
-2.8802521e-09
3.6725073e-08
-2.6670578e-09
3.8496252e-08
-2.4508612e-09
3.9848288e-08
-2.242547e-09
4.0925808e-08
-2.0253068e-09
4.1778176e-08
-1.8091163e-09
4.2444674e-08
-1.5992788e-09
4.2958266e-08
-1.3967768e-09
4.3347571e-08
-1.2017217e-09
4.3638386e-08
-1.0131046e-09
4.3851875e-08
-8.2941524e-10
4.400468e-08
-6.4844319e-10
4.4108894e-08
-4.6721494e-10
4.4171614e-08
-2.8307389e-10
-8.993298e-11
1.5108916e-07
-2.2560185e-09
1.4929921e-07
6.9297267e-10
1.4633975e-07
1.2083717e-09
1.4257178e-07
1.647392e-09
1.3782183e-07
2.1615121e-09
1.322096e-07
2.6101956e-09
1.2608212e-07
2.8877899e-09
1.1981652e-07
2.9755494e-09
1.1368485e-07
2.9204578e-09
1.0781939e-07
2.8021961e-09
1.0227743e-07
2.6619644e-09
9.7119316e-08
2.4912739e-09
9.236943e-08
2.2992233e-09
8.8029444e-08
2.0976173e-09
8.4110032e-08
1.8942652e-09
8.0607532e-08
1.6935299e-09
7.7510777e-08
1.4976099e-09
7.480598e-08
1.3081429e-09
7.2479004e-08
1.1253679e-09
7.0517298e-08
9.4870661e-10
6.8911223e-08
7.7675908e-10
6.7655356e-08
6.0751665e-10
6.6750108e-08
4.3812112e-10
6.620123e-08
2.6588818e-10
8.493325e-11
1.3949083e-08
-1.4891806e-09
1.626392e-08
-1.6217479e-09
1.8849972e-08
-1.3775646e-09
2.1517157e-08
-1.0196809e-09
2.4240407e-08
-5.6163008e-10
2.7110906e-08
-2.6020221e-10
2.9984684e-08
1.4104712e-11
3.2707251e-08
2.5307127e-10
3.5244946e-08
3.8285138e-10
3.756004e-08
4.8718971e-10
3.9615231e-08
6.0686024e-10
4.1213828e-08
8.9276231e-10
4.2481837e-08
1.0312974e-09
4.3489045e-08
1.0904908e-09
4.4277476e-08
1.1059126e-09
4.4881796e-08
1.0892873e-09
4.5335735e-08
1.0437453e-09
4.5668358e-08
9.7559204e-10
4.5905605e-08
8.8819035e-10
4.6070199e-08
7.8418012e-10
4.6181424e-08
6.6559972e-10
4.6255303e-08
5.3370182e-10
4.6302812e-08
3.9067319e-10
4.6331036e-08
2.3772385e-10
7.2025765e-11
-4.8235886e-09
-7.3052455e-10
-5.4742085e-09
-9.7113604e-10
-5.7887121e-09
-1.0630697e-09
-5.7066865e-09
-1.1017149e-09
-5.1702357e-09
-1.0980877e-09
-4.3669925e-09
-1.0634502e-09
-3.3484431e-09
-1.0044471e-09
-2.1688139e-09
-9.2655766e-10
-9.4914834e-10
-8.3681133e-10
2.8079546e-10
-7.4274894e-10
1.5326614e-09
-6.4499837e-10
2.9689833e-09
-5.4355002e-10
4.4450709e-09
-4.4477837e-10
5.8886173e-09
-3.5304164e-10
7.265038e-09
-2.7049237e-10
8.5574577e-09
-2.0311505e-10
9.7614094e-09
-1.6018782e-10
1.086075e-08
-1.2372869e-10
1.1843042e-08
-9.4081713e-11
1.2698242e-08
-7.0997963e-11
1.3417752e-08
-5.3889065e-11
1.3993208e-08
-4.1732829e-11
1.4417026e-08
-3.3123012e-11
1.468054e-08
-2.5768829e-11
-1.6330807e-11
-2.0807094e-09
-1.6719436e-10
-2.8279469e-09
-2.2390033e-10
-3.6123107e-09
-2.7871011e-10
-4.3766826e-09
-3.3734966e-10
-5.0659874e-09
-4.0879145e-10
-5.586324e-09
-5.4312328e-10
-5.9898552e-09
-6.0092628e-10
-6.2820407e-09
-6.3438278e-10
-6.4668591e-09
-6.5200356e-10
-6.5516685e-09
-6.5795002e-10
-6.5424959e-09
-6.5418097e-10
-6.4435623e-09
-6.4249315e-10
-6.2654931e-09
-6.2285643e-10
-6.0228141e-09
-5.9572868e-10
-5.7312379e-09
-5.620759e-10
-5.4123525e-09
-5.2200695e-10
-5.0926726e-09
-4.798735e-10
-4.7821325e-09
-4.3427399e-10
-4.4907232e-09
-3.8549555e-10
-4.2280951e-09
-3.3363006e-10
-4.0032189e-09
-2.7876886e-10
-3.8239597e-09
-2.2099524e-10
-3.6966672e-09
-1.6041856e-10
-3.6251259e-09
-9.7312968e-11
-3.2990527e-11
-5.3490265e-10
1.4862534e-11
-7.4186177e-10
-1.6938782e-11
-9.834266e-10
-3.7143461e-11
-1.2634926e-09
-5.728259e-11
-1.5891652e-09
-8.3118683e-11
-2.0226362e-09
-1.096531e-10
-2.4889534e-09
-1.3461124e-10
-2.9650522e-09
-1.5828716e-10
-3.4372644e-09
-1.7979562e-10
-3.8962756e-09
-1.9894395e-10
-4.3350167e-09
-2.1544579e-10
-4.7472543e-09
-2.3026201e-10
-5.122318e-09
-2.4779983e-10
-5.441642e-09
-2.7641219e-10
-5.725675e-09
-2.7805062e-10
-5.9766024e-09
-2.7108747e-10
-6.1982366e-09
-2.5824746e-10
-6.3925823e-09
-2.3993642e-10
-6.561376e-09
-2.1671002e-10
-6.7059954e-09
-1.8901888e-10
-6.827415e-09
-1.5735743e-10
-6.9260739e-09
-1.2234453e-10
-7.0016868e-09
-8.4813719e-11
-7.0538311e-09
-4.517659e-11
-9.9163602e-12
-1.0307789e-10
6.3910549e-11
-1.7683876e-10
5.6823327e-11
-2.6696771e-10
5.2986595e-11
-3.7216607e-10
4.7916699e-11
-4.9548461e-10
4.0200525e-11
-6.3685172e-10
3.1714374e-11
-7.9434955e-10
2.2886575e-11
-9.6622009e-10
1.3582979e-11
-1.1501366e-09
4.1200598e-12
-1.3437384e-09
-5.3433338e-12
-1.5450307e-09
-1.4155071e-11
-1.7532053e-09
-2.2089332e-11
-1.9717807e-09
-2.9226709e-11
-2.2152865e-09
-3.290914e-11
-2.458126e-09
-3.5214245e-11
-2.6927308e-09
-3.6486069e-11
-2.9142548e-09
-3.6727219e-11
-3.1185065e-09
-3.5688665e-11
-3.3018087e-09
-3.3412091e-11
-3.460922e-09
-2.9909957e-11
-3.5928525e-09
-2.5431397e-11
-3.6949894e-09
-2.0212275e-11
-3.7653751e-09
-1.4432614e-11
-3.8023267e-09
-8.2294828e-12
-2.0346292e-12
3.4981493e-11
5.8871809e-11
3.1538483e-11
6.0266038e-11
2.2269272e-11
6.2255409e-11
7.0714719e-12
6.3114031e-11
-1.5203803e-11
6.2475277e-11
-4.3916502e-11
6.0426501e-11
-7.8636111e-11
5.7605566e-11
-1.1916995e-10
5.4116158e-11
-1.6523915e-10
5.0188554e-11
-2.1696096e-10
4.6377721e-11
-2.7331037e-10
4.2193533e-11
-3.3308985e-10
3.7689294e-11
-3.9596236e-10
3.3644879e-11
-4.59741e-10
3.0868515e-11
-5.2320476e-10
2.8248448e-11
-5.8533394e-10
2.5641976e-11
-6.4503345e-10
2.2971082e-11
-7.009672e-10
2.0243818e-11
-7.5178196e-10
1.7401362e-11
-7.9624931e-10
1.4556048e-11
-8.3338188e-10
1.1699815e-11
-8.6243594e-10
8.8404359e-12
-8.8285664e-10
5.9867525e-12
-8.9439493e-10
3.3075495e-12
1.1157067e-12
6.5377527e-11
4.1890528e-11
8.1778411e-11
4.3864813e-11
9.6621473e-11
4.7411963e-11
1.1106691e-10
4.8668209e-11
1.2456496e-10
4.8976846e-11
1.3703052e-10
4.7960591e-11
1.4774048e-10
4.6895283e-11
1.5621301e-10
4.564334e-11
1.626013e-10
4.3800006e-11
1.675192e-10
4.1459596e-11
1.7111096e-10
3.8601587e-11
1.7339579e-10
3.5404296e-11
1.7466469e-10
3.2375838e-11
1.7590966e-10
2.9623436e-11
1.7718885e-10
2.6969168e-11
1.7842988e-10
2.4400878e-11
1.7970181e-10
2.1699114e-11
1.8096113e-10
1.8984486e-11
1.8210483e-10
1.6257671e-11
1.8307053e-10
1.3590372e-11
1.8379379e-10
1.0976602e-11
1.8424096e-10
8.3933326e-12
1.8437868e-10
5.849116e-12
1.8432887e-10
3.3574518e-12
1.015279e-12
5.0121715e-11
2.7507804e-11
6.4998494e-11
2.8987931e-11
8.0581471e-11
3.182886e-11
9.6408811e-11
3.2840737e-11
1.1221165e-10
3.3173884e-11
1.2767098e-10
3.2501159e-11
1.431033e-10
3.1462889e-11
1.5831419e-10
3.0432405e-11
1.729156e-10
2.9198586e-11
1.8683762e-10
2.75376e-11
1.9981753e-10
2.5621727e-11
2.1164146e-10
2.3580458e-11
2.2260361e-10
2.1413805e-11
2.3289735e-10
1.9329838e-11
2.4251006e-10
1.7356633e-11
2.5129457e-10
1.5616566e-11
2.5949462e-10
1.3499288e-11
2.6695972e-10
1.1519629e-11
2.7354822e-10
9.669436e-12
2.7920331e-10
7.9355609e-12
2.838931e-10
6.2871106e-12
2.8753651e-10
4.7502191e-12
2.9006155e-10
3.3243891e-12
2.914559e-10
1.9634132e-12
6.0620486e-13
2.4960559e-11
2.0701474e-11
3.2262226e-11
2.1686305e-11
4.0961741e-11
2.3129374e-11
4.92724e-11
2.4530099e-11
5.7462951e-11
2.4983355e-11
6.5378371e-11
2.4585764e-11
7.3044204e-11
2.379709e-11
8.0632598e-11
2.2844055e-11
8.8109726e-11
2.1721515e-11
9.5162887e-11
2.0484509e-11
1.015923e-10
1.9192394e-11
1.07357e-10
1.7815855e-11
1.1239102e-10
1.6379896e-11
1.1680508e-10
1.4915894e-11
1.206861e-10
1.3475742e-11
1.241735e-10
1.2129303e-11
1.2696984e-10
1.0703091e-11
1.2924847e-10
9.2411448e-12
1.311695e-10
7.7485606e-12
1.3277806e-10
6.3271562e-12
1.3404245e-10
5.0228795e-12
1.3503375e-10
3.7590765e-12
1.3578266e-10
2.5756289e-12
1.3634721e-10
1.3990163e-12
2.7736298e-13
9.1216832e-12
1.8707911e-11
1.1180424e-11
1.9627642e-11
1.3678823e-11
2.0631044e-11
1.6383855e-11
2.1825129e-11
1.8839072e-11
2.2528195e-11
2.0624669e-11
2.280022e-11
2.2345018e-11
2.2076789e-11
2.3917748e-11
2.1271372e-11
2.5231825e-11
2.0407482e-11
2.6172492e-11
1.9543883e-11
2.6844528e-11
1.8520396e-11
2.7214614e-11
1.7445806e-11
2.7219656e-11
1.6374889e-11
2.6819195e-11
1.5316387e-11
2.6115993e-11
1.4178975e-11
2.5274454e-11
1.2970869e-11
2.4299692e-11
1.1677878e-11
2.3197104e-11
1.0343755e-11
2.1959177e-11
8.9865068e-12
2.0670383e-11
7.6159677e-12
1.9439041e-11
6.2542358e-12
1.8306854e-11
4.8912756e-12
1.7343447e-11
3.5390447e-12
1.645693e-11
2.2855437e-12
8.52712e-13
3.8976018e-12
1.8229177e-11
4.182598e-12
1.9342701e-11
4.4277341e-12
2.0385955e-11
4.9166294e-12
2.1336274e-11
5.3399797e-12
2.2104879e-11
5.3814625e-12
2.2758764e-11
5.0045054e-12
2.2453766e-11
4.2932359e-12
2.1982655e-11
3.5017407e-12
2.1198984e-11
2.5808987e-12
2.0464726e-11
1.4714227e-12
1.9629868e-11
1.9266304e-13
1.8724557e-11
-1.4455673e-12
1.8013106e-11
-3.1658817e-12
1.7036683e-11
-4.9657012e-12
1.5978772e-11
-6.6553747e-12
1.4660516e-11
-8.4145937e-12
1.3437066e-11
-1.0248594e-11
1.2177722e-11
-1.1997143e-11
1.0735019e-11
-1.361945e-11
9.2382359e-12
-1.5022529e-11
7.6572748e-12
-1.6156967e-11
6.0256714e-12
-1.6990785e-11
4.3728199e-12
-1.7353109e-11
2.6478269e-12
8.413948e-13
4.2005994e-12
1.7534544e-11
4.6604823e-12
1.8882853e-11
5.0983075e-12
1.9948159e-11
5.5267897e-12
2.0907815e-11
5.9071263e-12
2.172456e-11
6.5653551e-12
2.2100549e-11
6.9940528e-12
2.2025077e-11
6.846006e-12
2.2130705e-11
6.295545e-12
2.1749443e-11
5.6077063e-12
2.1152558e-11
4.7795868e-12
2.0457976e-11
3.8278976e-12
1.967623e-11
3.0043199e-12
1.8836664e-11
2.1543291e-12
1.7886651e-11
1.2948253e-12
1.683825e-11
2.7601325e-13
1.56793e-11
-7.1714609e-13
1.4430195e-11
-1.6524235e-12
1.3112966e-11
-2.5985533e-12
1.1681115e-11
-3.4484207e-12
1.0088068e-11
-4.1738679e-12
8.3826857e-12
-4.7614538e-12
6.6132198e-12
-5.1915755e-12
4.8029035e-12
-5.3485403e-12
2.8047575e-12
8.3613267e-13
5.6155075e-12
1.6160927e-11
6.9200726e-12
1.7578312e-11
8.1892924e-12
1.8678961e-11
9.4924675e-12
1.9604659e-11
1.0856265e-11
2.0360779e-11
1.2161684e-11
2.0795143e-11
1.3415461e-11
2.077131e-11
1.4656624e-11
2.088955e-11
1.5362266e-11
2.1043806e-11
1.5817444e-11
2.0697382e-11
1.6140604e-11
2.0134815e-11
1.6402963e-11
1.9413867e-11
1.6645817e-11
1.8593805e-11
1.6848921e-11
1.7683539e-11
1.6998916e-11
1.6688246e-11
1.7075539e-11
1.5602666e-11
1.7099607e-11
1.4406114e-11
1.7123997e-11
1.3088563e-11
1.7145425e-11
1.1659672e-11
1.7114922e-11
1.0118555e-11
1.7032162e-11
8.4654293e-12
1.6936187e-11
6.709178e-12
1.6905042e-11
4.8340305e-12
1.6726295e-11
2.9834906e-12
1.0992623e-12
6.210857e-12
1.4616167e-11
7.9642212e-12
1.5824963e-11
9.7943167e-12
1.684888e-11
1.1726424e-11
1.7672566e-11
1.3726501e-11
1.8360716e-11
1.5649929e-11
1.8871727e-11
1.7296609e-11
1.9124642e-11
1.9111993e-11
1.9074177e-11
2.0909058e-11
1.9246751e-11
2.2382963e-11
1.9223485e-11
2.3660697e-11
1.8857089e-11
2.4774286e-11
1.8300284e-11
2.5791898e-11
1.7576198e-11
2.673863e-11
1.6736811e-11
2.7612706e-11
1.5814172e-11
2.8416139e-11
1.4799236e-11
2.9153277e-11
1.3668977e-11
2.9808975e-11
1.2432866e-11
3.0381663e-11
1.1086984e-11
3.0864037e-11
9.6361803e-12
3.1245136e-11
8.0843289e-12
3.151544e-11
6.4388723e-12
3.1653743e-11
4.6957232e-12
3.1746222e-11
2.8910119e-12
9.7792284e-13
5.9384563e-12
1.3090838e-11
7.685934e-12
1.4077491e-11
9.52047e-12
1.5014351e-11
1.1473217e-11
1.5719827e-11
1.355124e-11
1.62827e-11
1.5653037e-11
1.6769938e-11
1.7680451e-11
1.7097237e-11
1.9449039e-11
1.7305598e-11
2.1432675e-11
1.7263123e-11
2.3339287e-11
1.7316881e-11
2.5068e-11
1.7128382e-11
2.6572363e-11
1.6795927e-11
2.7994799e-11
1.6153769e-11
2.9274643e-11
1.5456972e-11
3.0477389e-11
1.4611432e-11
3.1598424e-11
1.3678206e-11
3.2631942e-11
1.2635464e-11
3.3577399e-11
1.1487414e-11
3.4414504e-11
1.0249882e-11
3.5133414e-11
8.9172742e-12
3.5723489e-11
7.4942571e-12
3.620787e-11
5.9544932e-12
3.6524204e-11
4.3793906e-12
3.674806e-11
2.6671602e-12
8.4428311e-13
5.2142222e-12
1.1712218e-11
6.6478039e-12
1.2643907e-11
8.265885e-12
1.3396268e-11
9.9930832e-12
1.3992628e-11
1.1787655e-11
1.4488128e-11
1.3665851e-11
1.4891743e-11
1.5568196e-11
1.5194893e-11
1.7454926e-11
1.5418868e-11
1.9196556e-11
1.5521495e-11
2.0951171e-11
1.5562269e-11
2.272674e-11
1.5352815e-11
2.4386481e-11
1.5136188e-11
2.5893223e-11
1.464703e-11
2.7192172e-11
1.4158025e-11
2.8469021e-11
1.3334585e-11
2.9652629e-11
1.24946e-11
3.0736164e-11
1.1551932e-11
3.1721672e-11
1.0501907e-11
3.2614568e-11
9.356988e-12
3.3407908e-11
8.1239358e-12
3.4099036e-11
6.8031313e-12
3.4614715e-11
5.438815e-12
3.50515e-11
3.9426054e-12
3.5299424e-11
2.4192403e-12
7.681477e-13
4.3910159e-12
1.0545845e-11
5.5950784e-12
1.1439835e-11
6.9235694e-12
1.2067767e-11
8.334593e-12
1.2581595e-11
9.8328021e-12
1.298991e-11
1.1395476e-11
1.3329062e-11
1.2994306e-11
1.3596056e-11
1.4606457e-11
1.380671e-11
1.6222345e-11
1.3905601e-11
1.7850219e-11
1.3934389e-11
1.9379995e-11
1.3823035e-11
2.089312e-11
1.3623058e-11
2.2332623e-11
1.3207523e-11
2.3729105e-11
1.2761541e-11
2.4961908e-11
1.2101779e-11
2.608105e-11
1.1375456e-11
2.7042936e-11
1.0590044e-11
2.7979773e-11
9.5650687e-12
2.8827376e-11
8.5093839e-12
2.9560033e-11
7.3912774e-12
3.0160875e-11
6.2022886e-12
3.0671091e-11
4.9285979e-12
3.103311e-11
3.5805845e-12
3.1279788e-11
2.1725636e-12
7.6246316e-13
3.7500402e-12
9.5693458e-12
4.7819999e-12
1.0407862e-11
5.8844095e-12
1.0965344e-11
7.0384462e-12
1.1427545e-11
8.2786585e-12
1.1749685e-11
9.5860728e-12
1.2021635e-11
1.0932861e-11
1.2249255e-11
1.2319128e-11
1.2420431e-11
1.3731762e-11
1.2492957e-11
1.5153204e-11
1.2512938e-11
1.6552863e-11
1.2423366e-11
1.7942908e-11
1.2233005e-11
1.9227594e-11
1.1922829e-11
2.0446543e-11
1.1542585e-11
2.1605582e-11
1.0942735e-11
2.2681162e-11
1.0299871e-11
2.3705865e-11
9.5653365e-12
2.456551e-11
8.705419e-12
2.5319503e-11
7.7553876e-12
2.596396e-11
6.746817e-12
2.6487121e-11
5.6791249e-12
2.6901268e-11
4.5144482e-12
2.7189174e-11
3.2926748e-12
2.7353848e-11
2.0078913e-12
6.5886832e-13
3.2949303e-12
8.7192842e-12
4.2218967e-12
9.4808798e-12
5.1696638e-12
1.0017561e-11
6.1949893e-12
1.0402204e-11
7.2487208e-12
1.0695938e-11
8.3643642e-12
1.0905976e-11
9.5405338e-12
1.1073071e-11
1.0762362e-11
1.1198589e-11
1.1980499e-11
1.1274807e-11
1.3240774e-11
1.125265e-11
1.4493958e-11
1.1170171e-11
1.5728142e-11
1.0998811e-11
1.6919407e-11
1.0731555e-11
1.8095094e-11
1.0366889e-11
1.9159688e-11
9.8781339e-12
2.0153884e-11
9.3056686e-12
2.1076428e-11
8.6427862e-12
2.1900041e-11
7.8818017e-12
2.2628331e-11
7.0270933e-12
2.3251868e-11
6.1232766e-12
2.378688e-11
5.1441103e-12
2.4202931e-11
4.0983938e-12
2.4504584e-11
2.991018e-12
2.4687474e-11
1.8250023e-12
6.0676554e-13
2.9806333e-12
7.9394959e-12
3.8212466e-12
8.6402511e-12
4.6827854e-12
9.1560068e-12
5.5909322e-12
9.4940409e-12
6.5434232e-12
9.7434311e-12
7.5498487e-12
9.8995351e-12
8.5922791e-12
1.0030626e-11
9.6791185e-12
1.0111735e-11
1.0807001e-11
1.0146911e-11
1.1926747e-11
1.013289e-11
1.3052665e-11
1.0044242e-11
1.4172985e-11
9.8784795e-12
1.5272415e-11
9.6321154e-12
1.6343094e-11
9.2962011e-12
1.7347007e-11
8.8742137e-12
1.8288517e-11
8.3641527e-12
1.9158539e-11
7.7727587e-12
1.99452e-11
7.0951365e-12
2.0632621e-11
6.3396682e-12
2.1237123e-11
5.5187717e-12
2.174982e-11
4.6314107e-12
2.2162493e-11
3.6857189e-12
2.2469289e-11
2.6842193e-12
2.2657992e-11
1.6363002e-12
5.4878066e-13
2.7180077e-12
7.2249884e-12
3.4856255e-12
7.8726183e-12
4.2838852e-12
8.3577318e-12
5.1120843e-12
8.6658265e-12
5.9752223e-12
8.8802778e-12
6.9142177e-12
8.9605248e-12
7.8458355e-12
9.0989933e-12
8.8206282e-12
9.1369285e-12
9.8302785e-12
9.1372475e-12
1.0869479e-11
9.0936772e-12
1.1912915e-11
9.000795e-12
1.2939808e-11
8.8515764e-12
1.394414e-11
8.627774e-12
1.4921065e-11
8.319268e-12
1.5852756e-11
7.9425158e-12
1.6722706e-11
7.4941976e-12
1.7535085e-11
6.960375e-12
1.8271522e-11
6.3586954e-12
1.8923499e-11
5.6876883e-12
1.9489944e-11
4.952324e-12
1.9959899e-11
4.1614539e-12
2.0332849e-11
3.3127673e-12
2.0605493e-11
2.4115731e-12
2.0766661e-11
1.4751345e-12
4.9971218e-13
2.4694004e-12
6.5707173e-12
3.1682768e-12
7.173728e-12
3.9140348e-12
7.6119594e-12
4.6759251e-12
7.9039219e-12
5.4716098e-12
8.0845787e-12
6.3113743e-12
8.1207462e-12
7.1597961e-12
8.250558e-12
8.0353539e-12
8.2613576e-12
8.9422238e-12
8.2303653e-12
9.8703759e-12
8.1655135e-12
1.0817826e-11
8.0533342e-12
1.1766505e-11
7.9028878e-12
1.269814e-11
7.6961308e-12
1.3592722e-11
7.4246786e-12
1.4440397e-11
7.0948351e-12
1.524436e-11
6.6902289e-12
1.5984862e-11
6.2198694e-12
1.6658501e-11
5.6850527e-12
1.7259215e-11
5.086972e-12
1.7775929e-11
4.4356079e-12
1.8211354e-11
3.7260278e-12
1.8548311e-11
2.9758095e-12
1.8788642e-11
2.1712415e-12
1.8928215e-11
1.335563e-12
4.2794761e-13