/*--------------------------------*- C++ -*----------------------------------*\
| =========                 |                                                 |
| \\      /  F ield         | OpenFOAM: The Open Source CFD Toolbox           |
|  \\    /   O peration     | Version:  4.0                                   |
|   \\  /    A nd           | Web:      www.OpenFOAM.org                      |
|    \\/     M anipulation  |                                                 |
\*---------------------------------------------------------------------------*/
FoamFile
{
    version     2.0;
    format      ascii;
    class       volVectorField;
    location    "0.43";
    object      U;
}
// * * * * * * * * * * * * * * * * * * * * * * * * * * * * * * * * * * * * * //

dimensions      [0 1 -1 0 0 0 0];

internalField   nonuniform List<vector> 
1740
(
(1.6204192 0.0019517759 4.5905158e-06)
(1.5064936 -0.012446521 8.9155173e-07)
(1.6434868 -0.011210902 8.200807e-08)
(1.6620644 0.0078084946 8.6966649e-06)
(1.5369975 -0.036901818 1.4185532e-06)
(1.6493669 -0.0318842 2.9400451e-07)
(1.6325411 0.018438458 1.119148e-05)
(1.6285889 -0.022750933 2.5613907e-06)
(1.5287505 -0.028602711 4.0451004e-07)
(1.5818166 0.00018083787 1.3568679e-05)
(1.7310902 0.013899639 3.2322144e-06)
(1.5703093 0.0028352535 5.8663538e-07)
(1.5918472 -0.0087651209 1.4955699e-05)
(1.645157 0.026168814 4.3737165e-06)
(1.5809316 0.023322202 7.8230164e-07)
(1.6117526 0.0010627881 1.6591098e-05)
(1.5557604 0.020619266 5.1076097e-06)
(1.6217043 0.009826536 9.4537488e-07)
(1.529617 0.005698658 1.7251626e-05)
(1.5496964 -0.010103897 5.8571997e-06)
(1.6194475 -0.011286945 1.1533747e-06)
(1.5453622 -0.010032267 1.8241655e-05)
(1.6512686 -0.024085542 6.6742865e-06)
(1.5477025 -0.010573657 1.3336766e-06)
(1.5723882 -0.019510233 1.8608791e-05)
(1.6549112 -0.0027759989 7.3003287e-06)
(1.5774169 -0.00085055827 1.5220776e-06)
(1.6529735 0.011552292 1.8970189e-05)
(1.5499522 0.011539269 7.954225e-06)
(1.5522222 0.00044665681 1.7231102e-06)
(1.5702959 0.035292885 1.9469971e-05)
(1.5996145 0.025763419 8.5479151e-06)
(1.5883664 -0.00011880012 1.9581605e-06)
(1.4486075 0.0059451519 1.9908002e-05)
(1.6885006 0.011817968 9.1655204e-06)
(1.6298001 -2.9433405e-05 2.1383689e-06)
(1.4642309 -0.022588648 2.0237515e-05)
(1.589433 -0.0026123585 9.6176644e-06)
(1.5547179 0.0055431495 2.3627104e-06)
(1.5788757 -0.0099470914 2.0405857e-05)
(1.6074335 0.0085723433 1.0104402e-05)
(1.599476 0.0055409703 2.5004306e-06)
(1.5905046 -0.0020939997 2.1041149e-05)
(1.5962137 0.0066236818 1.0660799e-05)
(1.6994578 0.0048585441 2.7257317e-06)
(1.5083341 -0.015432227 2.1145867e-05)
(1.5106373 -0.016115916 1.1133567e-05)
(1.6185736 -0.0044380726 2.938487e-06)
(1.5853974 -0.020592252 2.1146949e-05)
(1.5333414 -0.012983784 1.1428225e-05)
(1.5473269 -0.0033123408 3.0900146e-06)
(1.698149 -0.0056322919 2.1393011e-05)
(1.5382139 0.003652252 1.1914291e-05)
(1.6415221 0.0030565144 3.267671e-06)
(1.6328303 0.0071054223 2.1679721e-05)
(1.5382862 0.00041417857 1.2286993e-05)
(1.6327755 -0.00022544821 3.4414396e-06)
(1.5884168 0.001995074 2.1345197e-05)
(1.5385798 -0.0086176629 1.253653e-05)
(1.6001385 -0.0067815568 3.6393258e-06)
(1.6846366 0.0015803852 2.1692584e-05)
(1.5397409 0.0043774185 1.2931233e-05)
(1.5901857 0.0022292088 3.8463578e-06)
(1.6195777 0.0087235841 2.2054678e-05)
(1.5317565 0.018957459 1.3186587e-05)
(1.6359396 0.01316888 3.9818181e-06)
(1.5676785 0.013132228 2.2009313e-05)
(1.5251568 0.0072656427 1.3456987e-05)
(1.6364801 -0.0031934269 4.1597708e-06)
(1.5502126 0.0051700064 2.2130463e-05)
(1.6155062 -0.0087607662 1.3815267e-05)
(1.6143925 -0.015392256 4.2633704e-06)
(1.5453156 -0.021254446 2.2684103e-05)
(1.5924336 -0.041696732 1.4207279e-05)
(1.6093112 -0.013030997 4.4368572e-06)
(1.6781894 -0.021148159 2.2873644e-05)
(1.6027197 -0.023700791 1.4511163e-05)
(1.512613 -0.008326713 4.5489038e-06)
(1.6328485 0.0065424404 2.2285388e-05)
(1.6311041 0.0065342811 1.4729285e-05)
(1.5416782 0.0050962848 4.679437e-06)
(1.6012256 -0.0048954107 2.22146e-05)
(1.5143855 0.0032875762 1.504352e-05)
(1.5337571 0.0044534679 4.8076758e-06)
(1.6174271 0.015704128 2.1874923e-05)
(1.4618817 0.0057240762 1.5140243e-05)
(1.5530763 -0.00062941108 4.814162e-06)
(1.3603078 0.058062111 2.3296197e-05)
(1.305791 0.10977491 1.5722122e-05)
(1.4320725 0.057760768 5.5395578e-06)
(0.85277024 0.37110233 1.2060734e-05)
(0.81850833 0.93967845 1.0089902e-05)
(0.75999049 1.2647698 5.4200772e-06)
(0.23688048 0.11774147 1.6175916e-06)
(0.19531724 0.37868093 3.1547728e-06)
(0.098678939 0.5185715 7.1504827e-07)
(-0.028417753 -0.012711529 1.2131202e-06)
(-0.027763317 -0.02699319 1.6740472e-06)
(-0.016658571 -0.030681635 5.8128772e-07)
(-0.0069869851 -0.0030216221 4.4828868e-07)
(-0.0068239418 -0.0078597464 7.312004e-07)
(-0.0049239394 -0.010369399 3.3267064e-07)
(-0.00024631311 -0.0004050883 1.2361987e-07)
(-0.00027074102 -0.0010847552 2.4360978e-07)
(-0.00015053869 -0.0015488737 1.0753081e-07)
(0.00047726246 -5.126829e-05 2.6496648e-08)
(0.00054159027 -0.00012888494 5.4103754e-08)
(0.0007005479 -0.00015021636 -7.5132646e-09)
(0.0004933459 2.0794924e-05 -3.5036674e-09)
(0.00055035706 5.5531648e-05 -1.2835847e-08)
(0.00065865499 0.00012434392 -5.250843e-08)
(0.00045337337 4.1347836e-05 -1.2754545e-08)
(0.00047724247 0.00011288529 -3.3552404e-08)
(0.00050075812 0.00021165182 -6.3605841e-08)
(0.00039938517 3.7094422e-05 -1.34179e-08)
(0.00040340806 9.6154449e-05 -3.4804266e-08)
(0.00039722029 0.00015627941 -5.8592287e-08)
(0.00033288374 1.917596e-05 -1.0657981e-08)
(0.00033060403 5.0170894e-05 -2.8846271e-08)
(0.00031858754 8.627762e-05 -4.7582468e-08)
(0.00027873902 8.3211312e-06 -7.610588e-09)
(0.00027407678 1.9889879e-05 -2.158834e-08)
(0.00026057843 3.6977528e-05 -3.5965063e-08)
(0.0002408746 5.1959157e-06 -5.316733e-09)
(0.00023573067 1.1800553e-05 -1.5500539e-08)
(0.00022279601 1.8941832e-05 -2.6116873e-08)
(0.0002133624 4.8597783e-06 -3.7570929e-09)
(0.00020858911 1.2719738e-05 -1.0987503e-08)
(0.00019709953 2.1484267e-05 -1.8538599e-08)
(0.00019139416 7.0032193e-06 -2.7432494e-09)
(0.00018725563 1.5573701e-05 -7.7521059e-09)
(0.00017736455 2.3769427e-05 -1.2925012e-08)
(0.00017206119 6.5518041e-06 -1.9648878e-09)
(0.00016854812 1.5522349e-05 -5.3880065e-09)
(0.00016013116 2.4343875e-05 -8.8262614e-09)
(0.00015425485 5.9293047e-06 -1.3608478e-09)
(0.00015130292 1.4265544e-05 -3.6371128e-09)
(0.00014417285 2.2962042e-05 -5.8586691e-09)
(0.00013794701 5.3106355e-06 -9.0451447e-10)
(0.00013548711 1.2560182e-05 -2.3618788e-09)
(0.0001294645 1.9882683e-05 -3.7526891e-09)
(0.00012326817 4.5747313e-06 -5.6922832e-10)
(0.00012122483 1.0793974e-05 -1.4689607e-09)
(0.00011614768 1.6940796e-05 -2.3131085e-09)
(0.00011021549 3.9410223e-06 -3.4546818e-10)
(0.00010851802 9.1929666e-06 -8.8041904e-10)
(0.00010423714 1.4594863e-05 -1.3756324e-09)
(9.8664462e-05 3.4753074e-06 -2.1060597e-10)
(9.7252534e-05 8.0800044e-06 -5.1955137e-10)
(9.3634291e-05 1.2773451e-05 -7.960666e-10)
(8.8440192e-05 3.0995921e-06 -1.3299534e-10)
(8.7263293e-05 7.2703183e-06 -3.0867137e-10)
(8.4195435e-05 1.1376863e-05 -4.5379892e-10)
(7.9375683e-05 2.7785813e-06 -8.7126713e-11)
(7.8391804e-05 6.5285851e-06 -1.8654943e-10)
(7.5782682e-05 1.0274124e-05 -2.5881238e-10)
(7.1331424e-05 2.4936141e-06 -6.2886639e-11)
(7.0505921e-05 5.8637925e-06 -1.1980068e-10)
(6.8278675e-05 9.2420342e-06 -1.5100786e-10)
(6.4193112e-05 2.2567533e-06 -5.232246e-11)
(6.3497872e-05 5.3345039e-06 -8.5525068e-11)
(6.1589585e-05 8.3358742e-06 -9.3303414e-11)
(5.7868994e-05 1.9912665e-06 -4.2464669e-11)
(5.728119e-05 4.7359444e-06 -6.4518053e-11)
(5.5640333e-05 7.5168586e-06 -6.2391724e-11)
(5.2284117e-05 1.7510961e-06 -3.578e-11)
(5.1784838e-05 4.1466748e-06 -5.0688733e-11)
(5.0367845e-05 6.5956795e-06 -4.4308084e-11)
(4.7370101e-05 1.5307197e-06 -3.201585e-11)
(4.6944208e-05 3.6404442e-06 -4.2739753e-11)
(4.5715043e-05 5.7842587e-06 -3.4320488e-11)
(4.3060445e-05 1.3132211e-06 -2.9424317e-11)
(4.2695738e-05 3.1561233e-06 -3.7847688e-11)
(4.1625945e-05 5.0533587e-06 -2.8905549e-11)
(3.9292054e-05 1.1594075e-06 -2.8117147e-11)
(3.8978765e-05 2.7802724e-06 -3.484299e-11)
(3.8043991e-05 4.3890538e-06 -2.6018067e-11)
(3.600712e-05 1.0018899e-06 -2.7300952e-11)
(3.5737201e-05 2.4041302e-06 -3.3079275e-11)
(3.4916669e-05 3.8330381e-06 -2.4617303e-11)
(3.3154199e-05 8.6090149e-07 -2.6600536e-11)
(3.2920755e-05 2.0685214e-06 -3.1808446e-11)
(3.2197434e-05 3.3226154e-06 -2.389236e-11)
(3.0685919e-05 7.2863748e-07 -2.5818906e-11)
(3.0483107e-05 1.7567734e-06 -3.0674073e-11)
(2.9842445e-05 2.8577238e-06 -2.3465977e-11)
(2.855609e-05 6.386809e-07 -2.5580375e-11)
(2.8379215e-05 1.5516535e-06 -2.9980409e-11)
(2.7808599e-05 2.4258585e-06 -2.3216704e-11)
(2.6720329e-05 5.4622946e-07 -2.5064749e-11)
(2.6565633e-05 1.3279295e-06 -2.9207186e-11)
(2.6054564e-05 2.1041164e-06 -2.302707e-11)
(2.5138163e-05 4.6634144e-07 -2.4525296e-11)
(2.5002331e-05 1.1377791e-06 -2.8450296e-11)
(2.4542441e-05 1.8135263e-06 -2.2794858e-11)
(2.3774256e-05 3.9956476e-07 -2.4002735e-11)
(2.3654517e-05 9.7765174e-07 -2.7710811e-11)
(2.3238407e-05 1.5586767e-06 -2.2516459e-11)
(2.2597984e-05 3.4292122e-07 -2.3483042e-11)
(2.2491993e-05 8.4098715e-07 -2.7018827e-11)
(2.2113311e-05 1.3410812e-06 -2.2245751e-11)
(2.1582995e-05 2.9448263e-07 -2.3007229e-11)
(2.1488753e-05 7.2398495e-07 -2.6417346e-11)
(2.1142114e-05 1.1555092e-06 -2.2013248e-11)
(2.0706911e-05 2.5264043e-07 -2.2555304e-11)
(2.0622713e-05 6.222863e-07 -2.5871854e-11)
(2.0303535e-05 9.9449191e-07 -2.1801046e-11)
(1.9951112e-05 2.1860506e-07 -2.2174583e-11)
(1.9875514e-05 5.3846805e-07 -2.5418623e-11)
(1.9579866e-05 8.5577602e-07 -2.1645883e-11)
(1.930042e-05 1.8676059e-07 -2.181732e-11)
(1.9232177e-05 4.6063709e-07 -2.5044075e-11)
(1.8956665e-05 7.3297227e-07 -2.1553441e-11)
(1.8742542e-05 1.5883913e-07 -2.1511238e-11)
(1.8680559e-05 3.924238e-07 -2.4760778e-11)
(1.8422224e-05 6.2517015e-07 -2.1525143e-11)
(1.8267377e-05 1.343242e-07 -2.1267378e-11)
(1.8210693e-05 3.3218349e-07 -2.4578451e-11)
(1.7966914e-05 5.2917035e-07 -2.1566987e-11)
(1.7866347e-05 1.1244071e-07 -2.10986e-11)
(1.7814104e-05 2.7838393e-07 -2.4506558e-11)
(1.7582544e-05 4.4353351e-07 -2.1688175e-11)
(1.7531939e-05 9.2753441e-08 -2.1030263e-11)
(1.7483365e-05 2.3006547e-07 -2.4553356e-11)
(1.7261919e-05 3.6697541e-07 -2.1866433e-11)
(1.7257114e-05 7.4946159e-08 -2.1077518e-11)
(1.7211494e-05 1.8585989e-07 -2.4673144e-11)
(1.699825e-05 2.9619189e-07 -2.1994205e-11)
(1.7039297e-05 5.9098018e-08 -2.1177258e-11)
(1.6995984e-05 1.4772218e-07 -2.4713796e-11)
(1.6789163e-05 2.3639116e-07 -2.1866102e-11)
(1.6862839e-05 4.5615746e-08 -2.1161165e-11)
(1.6821182e-05 1.1543581e-07 -2.4179587e-11)
(1.6619197e-05 1.8632765e-07 -2.093409e-11)
(1.6768599e-05 3.4432369e-08 -2.0609371e-11)
(1.6728042e-05 8.5788395e-08 -2.2000687e-11)
(1.6529043e-05 1.3581835e-07 -1.8140595e-11)
(1.6608853e-05 1.9575899e-08 -1.7826783e-11)
(1.6568365e-05 4.8410956e-08 -1.5809176e-11)
(1.6371727e-05 7.5470261e-08 -1.1927841e-11)
(-0.045301275 1.980685 -3.8186738e-07)
(-0.033033635 1.7223181 -3.4712217e-06)
(-0.060324631 0.35831024 -2.5262316e-07)
(-0.043062207 0.16262243 -1.0182582e-06)
(-0.013718471 -0.03754201 -2.1140361e-07)
(-0.010612295 -0.040202275 -6.2154836e-07)
(-0.0040849798 -0.012499759 -1.0437395e-07)
(-0.0039056594 -0.013641694 -3.9987838e-07)
(-0.00032081336 -0.0021789487 -1.0540994e-07)
(-0.00062393175 -0.0028619622 -2.8649078e-07)
(0.00065438546 -0.00019978169 -1.1622707e-07)
(0.00047810846 -0.00035535384 -2.2365019e-07)
(0.00067838261 0.00020689024 -1.1486588e-07)
(0.00059628007 0.00026307869 -1.8050041e-07)
(0.00049834036 0.00032449788 -1.0337186e-07)
(0.00046215246 0.00041015327 -1.4553705e-07)
(0.00037235701 0.0002226788 -8.6129474e-08)
(0.00033249162 0.00029138024 -1.1463041e-07)
(0.00029460644 0.00012350101 -6.753351e-08)
(0.00026185672 0.00015249583 -8.7531077e-08)
(0.00023941805 5.2148773e-05 -5.0617156e-08)
(0.00021370428 6.1032596e-05 -6.4928426e-08)
(0.00020473989 2.6811384e-05 -3.6737803e-08)
(0.00018428049 3.1102291e-05 -4.6951348e-08)
(0.00018168231 2.7492757e-05 -2.6031248e-08)
(0.00016468984 3.088036e-05 -3.3181272e-08)
(0.00016420197 3.1213844e-05 -1.8042151e-08)
(0.00014970993 3.675937e-05 -2.2912022e-08)
(0.00014889063 3.2465984e-05 -1.2207861e-08)
(0.00013642446 3.9988805e-05 -1.5420941e-08)
(0.00013459021 3.0700085e-05 -8.0258386e-09)
(0.00012384078 3.7315566e-05 -1.0078829e-08)
(0.00012131711 2.6688581e-05 -5.1012495e-09)
(0.0001120637 3.2515495e-05 -6.374865e-09)
(0.00010922443 2.2588477e-05 -3.1270097e-09)
(0.00010126039 2.7485912e-05 -3.8946339e-09)
(9.8345677e-05 1.9279725e-05 -1.8507999e-09)
(9.1486364e-05 2.3605865e-05 -2.2992945e-09)
(8.8611938e-05 1.7093999e-05 -1.0623375e-09)
(8.2700969e-05 2.0831434e-05 -1.3146841e-09)
(7.9907565e-05 1.5387944e-05 -5.9491594e-10)
(7.4806697e-05 1.8786283e-05 -7.3029822e-10)
(7.2112497e-05 1.3810087e-05 -3.2808474e-10)
(6.7702795e-05 1.7065064e-05 -3.9601704e-10)
(6.5126536e-05 1.2433857e-05 -1.8062377e-10)
(6.1307705e-05 1.5406539e-05 -2.1091918e-10)
(5.8874162e-05 1.1165469e-05 -1.0104752e-10)
(5.555923e-05 1.3765054e-05 -1.1113647e-10)
(5.3293914e-05 1.0056284e-05 -5.9232794e-11)
(5.0409003e-05 1.2305335e-05 -5.8846986e-11)
(4.8333467e-05 8.9594162e-06 -3.7073952e-11)
(4.5816214e-05 1.1012447e-05 -3.2065126e-11)
(4.3944866e-05 7.8391521e-06 -2.5212238e-11)
(4.1742239e-05 9.7336503e-06 -1.8475264e-11)
(4.0079673e-05 6.8483831e-06 -1.9316367e-11)
(3.8146542e-05 8.4700073e-06 -1.1863409e-11)
(3.6688855e-05 5.9095481e-06 -1.6589735e-11)
(3.4986864e-05 7.3186649e-06 -9.0960336e-12)
(3.3725211e-05 5.186367e-06 -1.5537435e-11)
(3.222191e-05 6.4223041e-06 -8.2657023e-12)
(3.1145252e-05 4.5220333e-06 -1.5317022e-11)
(2.9812402e-05 5.5889877e-06 -8.3878998e-12)
(2.8908339e-05 3.9046411e-06 -1.5488532e-11)
(2.7721363e-05 4.8374392e-06 -8.9573713e-12)
(2.6975166e-05 3.2748426e-06 -1.5747225e-11)
(2.5913082e-05 4.1428956e-06 -9.6105375e-12)
(2.5307438e-05 2.863066e-06 -1.604486e-11)
(2.4352162e-05 3.5332133e-06 -1.0213454e-11)
(2.3869181e-05 2.4611042e-06 -1.6256849e-11)
(2.3005614e-05 3.0429191e-06 -1.0740371e-11)
(2.2628409e-05 2.1141986e-06 -1.639854e-11)
(2.184395e-05 2.6224969e-06 -1.1183473e-11)
(2.1557564e-05 1.8206143e-06 -1.6509896e-11)
(2.0841137e-05 2.260564e-06 -1.1571351e-11)
(2.0632899e-05 1.5697767e-06 -1.6614553e-11)
(1.9974951e-05 1.9486123e-06 -1.1925838e-11)
(1.9834242e-05 1.3527479e-06 -1.6713476e-11)
(1.9226579e-05 1.6788029e-06 -1.225721e-11)
(1.914482e-05 1.1584794e-06 -1.6839902e-11)
(1.8580396e-05 1.4387534e-06 -1.2594295e-11)
(1.8550958e-05 9.9342914e-07 -1.7004644e-11)
(1.8023661e-05 1.2342317e-06 -1.29437e-11)
(1.8041566e-05 8.4812279e-07 -1.7198762e-11)
(1.7546021e-05 1.0537465e-06 -1.3295473e-11)
(1.7607504e-05 7.1794962e-07 -1.742348e-11)
(1.7138941e-05 8.9204927e-07 -1.3649449e-11)
(1.7240983e-05 6.0153257e-07 -1.7683654e-11)
(1.6795125e-05 7.4710304e-07 -1.4001583e-11)
(1.6935147e-05 4.9806909e-07 -1.7942432e-11)
(1.6508126e-05 6.1885905e-07 -1.4310937e-11)
(1.6683485e-05 4.0272108e-07 -1.8070347e-11)
(1.6271777e-05 5.0134361e-07 -1.4452151e-11)
(1.6483809e-05 3.2207335e-07 -1.7845134e-11)
(1.6084116e-05 4.0169434e-07 -1.4219917e-11)
(1.6320959e-05 2.5460446e-07 -1.6788789e-11)
(1.5930368e-05 3.1788547e-07 -1.3229658e-11)
(1.6235194e-05 1.8510056e-07 -1.4090456e-11)
(1.5850214e-05 2.3154021e-07 -1.0896312e-11)
(1.6081438e-05 1.028023e-07 -8.8337143e-12)
(1.5701083e-05 1.2907196e-07 -6.6556652e-12)
(-0.0030488427 3.3389337e-05 -1.0441619e-07)
(-0.0029585295 4.4647719e-05 -2.4716252e-07)
(-0.0027924271 7.8660678e-05 -3.4892519e-07)
(-0.0026150994 6.8087764e-05 -4.1246734e-07)
(-0.0024372266 6.6230419e-05 -4.4597523e-07)
(-0.0022691445 4.9274886e-05 -4.5872027e-07)
(-0.0021058024 3.1970249e-05 -4.5776614e-07)
(-0.0019448878 7.610075e-06 -4.4810932e-07)
(-0.0017863866 -2.4073398e-05 -4.3322684e-07)
(-0.0016315947 -6.0832535e-05 -4.1551537e-07)
(-0.0014821362 -0.00010289164 -3.9662546e-07)
(-0.0013386363 -0.00014928845 -3.7753701e-07)
(-0.0012014769 -0.00019838822 -3.5870375e-07)
(-0.0010709876 -0.0002487387 -3.4018478e-07)
(-0.00094728887 -0.0002987957 -3.2182376e-07)
(-0.00083033241 -0.00034698789 -3.0334236e-07)
(-0.00071997574 -0.00039316191 -2.8435947e-07)
(-0.00061612047 -0.0004359745 -2.6434024e-07)
(-0.00051819808 -0.00047242984 -2.4269359e-07)
(-0.00042588708 -0.00050126018 -2.1873582e-07)
(-0.0003388565 -0.00052302852 -1.9172334e-07)
(-0.00025655677 -0.00053683798 -1.6056426e-07)
(-0.00017848283 -0.0005423841 -1.2431258e-07)
(-0.00010435421 -0.00054595683 -8.2397952e-08)
(-3.3803645e-05 -0.00051516157 -3.4206936e-08)
(0.00014103211 -7.5768261e-05 -1.2054315e-07)
(0.00016399862 -0.00040607163 -2.8145939e-07)
(0.00019155527 -0.00057045857 -3.899031e-07)
(0.00020635473 -0.00086045783 -4.5152448e-07)
(0.00021826004 -0.0010948574 -4.7944037e-07)
(0.00024005106 -0.0013463671 -4.8640233e-07)
(0.00026724563 -0.0015941839 -4.8055912e-07)
(0.00029473311 -0.001862278 -4.6714446e-07)
(0.00031590108 -0.002149912 -4.494223e-07)
(0.00032959131 -0.0024346822 -4.2952104e-07)
(0.00033537349 -0.0027144882 -4.0905416e-07)
(0.00033432116 -0.0029868879 -3.8887346e-07)
(0.00032713982 -0.0032472883 -3.6931617e-07)
(0.00031447868 -0.0034926454 -3.5029204e-07)
(0.00029703644 -0.0037205341 -3.3155935e-07)
(0.0002755318 -0.0039314691 -3.1281409e-07)
(0.00025069122 -0.0041360794 -2.9372299e-07)
(0.00022340321 -0.0043275862 -2.736291e-07)
(0.00019417151 -0.0044818794 -2.5198359e-07)
(0.00016363252 -0.0045903083 -2.2804609e-07)
(0.00013221691 -0.0046497974 -2.013271e-07)
(0.00010054138 -0.0046623142 -1.7012983e-07)
(6.9177649e-05 -0.0046308248 -1.3318245e-07)
(3.8721814e-05 -0.004541144 -8.8897832e-08)
(1.046376e-05 -0.0043351377 -3.8516716e-08)
(0.00090859363 -0.00025948374 -1.5922361e-07)
(0.00096823284 -0.001389555 -3.5813515e-07)
(0.0010034569 -0.0018628887 -4.7608553e-07)
(0.0010522745 -0.0026949464 -5.289191e-07)
(0.0010996644 -0.0033701357 -5.4365831e-07)
(0.0011379305 -0.0040793581 -5.3864388e-07)
(0.0011581974 -0.0047860095 -5.2311281e-07)
(0.0011560131 -0.0056552508 -5.0265649e-07)
(0.0011350142 -0.0066662775 -4.7975055e-07)
(0.0010988414 -0.007616449 -4.5568115e-07)
(0.0010492824 -0.0084560788 -4.3231029e-07)
(0.00099081142 -0.0091758152 -4.1015702e-07)
(0.00092561363 -0.0097705939 -3.8939532e-07)
(0.00085481827 -0.010247104 -3.6956477e-07)
(0.00077993056 -0.010611612 -3.5026219e-07)
(0.00070224248 -0.01086574 -3.3112863e-07)
(0.00062306612 -0.011000918 -3.1220102e-07)
(0.00054350816 -0.011034443 -2.9221428e-07)
(0.00046421105 -0.010994879 -2.7100623e-07)
(0.00038660648 -0.010898631 -2.4786436e-07)
(0.00031031284 -0.010755585 -2.2191901e-07)
(0.00023578454 -0.010573581 -1.91763e-07)
(0.00016336214 -0.010358956 -1.5544556e-07)
(9.3670447e-05 -0.010082843 -1.0963369e-07)
(2.8695386e-05 -0.0097026942 -5.3998838e-08)
(0.003368925 -0.000977589 -2.419461e-07)
(0.0033422719 -0.0045238381 -4.999087e-07)
(0.0033042613 -0.0057323482 -6.1759471e-07)
(0.0031607799 -0.0087841514 -6.4597329e-07)
(0.002989183 -0.011483508 -6.3680672e-07)
(0.0027764754 -0.013925421 -6.1297349e-07)
(0.0025486511 -0.015686949 -5.8307566e-07)
(0.002312334 -0.016637353 -5.5378071e-07)
(0.0020815975 -0.016932112 -5.251373e-07)
(0.0018607985 -0.016823381 -4.9516381e-07)
(0.001648832 -0.016409821 -4.6802704e-07)
(0.0014528878 -0.015802302 -4.432039e-07)
(0.0012698588 -0.0150161 -4.2111903e-07)
(0.001094223 -0.014104435 -4.0036085e-07)
(0.00093612545 -0.013122965 -3.8037005e-07)
(0.00079539297 -0.012116147 -3.6088993e-07)
(0.00067061395 -0.011121075 -3.4160224e-07)
(0.00055994373 -0.010170234 -3.2206118e-07)
(0.00046176216 -0.0092867314 -3.0178329e-07)
(0.00037356872 -0.0084956416 -2.8014275e-07)
(0.00029476381 -0.0078104803 -2.5633512e-07)
(0.00022336705 -0.0072317937 -2.2918293e-07)
(0.00015770181 -0.0067602093 -1.9690584e-07)
(9.5912697e-05 -0.0063550915 -1.5650522e-07)
(3.5830248e-05 -0.0060698874 -9.8558799e-08)
(0.011028229 -0.0086456801 -4.2976549e-07)
(0.0086452136 -0.025360504 -7.3968138e-07)
(0.0074775601 -0.027408556 -8.2170886e-07)
(0.0058157458 -0.031341118 -8.0826227e-07)
(0.0044504665 -0.028582197 -7.6806239e-07)
(0.0032760448 -0.024751251 -7.1969473e-07)
(0.0023010828 -0.0201417 -6.7206935e-07)
(0.0015289968 -0.015269621 -6.2780656e-07)
(0.00092921074 -0.010384198 -5.8863419e-07)
(0.00046713962 -0.0059085331 -5.5274915e-07)
(0.00012389106 -0.0018775625 -5.2051755e-07)
(-0.00012646299 0.0015981467 -4.9062204e-07)
(-0.00030057228 0.004835456 -4.6678949e-07)
(-0.00041135845 0.0079409181 -4.4426485e-07)
(-0.00047816561 0.010795443 -4.2254625e-07)
(-0.00050768162 0.013272155 -4.0182253e-07)
(-0.00050766129 0.015338792 -3.8179568e-07)
(-0.000484539 0.017011632 -3.6209339e-07)
(-0.00044354987 0.01831796 -3.422901e-07)
(-0.00038963234 0.019291248 -3.2189774e-07)
(-0.00032519391 0.019956703 -3.0030264e-07)
(-0.00025358915 0.020335473 -2.7663497e-07)
(-0.00017732566 0.020425222 -2.4947732e-07)
(-9.9768781e-05 0.02028379 -2.2301315e-07)
(-2.2776278e-05 0.01956636 -1.9664763e-07)
(0.012873752 0.024900065 -7.9436238e-07)
(0.0022026117 0.0011260215 -1.1223441e-06)
(-0.00016256249 0.050578664 -1.1241632e-06)
(-0.0017041782 0.053794846 -1.0501691e-06)
(-0.0031205231 0.067645067 -9.726776e-07)
(-0.0041868635 0.077648033 -8.8587566e-07)
(-0.0047653052 0.084590679 -8.0802639e-07)
(-0.0049110684 0.090333475 -7.4038131e-07)
(-0.0047904345 0.094504013 -6.8162909e-07)
(-0.0045421308 0.097073992 -6.3148049e-07)
(-0.0042247911 0.098512393 -5.8927934e-07)
(-0.0038558876 0.098866779 -5.4543691e-07)
(-0.0034883892 0.098489698 -5.2068535e-07)
(-0.0031347581 0.097096502 -4.9377275e-07)
(-0.0027791872 0.094870786 -4.6723737e-07)
(-0.0024349928 0.09238872 -4.4336123e-07)
(-0.002110629 0.089715276 -4.2113544e-07)
(-0.0018065271 0.086931093 -3.9998551e-07)
(-0.0015216736 0.084111393 -3.7946959e-07)
(-0.0012535898 0.081313584 -3.5915882e-07)
(-0.0010009459 0.07857373 -3.3857867e-07)
(-0.00076126549 0.075932665 -3.1714031e-07)
(-0.00053197505 0.073361647 -2.9422949e-07)
(-0.00031113471 0.071047921 -2.7067088e-07)
(-9.3143322e-05 0.067550183 -2.4765061e-07)
(-0.0028062495 1.1918532 -2.5220241e-06)
(-0.0014172033 0.97163106 -2.0014674e-06)
(-0.0014452371 0.87320633 -1.624523e-06)
(-0.0010236616 0.77866531 -1.3371772e-06)
(-0.00081006936 0.68099773 -1.1217594e-06)
(-0.00065659977 0.58869886 -9.6309495e-07)
(-0.00053043741 0.50975975 -8.4509996e-07)
(-0.00043134142 0.44567502 -7.5703784e-07)
(-0.00035020613 0.39288843 -6.8555307e-07)
(-0.00028398638 0.34789079 -6.3069972e-07)
(-0.00023062571 0.30906122 -5.8843469e-07)
(-0.00018689815 0.27564587 -5.5188437e-07)
(-0.00015381688 0.24707749 -5.2173562e-07)
(-0.00013179995 0.22262189 -4.9547933e-07)
(-0.00011093287 0.20161911 -4.7166923e-07)
(-9.2414983e-05 0.18358719 -4.4960201e-07)
(-7.7257094e-05 0.16809382 -4.2867121e-07)
(-6.429222e-05 0.15477504 -4.0849526e-07)
(-5.287118e-05 0.14332755 -3.8881965e-07)
(-4.2643956e-05 0.13350157 -3.6938988e-07)
(-3.348489e-05 0.12508047 -3.4988753e-07)
(-2.5056985e-05 0.11792175 -3.2984658e-07)
(-1.7178842e-05 0.11178303 -3.089917e-07)
(-9.8021589e-06 0.10694725 -2.871041e-07)
(-2.7536019e-06 0.10091806 -2.6356034e-07)
(-0.01262673 0.097778908 -1.2305218e-06)
(-0.0019111276 0.10435563 -1.268487e-06)
(0.0004062408 0.10899817 -1.2223123e-06)
(0.001935701 0.10990712 -1.1314043e-06)
(0.0033243969 0.11116947 -1.0283687e-06)
(0.0043610889 0.11221214 -9.2796586e-07)
(0.004912313 0.11342163 -8.3813231e-07)
(0.0050312675 0.11457506 -7.6067841e-07)
(0.0048543962 0.1150649 -6.7784289e-07)
(0.0045759069 0.11489774 -6.360618e-07)
(0.0042702258 0.11399381 -5.9362879e-07)
(0.0039128761 0.11217075 -5.5077396e-07)
(0.0035309059 0.10952833 -5.1487204e-07)
(0.0031526732 0.10640812 -4.8404784e-07)
(0.0027879793 0.10305455 -4.5692217e-07)
(0.0024439794 0.099587517 -4.3249419e-07)
(0.0021169204 0.096087502 -4.1004791e-07)
(0.0018102109 0.092620374 -3.8903806e-07)
(0.0015231953 0.089235297 -3.6899842e-07)
(0.0012542319 0.085968847 -3.4946828e-07)
(0.0010010981 0.082841627 -3.2991886e-07)
(0.00076142054 0.079882709 -3.0964779e-07)
(0.00053241537 0.077053861 -2.8899165e-07)
(0.00031186408 0.074546392 -2.6678565e-07)
(9.3884098e-05 0.070834237 -2.4456018e-07)
(-0.0085293604 -0.038309051 -8.4758109e-07)
(-0.0072671986 -0.03617476 -9.1180927e-07)
(-0.005906974 -0.034523331 -8.9877248e-07)
(-0.0045626221 -0.031151379 -8.5263916e-07)
(-0.0033519187 -0.026321771 -7.9429976e-07)
(-0.0023172208 -0.020930897 -7.3300166e-07)
(-0.0014734081 -0.015439967 -6.7608343e-07)
(-0.00081388133 -0.010046485 -6.2412391e-07)
(-0.00031466268 -0.0052337956 -5.7594644e-07)
(5.9684739e-05 -0.00099316124 -5.3991349e-07)
(0.00032830075 0.0026834591 -5.0680399e-07)
(0.00051329636 0.0063133501 -4.7596756e-07)
(0.00063287545 0.0097715269 -4.4825663e-07)
(0.00070136263 0.012862519 -4.2332715e-07)
(0.00072799316 0.015519026 -4.0060117e-07)
(0.00071840462 0.017745395 -3.7957138e-07)
(0.00068748342 0.019579651 -3.5985231e-07)
(0.00063721884 0.02105424 -3.4099993e-07)
(0.00057161191 0.022187072 -3.2255634e-07)
(0.00049423047 0.022999129 -3.0399376e-07)
(0.00040811723 0.023511351 -2.845708e-07)
(0.00031569423 0.023743729 -2.6290172e-07)
(0.00022027688 0.023706275 -2.4204323e-07)
(0.00012469613 0.0234421 -2.1669248e-07)
(3.0385233e-05 0.022573084 -1.9199034e-07)
(-0.0040067371 -0.014867307 -5.721845e-07)
(-0.0039079147 -0.017176083 -6.4717806e-07)
(-0.0036935415 -0.019808033 -6.6151928e-07)
(-0.0034143389 -0.021717107 -6.4448823e-07)
(-0.0031116533 -0.022912903 -6.1465727e-07)
(-0.0028080388 -0.023329079 -5.8267493e-07)
(-0.0025156874 -0.023132775 -5.4328523e-07)
(-0.0022343361 -0.02252488 -5.066344e-07)
(-0.0019695159 -0.021657631 -4.7343182e-07)
(-0.0017288371 -0.020590078 -4.4509906e-07)
(-0.0015062995 -0.019395846 -4.194042e-07)
(-0.0012986981 -0.018056878 -3.9576446e-07)
(-0.0011102671 -0.016644987 -3.7412468e-07)
(-0.00094257188 -0.015212365 -3.5429238e-07)
(-0.00079558892 -0.013795624 -3.3575894e-07)
(-0.0006707028 -0.012435731 -3.1812011e-07)
(-0.00055849094 -0.011172343 -3.0129282e-07)
(-0.00046062761 -0.010029549 -2.8472918e-07)
(-0.00037568786 -0.0090116144 -2.6793207e-07)
(-0.00030185945 -0.0081210191 -2.5030743e-07)
(-0.00023731075 -0.0073591535 -2.3103749e-07)
(-0.00018014365 -0.0067262978 -2.0899764e-07)
(-0.00012838363 -0.0062196236 -1.8303347e-07)
(-7.9787209e-05 -0.0057993577 -1.4795537e-07)
(-3.1575357e-05 -0.0055209264 -9.5104517e-08)
(-0.00092386916 -0.0036541336 -4.1015708e-07)
(-0.001073664 -0.0044796515 -4.783569e-07)
(-0.0012067839 -0.005295359 -5.0461805e-07)
(-0.0013083522 -0.0060699372 -5.0477832e-07)
(-0.0013626722 -0.0068748606 -4.9051911e-07)
(-0.001373951 -0.0078744387 -4.6898483e-07)
(-0.0013588688 -0.0090050808 -4.4274166e-07)
(-0.0013218605 -0.01001961 -4.1629453e-07)
(-0.0012673295 -0.010894118 -3.9147707e-07)
(-0.0012016834 -0.011616213 -3.6895864e-07)
(-0.0011277281 -0.012198751 -3.4829597e-07)
(-0.0010484761 -0.012640358 -3.2918203e-07)
(-0.0009654153 -0.012946231 -3.114281e-07)
(-0.00087981997 -0.013101913 -2.9524402e-07)
(-0.00079372792 -0.013137555 -2.7968272e-07)
(-0.00070600274 -0.013090358 -2.6488571e-07)
(-0.00062293327 -0.012982182 -2.5016883e-07)
(-0.00054166086 -0.01282651 -2.352659e-07)
(-0.00046225162 -0.01263223 -2.1971433e-07)
(-0.00038449769 -0.012406536 -2.0292239e-07)
(-0.00030842587 -0.012155168 -1.8399258e-07)
(-0.00023422785 -0.011883669 -1.6161265e-07)
(-0.00016223684 -0.01159549 -1.338364e-07)
(-9.3052336e-05 -0.011253215 -9.6599215e-08)
(-2.8792764e-05 -0.010819841 -4.90683e-08)
(0.00027453143 -0.00063624246 -3.0696326e-07)
(0.00014060128 -0.00098139444 -3.6058071e-07)
(2.9118105e-05 -0.0013636382 -3.8781725e-07)
(-8.0741776e-05 -0.0017270451 -3.9578186e-07)
(-0.00017284095 -0.0020798306 -3.9113932e-07)
(-0.00024378787 -0.0024586128 -3.7883096e-07)
(-0.00030018152 -0.002851736 -3.6204325e-07)
(-0.00034166342 -0.0032305228 -3.4359411e-07)
(-0.00036877749 -0.003596859 -3.2517358e-07)
(-0.00038409027 -0.0039460326 -3.0759572e-07)
(-0.00038873617 -0.0042759249 -2.9103048e-07)
(-0.00038473356 -0.0045852264 -2.7545966e-07)
(-0.00037385093 -0.0048833382 -2.6081982e-07)
(-0.00035845758 -0.0051924459 -2.4704971e-07)
(-0.00033841419 -0.0054998118 -2.3383372e-07)
(-0.0003132942 -0.0057672096 -2.2096514e-07)
(-0.00028499839 -0.0059861325 -2.0806721e-07)
(-0.00025372434 -0.0061542853 -1.947904e-07)
(-0.0002199556 -0.0062708937 -1.8068067e-07)
(-0.00018470223 -0.0063352367 -1.6535522e-07)
(-0.00014866021 -0.0063485092 -1.4795663e-07)
(-0.00011245023 -0.0063133383 -1.2728406e-07)
(-7.679472e-05 -0.006234389 -1.020738e-07)
(-4.2489412e-05 -0.0060943369 -7.0202568e-08)
(-1.1283658e-05 -0.0058227097 -3.2192899e-08)
(0.00051168394 0.00027889611 -2.3596586e-07)
(0.00040565449 0.00024055474 -2.7564204e-07)
(0.00033359236 0.00016812131 -2.9930582e-07)
(0.00027981705 8.2154766e-05 -3.096508e-07)
(0.00022935097 -1.7596236e-05 -3.1016641e-07)
(0.00018390172 -0.00012770156 -3.0399231e-07)
(0.00014504458 -0.00024402328 -2.9361238e-07)
(0.00011114595 -0.00036228113 -2.810382e-07)
(8.1971389e-05 -0.0004821431 -2.6765308e-07)
(5.7406815e-05 -0.00060331143 -2.5426936e-07)
(3.6975309e-05 -0.00072413831 -2.4126523e-07)
(2.0117862e-05 -0.00084095732 -2.2878769e-07)
(5.7658495e-06 -0.00095275004 -2.1686371e-07)
(-7.0114804e-06 -0.0010593646 -2.0543933e-07)
(-1.6562567e-05 -0.0011570383 -1.9435116e-07)
(-2.2388357e-05 -0.001242273 -1.8340003e-07)
(-2.5455369e-05 -0.0013152823 -1.7231859e-07)
(-2.6183072e-05 -0.0013754999 -1.6080641e-07)
(-2.48255e-05 -0.0014220269 -1.4850818e-07)
(-2.2180991e-05 -0.0014540295 -1.350243e-07)
(-1.872341e-05 -0.0014711645 -1.199051e-07)
(-1.4721025e-05 -0.0014739032 -1.0241169e-07)
(-1.0416516e-05 -0.0014647355 -8.1863475e-08)
(-5.867761e-06 -0.0014430951 -5.7518265e-08)
(-1.128551e-06 -0.0013699769 -2.8310675e-08)
(0.00041352038 0.00047354646 -1.8286263e-07)
(0.00035696525 0.00051802973 -2.1147668e-07)
(0.00030924805 0.00054362632 -2.304244e-07)
(0.000274339 0.000560067 -2.4047776e-07)
(0.00024313417 0.00056962417 -2.433092e-07)