/*--------------------------------*- C++ -*----------------------------------*\
| =========                 |                                                 |
| \\      /  F ield         | OpenFOAM: The Open Source CFD Toolbox           |
|  \\    /   O peration     | Version:  4.0                                   |
|   \\  /    A nd           | Web:      www.OpenFOAM.org                      |
|    \\/     M anipulation  |                                                 |
\*---------------------------------------------------------------------------*/
FoamFile
{
    version     2.0;
    format      ascii;
    class       volScalarField;
    location    "0.18";
    object      nut;
}
// * * * * * * * * * * * * * * * * * * * * * * * * * * * * * * * * * * * * * //

dimensions      [0 2 -1 0 0 0 0];

internalField   nonuniform List<scalar> 
1740
(
3.5915191e-05
1.3057941e-05
1.2242622e-06
1.5882881e-05
6.8929823e-06
1.8152008e-06
2.164018e-05
5.4352167e-06
2.2799029e-06
2.1885744e-05
4.8668622e-06
2.7208813e-06
2.0297214e-05
4.4375944e-06
3.1078176e-06
1.6656967e-05
4.1391846e-06
3.4075508e-06
1.4002981e-05
3.9573719e-06
3.6370443e-06
1.2381375e-05
3.812993e-06
3.8570393e-06
1.0923765e-05
3.7061585e-06
4.0437987e-06
9.6782499e-06
3.6373148e-06
4.1679214e-06
8.7628255e-06
3.5900234e-06
4.2777189e-06
8.1153853e-06
3.545455e-06
4.3583332e-06
7.5059873e-06
3.5096396e-06
4.4359431e-06
6.9278896e-06
3.4944512e-06
4.4901896e-06
6.4741537e-06
3.5083256e-06
4.5470411e-06
6.1023887e-06
3.5087156e-06
4.5989488e-06
5.845233e-06
3.5071132e-06
4.6011111e-06
5.6352865e-06
3.5193042e-06
4.6380808e-06
5.4136156e-06
3.5329974e-06
4.6776352e-06
5.2120715e-06
3.510848e-06
4.6499272e-06
5.0110486e-06
3.5014238e-06
4.6901044e-06
4.8239048e-06
3.5360885e-06
4.7301067e-06
4.6853382e-06
3.5505789e-06
4.6830149e-06
4.5888604e-06
3.5369835e-06
4.6821336e-06
4.4939534e-06
3.5381698e-06
4.6999077e-06
4.3843491e-06
3.565673e-06
4.687719e-06
4.2767769e-06
3.5877408e-06
4.6644586e-06
4.1939514e-06
3.5916077e-06
4.627455e-06
4.1653756e-06
3.5861083e-06
4.5783135e-06
2.7139365e-06
3.4795404e-06
4.2758325e-06
1.8777191e-06
2.1858442e-06
4.4053164e-06
7.1735839e-06
7.3559302e-06
6.7225041e-06
6.5280012e-06
6.7349173e-06
6.3676065e-06
5.1840496e-06
5.1251235e-06
4.8754709e-06
4.3193624e-06
4.2481323e-06
4.1095158e-06
3.7016673e-06
3.6578117e-06
3.5911559e-06
3.1743661e-06
3.15297e-06
3.1255974e-06
2.6394812e-06
2.6297048e-06
2.6188674e-06
2.0560873e-06
2.050487e-06
2.043676e-06
1.453283e-06
1.4486987e-06
1.4415434e-06
9.1393648e-07
9.0999166e-07
9.0291807e-07
5.134047e-07
5.1051744e-07
5.0502072e-07
2.6584305e-07
2.6408317e-07
2.6064629e-07
1.3460942e-07
1.3371534e-07
1.3194739e-07
7.3294031e-08
7.2898517e-08
7.2109786e-08
4.7334578e-08
4.7183436e-08
4.6887632e-08
3.7700292e-08
3.7660329e-08
3.7591578e-08
3.5103037e-08
3.5110393e-08
3.5137958e-08
3.5350883e-08
3.5377019e-08
3.5441669e-08
3.6676766e-08
3.6709506e-08
3.6786048e-08
3.8385794e-08
3.8420091e-08
3.8498359e-08
4.0224969e-08
4.0258775e-08
4.0334876e-08
4.211028e-08
4.2142785e-08
4.2215329e-08
4.4017046e-08
4.404794e-08
4.41165e-08
4.593911e-08
4.5968291e-08
4.6032801e-08
4.7874873e-08
4.7902326e-08
4.7962855e-08
4.9822971e-08
4.9848721e-08
4.9905387e-08
5.1781146e-08
5.1805235e-08
5.1858178e-08
5.374606e-08
5.3768543e-08
5.3817906e-08
5.5713342e-08
5.5734277e-08
5.5780207e-08
5.7677661e-08
5.7697107e-08
5.7739749e-08
5.9632796e-08
5.9650815e-08
5.9690311e-08
6.1571687e-08
6.1588341e-08
6.1624833e-08
6.3486493e-08
6.3501843e-08
6.3535471e-08
6.5368644e-08
6.5382753e-08
6.5413657e-08
6.7208913e-08
6.7221844e-08
6.7250163e-08
6.8997516e-08
6.9009332e-08
6.9035207e-08
7.0724246e-08
7.0735012e-08
7.0758585e-08
7.2378696e-08
7.2388478e-08
7.2409895e-08
7.3950594e-08
7.3959461e-08
7.3978874e-08
7.5430304e-08
7.5438328e-08
7.5455896e-08
7.6809458e-08
7.6816716e-08
7.6832607e-08
7.8081531e-08
7.8088106e-08
7.8102502e-08
7.9241889e-08
7.9247869e-08
7.9260964e-08
8.0286512e-08
8.0291991e-08
8.030399e-08
8.1208435e-08
8.1213507e-08
8.1224619e-08
8.199081e-08
8.1995571e-08
8.2005999e-08
8.2593937e-08
8.2598467e-08
8.2608392e-08
8.2930912e-08
8.2935276e-08
8.2944842e-08
8.2773964e-08
8.2778192e-08
8.2787467e-08
4.1705872e-06
4.502042e-06
6.7696757e-06
8.4786993e-06
5.9852054e-06
6.0292301e-06
4.7214057e-06
4.8204209e-06
4.0527829e-06
4.1508744e-06
3.5795555e-06
3.6621868e-06
3.1320909e-06
3.194714e-06
2.6271826e-06
2.6676562e-06
2.0461807e-06
2.0657662e-06
1.4375911e-06
1.4415613e-06
8.9595714e-07
8.9191668e-07
4.9867629e-07
4.9303304e-07
2.5642403e-07
2.5219072e-07
1.2970946e-07
1.2735501e-07
7.1099209e-08
7.0019412e-08
4.6517645e-08
4.6136231e-08
3.7522427e-08
3.747741e-08
3.5196879e-08
3.529597e-08
3.5548723e-08
3.5700711e-08
3.6907048e-08
3.7072552e-08
3.8619727e-08
3.8783276e-08
4.0451663e-08
4.0607847e-08
4.2325959e-08
4.247326e-08
4.4220633e-08
4.4358907e-08
4.613052e-08
4.626005e-08
4.8054374e-08
4.8175546e-08
4.9990957e-08
5.0104162e-08
5.1938053e-08
5.2043664e-08
5.3892333e-08
5.3990702e-08
5.5849424e-08
5.5940881e-08
5.7803987e-08
5.7888848e-08
5.9749795e-08
5.9828362e-08
6.1679782e-08
6.175235e-08
6.35861e-08
6.3652958e-08
6.5460179e-08
6.5521607e-08
6.7292791e-08
6.7349073e-08
6.9074152e-08
6.9125571e-08
7.0794065e-08
7.0840907e-08
7.2442131e-08
7.2484688e-08
7.4008093e-08
7.4046668e-08
7.5482338e-08
7.551725e-08
7.6856528e-08
7.6888113e-08
7.8124175e-08
7.8152794e-08
7.928068e-08
7.9306721e-08
8.0322059e-08
8.034593e-08
8.1241356e-08
8.1263474e-08
8.202171e-08
8.2042478e-08
8.2623351e-08
8.2643134e-08
8.2959265e-08
8.2978354e-08
8.2801463e-08
8.2820004e-08
5.2468823e-10
1.3052397e-08
1.8957026e-07
8.1182499e-07
1.617274e-06
2.1951544e-06
2.5300196e-06
2.7266288e-06
2.8569427e-06
2.9561264e-06
3.0396658e-06
3.1136748e-06
3.1812153e-06
3.2428098e-06
3.2963128e-06
3.3403028e-06
3.3734135e-06
3.394048e-06
3.3998834e-06
3.3867098e-06
3.3462001e-06
3.2619979e-06
3.103083e-06
2.8079209e-06
2.1899667e-06
2.1642624e-10
2.6726831e-08
3.572566e-07
1.3661294e-06
2.549113e-06
3.3456366e-06
3.8044506e-06
4.0950244e-06
4.3104457e-06
4.4923719e-06
4.6586048e-06
4.8156513e-06
4.9652309e-06
5.106434e-06
5.2362986e-06
5.3522855e-06
5.4513396e-06
5.5295323e-06
5.5811749e-06
5.5964131e-06
5.5568872e-06
5.4275682e-06
5.1411686e-06
4.5627349e-06
3.3119878e-06
6.6679964e-10
7.8856255e-08
8.5694822e-07
2.5033154e-06
3.7815175e-06
4.5088902e-06
4.9604911e-06
5.2908943e-06
5.5716556e-06
5.8335921e-06
6.0898218e-06
6.3439673e-06
6.5944782e-06
6.8386438e-06
7.0732203e-06
7.2945322e-06
7.4975804e-06
7.6755318e-06
7.8188395e-06
7.9111066e-06
7.923532e-06
7.8025461e-06
7.4443597e-06
6.6343005e-06
4.8000976e-06
3.1337653e-09
2.8549576e-07
2.0634076e-06
4.0032393e-06
5.0414632e-06
5.625235e-06
6.0260256e-06
6.3599351e-06
6.6764169e-06
6.9926078e-06
7.317547e-06
7.6527011e-06
7.9925891e-06
8.3333376e-06
8.6717249e-06
9.0041185e-06
9.3245375e-06
9.6245012e-06
9.8921347e-06
1.0109414e-05
1.024651e-05
1.0249485e-05
1.0010016e-05
9.2747031e-06
7.2320076e-06
2.3394034e-08
1.1374505e-06
3.9875271e-06
5.5974715e-06
6.4505908e-06
6.9724174e-06
7.3556349e-06
7.6999024e-06
8.0461432e-06
8.3949867e-06
8.7579686e-06
9.1408926e-06
9.5323482e-06
9.925742e-06
1.031867e-05
1.0712438e-05
1.11031e-05
1.1483643e-05
1.184402e-05
1.2169888e-05
1.2439872e-05
1.2621092e-05
1.2662306e-05
1.2498287e-05
1.2114668e-05
1.9521048e-07
2.7521125e-06
5.8982934e-06
7.7049344e-06
8.6231127e-06
9.0437158e-06
9.242762e-06
9.3817589e-06
9.5218493e-06
9.6808583e-06
9.8662338e-06
1.0083467e-05
1.0332297e-05
1.0610718e-05
1.0916949e-05
1.1248408e-05
1.1600891e-05
1.1967707e-05
1.2339599e-05
1.2704533e-05
1.3046738e-05
1.3345732e-05
1.3574654e-05
1.37095e-05
1.3722614e-05
4.3446013e-06
4.3206714e-06
4.363734e-06
4.4729017e-06
4.6478744e-06
4.8779541e-06
5.1527695e-06
5.4690762e-06
5.8281134e-06
6.2310283e-06
6.6771003e-06
7.1629525e-06
7.6818323e-06
8.2247454e-06
8.7823341e-06
9.346402e-06
9.9100231e-06
1.0466421e-05
1.1007974e-05
1.1525495e-05
1.2007336e-05
1.2438838e-05
1.2801653e-05
1.3081163e-05
1.3246887e-05
9.1098881e-06
9.3686376e-06
9.7700768e-06
1.0191359e-05
1.0369245e-05
1.0334294e-05
1.0218352e-05
1.0121843e-05
1.0084404e-05
1.0107422e-05
1.0186149e-05
1.0315138e-05
1.0490822e-05
1.0710713e-05
1.0971755e-05
1.1269719e-05
1.1598356e-05
1.1949217e-05
1.2311535e-05
1.2671832e-05
1.3012864e-05
1.3312669e-05
1.3542772e-05
1.3678154e-05
1.3691503e-05
6.4035537e-06
6.8145028e-06
7.2463804e-06
7.6465136e-06
7.947977e-06
8.1634503e-06
8.3520733e-06
8.5545268e-06
8.7771532e-06
9.0332601e-06
9.3188967e-06
9.6239934e-06
9.9407938e-06
1.0271963e-05
1.0617886e-05
1.0975706e-05
1.1339668e-05
1.1701279e-05
1.2048865e-05
1.2366274e-05
1.2630178e-05
1.2805524e-05
1.2838572e-05
1.2661589e-05
1.2258788e-05
5.1304391e-06
5.4839318e-06
5.8304116e-06
6.1419211e-06
6.4006727e-06
6.6183268e-06
6.8245219e-06
7.0389405e-06
7.2710739e-06
7.5259493e-06
7.8000573e-06
8.0885563e-06
8.3881946e-06
8.696963e-06
9.0118202e-06
9.3277657e-06
9.6374827e-06
9.9309012e-06
1.0194066e-05
1.0406473e-05
1.053533e-05
1.0523139e-05
1.0257291e-05
9.4771905e-06
7.3491506e-06
4.382867e-06
4.6616815e-06
4.9399332e-06
5.1956223e-06
5.4212901e-06
5.6236145e-06
5.8160653e-06
6.010153e-06
6.2127388e-06
6.4261526e-06
6.6482025e-06
6.8753832e-06
7.1047326e-06
7.3331328e-06
7.5573507e-06
7.7724361e-06
7.9716582e-06
8.1459652e-06
8.2824472e-06
8.3610281e-06
8.3479939e-06
8.1838058e-06
7.7590306e-06
6.8570041e-06
4.9145023e-06
3.8289609e-06
4.0351179e-06
4.2470943e-06
4.447135e-06
4.6291334e-06
4.7958432e-06
4.9540055e-06
5.1099015e-06
5.2675185e-06
5.4278993e-06
5.5893873e-06
5.7490876e-06
5.9039183e-06
6.0505604e-06
6.185399e-06
6.3042544e-06
6.4021301e-06
6.472716e-06
6.5070703e-06
6.4907615e-06
6.3986276e-06
6.1861375e-06
5.7752027e-06
5.022715e-06
3.5430608e-06
3.3094443e-06
3.4535804e-06
3.6055338e-06
3.751449e-06
3.88524e-06
4.0067958e-06
4.1191272e-06
4.2256386e-06
4.3286049e-06
4.4285065e-06
4.5240774e-06
4.6129964e-06
4.692508e-06
4.7596959e-06
4.8115811e-06
4.8451798e-06
4.8575456e-06
4.8455552e-06
4.8050224e-06
4.7285581e-06
4.6016036e-06
4.3963336e-06
4.063277e-06
3.5159233e-06
2.5237273e-06
2.7396178e-06
2.8317391e-06
2.9307499e-06
3.0263804e-06
3.1128788e-06
3.1885984e-06
3.2544576e-06
3.312153e-06
3.3629397e-06
3.4070368e-06
3.4435361e-06
3.4707165e-06
3.4864462e-06
3.4885267e-06
3.4749584e-06
3.4441627e-06
3.3951753e-06
3.3276445e-06
3.2413011e-06
3.1344148e-06
3.0007805e-06
2.8251574e-06
2.578315e-06
2.2185018e-06
1.7580088e-06
2.1033387e-06
2.1535291e-06
2.2084807e-06
2.2610119e-06
2.3062972e-06
2.3422114e-06
2.3686148e-06
2.3862512e-06
2.3958379e-06
2.3975654e-06
2.3909411e-06
2.3749415e-06
2.3482854e-06
2.3097547e-06
2.2584867e-06
2.1942363e-06
2.1175934e-06
2.0300411e-06
1.9336213e-06
1.8299011e-06
1.7180473e-06
1.5923051e-06
1.4406852e-06
1.2525511e-06
1.0662145e-06
1.4547841e-06
1.4749737e-06
1.4977803e-06
1.5186337e-06
1.5340458e-06
1.5421561e-06
1.5425012e-06
1.5353884e-06
1.52131e-06
1.5005579e-06
1.4730779e-06
1.4385417e-06
1.3965326e-06
1.3467704e-06
1.2893317e-06
1.2248375e-06
1.1545837e-06
1.0805459e-06
1.005144e-06
9.3067194e-07
8.584486e-07
7.8814529e-07
7.1856361e-07
6.5281748e-07
6.0957583e-07
8.9196293e-07
8.9529404e-07
8.9976766e-07
9.0283432e-07
9.0239652e-07
8.9721234e-07
8.8690686e-07
8.7165336e-07
8.5183535e-07
8.2780124e-07
7.9976384e-07
7.6782202e-07
7.3206559e-07
6.9269786e-07
6.501487e-07
6.0515723e-07
5.588128e-07
5.1252304e-07
4.6787282e-07
4.2637753e-07
3.8923372e-07
3.5737506e-07
3.3244174e-07
3.1962588e-07
3.3281705e-07
4.8888854e-07
4.8607736e-07
4.8367603e-07
4.8047457e-07
4.7541357e-07
4.6784479e-07
4.5756864e-07
4.447048e-07
4.2951973e-07
4.1229238e-07
3.9325428e-07
3.7258937e-07
3.5049147e-07
3.2721177e-07
3.0309652e-07
2.7861477e-07
2.5436441e-07
2.3104662e-07
2.0940204e-07
1.9011666e-07
1.7375302e-07
1.6083354e-07
1.5221385e-07
1.4982306e-07
1.5769889e-07
2.4840819e-07
2.4511217e-07
2.4196508e-07
2.3846772e-07
2.3415972e-07
2.2875486e-07
2.2217201e-07
2.1448296e-07
2.058352e-07
1.9638943e-07
1.8629068e-07
1.7565427e-07
1.6461109e-07
1.5331793e-07
1.419613e-07
1.307648e-07
1.1998753e-07
1.0991154e-07
1.0081934e-07
9.295632e-08
8.6505474e-08
8.1618125e-08
7.848023e-08
7.7350847e-08
7.8084251e-08
1.2511269e-07
1.2303305e-07
1.2101269e-07
1.1886753e-07
1.1642327e-07
1.1357124e-07
1.1028443e-07
1.0660116e-07
1.0259229e-07
9.8331869e-08
9.3885109e-08
8.930792e-08
8.4647969e-08
7.9978387e-08
7.5378965e-08
7.0939016e-08
6.6756345e-08
6.2932392e-08
5.956363e-08
5.6730082e-08
5.4488538e-08
5.2845646e-08
5.1789118e-08
5.1243045e-08
5.0792799e-08
6.8976009e-08
6.8004817e-08
6.7079408e-08
6.6138621e-08
6.5119533e-08
6.3981761e-08
6.271392e-08
6.132859e-08
5.9849911e-08
5.8304044e-08
5.6714937e-08
5.5104952e-08
5.3489185e-08
5.1896026e-08
5.0354892e-08
4.8897033e-08
4.7555425e-08
4.6363336e-08
4.5351311e-08
4.4543075e-08
4.3952095e-08
4.3574682e-08
4.3363925e-08
4.3252801e-08
4.3049253e-08
4.5789157e-08
4.5496423e-08
4.5252748e-08
4.5037807e-08
4.4828021e-08
4.4605754e-08
4.436249e-08
4.4097536e-08
4.3814438e-08
4.3518127e-08
4.3213636e-08
4.2905979e-08
4.2600035e-08
4.2300426e-08
4.2016508e-08
4.1758046e-08
4.1535549e-08
4.1360122e-08
4.1242479e-08
4.1191093e-08
4.1209922e-08
4.12965e-08
4.1409934e-08
4.1505627e-08
4.1475354e-08
3.7475058e-08
3.7524827e-08
3.7625295e-08
3.776794e-08
3.7941611e-08
3.8135735e-08
3.8342135e-08
3.8554999e-08
3.8770206e-08
3.898462e-08
3.9195784e-08
3.9401809e-08
3.9601393e-08
3.979415e-08
3.9979603e-08
4.0160761e-08
4.0341351e-08
4.0526242e-08
4.0721054e-08
4.0930897e-08
4.1158393e-08
4.1401764e-08
4.1626369e-08
4.1794001e-08
4.1810149e-08
3.5441949e-08
3.5638339e-08
3.5883365e-08
3.6171526e-08
3.6495321e-08
3.6846698e-08
3.7217933e-08
3.7602013e-08
3.7992678e-08
3.8384387e-08
3.8772289e-08
3.9152225e-08
3.9520804e-08
3.9875694e-08
4.021402e-08
4.0536343e-08
4.0844556e-08
4.1142073e-08
4.1433504e-08
4.1723438e-08
4.2014367e-08
4.2304405e-08
4.2562074e-08
4.2749433e-08
4.2770315e-08
3.5899335e-08
3.6145083e-08
3.6435454e-08
3.6765759e-08
3.7129914e-08
3.7521154e-08
3.7932567e-08
3.8357435e-08
3.8789416e-08
3.9222657e-08
3.965186e-08
4.0072335e-08
4.0480097e-08
4.0872022e-08
4.1245922e-08
4.160053e-08
4.1937553e-08
4.226028e-08
4.2573304e-08
4.2881244e-08
4.3186496e-08
4.3486602e-08
4.3751817e-08
4.3943156e-08
4.3962826e-08
3.7282171e-08
3.7534941e-08
3.7828012e-08
3.8157121e-08
3.8517042e-08
3.8901966e-08
3.9305849e-08
3.9722662e-08
4.0146567e-08
4.0572032e-08
4.0993932e-08
4.140764e-08
4.1809149e-08
4.2195284e-08
4.2564036e-08
4.2914061e-08
4.3246954e-08
4.3566151e-08
4.387645e-08
4.4182584e-08
4.448679e-08
4.4785866e-08
4.5051068e-08
4.5241885e-08
4.5257366e-08
3.8987763e-08
3.9231572e-08
3.9511809e-08
3.9824594e-08
4.0165347e-08
4.0529025e-08
4.0910341e-08
4.130394e-08
4.1704555e-08
4.2107104e-08
4.2506792e-08
4.2899222e-08
4.3280552e-08
4.3647716e-08
4.399876e-08
4.4333169e-08
4.4652041e-08
4.495916e-08
4.5259596e-08
4.5558217e-08
4.5857077e-08
4.6152158e-08
4.6415221e-08
4.660388e-08
4.6613626e-08
4.080187e-08
4.1031852e-08
4.1294991e-08
4.1587762e-08
4.1906096e-08
4.2245546e-08
4.2601427e-08
4.2968958e-08
4.3343365e-08
4.3719992e-08
4.409439e-08
4.4462436e-08
4.4820508e-08
4.5165742e-08
4.549639e-08
4.5812293e-08
4.6114728e-08
4.6407727e-08
4.6696627e-08
4.6986436e-08
4.727901e-08
4.7569473e-08
4.7829626e-08
4.80147e-08
4.8015714e-08
4.2655588e-08
4.2870984e-08
4.3116791e-08
4.338979e-08
4.3686319e-08
4.400239e-08
4.4333796e-08
4.467621e-08
4.5025279e-08
4.5376715e-08
4.5726389e-08
4.6070455e-08
4.6405533e-08
4.672898e-08
4.7039286e-08
4.7336567e-08
4.7622481e-08
4.7901285e-08
4.8178593e-08
4.8459559e-08
4.8745842e-08
4.903169e-08
4.9288595e-08
4.9469227e-08
4.946216e-08
4.4529683e-08
4.473102e-08
4.4960419e-08
4.5214915e-08
4.5491176e-08
4.5785581e-08
4.6094299e-08
4.6413378e-08
4.6738814e-08
4.7066639e-08
4.7393018e-08
4.7714366e-08
4.8027545e-08
4.8330144e-08
4.8620886e-08
4.8900102e-08
4.9170114e-08
4.9435184e-08
4.9701268e-08
4.9973684e-08
5.0253915e-08
5.0535378e-08
5.0789134e-08
5.0965301e-08
5.0949367e-08
4.6419798e-08
4.6607886e-08
4.682197e-08
4.7059308e-08
4.7316836e-08
4.7591232e-08
4.787898e-08
4.8176437e-08
4.8479901e-08
4.8785688e-08
4.9090227e-08
4.9390182e-08
4.9682652e-08
4.9965459e-08
5.0237571e-08
5.0499602e-08
5.0754257e-08
5.1006132e-08
5.1261439e-08
5.1525663e-08
5.1800126e-08
5.2077478e-08
5.2328257e-08
5.2500149e-08
5.2475458e-08
4.8324845e-08
4.8500474e-08
4.8700239e-08
4.8921595e-08
4.9161708e-08
4.9417508e-08
4.9685744e-08
4.9963043e-08
5.0245968e-08
5.053109e-08
5.0815081e-08
5.1094839e-08
5.1367691e-08
5.1631693e-08
5.1886059e-08
5.2131681e-08
5.2371559e-08
5.2610825e-08
5.2855811e-08
5.3112195e-08
5.3381162e-08
5.3654638e-08
5.3902578e-08
5.4070319e-08
5.4035874e-08
5.0243556e-08
5.0407433e-08
5.059374e-08
5.0800108e-08
5.1023908e-08
5.1262288e-08
5.1512231e-08
5.1770603e-08
5.2034204e-08
5.2299839e-08
5.2564405e-08
5.282502e-08
5.3079231e-08
5.3325321e-08
5.3562751e-08
5.3792692e-08
5.4018467e-08
5.4245585e-08
5.4480665e-08
5.4729542e-08
5.4993251e-08
5.5263007e-08
5.5508056e-08
5.5671165e-08
5.5623783e-08
5.2173649e-08
5.2326399e-08
5.2499992e-08
5.2692223e-08
5.2900643e-08
5.3122603e-08
5.3355293e-08
5.3595792e-08
5.3841117e-08
5.4088288e-08
5.4334414e-08
5.4576823e-08
5.4813272e-08
5.5042263e-08
5.5263502e-08
5.5478433e-08
5.5690699e-08
5.5906148e-08
5.6131732e-08
5.6373416e-08
5.6632074e-08
5.6898204e-08
5.7140215e-08
5.7298211e-08
5.7236473e-08
5.4111734e-08
5.4253916e-08
5.4415455e-08
5.4594292e-08
5.478815e-08
5.4994561e-08
5.5210904e-08
5.5434456e-08
5.5662433e-08
5.5892053e-08
5.6120626e-08
5.6345677e-08
5.6565166e-08
5.677781e-08
5.6983549e-08
5.7184098e-08
5.7383406e-08
5.7587635e-08
5.780414e-08
5.8038937e-08
5.8292747e-08
5.8555345e-08
5.8794204e-08
5.8946822e-08
5.88718e-08
5.6053382e-08
5.6185511e-08
5.633559e-08
5.6501706e-08
5.6681735e-08
5.6873377e-08
5.7074188e-08
5.7281627e-08
5.7493095e-08
5.7705998e-08
5.7917831e-08
5.812631e-08
5.8329588e-08
5.8526589e-08
5.8717482e-08
5.8904247e-08
5.9091136e-08
5.9284636e-08
5.9492412e-08
5.9720614e-08
5.9969785e-08
6.0228983e-08
6.0464686e-08
6.0611836e-08
6.0523337e-08
5.7993216e-08
5.8115769e-08
5.8254943e-08
5.8408956e-08
5.8575829e-08
5.8753419e-08
5.8939447e-08
5.9131541e-08
5.9327278e-08
5.9524238e-08
5.9720094e-08
5.9912741e-08
6.0100517e-08
6.0282545e-08
6.0459219e-08
6.0632776e-08
6.0807763e-08
6.0990988e-08
6.11904e-08
6.1412306e-08
6.1657069e-08
6.1913059e-08
6.2145778e-08
6.2287919e-08
6.2188192e-08
5.9924977e-08
6.0038405e-08
6.0167194e-08
6.0309685e-08
6.0464035e-08
6.0628245e-08
6.0800193e-08
6.0977667e-08
6.1158406e-08
6.1340157e-08
6.152076e-08
6.1698282e-08
6.1871237e-08
6.203894e-08
6.2202002e-08
6.236291e-08
6.2526501e-08
6.269989e-08
6.2891293e-08
6.3107217e-08
6.3347812e-08
6.3600788e-08
6.3830614e-08
6.3967687e-08
6.3856721e-08
6.1841577e-08
6.1946316e-08
6.2065217e-08
6.2196739e-08
6.2339167e-08
6.249064e-08
6.264918e-08
6.2812726e-08
6.297917e-08
6.3146418e-08
6.3312468e-08
6.3475549e-08
6.3634345e-08
6.3788356e-08
6.39384e-08
6.408721e-08
6.4239904e-08
6.4403898e-08
6.458768e-08
6.4797904e-08
6.5034561e-08
6.5284697e-08
6.5511661e-08
6.5643272e-08
6.5518516e-08
6.3735153e-08
6.3831625e-08
6.3941121e-08
6.406221e-08
6.4193298e-08
6.4332654e-08
6.4478437e-08
6.4628726e-08
6.4781561e-08
6.4934994e-08
6.5087174e-08
6.5236485e-08
6.5381773e-08
6.5522714e-08
6.5660328e-08
6.5797585e-08
6.5939876e-08
6.6094912e-08
6.6271444e-08
6.6476256e-08
6.6709192e-08
6.6956629e-08
6.7180708e-08
6.7306454e-08
6.7166533e-08
6.5597123e-08
6.5685742e-08
6.5786306e-08
6.5897487e-08
6.6017805e-08
6.6145652e-08
6.6279315e-08
6.6417008e-08
6.6556906e-08
6.6697203e-08
6.6836189e-08
6.6972395e-08
6.7104821e-08
6.7233311e-08
6.7359081e-08
6.7485328e-08
6.7617709e-08
6.7764219e-08
6.7933858e-08
6.8133533e-08
6.8362921e-08
6.860771e-08
6.8828762e-08
6.8948323e-08
6.8790273e-08
6.7418256e-08
6.7499434e-08
6.7591533e-08
6.7693326e-08
6.780344e-08
6.7920381e-08
6.8042558e-08
6.8168309e-08
6.829594e-08
6.8423776e-08
6.8550243e-08
6.8674008e-08
6.8794219e-08
6.8910882e-08
6.9025395e-08
6.9141178e-08
6.9264139e-08
6.9402549e-08
6.9565644e-08
6.9760433e-08
6.9986406e-08
7.0228516e-08
7.0446213e-08
7.0558808e-08
7.0388201e-08
6.9188771e-08
6.9262918e-08
6.9347022e-08
6.9439947e-08
6.9540422e-08
6.9647061e-08
6.9758385e-08
6.9872853e-08
6.998889e-08
7.0104947e-08
7.0219574e-08
7.0331569e-08
7.044022e-08
7.0545684e-08
7.0649536e-08
7.0755404e-08
7.0869441e-08
7.1000175e-08
7.1157066e-08
7.13472e-08
7.1569889e-08
7.1809313e-08
7.2023485e-08
7.2128783e-08
7.1941844e-08
7.0898477e-08
7.0966008e-08
7.1042591e-08
7.1127174e-08
7.1218582e-08
7.1315529e-08
7.1416645e-08
7.1520496e-08
7.1625623e-08
7.1730591e-08
7.1834071e-08
7.1934982e-08
7.2032741e-08
7.2127649e-08
7.2221448e-08
7.2317962e-08
7.2423575e-08
7.2547059e-08
7.2698082e-08
7.2883804e-08
7.3103333e-08
7.3340145e-08
7.3550952e-08
7.3649621e-08
7.3447878e-08
7.2536989e-08
7.2598331e-08
7.2667876e-08
7.2744656e-08
7.2827582e-08
7.2915465e-08
7.300703e-08
7.3100949e-08
7.3195868e-08
7.329046e-08
7.3383505e-08
7.3474038e-08
7.3561595e-08
7.3646611e-08
7.3730984e-08
7.3818721e-08
7.3916421e-08
7.4033082e-08
7.4178565e-08
7.4360093e-08
7.4576574e-08
7.4810849e-08
7.501849e-08
7.5111389e-08
7.4898229e-08
7.4094074e-08
7.4149666e-08
7.4212676e-08
7.4282211e-08
7.4357263e-08
7.443673e-08
7.4519431e-08
7.4604131e-08
7.4689573e-08
7.477453e-08
7.4857884e-08
7.4938775e-08
7.5016851e-08
7.5092668e-08
7.5168268e-08
7.5247826e-08
7.5338135e-08
7.5448399e-08
7.5588647e-08
7.5766153e-08
7.5979632e-08
7.6211336e-08
7.6415773e-08
7.6502675e-08
7.6275317e-08
7.5560151e-08
7.5610456e-08
7.5667458e-08
7.5730333e-08
7.5798151e-08
7.5869888e-08
7.5944445e-08
7.6020676e-08
7.6097413e-08
7.6173518e-08
7.6247968e-08
7.6319997e-08
7.6389353e-08
7.6456705e-08
7.6524219e-08
7.659622e-08
7.6679672e-08
7.6783952e-08
7.6919226e-08
7.7092794e-08
7.7303175e-08
7.7532063e-08
7.7732948e-08
7.7813351e-08
7.7570425e-08
7.6926927e-08
7.6972435e-08
7.702399e-08
7.708083e-08
7.7142094e-08
7.7206829e-08
7.7274013e-08
7.7342577e-08
7.7411432e-08
7.7479524e-08
7.754591e-08
7.760991e-08
7.7671361e-08
7.7731027e-08
7.7791184e-08
7.785628e-08
7.7933414e-08
7.8032096e-08
7.816258e-08
7.8332148e-08
7.8539103e-08
7.8764609e-08
7.8961195e-08
7.9034321e-08
7.877489e-08
7.8187967e-08
7.8229205e-08
7.8275913e-08
7.8327387e-08
7.8382825e-08
7.8441341e-08
7.8501979e-08
7.8563735e-08
7.8625595e-08
7.8686572e-08
7.8745797e-08
7.8802664e-08
7.8857083e-08
7.8909899e-08
7.8963473e-08
7.9022343e-08
7.9093698e-08
7.9187118e-08
7.9312877e-08
7.9478172e-08
7.9681049e-08
7.9902166e-08
8.0093143e-08
8.0157561e-08
7.9877669e-08
7.933873e-08
7.937626e-08
7.9418762e-08
7.9465584e-08
7.9515976e-08
7.9569107e-08
7.9624078e-08
7.9679947e-08
7.9735754e-08
7.9790576e-08
7.9843604e-08
7.9894291e-08
7.9942611e-08
7.9989466e-08
8.0037273e-08
8.0090618e-08
8.015672e-08
8.0245146e-08
8.0366088e-08
8.0526557e-08
8.0724285e-08
8.0939438e-08
8.1122959e-08
8.1177253e-08
8.0882016e-08
8.0375277e-08
8.0409691e-08
8.0448661e-08
8.0491578e-08
8.0537737e-08
8.0586355e-08
8.063658e-08
8.0687517e-08
8.0738257e-08
8.0787925e-08
8.083576e-08
8.0881265e-08
8.0924456e-08
8.0966275e-08
8.1009159e-08
8.1057691e-08
8.1119038e-08
8.1202647e-08
8.1318494e-08
8.1473261e-08
8.1664272e-08
8.187116e-08
8.2044539e-08
8.2086563e-08
8.1777082e-08
8.1290673e-08
8.1322574e-08
8.1358697e-08
8.1398466e-08
8.1441214e-08
8.1486197e-08
8.1532601e-08
8.157957e-08
8.1626232e-08
8.1671751e-08
8.1715402e-08
8.1756724e-08
8.1795764e-08
8.1833477e-08
8.1872281e-08
8.1916693e-08
8.1973738e-08
8.2052612e-08
8.2162901e-08
8.2310775e-08
8.2492997e-08
8.2688587e-08
8.2848233e-08
8.2874599e-08
8.2548972e-08
8.2068028e-08
8.2098001e-08
8.2131941e-08
8.2169292e-08
8.220942e-08
8.2251616e-08
8.2295087e-08
8.233902e-08
8.2382563e-08
8.2424902e-08
8.2465331e-08
8.2503422e-08
8.2539242e-08
8.2573734e-08
8.2609258e-08
8.26502e-08
8.2703339e-08
8.2777475e-08
8.2881614e-08
8.3021165e-08
8.3192046e-08
8.337286e-08
8.3514592e-08
8.3521776e-08
8.3181379e-08
8.2667486e-08
8.2696066e-08
8.2728426e-08
8.2764026e-08
8.2802274e-08
8.2842508e-08
8.2883904e-08
8.2925724e-08
8.2967117e-08
8.3007224e-08
8.3045333e-08
8.3081063e-08
8.311451e-08
8.3146588e-08
8.3179535e-08
8.3217599e-08
8.3267191e-08
8.3336576e-08
8.3433996e-08
8.3563882e-08
8.3721121e-08
8.3883734e-08
8.4003328e-08
8.3987308e-08
8.3630118e-08
8.3001869e-08
8.3029481e-08
8.3060748e-08
8.3095156e-08
8.3132213e-08
8.3171358e-08
8.3211559e-08
8.3252316e-08
8.3292738e-08
8.3331606e-08
8.3368211e-08
8.3402312e-08
8.343408e-08
8.3464349e-08
8.3495036e-08
8.3530681e-08
8.3577071e-08
8.3641787e-08
8.3732187e-08
8.3851585e-08
8.3993696e-08
8.4135902e-08
8.4231116e-08
8.4191768e-08
8.3829644e-08
8.2842866e-08
8.2869733e-08
8.2900177e-08
8.2933768e-08
8.2970298e-08
8.3009455e-08
8.3049522e-08
8.3090741e-08
8.3132172e-08
8.3171033e-08
8.3206852e-08
8.3239839e-08
8.3270346e-08
8.3298803e-08
8.3325642e-08
8.3358854e-08
8.3402347e-08
8.3462656e-08
8.3546228e-08
8.3655439e-08
8.3782957e-08
8.3905266e-08
8.3977803e-08
8.39209e-08
8.3576045e-08
)
;

boundaryField
{
    Walls
    {
        type            nutUWallFunction;
        Cmu             0.09;
        kappa           0.41;
        E               9.8;
        value           uniform 0;
    }
    Inlet
    {
        type            calculated;
        value           nonuniform List<scalar> 3(4.1293824e-05 1.8313647e-05 7.9558412e-07);
    }
    Outlet
    {
        type            calculated;
        value           nonuniform List<scalar> 
86
(
8.2773964e-08
8.2778192e-08
8.2787467e-08
8.2801463e-08
8.2820004e-08
8.2842866e-08
8.2869733e-08
8.2900177e-08
8.2933768e-08
8.2970298e-08
8.3009455e-08
8.3049522e-08
8.3090741e-08
8.3132172e-08
8.3171033e-08
8.3206852e-08
8.3239839e-08
8.3270346e-08
8.3298803e-08
8.3325642e-08
8.3358854e-08
8.3402347e-08
8.3462656e-08
8.3546228e-08
8.3655439e-08
8.3782957e-08
8.3905266e-08
8.3977803e-08
8.39209e-08
8.3576045e-08
1.3246887e-05
1.3691503e-05
1.2258788e-05
0
0
0
0
1.7580088e-06
1.0662145e-06
0
0
0
0
0
0
0
4.1810149e-08
4.2770315e-08
4.3962826e-08
4.5257366e-08
4.6613626e-08
4.8015714e-08
4.946216e-08
5.0949367e-08
5.2475458e-08
5.4035874e-08
5.5623783e-08
5.7236473e-08
5.88718e-08
6.0523337e-08
6.2188192e-08
6.3856721e-08
6.5518516e-08
6.7166533e-08
6.8790273e-08
7.0388201e-08
7.1941844e-08
7.3447878e-08
0
0
0
0
0
0
0
0
0
0
0
8.3576045e-08
0
0
0
0
1.2114668e-05
1.3722614e-05
)
;
    }
    Front
    {
        type            wedge;
    }
    Back
    {
        type            wedge;
    }
    defaultFaces
    {
        type            empty;
    }
}


// ************************************************************************* //
