/*--------------------------------*- C++ -*----------------------------------*\
| =========                 |                                                 |
| \\      /  F ield         | OpenFOAM: The Open Source CFD Toolbox           |
|  \\    /   O peration     | Version:  4.0                                   |
|   \\  /    A nd           | Web:      www.OpenFOAM.org                      |
|    \\/     M anipulation  |                                                 |
\*---------------------------------------------------------------------------*/
FoamFile
{
    version     2.0;
    format      ascii;
    class       volScalarField;
    location    "0.18";
    object      omega;
}
// * * * * * * * * * * * * * * * * * * * * * * * * * * * * * * * * * * * * * //

dimensions      [0 0 -1 0 0 0 0];

internalField   nonuniform List<scalar> 
1740
(
62.436345
690.51037
14918.598
176.03183
1433.4376
15028.715
285.75728
1925.9869
15115.978
383.64303
2205.6632
15198.977
494.40173
2523.1473
15270.253
610.54428
2850.512
15329.515
733.93697
3061.9623
15375.335
830.96843
3215.7963
15414.299
939.07025
3387.6971
15449.495
1054.7909
3555.6502
15476.042
1158.4879
3682.5238
15497.87
1237.6917
3736.6017
15513.254
1321.9035
3779.5266
15525.803
1414.4311
3846.5069
15535.731
1499.8837
3949.0377
15548.207
1578.7333
3994.3204
15557.947
1624.3051
4012.1324
15557.913
1664.3176
4041.4977
15567.2
1710.7431
4081.4019
15574.339
1751.4212
4042.0286
15567.534
1800.2869
4029.1559
15574.277
1854.5132
4122.4278
15582.972
1886.9709
4165.1169
15574.579
1889.5851
4124.5277
15574.834
1902.6345
4115.4403
15577.574
1933.3456
4192.2881
15574.748
1971.9778
4265.4684
15571.219
2004.6558
4277.8822
15564.702
2007.0988
4238.4899
15556.606
2131.9121
4304.8463
15498.209
3197.2227
4570.2953
10694.396
3328.651
4228.0802
5904.2946
1570.6032
1858.3788
2152.6556
825.87065
901.36907
959.37154
480.76044
499.07793
509.01525
303.87254
307.62777
307.59071
205.26413
205.57724
204.05904
147.3099
146.98331
145.71047
112.36749
112.0454
111.21619
91.482218
91.269387
90.784397
79.607152
79.489538
79.231993
73.450526
73.398094
73.281241
70.657901
70.646345
70.611732
69.567396
69.567457
69.556074
68.830909
68.831619
68.825484
68.184846
68.189904
68.190048
67.578019
67.586716
67.591626
67.032365
67.041406
67.047488
66.581821
66.588866
66.593525
66.233681
66.238286
66.240859
65.97211
65.974756
65.975598
65.774171
65.775484
65.775158
65.619585
65.620057
65.619023
65.493476
65.493439
65.492008
65.385847
65.385511
65.383884
65.290253
65.289748
65.288046
65.202605
65.202013
65.20031
65.120332
65.119703
65.118043
65.041827
65.041191
65.039601
64.966103
64.965479
64.963973
64.892578
64.891977
64.890564
64.820936
64.820366
64.819047
64.751035
64.7505
64.749276
64.682824
64.682326
64.681196
64.616244
64.615783
64.614744
64.551029
64.550604
64.549653
64.486286
64.485896
64.485028
64.419544
64.419189
64.4184
64.344737
64.344415
64.343702
64.248091
64.247802
64.247161
64.100314
64.100056
64.099487
63.842712
63.842488
63.841994
63.36443
63.364246
63.363841
62.468498
62.468368
62.468083
60.827346
60.827296
60.827193
57.936252
57.936325
57.936496
53.089069
53.089308
53.089852
45.425813
45.426223
45.427161
34.12201
34.122503
34.123638
18.843794
18.844163
18.845016
13480.822
13535.98
5986.7439
5328.5866
2081.1877
1879.7485
922.34808
853.37613
491.85454
464.451
299.03705
286.78187
199.5837
193.69553
143.29709
140.31324
109.89825
108.32736
90.06999
89.230024
78.861167
78.420903
73.108413
72.893676
70.549678
70.460057
69.525888
69.473022
68.805146
68.765697
68.176936
68.146097
67.583747
67.559558
67.042422
67.023634
66.589473
66.574929
66.237033
66.22564
65.971804
65.962643
65.771409
65.763799
65.615371
65.60885
65.488499
65.482769
65.380544
65.375417
65.284891
65.280249
65.197345
65.19311
65.11527
65.111389
65.037016
65.033451
64.961572
64.958295
64.888339
64.885327
64.816993
64.814226
64.747384
64.744846
64.679458
64.677135
64.613152
64.61103
64.5482
64.546266
64.483706
64.481948
64.417201
64.415609
64.342619
64.341183
64.24619
64.244904
64.098626
64.097488
63.841249
63.840268
63.363232
63.362437
62.467659
62.467114
60.827045
60.826877
57.936771
57.937182
53.090712
53.091947
45.428658
45.430828
34.125476
34.128192
18.846413
18.848512
12058.203
2044.2746
697.10388
368.83288
280.08821
255.08405
247.17895
243.2772
239.92679
236.33721
232.40641
228.16411
223.59934
218.67843
213.39141
207.70611
201.57685
194.92163
187.57593
179.2039
169.1457
156.16227
138.01737
110.66999
65.365744
12058.133
2038.0165
698.0816
374.63009
282.71329
253.57035
241.68627
234.02279
227.37549
220.93163
214.52115
208.12631
201.73733
195.30882
188.82131
182.25726
175.59563
168.7873
161.72609
154.18713
145.72245
135.4643
121.73691
101.1072
65.258541
12058.18
2030.2742
718.50445
430.64015
359.28566
332.25341
314.81776
300.19723
286.77908
273.98346
261.70951
249.97261
238.74457
227.91584
217.45544
207.35776
197.61406
188.19373
179.02847
169.96872
160.72055
150.68928
138.58611
121.27294
89.3574
12058.528
2031.4746
817.44377
608.85292
550.10397
512.98915
480.03633
449.55759
421.61932
395.35346
370.70942
347.73271
326.54364
306.71266
288.05144
270.55662
254.21241
238.97915
224.79648
211.56849
199.14007
187.24129
175.30609
161.78281
140.09134
12061.538
2150.8408
1232.3791
1078.5011
989.86437
907.16003
828.76535
757.39657
693.61344
634.68781
580.50509
531.01381
487.02715
447.02201
410.29896
376.87772
346.61849
319.33325
294.82136
272.86763
253.24767
235.74661
220.19039
206.68585
196.33588
12087.259
3819.8991
2808.5902
2404.1684
2095.8891
1827.0849
1591.7794
1388.5161
1212.593
1060.7836
930.0422
817.55116
720.8026
637.38006
565.30361
503.06502
449.36536
403.06626
363.17575
328.83339
299.29498
273.94156
252.3128
234.46797
221.67301
10360.301
7903.0797
6098.5283
4788.7058
3818.9599
3083.949
2514.9445
2067.7883
1712.9263
1429.1668
1200.7036
1015.6743
865.13594
742.17185
641.27951
558.08106
489.12149
431.68871
383.65177
343.32552
309.36767
280.72364
256.61685
236.87687
222.79722
4087.6747
3305.523
2842.7491
2467.5904
2148.5256
1868.1278
1623.5234
1411.9968
1230.6403
1075.2088
941.91956
827.37829
728.61314
643.44129
570.01327
506.72958
452.20657
405.25332
364.8441
330.09377
300.23861
274.64433
252.83362
234.85038
221.94801
1593.6272
1399.4893
1269.5659
1161.5026
1059.4552
962.31568
873.69445
794.85187
723.0321
657.99213
599.84075
548.47621
501.4338
458.51116
419.57534
384.41314
352.77664
324.40546
299.03628
276.40839
256.2694
238.38766
222.57602
208.92731
198.50051
771.02229
708.013
661.95648
621.54491
581.35882
541.38746
503.96524
469.54346
437.66201
408.29254
381.47701
356.9651
334.07634
312.68348
292.75543
274.25506
257.12747
241.29935
226.68011
213.15604
200.56927
188.66123
176.89566
163.78956
142.991
434.90777
411.15739
392.53901
375.43982
357.83925
339.70445
322.00088
305.17639
289.29885
274.41557
260.53647
247.54188
235.21873
223.49447
212.3791
201.85395
191.88458
182.41618
173.36052
164.56817
155.76435
146.39386
135.21469
119.10027
88.615321
274.26071
263.79763
255.17134
247.08207
238.66331
229.83668
220.96412
212.30784
203.98188
196.03933
188.48705
181.27423
174.32055
167.58421
161.05912
154.734
148.57819
142.53068
136.48031
130.22636
123.39872
115.28851
104.46781
87.864906
57.995327
187.79902
182.70277
178.32773
174.16317
169.81794
165.21491
160.48441
155.76582
151.1444
146.66303
142.33033
138.12476
134.01111
129.96439
125.96985
122.00812
118.0419
114.00085
109.75804
105.09043
99.611414
92.649407
83.003237
68.334225
42.843724
137.33821
134.68422
132.32196
130.04028
127.65711
125.11711
122.46464
119.76834
117.08081
114.4324
111.83221
109.27234
106.73599
104.20687
101.66965
99.102194
96.46404
93.680163
90.61724
87.050832
82.626369
76.82835
69.011551
58.724164
47.496817
106.74961
105.29524
103.95379
102.63529
101.25489
99.779456
98.223228
96.619281
94.998433
93.381319
91.776735
90.18363
88.594659
86.999805
85.385702
83.729672
81.988631
80.081916
77.867239
75.112512
71.476421
66.533388
59.932269
51.915655
44.704861
88.369524
87.544905
86.753619
85.958552
85.122144
84.228066
83.282109
82.301507
81.305009
80.307286
79.316894
78.336506
77.363837
76.392387
75.409628
74.390794
73.286959
72.005975
70.385709
68.16303
64.951546
60.260191
53.621791
44.970376
34.333666
77.953731
77.482642
77.007831
76.51553
75.991779
75.431102
74.838223
74.224112
73.601589
72.982144
72.374256
71.782605
71.206782
70.640771
70.070437
69.466626
68.772014
67.879707
66.602277
64.632873
61.506137
56.575099
49.024646
37.878264
21.417671
72.650229
72.384459
72.096101
71.78138
71.437228
71.064288
70.667641
70.255725
69.838691
69.426748
69.028779
68.651675
68.295674
67.953663
67.608966
67.228109
66.746705
66.045941
64.917643
63.019499
59.826241
54.58689
46.325083
33.914472
16.17238
70.341995
70.192193
70.008941
69.792086
69.543061
69.26501
68.962904
68.643749
68.316589
67.99185
67.679611
67.391654
67.129646
66.884709
66.63742
66.350476
65.954407
65.323426
64.237441
62.337227
59.075007
53.670894
45.14785
32.531181
15.30706
69.394174
69.286268
69.147796
68.978472
68.779107
68.55146
68.298028
68.023046
67.733423
67.439129
67.152276
66.883824
66.645914
66.42909
66.213824
65.96216
65.602916
65.006838
63.949239
62.062046
58.782422
53.357463
44.875375
32.536251
16.091782
68.703107
68.613874
68.495929
68.34848
68.17183
67.967486
67.738673
67.49126
67.234256
66.978991
66.736465
66.513436
66.319543
66.144017
65.966266
65.747778
65.417012
64.844609
63.806988
61.939926
58.692119
53.315442
44.968426
32.947212
17.10205
68.093555
68.015369
67.909546
67.77579
67.615421
67.431631
67.229836
67.017743
66.804633
66.599783
66.410454
66.240208
66.088378
65.949654
65.802852
65.609748
65.299665
64.744675
63.723753
61.877695
58.665342
53.350027
45.113551
33.273559
17.670745
67.515582
67.447867
67.355241
67.238668
67.100996
66.946823
66.78228
66.614446
66.450407
66.29613
66.155458
66.029349
65.915107
65.804302
65.680592
65.506068
65.211089
64.669244
63.66183
61.833452
58.648881
53.378185
45.199071
33.40043
17.849267
66.988419
66.933463
66.858445
66.765118
66.656802
66.537965
66.413743
66.28935
66.169427
66.057451
65.955259
65.862567
65.776061
65.687114
65.58035
65.419318
65.135391
64.603349
63.606146
61.790829
58.62548
53.382853
45.230043
33.417505
17.770164
66.547985
66.506234
66.449775
66.380328
66.300705
66.214359
66.124961
66.035979
65.95031
65.869972
65.795819
65.727118
65.660588
65.588259
65.493276
65.341943
65.066089
64.54127
63.551538
61.745527
58.59359
53.371039
45.23915
33.42491
17.77247
66.205424
66.174785
66.133911
66.084119
66.02742
65.966189
65.902856
65.839651
65.778384
65.720263
65.665668
65.6137
65.561174
65.500378
65.414475
65.270272
65.000371
64.480925
63.496772
61.697756
58.556301
53.351234
45.243833
33.452916
17.782197
65.947327
65.924838
65.895337
65.859721
65.819322
65.775688
65.730385
65.684841
65.640211
65.59724
65.556045
65.51565
65.472939
65.420387
65.341502
65.202345
64.936876
64.421544
63.441796
61.648544
58.516275
53.327853
45.247825
33.498847
17.870319
65.751848
65.734921
65.71314
65.687091
65.657634
65.625767
65.592501
65.558764
65.525309
65.492597
65.46058
65.428225
65.392442
65.34579
65.271891
65.136796
64.874794
64.362755
63.3867
61.598524
58.474612
53.301715
45.248512
33.540589
17.939928
65.599174
65.585952
65.569278
65.549538
65.527294
65.503197
65.477914
65.452065
65.426148
65.400443
65.374788
65.348098
65.317282
65.274936
65.204749
65.072863
64.813608
64.304295
63.331467
61.547862
58.431279
53.270826
45.23686
33.562408
18.093929
65.474654
65.463921
65.450644
65.435089
65.417634
65.39872
65.3788
65.358299
65.337557
65.316728
65.295571
65.272955
65.245775
65.206647
65.139316
65.010081
64.752948
64.245926
63.275973
61.496549
58.38648
53.236208
45.216318
33.565186
18.207744
65.368416
65.359402
65.348445
65.335734
65.321538
65.306166
65.289938
65.273158
65.256058
65.238711
65.220815
65.201201
65.176746
65.14007
65.074945
64.947731
64.692476
64.187434
63.220068
61.444518
58.340475
53.199161
45.190232
33.556857
18.280937
65.274078
65.266305
65.256992
65.246285
65.234382
65.221512
65.207911
65.193801
65.179347
65.164561
65.149097
65.131756
65.109396
65.074632
65.011252
64.885666
64.63206
64.128672
63.163616
61.391674
58.293394
53.160785
45.163129
33.550122
18.353579
65.187592
65.180755
65.172659
65.163423
65.153199
65.142165
65.130501
65.118377
65.105909
65.093068
65.079474
65.063902
65.043194
65.009955
64.947981
64.823715
64.571428
64.069521
63.106517
61.337878
58.245069
53.121063
45.134989
33.536048
18.348329
65.106404
65.100307
65.093154
65.085043
65.076101
65.066467
65.056287
65.045693
65.034767
65.023451
65.011339
64.997184
64.977811
64.945817
64.884995
64.761813
64.510614
64.009967
63.048715
61.282966
58.195067
53.078966
45.103693
33.514015
18.286748
65.028921
65.023432
65.017038
65.009826
65.001899
64.993375
64.984374
64.975001
64.965313
64.95523
64.944325
64.931335
64.913068
64.882109
64.822246
64.69996
64.449657
63.950066
62.99021
61.226834
58.143058
53.033807
45.06857
33.492321
18.274259
64.954162
64.94919
64.943432
64.936961
64.92987
64.922256
64.914222
64.905854
64.89719
64.888134
64.87824
64.86623
64.848898
64.818813
64.759755
64.638208
64.388615
63.889819
62.93106
61.169526
58.089011
52.985343
45.028404
33.461552
18.244987
64.881549
64.87703
64.871818
64.86598
64.859595
64.852751
64.845534
64.838017
64.830224
64.822042
64.813015
64.801848
64.78532
64.755984
64.697605
64.576661
64.327615
63.829391
62.871425
61.111259
58.033346
52.934749
44.988027
33.444162
18.266211
64.810772
64.806655
64.801924
64.796638
64.790867
64.78469
64.77818
64.771401
64.764363
64.756944
64.748673
64.738243
64.722418
64.693733
64.635929
64.515469
64.266821
63.768973
62.811544
61.052379
57.976694
52.883079
44.947863
33.435033
18.331876
64.741688
64.737937
64.733636
64.72884
64.723614
64.718025
64.71214
64.706012
64.699643
64.692899
64.685299
64.675524
64.660321
64.632204
64.574889
64.454811
64.206429
63.708779
62.751649
60.993261
57.919607
52.830904
44.907523
33.425337
18.378638
64.674251
64.670833
64.666922
64.66257
64.657832
64.652771
64.647446
64.641902
64.636131
64.629993
64.622996
64.613809
64.599163
64.571548
64.51465
64.394868
64.146642
63.649046
62.69205
60.934325
57.862723
52.778986
44.866085
33.405552
18.392239
64.6084
64.60529
64.601736
64.597787
64.593493
64.588911
64.584093
64.579077
64.573849
64.56826
64.56181
64.553156
64.539012
64.511845
64.455305
64.335751
64.087592
63.589937
62.63295
60.8758
57.806269
52.727579
44.825015
33.385882
18.335091
64.543873
64.541047
64.537823
64.534243
64.530356
64.526211
64.521856
64.517322
64.51259
64.507502
64.501551
64.493384
64.479696
64.452931
64.396703
64.277323
64.029164
63.53136
62.574264
60.817536
57.749803
52.675284
44.780129
33.359558
18.4414
64.479776
64.477214
64.474295
64.471057
64.467544
64.463801
64.459871
64.45578
64.451503
64.446875
64.441383
64.433661
64.420391
64.39399
64.338034
64.218788
63.97058
63.472556
62.515238
60.758721
57.692266
52.620411
44.728143
33.314292
18.448097
64.413644
64.411328
64.408693
64.405772
64.402606
64.399235
64.395699
64.392017
64.38816
64.383958
64.378889
64.371576
64.358689
64.332618
64.276904
64.15776
63.909469
63.411178
62.453555
60.697088
57.631633
52.562025
44.672481
33.264128
18.426265
64.339413
64.337329
64.33496
64.332338
64.329498
64.326477
64.32331
64.320012
64.316547
64.312742
64.308065
64.301132
64.288596
64.262825
64.207324
64.088258
63.839864
63.34129
62.383349
60.626949
57.562685
52.49633
44.614104
33.229996
18.392008
64.24332
64.24146
64.239347
64.237013
64.234489
64.231807
64.228997
64.226068
64.222981
64.219553
64.215248
64.208671
64.196461
64.170964
64.11565
63.996642
63.748138
63.249306
62.291143
60.535076
57.472752
52.411711
44.541402
33.183897
18.394752
64.096091
64.094454
64.092603
64.090563
64.088364
64.086031
64.083589
64.08104
64.078338
64.075291
64.071354
64.065123
64.05322
64.027973
63.972823
63.853858
63.605262
63.106267
62.148156
60.393111
57.334359
52.282271
44.430406
33.102989
18.344604
63.83907
63.837677
63.836114
63.834406
63.832576
63.830645
63.828626
63.826513
63.824246
63.821623
63.818086
63.812216
63.800622
63.775613
63.720611
63.601691
63.353071
62.854157
61.896739
60.144206
57.092242
52.055682
44.234976
32.957973
18.239003
63.361477
63.360381
63.359176
63.357887
63.356533
63.355125
63.35366
63.352117
63.350414
63.348328
63.345282
63.339838
63.328593
63.30384
63.249003
63.130194
62.88177
62.383542
61.428286
59.681513
56.642994
51.63449
43.866042
32.672991
17.993079
62.466479
62.46579
62.465082
62.464381
62.4637
62.463036
62.462368
62.461643
62.460744
62.459413
62.457041
62.45217
62.441382
62.41698
62.362427
62.243976
61.996359
61.500283
60.55048
58.816412
55.805166
50.850655
43.180144
32.148193
17.703796
60.826729
60.826651
60.826684
60.826846
60.827144
60.827566
60.82806
60.828527
60.828795
60.828551
60.827142
60.823092
60.812992
60.78919
60.735287
60.617892
60.372595
59.881989
58.944661
57.23745
54.280591
49.429522
41.942552
31.214202
17.22399
57.937789
57.938658
57.939808
57.941222
57.9429
57.944841
57.94694
57.949067
57.950954
57.952217
57.952132
57.949245
57.940221
57.917555
57.865174
57.750466
57.510821
57.032622
56.12183
54.468722
51.616577
46.95755
39.801072
29.59762
16.34873
53.093655
53.095905
53.098641
53.101744
53.105255
53.109276
53.113495
53.117922
53.122107
53.125473
53.12711
53.12575
53.118346
53.09776
53.048574
52.939838
52.712432
52.259928
51.401764
49.851717
47.19164
42.872883
36.286138
26.969921
14.962016
45.433831
45.437732
45.442333
45.447409
45.453377
45.460856
45.468337
45.476954
45.485761
45.492822
45.496814
45.497274
45.492043
45.47473
45.430847
45.333736
45.13025
44.72662
43.965424
42.599161
40.270205
36.518617
30.850048
22.913426
12.767568
34.132011
34.136987
34.142843
34.149624
34.159313
34.17422
34.188266
34.206981
34.228602
34.243633
34.251196
34.253575
34.250671
34.236665
34.19543
34.117544
33.956428
33.638087
33.041673
31.978934
30.180879
27.311052
23.02644
17.109574
9.6578786
18.851506
18.85545
18.860243
18.866744
18.879323
18.902578
18.923629
18.95516
18.996439
19.020288
19.030332
19.033546
19.031956
19.017115
18.958847
18.906896
18.812726
18.628463
18.285355
17.677851
16.656613
15.041166
12.660797
9.4282996
5.4725635
)
;

boundaryField
{
    Walls
    {
        Cmu             0.09;
        kappa           0.41;
        E               9.8;
        beta1           0.075;
        type            omegaWallFunction;
        value           nonuniform List<scalar> 
38
(
12058.203
12058.133
12058.18
12058.528
12061.538
12087.259
13480.822
13535.98
14918.598
15028.715
15115.978
15198.977
15270.253
15329.515
15375.335
15414.299
15449.495
15476.042
15497.87
15513.254
15525.803
15535.731
15548.207
15557.947
15557.913
15567.2
15574.339
15567.534
15574.277
15582.972
15574.579
15574.834
15577.574
15574.748
15571.219
15564.702
15556.606
15498.209
)
;
    }
    Inlet
    {
        type            turbulentMixingLengthDissipationRateInlet;
        mixingLength    0.03;
        phi             phi;
        k               k;
        value           nonuniform List<scalar> 3(0.0044052925 0.004760857 0.0044499998);
    }
    Outlet
    {
        type            inletOutlet;
        inletValue      uniform 1e-05;
        value           nonuniform List<scalar> 
86
(
18.843794
18.844163
18.845016
18.846413
18.848512
18.851506
18.85545
18.860243
18.866744
18.879323
18.902578
18.923629
18.95516
18.996439
19.020288
19.030332
19.033546
19.031956
19.017115
18.958847
18.906896
18.812726
18.628463
18.285355
17.677851
16.656613
15.041166
12.660797
9.4282996
5.4725635
222.79722
221.94801
198.50051
1e-05
1e-05
1e-05
1e-05
47.496817
44.704861
1e-05
1e-05
1e-05
1e-05
1e-05
1e-05
1e-05
17.849267
17.770164
17.77247
17.782197
17.870319
17.939928
18.093929
18.207744
18.280937
18.353579
18.348329
18.286748
18.274259
18.244987
18.266211
18.331876
18.378638
18.392239
18.335091
18.4414
18.448097
18.426265
1e-05
1e-05
1e-05
1e-05
1e-05
1e-05
1e-05
1e-05
1e-05
1e-05
1e-05
5.4725635
1e-05
1e-05
1e-05
1e-05
196.33588
221.67301
)
;
    }
    Front
    {
        type            wedge;
    }
    Back
    {
        type            wedge;
    }
    defaultFaces
    {
        type            empty;
    }
}


// ************************************************************************* //
