/*--------------------------------*- C++ -*----------------------------------*\
| =========                 |                                                 |
| \\      /  F ield         | OpenFOAM: The Open Source CFD Toolbox           |
|  \\    /   O peration     | Version:  4.0                                   |
|   \\  /    A nd           | Web:      www.OpenFOAM.org                      |
|    \\/     M anipulation  |                                                 |
\*---------------------------------------------------------------------------*/
FoamFile
{
    version     2.0;
    format      ascii;
    class       volScalarField;
    location    "0.18";
    object      p;
}
// * * * * * * * * * * * * * * * * * * * * * * * * * * * * * * * * * * * * * //

dimensions      [0 2 -2 0 0 0 0];

internalField   nonuniform List<scalar> 
1740
(
491.70119
491.72812
491.68327
474.89227
475.05525
475.07118
458.16121
458.33808
458.30997
441.94272
441.78738
441.69793
425.8283
425.56977
425.97117
409.82593
409.95073
410.44821
393.85664
394.2471
394.17631
377.60233
377.79391
377.67812
361.09676
361.03297
361.29253
344.83588
344.57087
344.7803
328.58429
328.33394
328.08732
312.09099
311.97083
311.57534
295.70923
295.75623
295.62441
279.31344
279.53145
279.77113
262.5239
262.73228
263.05062
245.6692
245.79906
245.91363
229.31672
229.34894
229.27236
213.03124
212.77565
212.60479
195.92898
195.79862
195.61764
178.74785
178.88722
178.81406
162.29589
162.08535
162.3001
145.92399
145.73654
145.99091
129.39565
129.72849
129.7902
112.93249
113.2065
113.22854
96.373324
96.294231
96.412128
79.741913
79.679007
79.822688
63.185758
63.212753
63.300866
47.078439
46.919978
46.973758
31.357308
31.193233
31.005621
16.304123
16.141283
15.489457
4.0541391
3.4972366
1.5117166
-0.58761058
-0.52288349
-0.39636603
-0.10278218
-0.094519207
-0.09308513
0.022598511
0.022708932
0.01424019
0.029597268
0.029202394
0.025565139
0.027714417
0.026934156
0.024233184
0.023762376
0.022969509
0.021106936
0.02032248
0.019709177
0.01844159
0.017879637
0.01741397
0.016478419
0.01620473
0.01586645
0.01517222
0.014903439
0.014651502
0.014124689
0.013682375
0.013491554
0.013088121
0.012489807
0.012342514
0.01202815
0.01131612
0.01120021
0.010951897
0.010190284
0.01010123
0.0099092024
0.0091525183
0.0090866029
0.0089413538
0.0082197342
0.0081678711
0.0080536468
0.007379258
0.0073362096
0.0072420901
0.0066168716
0.0065789194
0.0064946178
0.0059187106
0.0058854846
0.0058122246
0.0052818826
0.0052530685
0.0051902419
0.004703913
0.0046789673
0.0046251967
0.0041817534
0.0041606072
0.0041144833
0.0037132245
0.0036952069
0.0036556732
0.0032951362
0.0032797397
0.0032458644
0.0029241452
0.0029109522
0.0028818908
0.0025967475
0.0025854409
0.0025604246
0.002309091
0.0022994664
0.0022776462
0.0020559598
0.0020473216
0.0020288877
0.001837848
0.0018307647
0.0018153354
0.0016492486
0.0016432839
0.0016301953
0.0014854851
0.0014804307
0.0014693166
0.0013429294
0.0013386323
0.0013291761
0.0012184281
0.0012147586
0.0012066874
0.0011089738
0.0011058333
0.0010989257
0.0010117024
0.0010090088
0.0010030854
0.00092407078
0.00092175977
0.00091665787
0.00084393301
0.00084191396
0.0008375329
0.00076940815
0.00076763532
0.0007638729
0.00069883333
0.00069733855
0.0006940774
0.00063094537
0.00062966337
0.00062684634
0.00056465234
0.00056355173
0.00056112905
0.00049912084
0.00049818258
0.00049611392
0.00043373882
0.00043294842
0.00043120299
0.00036807809
0.00036742434
0.00036597889
0.0003018742
0.00030134896
0.00030018673
0.0002350317
0.00023462938
0.00023373896
0.00016766347
0.00016738024
0.0001667539
0.00010008466
9.9917316e-05
9.9548752e-05
3.3023551e-05
3.2968285e-05
3.2848485e-05
-1.3424497
-0.94285742
-0.327236
-0.26026311
-0.092930319
-0.091794709
0.0022955258
-0.0085768913
0.020617398
0.015806053
0.021322691
0.018700574
0.01884579
0.016921517
0.016820164
0.015143852
0.015265625
0.013935666
0.014240693
0.013171298
0.013397697
0.01253447
0.012520706
0.011829825
0.011579593
0.011025571
0.010598931
0.010155013
0.009632318
0.0092730593
0.0087186779
0.0084236327
0.0078721064
0.0076264227
0.0070911506
0.0068857226
0.0063643577
0.0061937578
0.0057011085
0.0055534197
0.0050952064
0.0049686143
0.0045436878
0.0044350235
0.0040444481
0.003951169
0.0035955281
0.0035151507
0.003194237
0.0031250494
0.0028375923
0.0027780841
0.002522261
0.0024706702
0.0022440003
0.0021992063
0.0020011855
0.0019643463
0.0017919223
0.0017605612
0.001610267
0.0015835179
0.001452351
0.0014295609
0.0013147402
0.0012952916
0.0011943682
0.0011776891
0.0010883362
0.0010740231
0.00099396615
0.00098169445
0.00090884004
0.00089828105
0.00083082143
0.00082170823
0.00075807547
0.00075020026
0.000689065
0.00068225649
0.00062251752
0.00061663443
0.00055740348
0.00055233716
0.00049293104
0.00048859897
0.000428516
0.00042485589
0.00036375285
0.00036071863
0.00029839656
0.00029595528
0.00023236744
0.00023049654
0.00016578909
0.00016447269
9.898081e-05
9.8205658e-05
3.2664209e-05
3.2412777e-05
0.011303228
0.010961033
0.010333669
0.0095712786
0.0087633505
0.007972171
0.0072099752
0.0064588713
0.005703697
0.0049489221
0.004212981
0.0035178471
0.0028812483
0.0023126527
0.0018216245
0.0014080565
0.0010669604
0.00079196758
0.00057440036
0.00040569215
0.00027756568
0.00018181152
0.00011066427
5.8234282e-05
2.1036371e-05
0.010556922
0.01020728
0.0095550397
0.0087619937
0.0079074452
0.0070434018
0.006190533
0.0053459157
0.0045171455
0.0037272678
0.0029978672
0.0023440218
0.0017730921
0.0012874349
0.00087977298
0.00054826886
0.00028987535
0.00010242435
-2.3950085e-05
-9.8822005e-05
-0.00013130354
-0.00013230782
-0.00011031666
-6.92199e-05
-1.2840606e-05
0.0047245534
0.004219423
0.0033555063
0.0023371107
0.0011864423
-5.0193163e-05
-0.0012927855
-0.0024342932
-0.003337956
-0.0040120365
-0.0044749033
-0.0047550931
-0.0048811567
-0.0048789317
-0.0047604529
-0.0045383385
-0.0042255378
-0.0038391278
-0.0033913666
-0.0028944502
-0.0023624958
-0.0018152599
-0.0012639232
-0.00071766026
-0.00019437063
-0.01445239
-0.015296229
-0.016796012
-0.018659334
-0.020324012
-0.021519536
-0.022114974
-0.022187989
-0.021878891
-0.021254911
-0.020368729
-0.019298866
-0.018095496
-0.016779077
-0.015371589
-0.013898791
-0.012382791
-0.010842094
-0.0092909029
-0.0077436568
-0.0062145308
-0.0047309195
-0.003287955
-0.0018930837
-0.00057256317
-0.071881638
-0.07233826
-0.072549602
-0.070178753
-0.06689674
-0.062629893
-0.05792811
-0.053192372
-0.048471462
-0.043854955
-0.039489428
-0.035411739
-0.031572612
-0.02775924
-0.024206634
-0.020943188
-0.017957433
-0.015227863
-0.012727823
-0.010427025
-0.0082945893
-0.0062869459
-0.0043952033
-0.0025974471
-0.00087946605
-0.24395721
-0.19926839
-0.17904308
-0.14645562
-0.11937829
-0.095702667
-0.075689177
-0.059274434
-0.046048731
-0.035455559
-0.026970052
-0.020234613
-0.014961699
-0.010986146
-0.007889652
-0.0055333691
-0.0037670029
-0.002468752
-0.0015429498
-0.00091155605
-0.00050845277
-0.00027165593
-0.00015746479
-0.00012207909
-0.00017055279
-0.36306449
-0.15442133
-0.098156603
-0.056611594
-0.020178328
0.0082928868
0.026449201
0.035642131
0.039235323
0.039887992
0.038885551
0.03684041
0.034156156
0.031123986
0.027946771
0.024757048
0.021635144
0.018628296
0.01575597
0.013019722
0.010409979
0.007913991
0.0055075425
0.0031812566
0.00084293789
-0.21669701
-0.18967793
-0.16181441
-0.13402647
-0.10827053
-0.085990561
-0.067283866
-0.052133908
-0.040057798
-0.030429804
-0.022828848
-0.016890413
-0.01230751
-0.0087535817
-0.0060292989
-0.0039776625
-0.0024681622
-0.0013865172
-0.00064541624
-0.00017567709
8.0809785e-05
0.00017591489
0.00015285756
5.6427618e-05
-0.00011990634
-0.093297826
-0.091815647
-0.088094588
-0.083034451
-0.077058175
-0.070522607
-0.064190996
-0.058111122
-0.052306928
-0.046952054
-0.041976987
-0.037226238
-0.032756557
-0.028657298
-0.024919776
-0.021515404
-0.018422406
-0.015573168
-0.012962987
-0.010570461
-0.0083685248
-0.0063284812
-0.0044232847
-0.0026210353
-0.00089673967
-0.017327237
-0.023093866
-0.026953148
-0.029465903
-0.030865688
-0.031321153
-0.031071352
-0.030270179
-0.029066983
-0.027595091
-0.025948092
-0.024180419
-0.022313824
-0.020381177
-0.018417081
-0.016448746
-0.014487489
-0.012587
-0.010731724
-0.0089193506
-0.0071523679
-0.0054346678
-0.003771504
-0.0021699581
-0.00065912471
0.011062145
0.0068456803
0.0033918305
8.9436842e-05
-0.0027986536
-0.0051433062
-0.0068347625
-0.008009727
-0.0087505672
-0.0091350527
-0.0092389904
-0.0091200088
-0.0088207107
-0.0083752447
-0.0078176238
-0.0071718689
-0.0064578296
-0.0057046842
-0.0049269045
-0.0041339762
-0.0033349507
-0.0025392973
-0.001756678
-0.00099545236
-0.00027681845
0.016239536
0.013925623
0.011687841
0.0098168429
0.008044531
0.0062908715
0.0047246392
0.0032750205
0.0020542709
0.0010620689
0.00028422252
-0.00029560858
-0.00070680512
-0.00098025862
-0.0011365926
-0.0011995429
-0.0011902856
-0.0011270814
-0.0010257696
-0.00089704934
-0.00074882167
-0.00058765945
-0.0004186994
-0.00024353301
-6.3539175e-05
0.014940846
0.013206618
0.011621654
0.010321285
0.0091488933
0.0081054936
0.0070219364
0.0060276162
0.0050815209
0.0041877427
0.0033998562
0.0027268771
0.0021657519
0.0017071586
0.0013377732
0.0010426684
0.00080774296
0.000621649
0.00047324683
0.00035376362
0.00025682436
0.00017763315
0.00011269427
6.0440489e-05
2.1430778e-05
0.013482692
0.011890314
0.010499601
0.0093909252
0.0085110697
0.0077236487
0.00693086
0.0061769835
0.0054442617
0.0047694163
0.0041261608
0.0035248123
0.0029782155
0.0024920851
0.0020667064
0.0016988468
0.0013834849
0.0011154811
0.00088833728
0.00069518305
0.00052968875
0.00038631811
0.00026051193
0.00014844675
4.8080742e-05
0.012544567
0.011202184
0.01000017
0.0089821946
0.0081429703
0.007445381
0.006823336
0.0062401314
0.0056737033
0.0051182011
0.0045727705
0.0040423566
0.0035343716
0.0030573842
0.0026167367
0.0022158986
0.0018555868
0.0015347928
0.001250708
0.00099934212
0.00077602876
0.00057619877
0.00039538597
0.00022935542
7.4221218e-05
0.012032117
0.010887504
0.0098213023
0.0088867436
0.0080934201
0.0074233903
0.0068454398
0.0063246415
0.0058302218
0.0053497428
0.0048734727
0.004400422
0.0039353477
0.0034842107
0.0030523311
0.0026446141
0.0022639185
0.0019115993
0.0015874445
0.0012898558
0.0010163499
0.00076395321
0.00052948299
0.00030998027
0.0001013792
0.011595641
0.01062636
0.0096894984
0.0088349314
0.0080902032
0.0074440012
0.0068818647
0.006379055
0.0059140802
0.0054690131
0.005035228
0.0046063192
0.0041802937
0.0037588877
0.0033456813
0.0029449639
0.0025597515
0.002192514
0.0018446274
0.0015162099
0.0012065296
0.00091414925
0.00063724061
0.0003739856
0.00012189117
0.011055229
0.010239422
0.0094261906
0.0086589784
0.007964313
0.0073480121
0.0068018533
0.0063104449
0.0058607867
0.0054368734
0.0050300857
0.0046329071
0.0042393867
0.0038495625
0.0034626717
0.0030802487
0.0027048596
0.0023391955
0.0019854508
0.0016447408
0.0013174596
0.0010033659
0.00070183943
0.00041230466
0.00013383351
0.010392331
0.0097077819
0.0090071204
0.0083238157
0.0076820896
0.0070991642
0.0065763821
0.006100602
0.0056619234
0.0052517413
0.0048646275
0.0044951814
0.0041350595
0.0037785902
0.003423542
0.0030668954
0.0027113076
0.0023602538
0.0020159118
0.0016794126
0.0013518603
0.0010337419
0.00072532322
0.00042694555
0.00013852637
0.009635379
0.0090601888
0.0084581227
0.0078559903
0.0072741016
0.0067296518
0.0062320394
0.0057690631
0.0053393423
0.0049466323
0.0045841599
0.0042397157
0.0039049653
0.0035752345
0.0032480434
0.0029231662
0.0025995314
0.0022769463
0.0019557906
0.0016376283
0.0013237843
0.0010156663
0.00071434586
0.00042131803
0.00013699996
0.0088416142
0.0083591442
0.007843298
0.0073156436
0.0067954225
0.0062946709
0.005823268
0.0053855994
0.0049807466
0.0046114269
0.0042671538
0.0039409106
0.0036281655
0.0033238068
0.0030236205
0.0027257461
0.0024290649
0.0021323896
0.0018360151
0.0015408777
0.0012481522
0.00095928425
0.00067567124
0.00039903469
0.00013027434
0.0080644253
0.007657547
0.007216409
0.0067556718
0.0062931728
0.0058375416
0.0053991917
0.0049892648
0.0046113437
0.0042607843
0.0039335287
0.0036248384
0.0033310894
0.0030468791
0.0027696288
0.0024964423
0.0022253507
0.0019548773
0.0016847911
0.0014155121
0.0011478504
0.00088287553
0.00062188411
0.00036771505
0.00012101503
0.0073258263
0.0069809553
0.0066024186
0.0062020426
0.005790489
0.0053785505
0.0049758592
0.0045964725
0.0042425811
0.003911179
0.0036003827
0.0033077187
0.0030301924
0.0027640725
0.0025067197
0.0022554329
0.0020075347
0.0017620181
0.001517966
0.0012751963
0.001034015
0.0007952076
0.00055896349
0.00033097223
0.00011044444
0.0066324629
0.0063385306
0.0060124825
0.0056630593
0.0052989554
0.0049299131
0.0045628546
0.00421371
0.003883147
0.00357098
0.0032768605
0.0029997152
0.0027375614
0.0024878673
0.0022483628
0.0020166368
0.0017897637
0.0015675125
0.0013481446
0.0011310977
0.00091627898
0.00070454021
0.00049111002
0.00029176252
0.0001002061
0.0059829778
0.0057323165
0.0054507469
0.0051456764
0.0048247493
0.0044960795
0.0041657131
0.0038447148
0.0035375027
0.0032451281
0.0029684667
0.0027072155
0.00246036
0.0022262267
0.0020032194
0.0017892196
0.0015822596
0.0013811145
0.0011844781
0.00099152046
0.00080180599
0.00061524666
0.00043106868
0.00025498858
8.5644663e-05
0.0053741488
0.0051628405
0.0049201704
0.0046540961
0.0043714961
0.0040791453
0.0037845468
0.0034912776
0.0032085377
0.002937298
0.0026790361
0.0024343635
0.0022030357
0.0019843124
0.001777031
0.0015796901
0.0013907646
0.0012089201
0.0010329697
0.00086199533
0.0006953714
0.0005327564
0.00037381601
0.00022087971
7.3333652e-05
0.0048123231
0.0046305898
0.004422888
0.0041916198
0.0039430601
0.0036838401
0.0034202654
0.0031570976
0.0028994647
0.0026501395
0.0024111937
0.002183704
0.0019684023
0.0017650224
0.0015729921
0.0013913387
0.0012189243
0.0010545674
0.00089719228
0.00074585908
0.000599832
0.00045860036
0.00032168594
0.00018998232
6.3056221e-05
0.0043003096
0.0041414951
0.0039613243
0.0037607605
0.0035429485
0.0033142216
0.0030793072
0.0028443682
0.0026124372
0.0023854929
0.0021663755
0.0019565997
0.0017575768
0.0015695417
0.0013923785
0.0012255741
0.00106834
0.00091973712
0.00077883453
0.00064474379
0.00051667114
0.00039395674
0.00027590235
0.00016305256
5.4611223e-05
0.0038350264
0.0036972131
0.0035397768
0.0033649041
0.0031751126
0.0029743396
0.0027665467
0.0025560932
0.0023481742
0.0021429203
0.0019447848
0.0017530226
0.0015704798
0.0013977281
0.0012349796
0.001082222
0.00093899898
0.00080458221
0.00067819368
0.00055905823
0.00044638083
0.0003394149
0.00023736104
0.00013999476
4.6424767e-05
0.0034151708
0.0032959806
0.0031584413
0.0030055826
0.002841258
0.0026658961
0.0024832143
0.0022966258
0.0021096813
0.0019250302
0.0017441978
0.0015710753
0.0014057876
0.0012482265
0.0010994337
0.00096005774
0.00082980865
0.000708096
0.00059438275
0.00048805017
0.00038834047
0.00029445579
0.00020544933
0.0001212219
4.1045547e-05
0.0030387259
0.0029350873
0.0028158115
0.0026841278
0.0025411792
0.0023886285
0.0022284948
0.0020638085
0.0018973945
0.0017317063
0.0015690622
0.001411711
0.0012604287
0.0011174287
0.00098295761
0.00085681436
0.00073878446
0.00062844103
0.00052572742
0.00043029174
0.00034139046
0.00025820468
0.00017979885
0.00010588605
3.5460626e-05
0.0027033367
0.0026134281
0.0025111826
0.0023978843
0.0022740372
0.0021412067
0.0020012148
0.0018563556
0.0017090646
0.0015614972
0.0014157476
0.0012738954
0.0011374227
0.0010075025
0.00088480194
0.00076943785
0.00066176318
0.00056200992
0.00046954816
0.00038368093
0.00030386167
0.00022938677
0.00015949026
9.3940648e-05
3.163784e-05
0.002405389
0.0023288597
0.0022421407
0.002144752
0.0020376456
0.0019220224
0.0017997933
0.0016727851
0.0015429699
0.0014122402
0.0012824722
0.0011554017
0.0010324842
0.00091497521
0.00080349343
0.00069860885
0.00060065475
0.00050968311
0.00042534815
0.00034709534
0.00027440617
0.00020671269
0.00014321254
8.4308918e-05
2.8675421e-05
0.0021447048
0.0020802928
0.0020060024
0.001922148
0.0018294646
0.0017291513
0.0016226766
0.0015115849
0.0013975094
0.0012821129
0.0011669831
0.0010536437
0.00094341951
0.00083733695
0.00073623601
0.00064077174
0.00055133153
0.00046794207
0.00039044439
0.00031854967
0.00025177932
0.00018958938
0.00013133184
7.7424237e-05
2.6524885e-05
0.0019182706
0.0018632343
0.0017994601
0.0017272066
0.0016471666
0.0015603001
0.0014677458
0.0013707778
0.0012707553
0.0011690818
0.0010671382
0.00096623416
0.00086753599
0.00077201885
0.00068052543
0.0005936474
0.00051173081
0.00043498469
0.00036337529
0.00029672885
0.0002346744
0.00017676293
0.00012243353
7.2293507e-05
2.4952748e-05
0.0017212624
0.0016741655
0.0016193399
0.0015571305
0.0014880846
0.001412941
0.0013325887
0.0012480558
0.0011604639
0.0010709905
0.00098080878
0.00089104361
0.00080272435
0.00071675326
0.00063389233
0.00055471254
0.00047959552
0.00040878492
0.00034232738
0.00028008413
0.00022182403
0.00016723061
0.00011582822
6.8501977e-05
2.3815033e-05
0.0015499647
0.0015095667
0.0014624974
0.00140898
0.0013494423
0.0012844543
0.0012147182
0.0011410552
0.0010643818
0.00098566944
0.00090590306
0.00082604407
0.00074699104
0.00066954882
0.00059440518
0.00052210232
0.00045303411
0.00038745486
0.00032546003
0.00026699431
0.0002119058
0.00015996276
0.00011077699
6.5612314e-05
2.2991127e-05
0.001400855
0.001366258
0.0013258589
0.0012798298
0.0012284867
0.001172264
0.0011117137
0.0010474942
0.00098034527
0.00091105841
0.00084045552
0.00076934828
0.00069850933
0.0006286458
0.00056037421
0.00049420007
0.00043050926
0.000369565
0.00031149988
0.00025632115
0.00020393386
0.00015416265
0.00010664681
6.3254214e-05
2.2403385e-05
0.0012707366
0.0012411206
0.0012064424
0.0011668434
0.0011225427
0.0010738682
0.0010212478
0.0009652
0.00090631742
0.00084524625
0.0007826626
0.00071924717
0.00065565809
0.0005925084
0.00053034589
0.00046963493
0.00041074521
0.00035394522
0.00029939626
0.00024715253
0.00019716297
0.00014927283
0.00010295872
6.1118684e-05
2.2073986e-05
0.0011566928
0.0011312794
0.0011014793
0.0010673697
0.0010290986
0.00098690562
0.00094111332
0.00089212183
0.00084040049
0.00078647132
0.00073088841
0.00067421718
0.00061701536
0.00055981123
0.00050308756
0.00044726635
0.00039269757
0.00033965101
0.00028831165
0.00023877882
0.00019105678
0.00014504127
9.9435786e-05
5.900235e-05
2.2068761e-05
0.0010559965
0.0010341407
0.00100847
0.00097901521
0.00094588129
0.00090922889
0.00086929337
0.00082637932
0.00078085319
0.00073313041
0.00068366106
0.00063290607
0.00058134201
0.00052942072
0.00047756536
0.00042615583
0.00037551956
0.00032592533
0.00027757671
0.00023062146
0.00018515869
0.00014150977
9.7107337e-05
5.7535049e-05
2.1060321e-05
0.00096615598
0.00094731779
0.00092514397
0.00089963901
0.00087086733
0.00083893547
0.00080400775
0.0007663171
0.00072614494
0.00068381141
0.00063969065
0.00059413797
0.00054757756
0.00050038161
0.00045292048
0.00040553454
0.00035852742
0.00031216029
0.00026664748
0.00022215547
0.00017880119
0.00013666673
9.5064619e-05
5.646733e-05
2.0108228e-05
0.000884882
0.000868612
0.00084941871
0.0008272739
0.00080222285
0.00077432743
0.00074369523
0.00071050207
0.00067496405
0.00063732993
0.00059788909
0.00055695398
0.00051485486
0.00047191662
0.00042845914
0.00038478587
0.00034117786
0.00029788429
0.00025512135
0.00021306644
0.00017185322
0.00013156814
9.2048391e-05
5.4826047e-05
1.9382816e-05
0.00081014158
0.00079606682
0.00077943332
0.00076013937
0.00073828749
0.0007138744
0.00068696469
0.0006576808
0.00062618499
0.00059267496
0.00055738131
0.00052055891
0.00048247812
0.00044341535
0.00040364804
0.00036344751
0.00032306944
0.00028275128
0.0002427053
0.00020311731
0.00016414372
0.00012591324
8.8441325e-05
5.2792501e-05
1.8526221e-05
0.00074019382
0.00072799074
0.00071353005
0.00069675254
0.00067766386
0.00065626639
0.00063260047
0.00060674649
0.00057882289
0.00054898214
0.0005174056
0.00048429816
0.00044988465
0.00041440072
0.00037808706
0.00034118383
0.00030392393
0.00026652914
0.00022920644
0.00019214748
0.00015552907
0.00011951737
8.4202807e-05
5.0331418e-05
1.7599455e-05
0.00067359254
0.00066300671
0.00065043597
0.00063582648
0.00061915119
0.0006004014
0.00057959624
0.0005567873
0.00053205859
0.00050552452
0.00047732651
0.00044762962
0.00041662023
0.00038449853
0.00035147269
0.0003177539
0.00028355201
0.00024907328
0.00021451712
0.00018007582
0.00014593713
0.00011228875
7.9277219e-05
4.7446604e-05
1.6607973e-05
0.00060913818
0.00059996644
0.00058905428
0.00057634638
0.00056180406
0.00054540718
0.00052715897
0.00050708973
0.00048525689
0.00046174512
0.00043666464
0.00041014878
0.00038235062
0.00035343858
0.00032359188
0.00029299589
0.00026183901
0.00023031114
0.00019860072
0.00016689395
0.00013537779
0.00010424853
7.3648856e-05
4.4167054e-05
1.5567044e-05
0.00054587533
0.00053795709
0.00052852071
0.00051751058
0.00050488303
0.00049061022
0.000474684
0.00045711917
0.00043795354
0.00041724927
0.00039509182
0.00037158821
0.00034686381
0.00032105976
0.00029432955
0.00026683556
0.00023874644
0.00021023471
0.00018147493
0.0001526419
0.00012391288
9.5479266e-05
6.7455637e-05
4.054952e-05
1.4416487e-05
0.00048306787
0.00047628115
0.0004681811
0.00045871411
0.00044783547
0.00043551341
0.00042173259
0.00040649633
0.00038982905
0.00037177565
0.00035240187
0.00033179292
0.00031005146
0.00028729542
0.0002636557
0.00023927364
0.00021429855
0.00018888535
0.0001631931
0.00013738374
0.00011162329
8.6087984e-05
6.0913469e-05
3.6632017e-05
1.3006148e-05
0.00042017814
0.00041443176
0.00040756422
0.00039952573
0.00039027328
0.00037977426
0.00036800945
0.0003549753
0.00034068604
0.0003251738
0.00030848877
0.0002906985
0.00027188655
0.00025215086
0.00023160218
0.00021036206
0.00018856076
0.00016633548
0.00014382875
0.00012118801
9.856562e-05
7.6118384e-05
5.3991485e-05
3.2407874e-05
1.1363069e-05
0.00035683753
0.00035206505
0.00034635493
0.00033966254
0.00033194851
0.00032318179
0.00031334214
0.00030242228
0.00029042941
0.00027738606
0.00026333009
0.00024831452
0.00023240661
0.0002156867
0.00019824696
0.00018018998
0.00016162707
0.00014267668
0.00012346319
0.00010411549
8.476583e-05
6.5545209e-05
4.6549494e-05
2.7900737e-05
9.6847971e-06
0.0002928305
0.00028898508
0.00028437982
0.00027897636
0.00027274037
0.00026564429
0.00025766898
0.00024880553
0.00023905693
0.00022843842
0.00021697807
0.00020471639
0.00019170664
0.00017801288
0.00016370976
0.00014888127
0.00013361939
0.00011802263
0.00010219453
8.6241504e-05
7.0269666e-05
5.4377998e-05
3.8628368e-05
2.3141682e-05
7.995401e-06
0.00022810054
0.00022514995
0.00022161344
0.00021746003
0.00021266165
0.00020719557
0.00020104531
0.00019420193
0.00018666586
0.00017844716
0.00016956583
0.00016005193
0.00014994506
0.00013929476
0.00012815851
0.00011660174
0.00010469654
9.2520402e-05
8.0154459e-05
6.7681121e-05
5.518019e-05
4.2723004e-05
3.0352891e-05
1.8175667e-05
6.2603012e-06
0.0001627861
0.00016070739
0.00015821349
0.00015528212
0.00015189277
0.00014802807
0.00014367514
0.00013882671
0.00013348178
0.00012764651
0.00012133417
0.00011456529
0.00010736746
9.9775331e-05
9.1830038e-05
8.3578265e-05
7.5071772e-05
6.6366288e-05
5.7520067e-05
4.8591687e-05
3.963706e-05
3.0705009e-05
2.1814467e-05
1.3055801e-05
4.4794409e-06
9.7211962e-05
9.5986237e-05
9.4514337e-05
9.2782637e-05
9.0778513e-05
8.8490728e-05
8.5910982e-05
8.3034655e-05
7.986049e-05
7.6391513e-05
7.2635113e-05
6.8603112e-05
6.4311702e-05
5.9781286e-05
5.5036409e-05
5.0105067e-05
4.5018407e-05
3.9810038e-05
3.4515081e-05
2.9168613e-05
2.3803407e-05
1.8446719e-05
1.3098121e-05
7.8380805e-06
2.6936463e-06
3.209033e-05
3.1692257e-05
3.1213679e-05
3.064984e-05
2.9996284e-05
2.9249046e-05
2.8405168e-05
2.7462877e-05
2.6421632e-05
2.5282161e-05
2.4046702e-05
2.2719022e-05
2.1304379e-05
1.9809458e-05
1.8242299e-05
1.6612245e-05
1.492971e-05
1.3205969e-05
1.1452817e-05
9.6818951e-06
7.9034199e-06
6.1244904e-06
4.3412855e-06
2.5969462e-06
9.0379801e-07
)
;

boundaryField
{
    Walls
    {
        type            zeroGradient;
    }
    Inlet
    {
        type            fixedValue;
        value           uniform 500;
    }
    Outlet
    {
        type            fixedValue;
        value           uniform 0;
    }
    Front
    {
        type            wedge;
    }
    Back
    {
        type            wedge;
    }
    defaultFaces
    {
        type            empty;
    }
}


// ************************************************************************* //
