/*--------------------------------*- C++ -*----------------------------------*\
| =========                 |                                                 |
| \\      /  F ield         | OpenFOAM: The Open Source CFD Toolbox           |
|  \\    /   O peration     | Version:  4.0                                   |
|   \\  /    A nd           | Web:      www.OpenFOAM.org                      |
|    \\/     M anipulation  |                                                 |
\*---------------------------------------------------------------------------*/
FoamFile
{
    version     2.0;
    format      ascii;
    class       volScalarField;
    location    "0.08";
    object      k;
}
// * * * * * * * * * * * * * * * * * * * * * * * * * * * * * * * * * * * * * //

dimensions      [0 2 -2 0 0 0 0];

internalField   nonuniform List<scalar> 
1740
(
0.008655721
0.0091746278
0.018266041
0.009160444
0.0099713551
0.027281901
0.0095365302
0.010526694
0.034409413
0.0098573789
0.010739471
0.041440081
0.010049298
0.011002019
0.047643004
0.010066487
0.011396883
0.052200553
0.010097142
0.011734168
0.056592984
0.010102956
0.012314758
0.060019169
0.010079732
0.012667169
0.062335288
0.009996997
0.012891936
0.064504966
0.0099401044
0.012980029
0.066518156
0.0098673953
0.013162867
0.067395019
0.0098463702
0.013208639
0.069174943
0.0097553313
0.013522469
0.070704854
0.0096480199
0.013718839
0.070634816
0.0095968441
0.013801741
0.071476309
0.0094795798
0.014214876
0.072177031
0.0093329356
0.014498448
0.072031437
0.0091864168
0.0142682
0.072434852
0.0090352365
0.01427141
0.072089554
0.0088988847
0.014255249
0.072768663
0.0087893403
0.014511434
0.073580691
0.0086899613
0.014547927
0.072603478
0.0085576476
0.014355011
0.072609827
0.0084457527
0.014471302
0.073328988
0.0084071251
0.014975591
0.073534102
0.0084433543
0.015151783
0.073191233
0.0084559268
0.015349875
0.072574317
0.0084462579
0.015250087
0.071654782
0.0090385667
0.016228331
0.066443544
0.012818287
0.018145313
0.047117861
0.024034925
0.031265605
0.039887056
0.01027105
0.012546351
0.013729614
0.0042293846
0.0045714326
0.0046312586
0.0019594741
0.0020034529
0.0019723466
0.00094728536
0.00094676029
0.00092229937
0.00043842629
0.00043402311
0.00042013659
0.00018205126
0.00017928921
0.00017252374
6.7040701e-05
6.5824246e-05
6.3061491e-05
2.3286047e-05
2.2857458e-05
2.1912287e-05
9.0478799e-06
8.9235859e-06
8.6528693e-06
5.0560539e-06
5.0293909e-06
4.9718546e-06
4.1756143e-06
4.1762008e-06
4.1778195e-06
4.1467193e-06
4.1538802e-06
4.169693e-06
4.3319792e-06
4.3402739e-06
4.3584858e-06
4.5684526e-06
4.5765828e-06
4.5943964e-06
4.8181422e-06
4.825836e-06
4.8426765e-06
5.0729823e-06
5.0802036e-06
5.096002e-06
5.3314346e-06
5.3381974e-06
5.3529897e-06
5.5932224e-06
5.5995503e-06
5.6133905e-06
5.8582476e-06
5.8641651e-06
5.8771074e-06
6.1263881e-06
6.1319182e-06
6.1440137e-06
6.3974632e-06
6.4026274e-06
6.4139232e-06
6.6712266e-06
6.6760449e-06
6.6865845e-06
6.9473629e-06
6.9518536e-06
6.9616773e-06
7.2254835e-06
7.2296637e-06
7.2388091e-06
7.5051221e-06
7.509008e-06
7.51751e-06
7.7857308e-06
7.7893375e-06
7.7972291e-06
8.066676e-06
8.0700176e-06
8.0773297e-06
8.3472349e-06
8.3503247e-06
8.3570866e-06
8.6265932e-06
8.6294441e-06
8.6356836e-06
8.903845e-06
8.9064692e-06
8.9122131e-06
9.1779932e-06
9.1804026e-06
9.1856766e-06
9.4479528e-06
9.4501588e-06
9.4549881e-06
9.7125556e-06
9.7145693e-06
9.7189783e-06
9.9705572e-06
9.9723897e-06
9.9764024e-06
1.0220647e-05
1.0222309e-05
1.0225949e-05
1.0461457e-05
1.0462959e-05
1.0466251e-05
1.0691571e-05
1.0692924e-05
1.069589e-05
1.0909503e-05
1.0910719e-05
1.0913382e-05
1.1113595e-05
1.1114683e-05
1.1117068e-05
1.1301593e-05
1.1302564e-05
1.1304694e-05
1.1469289e-05
1.1470155e-05
1.1472053e-05
1.1606596e-05
1.1607366e-05
1.1609057e-05
1.1687446e-05
1.1688131e-05
1.1689637e-05
1.1646984e-05
1.1647593e-05
1.1648932e-05
1.133783e-05
1.1338365e-05
1.1339542e-05
1.046622e-05
1.046667e-05
1.0467648e-05
8.5553931e-06
8.5557231e-06
8.5563976e-06
5.0874863e-06
5.0876515e-06
5.0879256e-06
0.056211652
0.060967844
0.046287431
0.046736952
0.012468133
0.011331175
0.0042981825
0.0040462689
0.0018670215
0.0017897176
0.00087968922
0.00084585709
0.00040001308
0.00038193434
0.00016315976
0.00015389594
5.9261713e-05
5.5289536e-05
2.0609844e-05
1.9207584e-05
8.2795956e-06
7.8737326e-06
4.8939992e-06
4.8131459e-06
4.1823726e-06
4.1935524e-06
4.1939937e-06
4.227208e-06
4.3860015e-06
4.4225292e-06
4.6212103e-06
4.6566018e-06
4.867998e-06
4.9013768e-06
5.1197483e-06
5.1510447e-06
5.3752222e-06
5.4045264e-06
5.6341933e-06
5.6616178e-06
5.8965627e-06
5.9222159e-06
6.1621982e-06
6.1861805e-06
6.4309075e-06
6.4533113e-06
6.7024338e-06
6.7233442e-06
6.9764521e-06
6.995948e-06
7.2525652e-06
7.2707202e-06
7.5303001e-06
7.5471828e-06
7.8091023e-06
7.8247772e-06
8.0883323e-06
8.1028602e-06
8.3672625e-06
8.3807009e-06
8.6450746e-06
8.6574786e-06
8.9208593e-06
8.9322818e-06
9.1936169e-06
9.2041088e-06
9.4622601e-06
9.471871e-06
9.7256187e-06
9.7343972e-06
9.9824474e-06
9.990441e-06
1.0231434e-05
1.023869e-05
1.0471212e-05
1.0477776e-05
1.0700362e-05
1.0706282e-05
1.0917401e-05
1.0922723e-05
1.1120668e-05
1.112544e-05
1.1307911e-05
1.1312179e-05
1.1474923e-05
1.1478734e-05
1.1611615e-05
1.1615018e-05
1.1691919e-05
1.1694961e-05
1.1650965e-05
1.1653677e-05
1.1341319e-05
1.1343668e-05
1.0469065e-05
1.0470811e-05
8.5571957e-06
8.5577768e-06
5.0879725e-06
5.0872414e-06
6.3337067e-06
1.6567056e-05
7.8639627e-05
0.00016732294
0.00023687554
0.00026998819
0.00027441584
0.00026213597
0.00024152762
0.00021720281
0.00019145748
0.00016555312
0.00014037003
0.00011663423
9.493383e-05
7.5688621e-05
5.9144587e-05
4.53761e-05
3.4295708e-05
2.5674029e-05
1.9166476e-05
1.4336896e-05
1.0665049e-05
7.574063e-06
4.6434707e-06
2.1544151e-06
4.3829859e-05
0.00019431463
0.00038117966
0.00050945809
0.00056477487
0.00057250214
0.00055413801
0.00052229336
0.00048320787
0.00043969028
0.0003933818
0.00034565868
0.00029787534
0.00025134583
0.0002072951
0.00016687907
0.00013106578
0.00010050314
7.5429026e-05
5.5641195e-05
4.0510494e-05
2.8944961e-05
1.9171499e-05
8.2941772e-06
7.6591724e-06
0.00015159577
0.00057071252
0.00097326571
0.001190128
0.0012700897
0.0012753002
0.0012425777
0.001190286
0.0011260097
0.0010522392
0.00097062022
0.00088276385
0.00079026083
0.00069475386
0.00059810556
0.00050294558
0.00041226979
0.00032902802
0.00025569737
0.00019386083
0.00014385006
0.00010425377
7.0814665e-05
3.3685339e-05
3.8055144e-05
0.0005792928
0.0016693335
0.0023880764
0.0026888752
0.0027618128
0.0027239616
0.0026394876
0.0025359881
0.0024209624
0.0022934435
0.0021546627
0.0020061658
0.0018483222
0.0016810166
0.0015042102
0.0013209045
0.0011354042
0.00095297558
0.00077952666
0.00062093572
0.00048212666
0.00036521786
0.0002658911
0.00015645748
0.00028436651
0.0024570857
0.0049376443
0.006065681
0.0064133408
0.0063442942
0.0060944057
0.0057967873
0.0055028392
0.0052076915
0.0049015598
0.0045903967
0.0042797754
0.0039687143
0.0036519341
0.0033223599
0.0029842329
0.0026415044
0.0022988062
0.0019621678
0.0016388962
0.0013378162
0.0010677917
0.00084205424
0.00068175906
0.002364546
0.010521657
0.016651636
0.01868042
0.018275271
0.016751546
0.014944484
0.013252597
0.011760527
0.01045619
0.0093206266
0.0083320657
0.0074678626
0.0067039284
0.0060163697
0.0053862441
0.004801133
0.0042520066
0.0037328318
0.0032407825
0.0027756527
0.0023405253
0.0019395854
0.0015878962
0.0013187473
0.045060897
0.034198717
0.026669929
0.021482529
0.017820501
0.015123138
0.013048539
0.011407067
0.010087279
0.0090107457
0.0081171599
0.0073598664
0.0067028856
0.0061180594
0.0055834719
0.0050828227
0.0046047964
0.0041422605
0.0036915872
0.0032523036
0.0028263964
0.002418424
0.0020341664
0.0016874106
0.0014147433
0.037344956
0.031087634
0.027926906
0.025344549
0.022508347
0.019551263
0.016838886
0.014533864
0.012630795
0.011055726
0.009740127
0.0086308975
0.0076819847
0.0068553994
0.0061233877
0.0054640743
0.0048603539
0.0042995124
0.0037729788
0.0032762293
0.0028079443
0.0023704786
0.0019674357
0.0016134402
0.0013417285
0.010195395
0.0095405297
0.00921775
0.0089097482
0.0084520076
0.0078770052
0.0072904504
0.0067674369
0.0062840601
0.0058335181
0.0054126034
0.005021474
0.0046505452
0.0042797284
0.0039091981
0.00353889
0.003168812
0.0028001636
0.0024357946
0.0020804937
0.0017406675
0.0014245391
0.0011405495
0.0009020211
0.00073080944
0.0038790763
0.0037998683
0.0037679971
0.0037125518
0.0035959721
0.0034288162
0.0032451999
0.0030671507
0.0028923941
0.002719716
0.0025478048
0.0023757268
0.0022006821
0.0020183086
0.0018282501
0.0016317262
0.0014311498
0.0012301617
0.0010335706
0.00084707814
0.00067654879
0.00052700144
0.0004005892
0.00029253142
0.00017250074
0.0017524725
0.0017457287
0.0017478728
0.0017348737
0.001694029
0.0016276161
0.0015464396
0.001459166
0.0013680866
0.0012737853
0.0011764632
0.0010764009
0.00097359349
0.00086801501
0.00076067979
0.00065349063
0.00054897708
0.00045001198
0.00035946327
0.000279823
0.00021264599
0.00015819445
0.0001148637
7.7961419e-05
3.6974713e-05
0.00082765195
0.00082084452
0.00081642827
0.00080497191
0.00078104943
0.00074485679
0.00070017859
0.00065083031
0.00059879787
0.00054505841
0.00049027606
0.00043514462
0.00038036802
0.00032668615
0.00027503002
0.00022649957
0.00018220677
0.00014309753
0.00010979577
8.2512826e-05
6.0991278e-05
4.4513386e-05
3.1855216e-05
2.1040202e-05
8.9409799e-06
0.0003691772
0.00036061874
0.00035286015
0.00034223956
0.00032656336
0.00030579883
0.00028143567
0.00025525528
0.00022849678
0.00020189511
0.00017593908
0.00015105275
0.00012762132
0.00010597795
8.6407288e-05
6.9139803e-05
5.4322868e-05
4.1992692e-05
3.2061226e-05
2.4321685e-05
1.8465234e-05
1.4096345e-05
1.0721406e-05
7.666772e-06
3.8129519e-06
0.00014619519
0.00013994425
0.00013408369
0.00012737356
0.00011907031
0.00010918552
9.8290508e-05
8.7097156e-05
7.6140098e-05
6.5730459e-05
5.6041824e-05
4.718844e-05
3.9251467e-05
3.2278159e-05
2.628133e-05
2.1242825e-05
1.7116053e-05
1.3828194e-05
1.1283075e-05
9.3649659e-06
7.9415426e-06
6.8635234e-06
5.9627143e-06
5.0703555e-06
4.1547183e-06
5.1714299e-05
4.8613617e-05
4.5725112e-05
4.2698601e-05
3.9320328e-05
3.5600302e-05
3.1718189e-05
2.7895185e-05
2.4296662e-05
2.1010847e-05
1.8073172e-05
1.5494885e-05
1.3275102e-05
1.140324e-05
9.8592013e-06
8.6153178e-06
7.6384332e-06
6.8916817e-06
6.3351814e-06
5.9250479e-06
5.6094827e-06
5.3209791e-06
4.9696914e-06
4.4650723e-06
3.7845851e-06
1.7898464e-05
1.6739361e-05
1.5680626e-05
1.4636502e-05
1.3551154e-05
1.2425887e-05
1.1305219e-05
1.0244289e-05
9.2829773e-06
8.4395438e-06
7.717029e-06
7.1111875e-06
6.6147276e-06
6.2184453e-06
5.9114249e-06
5.6815329e-06
5.5159845e-06
5.4015949e-06
5.3239524e-06
5.2642819e-06
5.1915833e-06
5.0466761e-06
4.7170703e-06
4.0089091e-06
2.5772088e-06
7.4933873e-06
7.1623107e-06
6.8741435e-06
6.609665e-06
6.3543831e-06
6.1065931e-06
5.8746216e-06
5.6692832e-06
5.4978579e-06
5.3624042e-06
5.2612692e-06
5.1910975e-06
5.1479618e-06
5.1277287e-06
5.1261324e-06
5.1388385e-06
5.161462e-06
5.1892064e-06
5.2153627e-06
5.226978e-06
5.1943263e-06
5.0492198e-06
4.6490379e-06
3.7351688e-06
1.946952e-06
4.7448602e-06
4.6966712e-06
4.6680491e-06
4.6543873e-06
4.6513237e-06
4.6569983e-06
4.6717462e-06
4.6965062e-06
4.7315288e-06
4.7759969e-06
4.8283392e-06
4.8866779e-06
4.9491217e-06
5.0138351e-06
5.0790492e-06
5.1430378e-06
5.203975e-06
5.2593664e-06
5.3042329e-06
5.3261401e-06
5.2933946e-06
5.1313883e-06
4.6854637e-06
3.68865e-06
1.8419242e-06
4.214857e-06
4.2479439e-06
4.2923566e-06
4.3463932e-06
4.4081489e-06
4.4761287e-06
4.5492844e-06
4.6267352e-06
4.7075161e-06
4.790504e-06
4.8744785e-06
4.9582052e-06
5.0405208e-06
5.1203359e-06
5.1966245e-06
5.2683803e-06
5.3344292e-06
5.3927857e-06
5.4387028e-06
5.459476e-06
5.4224157e-06
5.2514301e-06
4.7917589e-06
3.7847968e-06
1.9619087e-06
4.2697061e-06
4.321392e-06
4.3815766e-06
4.449163e-06
4.5229034e-06
4.6015773e-06
4.6840435e-06
4.7692095e-06
4.8559954e-06
4.9433283e-06
5.0301578e-06
5.1154749e-06
5.1983305e-06
5.277847e-06
5.3531979e-06
5.4235559e-06
5.4878927e-06
5.5443087e-06
5.5880497e-06
5.6063243e-06
5.5665127e-06
5.393539e-06
4.9363376e-06
3.94833e-06
2.1833424e-06
4.4677147e-06
4.5210342e-06
4.5817409e-06
4.6489197e-06
4.7215549e-06
4.7985942e-06
4.8789813e-06
4.9616742e-06
5.0456438e-06
5.1298865e-06
5.2134328e-06
5.2953584e-06
5.374788e-06
5.4509091e-06
5.5229548e-06
5.5901472e-06
5.6514917e-06
5.7051011e-06
5.7462209e-06
5.7621237e-06
5.7205648e-06
5.547596e-06
5.094471e-06
4.1201179e-06
2.391538e-06
4.7000866e-06
4.7510738e-06
4.8088473e-06
4.8725872e-06
4.9413975e-06
5.0143356e-06
5.0904347e-06
5.1687245e-06
5.2482425e-06
5.3280453e-06
5.4072179e-06
5.4848846e-06
5.5602156e-06
5.6324308e-06
5.7007923e-06
5.7645458e-06
5.8227117e-06
5.8734067e-06
5.9118783e-06
5.9254255e-06
5.8818646e-06
5.7070937e-06
5.2510155e-06
4.2681146e-06
2.5193621e-06
4.9423312e-06
4.9902893e-06
5.0445877e-06
5.1044768e-06
5.1691435e-06
5.2377258e-06
5.3093329e-06
5.3830619e-06
5.4580111e-06
5.5332913e-06
5.6080373e-06
5.6814153e-06
5.752633e-06
5.8209425e-06
5.88563e-06
5.9459612e-06
6.0009687e-06
6.0487678e-06
6.0845752e-06
6.0955706e-06
6.0491169e-06
5.869538e-06
5.4022253e-06
4.3905956e-06
2.5800718e-06
5.189438e-06
5.2343948e-06
5.2853008e-06
5.3414677e-06
5.4021476e-06
5.4665456e-06
5.5338357e-06
5.6031754e-06
5.6737196e-06
5.7446309e-06
5.81509e-06
5.8843056e-06
5.951522e-06
6.0160233e-06
6.0771221e-06
6.1341047e-06
6.1860143e-06
6.2309544e-06
6.2640638e-06
6.2722434e-06
6.2219804e-06
6.0351797e-06
5.5517076e-06
4.5054161e-06
2.6321445e-06
5.440482e-06
5.4825943e-06
5.5302941e-06
5.5829474e-06
5.6398614e-06
5.7002997e-06
5.7634941e-06
5.8286581e-06
5.8949978e-06
5.9617251e-06
6.0280663e-06
6.093271e-06
6.1566201e-06
6.2174306e-06
6.2750433e-06
6.328765e-06
6.3776482e-06
6.4197731e-06
6.4501595e-06
6.4553164e-06
6.4006443e-06
6.2054804e-06
5.7046372e-06
4.623818e-06
2.6906528e-06
5.6952757e-06
5.7347084e-06
5.7793896e-06
5.8287302e-06
5.8820892e-06
5.9387814e-06
5.9980914e-06
6.0592835e-06
6.1216136e-06
6.1843392e-06
6.2467301e-06
6.3080766e-06
6.3676964e-06
6.4249384e-06
6.4791723e-06
6.5297264e-06
6.5756606e-06
6.6150236e-06
6.6426897e-06
6.6447197e-06
6.5853845e-06
6.3816984e-06
5.8646773e-06
4.7547701e-06
2.7713358e-06
5.9537082e-06
5.990615e-06
6.0324484e-06
6.0786613e-06
6.1286576e-06
6.1818e-06
6.2374205e-06
6.2948316e-06
6.3533353e-06
6.4122332e-06
6.4708365e-06
6.5284747e-06
6.5845016e-06
6.6382986e-06
6.6892635e-06
6.7367468e-06
6.7798143e-06
6.8164789e-06
6.8414579e-06
6.8403443e-06
6.776297e-06
6.56425e-06
6.0324018e-06
4.8983117e-06
2.8714199e-06
6.2156286e-06
6.2501499e-06
6.2892916e-06
6.3325455e-06
6.3793555e-06
6.4291288e-06
6.4812417e-06
6.5350504e-06
6.5899007e-06
6.6451366e-06
6.7001094e-06
6.7541857e-06
6.8067544e-06
6.8572291e-06
6.9050357e-06
6.9495463e-06
6.989833e-06
7.0238722e-06
7.0462221e-06
7.0420097e-06
6.9732936e-06
6.7529535e-06
6.206405e-06
5.0487223e-06
3.0037903e-06
6.4808274e-06
6.5130923e-06
6.5496858e-06
6.590135e-06
6.6339227e-06
6.6804946e-06
6.7292694e-06
6.779644e-06
6.8310055e-06
6.8827379e-06
6.9342309e-06
6.9848877e-06
7.0341308e-06
7.081405e-06
7.1261637e-06
7.1678007e-06
7.2053949e-06
7.2368872e-06
7.2566834e-06
7.249459e-06
7.1761774e-06
6.9475213e-06
6.385279e-06
5.1983692e-06
3.0936094e-06
6.7490319e-06
6.7791597e-06
6.8133377e-06
6.8511259e-06
6.8920425e-06
6.935571e-06
6.9811665e-06
7.0282664e-06
7.0762958e-06
7.1246767e-06
7.1728357e-06
7.2202109e-06
7.2662579e-06
7.3104516e-06
7.3522723e-06
7.3911347e-06
7.4261251e-06
7.4551512e-06
7.4724747e-06
7.4623391e-06
7.3846224e-06
7.1476871e-06
6.5693486e-06
5.3537019e-06
3.1994545e-06
7.0199031e-06
7.0480048e-06
7.079891e-06
7.1151523e-06
7.1533398e-06
7.1939716e-06
7.236539e-06
7.2805149e-06
7.3253617e-06
7.3705373e-06
7.4155031e-06
7.4597309e-06
7.5027081e-06
7.5439391e-06
7.5829304e-06
7.6191167e-06
7.6515912e-06
7.6782294e-06
7.6931538e-06
7.6801866e-06
7.5981081e-06
7.3527719e-06
6.7573413e-06
5.5107695e-06
3.3102442e-06
7.2930319e-06
7.319211e-06
7.348921e-06
7.381781e-06
7.4173729e-06
7.4552469e-06
7.4949283e-06
7.5359245e-06
7.5777315e-06
7.6198419e-06
7.6617507e-06
7.7029616e-06
7.7429927e-06
7.7813767e-06
7.8176455e-06
7.8512532e-06
7.8812982e-06
7.9056232e-06
7.9182104e-06
7.9024628e-06
7.8160584e-06
7.5622533e-06
6.9489389e-06
5.6661762e-06
3.3975874e-06
7.5679346e-06
7.5922878e-06
7.6199299e-06
7.650507e-06
7.6836293e-06
7.7188774e-06
7.7558081e-06
7.7939612e-06
7.8328658e-06
7.8720463e-06
7.9110295e-06
7.9493503e-06
7.986556e-06
8.0222067e-06
8.0558584e-06
8.0869837e-06
8.1146847e-06
8.1367679e-06
8.1470703e-06
8.1285682e-06
8.0378326e-06
7.7755311e-06
7.1442527e-06
5.8238716e-06
3.4710698e-06
7.8440477e-06
7.8666661e-06
7.8923426e-06
7.9207483e-06
7.9515205e-06
7.984268e-06
8.0185772e-06
8.0540186e-06
8.090152e-06
8.126533e-06
8.1627184e-06
8.1982723e-06
8.2327704e-06
8.2657992e-06
8.2969377e-06
8.3256758e-06
8.3511174e-06
8.3710285e-06
8.3790917e-06
8.3578353e-06
8.2626839e-06
7.9916623e-06
7.3420705e-06
5.9852003e-06
3.5799321e-06
8.1207234e-06
8.1416934e-06
8.1655013e-06
8.191842e-06
8.2203777e-06
8.2507441e-06
8.2825555e-06
8.3154112e-06
8.3489004e-06
8.3826077e-06
8.4161189e-06
8.4490263e-06
8.4809322e-06
8.5114481e-06
8.5401755e-06
8.5666204e-06
8.5898866e-06
8.607695e-06
8.6135621e-06
8.5895434e-06
8.4898785e-06
8.2099444e-06
7.5419877e-06
6.1498681e-06
3.6978662e-06
8.3972274e-06
8.4166311e-06
8.4386629e-06
8.4630399e-06
8.489448e-06
8.5175478e-06
8.5469804e-06
8.577372e-06
8.6083395e-06
8.6394953e-06
8.6704527e-06
8.7008307e-06
8.730257e-06
8.7583675e-06
8.7847848e-06
8.8090295e-06
8.8302033e-06
8.8459778e-06
8.8496915e-06
8.822904e-06
8.7186491e-06
8.4297227e-06
7.7435609e-06
6.3159851e-06
3.7999813e-06
8.6727357e-06
8.6906516e-06
8.710996e-06
8.7335066e-06
8.7578916e-06
8.7838354e-06
8.8110039e-06
8.839049e-06
8.8676139e-06
8.8963371e-06
8.9248582e-06
8.9528213e-06
8.9798789e-06
9.0056895e-06
9.0298958e-06
9.0520324e-06
9.0711969e-06
9.0850064e-06
9.0866101e-06
9.0570462e-06
8.94811e-06
8.6500372e-06
7.9456753e-06
6.4831352e-06
3.9037862e-06
8.9463342e-06
8.9628378e-06
8.9815802e-06
9.0023183e-06
9.0247813e-06
9.0486761e-06
9.0736919e-06
9.0995049e-06
9.1257829e-06
9.1521898e-06
9.1783894e-06
9.2040502e-06
9.228848e-06
9.2524629e-06
9.2745568e-06
9.2946767e-06
9.3119145e-06
9.3238293e-06
9.3233708e-06
9.291032e-06
9.1773138e-06
8.8697602e-06
8.1463575e-06
6.6484346e-06
4.0170675e-06
9.217019e-06
9.2321836e-06
9.2494067e-06
9.2684634e-06
9.2891027e-06
9.3110525e-06
9.3340242e-06
9.3577168e-06
9.3818216e-06
9.4060258e-06
9.4300169e-06
9.4534863e-06
9.4761317e-06
9.4976539e-06
9.5177329e-06
9.5359272e-06
9.5513213e-06
9.5614133e-06
9.5589448e-06
9.5238403e-06
9.405249e-06
9.0879074e-06
8.344883e-06
6.8113387e-06
4.1264505e-06
9.4836998e-06
9.4975964e-06
9.5133808e-06
9.5308449e-06
9.5497565e-06
9.5698632e-06
9.5908972e-06
9.6125792e-06
9.6346223e-06
9.6567361e-06
9.6786302e-06
9.7000176e-06
9.7206171e-06
9.740149e-06
9.7583102e-06
9.7746698e-06
9.7883038e-06
9.7966465e-06
9.7922251e-06
9.7543748e-06
9.630825e-06
9.3032771e-06
8.5390353e-06
6.9639783e-06
4.1931145e-06
9.745204e-06
9.7579024e-06
9.7723269e-06
9.7882857e-06
9.8055637e-06
9.8239274e-06
9.8431285e-06
9.862908e-06
9.8829997e-06
9.9031341e-06
9.9230416e-06
9.9424559e-06
9.9611153e-06
9.9787589e-06
9.9950994e-06
1.0009715e-05
1.0021674e-05
1.0028345e-05
1.002204e-05
9.9815005e-06
9.8530235e-06
9.5152661e-06
8.7299997e-06
7.1156762e-06
4.2859881e-06
1.0000284e-05
1.0011853e-05
1.0024995e-05
1.0039535e-05
1.0055272e-05
1.0071992e-05
1.0089464e-05
1.0107448e-05
1.0125697e-05
1.0143963e-05
1.0161994e-05
1.0179543e-05
1.0196368e-05
1.0212226e-05
1.0226843e-05
1.0239807e-05
1.0250176e-05
1.0255258e-05
1.0247152e-05
1.0204023e-05
1.0070777e-05
9.7231305e-06
8.9173412e-06
7.2616007e-06
4.3529085e-06
1.0247628e-05
1.0258135e-05
1.0270072e-05
1.0283277e-05
1.0297566e-05
1.031274e-05
1.0328586e-05
1.0344881e-05
1.0361397e-05
1.0377903e-05
1.0394168e-05
1.0409961e-05
1.0425058e-05
1.0439231e-05
1.0452223e-05
1.0463628e-05
1.0472496e-05
1.0476072e-05
1.0466256e-05
1.042065e-05
1.0282802e-05
9.9255722e-06
9.1001686e-06
7.4075902e-06
4.4374941e-06
1.0485866e-05
1.0495378e-05
1.0506187e-05
1.0518142e-05
1.0531075e-05
1.0544801e-05
1.0559123e-05
1.0573836e-05
1.0588728e-05
1.0603586e-05
1.0618193e-05
1.063234e-05
1.0645815e-05
1.0658407e-05
1.0669872e-05
1.0679812e-05
1.0687267e-05
1.0689425e-05
1.0677987e-05
1.0630006e-05
1.048768e-05
1.0121015e-05
9.2764165e-06
7.5498054e-06
4.5290436e-06
1.0713581e-05
1.0722166e-05
1.0731923e-05
1.0742713e-05
1.0754381e-05
1.0766757e-05
1.0779659e-05
1.0792897e-05
1.0806274e-05
1.0819593e-05
1.0832655e-05
1.0845264e-05
1.0857225e-05
1.086834e-05
1.0878378e-05
1.0886948e-05
1.089308e-05
1.0893904e-05
1.088093e-05
1.0830664e-05
1.0683948e-05
1.030786e-05
9.4438398e-06
7.6826059e-06
4.6104148e-06
1.0929288e-05
1.0937014e-05
1.0945795e-05
1.0955505e-05
1.0966001e-05
1.0977126e-05
1.0988711e-05
1.100058e-05
1.1012553e-05
1.1024446e-05
1.1036074e-05
1.1047256e-05
1.1057812e-05
1.1067556e-05
1.1076268e-05
1.1083563e-05
1.1088463e-05
1.1088041e-05
1.107362e-05
1.1021182e-05
1.0870259e-05
1.0485126e-05
9.6024147e-06
7.8074606e-06
4.6843409e-06
1.1131329e-05
1.1138262e-05
1.1146145e-05
1.1154861e-05
1.1164278e-05
1.117425e-05
1.1184623e-05
1.1195232e-05
1.1205912e-05
1.1216491e-05
1.1226799e-05
1.1236666e-05
1.1245927e-05
1.1254407e-05
1.1261896e-05
1.1268015e-05
1.1271776e-05
1.1270199e-05
1.1254431e-05
1.1199966e-05
1.1045149e-05
1.0651747e-05
9.7521827e-06
7.926862e-06
4.7563687e-06
1.131745e-05
1.132366e-05
1.1330722e-05
1.133853e-05
1.1346962e-05
1.1355882e-05
1.1365148e-05
1.1374608e-05
1.1384107e-05
1.1393487e-05
1.1402589e-05
1.1411256e-05
1.1419332e-05
1.1426657e-05
1.1433028e-05
1.1438071e-05
1.1440788e-05
1.1438151e-05
1.1421147e-05
1.1364828e-05
1.1206476e-05
1.0805641e-05
9.8909588e-06
8.0380144e-06
4.8232138e-06
1.1483447e-05
1.1489004e-05
1.1495325e-05
1.1502313e-05
1.1509855e-05
1.1517824e-05
1.1526089e-05
1.153451e-05
1.1542944e-05
1.1551242e-05
1.1559255e-05
1.1566837e-05
1.1573843e-05
1.1580121e-05
1.1585479e-05
1.1589546e-05
1.1591318e-05
1.1587722e-05
1.15696e-05
1.1511616e-05
1.1350121e-05
1.0942728e-05
1.0014725e-05
8.1370889e-06
4.8816654e-06
1.1619233e-05
1.1624207e-05
1.1629871e-05
1.1636131e-05
1.1642882e-05
1.1650006e-05
1.1657378e-05
1.1664872e-05
1.1672357e-05
1.1679694e-05
1.1686739e-05
1.1693353e-05
1.1699399e-05
1.170474e-05
1.1709189e-05
1.1712381e-05
1.1713304e-05
1.170885e-05
1.1689738e-05
1.1630299e-05
1.1466096e-05
1.1053104e-05
1.01136e-05
8.2137213e-06
4.9211213e-06
1.1698735e-05
1.1703202e-05
1.1708296e-05
1.1713931e-05
1.1720003e-05
1.1726393e-05
1.1732984e-05
1.1739665e-05
1.1746322e-05
1.1752823e-05
1.1759025e-05
1.1764789e-05
1.1769989e-05
1.1774495e-05
1.1778129e-05
1.178053e-05
1.1780686e-05
1.1775468e-05
1.1755502e-05
1.1694859e-05
1.1528546e-05
1.1111531e-05
1.0164554e-05
8.2519107e-06
4.9406234e-06
1.1657053e-05
1.1661079e-05
1.1665702e-05
1.1670842e-05
1.1676389e-05
1.1682193e-05
1.1688131e-05
1.1694124e-05
1.170008e-05
1.1705876e-05
1.1711364e-05
1.1716398e-05
1.1720856e-05
1.1724617e-05
1.1727495e-05
1.172913e-05
1.1728532e-05
1.1722605e-05
1.1701936e-05
1.1640459e-05
1.1473052e-05
1.1054963e-05
1.0108491e-05
8.2019205e-06
4.9081624e-06
1.1346595e-05
1.1350199e-05
1.1354454e-05
1.1359301e-05
1.1364612e-05
1.1370097e-05
1.137559e-05
1.1381097e-05
1.1386543e-05
1.1391772e-05
1.1396669e-05
1.1401078e-05
1.1404889e-05
1.1407982e-05
1.1410073e-05
1.1410783e-05
1.1409251e-05
1.140256e-05
1.1381406e-05
1.1319888e-05
1.1153723e-05
1.0741318e-05
9.8133469e-06
7.9549482e-06
4.7597941e-06
1.0472945e-05
1.0475967e-05
1.0479925e-05
1.0484817e-05
1.0490478e-05
1.0496174e-05
1.0501678e-05
1.0507285e-05
1.0512892e-05
1.0517781e-05
1.052224e-05
1.0526091e-05
1.0529379e-05
1.0532067e-05
1.0533197e-05
1.0532431e-05
1.0529419e-05
1.0521769e-05
1.0500544e-05
1.0441016e-05
1.0281921e-05
9.8914908e-06
9.0229058e-06
7.3052398e-06
4.3865322e-06
8.5582966e-06
8.560238e-06
8.5637713e-06
8.5690009e-06
8.5757012e-06
8.582232e-06
8.5885102e-06
8.5958923e-06
8.6050926e-06
8.6105046e-06
8.6159986e-06
8.6194151e-06
8.6226333e-06
8.6263598e-06
8.6265657e-06
8.6243489e-06
8.6192471e-06
8.6105572e-06
8.5891924e-06
8.5362834e-06
8.3968548e-06
8.0641159e-06
7.3378888e-06
5.9333305e-06
3.5994035e-06
5.0859496e-06
5.0864006e-06
5.0888254e-06
5.0933746e-06
5.0998128e-06
5.105985e-06
5.1124723e-06
5.123308e-06
5.1468573e-06
5.1556076e-06
5.1744413e-06
5.178469e-06
5.1823781e-06
5.1899147e-06
5.1912785e-06
5.1982354e-06
5.1932541e-06
5.1842466e-06
5.15665e-06
5.1184724e-06
5.0207602e-06
4.8099071e-06
4.3645404e-06
3.5357061e-06
2.2278168e-06
)
;

boundaryField
{
    Walls
    {
        type            kqRWallFunction;
        value           nonuniform List<scalar> 
38
(
6.3337067e-06
2.1544151e-06
7.6591724e-06
3.8055144e-05
0.00028436651
0.002364546
0.056211652
0.060967844
0.018266041
0.027281901
0.034409413
0.041440081
0.047643004
0.052200553
0.056592984
0.060019169
0.062335288
0.064504966
0.066518156
0.067395019
0.069174943
0.070704854
0.070634816
0.071476309
0.072177031
0.072031437
0.072434852
0.072089554
0.072768663
0.073580691
0.072603478
0.072609827
0.073328988
0.073534102
0.073191233
0.072574317
0.071654782
0.066443544
)
;
    }
    Inlet
    {
        type            turbulentIntensityKineticEnergyInlet;
        intensity       0.05;
        value           nonuniform List<scalar> 3(0.0077964087 0.0080249453 0.0097441785);
    }
    Outlet
    {
        type            inletOutlet;
        inletValue      uniform 0;
        value           nonuniform List<scalar> 
86
(
0
0
0
0
0
0
0
0
0
0
0
0
0
0
0
0
0
0
0
0
0
0
0
0
0
0
0
0
0
0
0.0014147433
0.0013417285
0.00073080944
0
0
0
0
4.1547183e-06
3.7845851e-06
0
0
0
0
0
0
2.5193621e-06
2.5800718e-06
2.6321445e-06
2.6906528e-06
2.7713358e-06
2.8714199e-06
3.0037903e-06
3.0936094e-06
3.1994545e-06
3.3102442e-06
3.3975874e-06
3.4710698e-06
3.5799321e-06
3.6978662e-06
3.7999813e-06
3.9037862e-06
4.0170675e-06
4.1264505e-06
0
0
0
0
0
0
0
0
0
0
0
0
0
0
0
0
0
0
0
0
0
0.00068175906
0.0013187473
)
;
    }
    Front
    {
        type            wedge;
    }
    Back
    {
        type            wedge;
    }
    defaultFaces
    {
        type            empty;
    }
}


// ************************************************************************* //
