/*--------------------------------*- C++ -*----------------------------------*\
| =========                 |                                                 |
| \\      /  F ield         | OpenFOAM: The Open Source CFD Toolbox           |
|  \\    /   O peration     | Version:  4.0                                   |
|   \\  /    A nd           | Web:      www.OpenFOAM.org                      |
|    \\/     M anipulation  |                                                 |
\*---------------------------------------------------------------------------*/
FoamFile
{
    version     2.0;
    format      ascii;
    class       volScalarField;
    location    "0.08";
    object      nut;
}
// * * * * * * * * * * * * * * * * * * * * * * * * * * * * * * * * * * * * * //

dimensions      [0 2 -1 0 0 0 0];

internalField   nonuniform List<scalar> 
1740
(
3.8174107e-05
1.3553411e-05
1.2244056e-06
4.1753341e-05
7.1591435e-06
1.815346e-06
3.4028168e-05
5.5272747e-06
2.2764933e-06
1.5218867e-05
4.8997711e-06
2.7264274e-06
9.3630105e-06
4.4499057e-06
3.1191894e-06
1.4314508e-05
4.1095693e-06
3.4049658e-06
1.0381479e-05
3.8827908e-06
3.6796138e-06
1.1542223e-05
3.7332556e-06
3.8922444e-06
1.0120474e-05
3.629933e-06
4.0347977e-06
9.2902235e-06
3.5662016e-06
4.168125e-06
8.6801252e-06
3.5251583e-06
4.2915838e-06
7.9827767e-06
3.5049622e-06
4.3453138e-06
7.3585699e-06
3.4853711e-06
4.4540872e-06
6.8999826e-06
3.4943631e-06
4.5477213e-06
6.5121305e-06
3.496569e-06
4.543232e-06
6.1206506e-06
3.4945863e-06
4.5944746e-06
5.8366421e-06
3.5211522e-06
4.6374082e-06
5.5880892e-06
3.5395919e-06
4.6280559e-06
5.3812991e-06
3.5177096e-06
4.6528825e-06
5.1925491e-06
3.5136924e-06
4.6322418e-06
5.0168716e-06
3.5087357e-06
4.6731481e-06
4.839281e-06
3.52703e-06
4.7223918e-06
4.6921839e-06
3.5288866e-06
4.663109e-06
4.5844545e-06
3.5147595e-06
4.6633014e-06
4.4815993e-06
3.5255671e-06
4.7068324e-06
4.3712753e-06
3.5665164e-06
4.7191658e-06
4.2706136e-06
3.5810884e-06
4.6982544e-06
4.1844331e-06
3.5949766e-06
4.6608649e-06
4.139435e-06
3.5898235e-06
4.6048639e-06
2.8799366e-06
3.4593265e-06
4.2868629e-06
1.9340909e-06
2.1456563e-06
4.4041925e-06
7.2009953e-06
7.3846609e-06
6.7452894e-06
6.5224041e-06
6.7323407e-06
6.365223e-06
5.098261e-06
5.0486276e-06
4.8052042e-06
4.0371961e-06
3.9759239e-06
3.8367274e-06
3.0371523e-06
2.9977336e-06
2.9170084e-06
1.9817303e-06
1.9572678e-06
1.9038242e-06
1.0296492e-06
1.0143906e-06
9.8001314e-07
4.2245934e-07
4.1483001e-07
3.9792712e-07
1.521089e-07
1.4918435e-07
1.4289767e-07
5.9866405e-08
5.9001378e-08
5.7175515e-08
3.3882884e-08
3.3682815e-08
3.327997e-08
2.8269766e-08
2.8262546e-08
2.8265084e-08
2.8276193e-08
2.8319679e-08
2.8424744e-08
2.9687244e-08
2.9742111e-08
2.986755e-08
3.1424392e-08
3.1480182e-08
3.1605204e-08
3.3242542e-08
3.3296473e-08
3.3416122e-08
3.5094497e-08
3.5145822e-08
3.5259061e-08
3.6974295e-08
3.702284e-08
3.7129607e-08
3.8882737e-08
3.8928511e-08
3.9028998e-08
4.08208e-08
4.0863882e-08
4.0958351e-08
4.2788708e-08
4.2829202e-08
4.2917931e-08
4.4785926e-08
4.4823941e-08
4.4907203e-08
4.6811235e-08
4.6846882e-08
4.6924935e-08
4.8862764e-08
4.889615e-08
4.8969241e-08
5.0937998e-08
5.0969225e-08
5.1037582e-08
5.3033748e-08
5.3062913e-08
5.3126754e-08
5.5146123e-08
5.5173319e-08
5.5232847e-08
5.7270495e-08
5.7295809e-08
5.7351218e-08
5.9401461e-08
5.9424976e-08
5.9476448e-08
6.1532815e-08
6.155461e-08
6.1602321e-08
6.3657528e-08
6.3677681e-08
6.3721798e-08
6.5767745e-08
6.578633e-08
6.5827018e-08
6.7854791e-08
6.7871881e-08
6.79093e-08
6.99092e-08
6.9924868e-08
6.9959175e-08
7.1920765e-08
7.1935082e-08
7.1966435e-08
7.3878606e-08
7.3891644e-08
7.3920201e-08
7.5771274e-08
7.5783106e-08
7.5809025e-08
7.7586872e-08
7.7597572e-08
7.7621014e-08
7.931323e-08
7.9322871e-08
7.9344e-08
8.0938154e-08
8.0946812e-08
8.0965793e-08
8.24499e-08
8.2457653e-08
8.2474657e-08
8.3838172e-08
8.38451e-08
8.38603e-08
8.5096169e-08
8.5102354e-08
8.5115934e-08
8.6223923e-08
8.6229454e-08
8.6241604e-08
8.7231259e-08
8.723623e-08
8.7247162e-08
8.8134062e-08
8.8138578e-08
8.8148517e-08
8.8932059e-08
8.8936228e-08
8.8945408e-08
8.9552481e-08
8.9556403e-08
8.9565037e-08
8.9702538e-08
8.9706283e-08
8.9714508e-08
4.1698654e-06
4.5040627e-06
6.7753904e-06
8.4809207e-06
5.9824179e-06
6.022e-06
4.6422554e-06
4.7243789e-06
3.7546758e-06
3.8063165e-06
2.8542747e-06
2.8528461e-06
1.8448665e-06
1.8053638e-06
9.3549515e-07
8.9346462e-07
3.7510781e-07
3.5150651e-07
1.3437682e-07
1.2530833e-07
5.4707122e-08
5.2059725e-08
3.2758798e-08
3.2235673e-08
2.8298044e-08
2.8386871e-08
2.8594605e-08
2.8832454e-08
3.0061666e-08
3.0322584e-08
3.1795957e-08
3.2049559e-08
3.35975e-08
3.383766e-08
3.5430147e-08
3.5656282e-08
3.7290619e-08
3.7503263e-08
3.9180385e-08
3.938024e-08
4.1100592e-08
4.1288342e-08
4.3051486e-08
4.3227767e-08
4.5032508e-08
4.5197903e-08
4.7042393e-08
4.7197442e-08
4.9079229e-08
4.9224428e-08
5.114045e-08
5.1276264e-08
5.3222829e-08
5.3349691e-08
5.5322439e-08
5.5440753e-08
5.7434616e-08
5.7544764e-08
5.9553927e-08
5.9656272e-08
6.1674144e-08
6.1769032e-08
6.378822e-08
6.3875986e-08
6.5888285e-08
6.5969254e-08
6.7965653e-08
6.8040143e-08
7.0010853e-08
7.0079178e-08
7.2013673e-08
7.2076147e-08
7.3963237e-08
7.4020171e-08
7.5848098e-08
7.5899808e-08
7.7656365e-08
7.770317e-08
7.9375875e-08
7.94181e-08
8.0994443e-08
8.1032421e-08
8.2500338e-08
8.2534407e-08
8.3883276e-08
8.3913787e-08
8.5136479e-08
8.5163796e-08
8.6260011e-08
8.6284522e-08
8.7263745e-08
8.7285863e-08
8.8163613e-08
8.8183779e-08
8.8959358e-08
8.8977997e-08
8.9578136e-08
8.9595593e-08
8.972692e-08
8.974332e-08
5.2526121e-10
8.1015754e-09
1.1517069e-07
4.680851e-07
9.0823878e-07
1.1803282e-06
1.2750571e-06
1.267147e-06
1.2080175e-06
1.1227051e-06
1.0223638e-06
9.1274493e-07
7.9813517e-07
6.8273927e-07
5.7077446e-07
4.6612286e-07
3.720194e-07
2.9078266e-07
2.236401e-07
1.7069971e-07
1.3106935e-07
1.0306034e-07
8.4277748e-08
7.1147259e-08
5.8110512e-08
1.7866912e-10
2.1482908e-08
2.7888771e-07
1.0261594e-06
1.838574e-06
2.288235e-06
2.4573151e-06
2.4787097e-06
2.4242279e-06
2.3248574e-06
2.1923537e-06
2.0320342e-06
1.8482473e-06
1.6463965e-06
1.4332495e-06
1.2166743e-06
1.0055599e-06
8.0893619e-07
6.3476173e-07
4.8880107e-07
3.7393155e-07
2.9012315e-07
2.348997e-07
2.0337742e-07
1.8288169e-07
6.3518503e-10
7.470372e-08
7.9557019e-07
2.2589418e-06
3.2991e-06
3.8002276e-06
4.0233508e-06
4.1123113e-06
4.1283613e-06
4.0932777e-06
4.0115923e-06
3.8828627e-06
3.705691e-06
3.4798666e-06
3.2071341e-06
2.8919048e-06
2.5439015e-06
2.1782676e-06
1.814747e-06
1.4756036e-06
1.1823524e-06
9.5259277e-07
7.9858953e-07
7.288849e-07
7.4247383e-07
3.1558688e-09
2.8548732e-07
2.0432973e-06
3.9080764e-06
4.8499204e-06
5.3246483e-06
5.5976504e-06
5.7792361e-06
5.9108238e-06
6.0028735e-06
6.0511736e-06
6.0499209e-06
5.990399e-06
5.8639649e-06
5.6623462e-06
5.3777008e-06
5.0096118e-06
4.5651615e-06
4.0608221e-06
3.5240159e-06
2.9927488e-06
2.5128136e-06
2.131605e-06
1.8916989e-06
1.7792252e-06
2.3576251e-08
1.1432288e-06
4.0050322e-06
5.612085e-06
6.4527027e-06
6.9499581e-06
7.292168e-06
7.574534e-06
7.835093e-06
8.0705869e-06
8.2697535e-06
8.4288563e-06
8.5346327e-06
8.571723e-06
8.5234763e-06
8.3673038e-06
8.0932443e-06
7.6953047e-06
7.1752055e-06
6.5463278e-06
5.8363297e-06
5.0896197e-06
4.3643195e-06
3.7393228e-06
3.3167394e-06
1.9562205e-07
2.7516874e-06
5.9272544e-06
7.7680093e-06
8.7121796e-06
9.1505677e-06
9.357694e-06
9.4963745e-06
9.6254612e-06
9.7556361e-06
9.8867758e-06
1.0014904e-05
1.013049e-05
1.0217665e-05
1.025437e-05
1.021628e-05
1.0080054e-05
9.8250663e-06
9.4365126e-06
8.9093851e-06
8.2509845e-06
7.4845081e-06
6.6470743e-06
5.8100915e-06
5.1128801e-06
4.3473784e-06
4.3240068e-06
4.3690464e-06
4.4814142e-06
4.661153e-06
4.8975924e-06
5.1796434e-06
5.5030442e-06
5.8678164e-06
6.2726918e-06
6.7122878e-06
7.1756012e-06
7.6447134e-06
8.0948649e-06
8.4961092e-06
8.8160564e-06
9.0227785e-06
9.0878395e-06
8.9897702e-06
8.7178604e-06
8.2746438e-06
7.6782614e-06
6.9614244e-06
6.1863282e-06
5.4953858e-06
9.1307372e-06
9.3983432e-06
9.8165582e-06
1.0261756e-05
1.0460689e-05
1.0440191e-05
1.0331748e-05
1.0234537e-05
1.018468e-05
1.017889e-05
1.0206555e-05
1.0256231e-05
1.0311318e-05
1.0351537e-05
1.0354134e-05
1.0294196e-05
1.0146297e-05
9.8873516e-06
9.5002783e-06
8.9780162e-06
8.3260538e-06
7.5659662e-06
6.7332578e-06
5.8978294e-06
5.1982993e-06
6.3933145e-06
6.8067492e-06
7.2420791e-06
7.6426878e-06
7.9360525e-06
8.1293736e-06
8.2768661e-06
8.4260097e-06
8.5715237e-06
8.7108136e-06
8.8369649e-06
8.9351827e-06
8.9926225e-06
8.9832928e-06
8.892657e-06
8.7056734e-06
8.4086827e-06
7.9928986e-06
7.4578674e-06
6.8150661e-06
6.0903846e-06
5.3266898e-06
4.5809465e-06
3.9324202e-06
3.4863802e-06
5.0102826e-06
5.3357355e-06
5.6484562e-06
5.9153109e-06
6.1116276e-06
6.2433212e-06
6.3362841e-06
6.4100699e-06
6.4647206e-06
6.496437e-06
6.4976606e-06
6.4584732e-06
6.3688746e-06
6.2154253e-06
5.9883896e-06
5.6814329e-06
5.2931217e-06
4.829239e-06
4.305184e-06
3.7477954e-06
3.1950895e-06
2.6935516e-06
2.2918023e-06
2.0327718e-06
1.8936422e-06
3.9736739e-06
4.1772994e-06
4.3701752e-06
4.5239703e-06
4.6229676e-06
4.6677224e-06
4.6697769e-06
4.6396958e-06
4.5800658e-06
4.4892604e-06
4.363681e-06
4.1994111e-06
3.9929022e-06
3.7409184e-06
3.4433313e-06
3.1043813e-06
2.7334854e-06
2.3455809e-06
1.9605379e-06
1.6014008e-06
1.290597e-06
1.0468223e-06
8.8346019e-07
8.0979664e-07
8.2195366e-07
2.9101447e-06
2.9923295e-06
3.0690797e-06
3.1175714e-06
3.1242535e-06
3.0870708e-06
3.0124556e-06
2.9082775e-06
2.7788833e-06
2.6260293e-06
2.4506665e-06
2.2543663e-06
2.0397391e-06
1.8105237e-06
1.5723065e-06
1.3327049e-06
1.100738e-06
8.856995e-07
6.9579828e-07
5.3699272e-07
4.1213608e-07
3.209962e-07
2.609089e-07
2.2744441e-07
2.1338096e-07
1.7907059e-06
1.790165e-06
1.7880451e-06
1.769517e-06
1.7251111e-06
1.653193e-06
1.5584231e-06
1.4475988e-06
1.3261483e-06
1.1978304e-06
1.0656232e-06
9.3252826e-07
8.016787e-07
6.7615975e-07
5.5890741e-07
4.5257609e-07
3.5927489e-07
2.8031149e-07
2.1605282e-07
1.6594525e-07
1.2865914e-07
1.0229419e-07
8.4510425e-08
7.2365714e-08
6.1507352e-08
8.6001517e-07
8.3352316e-07
8.079823e-07
7.7654054e-07
7.3479992e-07
6.8234956e-07
6.2203727e-07
5.5785563e-07
4.930992e-07
4.2995494e-07
3.6985334e-07
3.1386844e-07
2.6285343e-07
2.174146e-07
1.7789451e-07
1.4438751e-07
1.1675502e-07
9.464833e-08
7.7543448e-08
6.4790936e-08
5.5670393e-08
4.9435722e-08
4.5306848e-08
4.2392769e-08
3.9792955e-08
3.3044999e-07
3.1234916e-07
2.955458e-07
2.7778523e-07
2.5759699e-07
2.349007e-07
2.1074309e-07
1.8652899e-07
1.633759e-07
1.4195673e-07
1.2260633e-07
1.0548169e-07
9.0641964e-08
7.8065749e-08
6.7643992e-08
5.9219184e-08
5.2590938e-08
4.7531611e-08
4.3802172e-08
4.11666e-08
3.9403685e-08
3.8310064e-08
3.7687867e-08
3.732207e-08
3.7014517e-08
1.1695441e-07
1.0968144e-07
1.0313532e-07
9.6722772e-08
9.0041761e-08
8.306403e-08
7.6032435e-08
6.9281216e-08
6.3078385e-08
5.7562874e-08
5.2793058e-08
4.8766544e-08
4.545199e-08
4.2799001e-08
4.0741616e-08
3.9203401e-08
3.8103051e-08
3.736046e-08
3.6901621e-08
3.6662476e-08
3.6590745e-08
3.6642496e-08
3.6769991e-08
3.6900874e-08
3.6909479e-08
4.9617198e-08
4.7538846e-08
4.5778755e-08
4.4201014e-08
4.26953e-08
4.1232256e-08
3.9851169e-08
3.861613e-08
3.7576558e-08
3.6752123e-08
3.6137774e-08
3.5719058e-08
3.5474366e-08
3.5378834e-08
3.540564e-08
3.5527178e-08
3.5716756e-08
3.5950474e-08
3.6209085e-08
3.6479758e-08
3.6756717e-08
3.7037969e-08
3.7314407e-08
3.7544414e-08
3.7596678e-08
3.1816211e-08
3.1554659e-08
3.1445898e-08
3.1453958e-08
3.1541966e-08
3.1689051e-08
3.1890629e-08
3.2149249e-08
3.2465816e-08
3.2835959e-08
3.3250973e-08
3.3699342e-08
3.4170533e-08
3.4653257e-08
3.5136283e-08
3.5608912e-08
3.6061579e-08
3.6486732e-08
3.6880126e-08
3.7242561e-08
3.7581111e-08
3.7907045e-08
3.82261e-08
3.8512905e-08
3.8658563e-08
2.8556531e-08
2.882101e-08
2.9176107e-08
2.9606986e-08
3.0096336e-08
3.0629607e-08
3.1196198e-08
3.1788029e-08
3.2397736e-08
3.3017785e-08
3.364056e-08
3.4257277e-08
3.4861123e-08
3.544519e-08
3.6002848e-08
3.6528047e-08
3.70157e-08
3.7462402e-08
3.7867757e-08
3.8236456e-08
3.8580157e-08
3.8916096e-08
3.9257314e-08
3.9586626e-08
3.981061e-08
2.9141602e-08
2.9523013e-08
2.9971279e-08
3.0476984e-08
3.1029165e-08
3.1617114e-08
3.2231132e-08
3.2862489e-08
3.3503124e-08
3.4145451e-08
3.478229e-08
3.5406736e-08
3.6011979e-08
3.6592392e-08
3.7142519e-08
3.7657434e-08
3.8133117e-08
3.8567194e-08
3.8960408e-08
3.9318976e-08
3.9656813e-08
3.9994118e-08
4.0346657e-08
4.0699151e-08
4.0961228e-08
3.0648292e-08
3.1036087e-08
3.1480449e-08
3.1974049e-08
3.2508594e-08
3.307555e-08
3.3666556e-08
3.4273624e-08
3.4889123e-08
3.5505801e-08
3.6116787e-08
3.6715642e-08
3.7295755e-08
3.7851682e-08
3.8378257e-08
3.8870847e-08
3.9325728e-08
3.9740874e-08
4.0117545e-08
4.0462799e-08
4.0791754e-08
4.112568e-08
4.1480051e-08
4.1837193e-08
4.2100149e-08
3.236288e-08
3.2732329e-08
3.3152749e-08
3.3617916e-08
3.4120912e-08
3.4654477e-08
3.521125e-08
3.5783955e-08
3.6365487e-08
3.6948969e-08
3.7527792e-08
3.8095662e-08
3.8646588e-08
3.917484e-08
3.9675436e-08
4.0143908e-08
4.0576699e-08
4.0972004e-08
4.1331435e-08
4.1662592e-08
4.1981171e-08
4.2308428e-08
4.2658131e-08
4.3008428e-08
4.3251958e-08
3.4133364e-08
3.4480907e-08
3.4875563e-08
3.5311804e-08
3.5783559e-08
3.6284381e-08
3.6807634e-08
3.7346633e-08
3.7894746e-08
3.8445469e-08
3.8992494e-08
3.9529755e-08
4.0051486e-08
4.0552291e-08
4.1027097e-08
4.1471622e-08
4.1882473e-08
4.2258047e-08
4.2600252e-08
4.2917077e-08
4.3224508e-08
4.3543487e-08
4.3886133e-08
4.4227063e-08
4.4451913e-08
3.593435e-08
3.6260771e-08
3.6631178e-08
3.7040565e-08
3.7483442e-08
3.7953955e-08
3.8446021e-08
3.8953446e-08
3.9470026e-08
3.9989625e-08
4.0506241e-08
4.101408e-08
4.1507612e-08
4.1981661e-08
4.2431317e-08
4.2852428e-08
4.3241772e-08
4.3597946e-08
4.3923128e-08
4.4225646e-08
4.4521758e-08
4.483231e-08
4.5168644e-08
4.5503755e-08
4.5719169e-08
3.7764607e-08
3.8071253e-08
3.8419146e-08
3.88037e-08
3.9219867e-08
3.9662264e-08
4.0125262e-08
4.0603095e-08
4.1089939e-08
4.1580008e-08
4.2067616e-08
4.2547243e-08
4.3013601e-08
4.3461711e-08
4.388697e-08
4.4285284e-08
4.4653623e-08
4.4990796e-08
4.5299251e-08
4.5587673e-08
4.5872715e-08
4.6175536e-08
4.6507555e-08
4.6841254e-08
4.7054361e-08
3.9625825e-08
3.9913938e-08
4.0240814e-08
4.0602195e-08
4.0993422e-08
4.1409496e-08
4.1845183e-08
4.2295092e-08
4.2753758e-08
4.321572e-08
4.3675596e-08
4.4128145e-08
4.456833e-08
4.4991393e-08
4.5392951e-08
4.5769093e-08
4.6116959e-08
4.6435568e-08
4.6727652e-08
4.7002297e-08
4.7276699e-08
4.7572642e-08
4.7902061e-08
4.8237361e-08
4.8453346e-08
4.1519049e-08
4.1789713e-08
4.2096826e-08
4.2436427e-08
4.2804179e-08
4.319543e-08
4.3605291e-08
4.4028714e-08
4.4460564e-08
4.4895691e-08
4.5329004e-08
4.5755534e-08
4.6170495e-08
4.6569353e-08
4.6947925e-08
4.7302549e-08
4.763049e-08
4.7930996e-08
4.8207099e-08
4.8468334e-08
4.8732535e-08
4.9022239e-08
4.9349864e-08
4.9687235e-08
4.9905177e-08
4.3444392e-08
4.3698559e-08
4.3986997e-08
4.4306014e-08
4.4651554e-08
4.5019281e-08
4.5404616e-08
4.5802826e-08
4.6209082e-08
4.6618533e-08
4.7026367e-08
4.7427879e-08
4.7818526e-08
4.8194003e-08
4.8550332e-08
4.8884057e-08
4.9192627e-08
4.9475507e-08
4.9736039e-08
4.9984234e-08
5.023862e-08
5.0522487e-08
5.0848455e-08
5.1186744e-08
5.1404428e-08
4.5401171e-08
4.5639696e-08
4.5910425e-08
4.620991e-08
4.6534365e-08
4.6879721e-08
4.7241699e-08
4.7615848e-08
4.7997633e-08
4.8382481e-08
4.8765851e-08
4.9143293e-08
4.9510504e-08
4.9863399e-08
5.0198207e-08
5.0511665e-08
5.0801423e-08
5.1067162e-08
5.1312536e-08
5.1548049e-08
5.1792933e-08
5.2071194e-08
5.2395411e-08
5.2733495e-08
5.2944723e-08
4.7388018e-08
4.7611677e-08
4.7865573e-08
4.8146481e-08
4.8450859e-08
4.8774903e-08
4.9114586e-08
4.946574e-08
4.9824095e-08
5.0185348e-08
5.0545214e-08
5.0899491e-08
5.1244109e-08
5.15752e-08
5.1889193e-08
5.218301e-08
5.2454526e-08
5.2703612e-08
5.2934244e-08
5.3157412e-08
5.339303e-08
5.3665759e-08
5.3988063e-08
5.4325852e-08
5.4533383e-08
4.9402924e-08
4.9612432e-08
4.9850297e-08
5.0113502e-08
5.0398735e-08
5.0702429e-08
5.1020811e-08
5.1349959e-08
5.1685864e-08
5.2024475e-08
5.2361754e-08
5.2693735e-08
5.3016576e-08
5.332662e-08
5.3620494e-08
5.3895308e-08
5.414913e-08
5.4382055e-08
5.4598366e-08
5.4809524e-08
5.5036089e-08
5.5303304e-08
5.5623441e-08
5.5960223e-08
5.6160881e-08
5.1443244e-08
5.1639264e-08
5.186184e-08
5.2108155e-08
5.2375106e-08
5.265935e-08
5.2957351e-08
5.3265427e-08
5.3579807e-08
5.3896681e-08
5.421225e-08
5.4522775e-08
5.482463e-08
5.5114366e-08
5.5388804e-08
5.5645236e-08
5.5881917e-08
5.6099183e-08
5.6301607e-08
5.6501116e-08
5.6718892e-08
5.6980726e-08
5.7298711e-08
5.7634194e-08
5.782462e-08
5.3505683e-08
5.3688829e-08
5.3896809e-08
5.4126989e-08
5.4376467e-08
5.4642109e-08
5.4920597e-08
5.520848e-08
5.5502216e-08
5.5798221e-08
5.6092921e-08
5.6382798e-08
5.6664439e-08
5.693459e-08
5.7190263e-08
5.7428928e-08
5.764903e-08
5.7851127e-08
5.8040105e-08
5.8228349e-08
5.8437638e-08
5.8694264e-08
5.9010115e-08
5.9344262e-08
5.9524747e-08
5.5586254e-08
5.5757102e-08
5.5951134e-08
5.6165892e-08
5.6398658e-08
5.6646497e-08
5.6906299e-08
5.7174827e-08
5.7448757e-08
5.7724726e-08
5.7999372e-08
5.8269387e-08
5.853156e-08
5.8782835e-08
5.90204e-08
5.9241907e-08
5.944598e-08
5.9633402e-08
5.9809374e-08
5.9986736e-08
6.0187842e-08
6.0439443e-08
6.0753163e-08
6.1086069e-08
6.1262008e-08
5.7680241e-08
5.7839337e-08
5.8020036e-08
5.8220045e-08
5.8436822e-08
5.8667618e-08
5.8909521e-08
5.9159498e-08
5.9414431e-08
5.9671164e-08
5.9926544e-08
6.0177462e-08
6.0420901e-08
6.065399e-08
6.0874097e-08
6.1079042e-08
6.1267631e-08
6.1440864e-08
6.1604261e-08
6.177111e-08
6.196434e-08
6.2211163e-08
6.252301e-08
6.2855073e-08
6.3026389e-08
5.9782169e-08
5.9930032e-08
6.0097985e-08
6.0283887e-08
6.0485366e-08
6.0699848e-08
6.0924609e-08
6.1156807e-08
6.1393524e-08
6.1631799e-08
6.1868678e-08
6.2101244e-08
6.2326666e-08
6.2542252e-08
6.274554e-08
6.2934516e-08
6.3108161e-08
6.3267691e-08
6.3418934e-08
6.3575627e-08
6.3761271e-08
6.4003546e-08
6.4313672e-08
6.4644714e-08
6.4807776e-08
6.1885775e-08
6.2022902e-08
6.217867e-08
6.2351084e-08
6.2537929e-08
6.2736801e-08
6.294515e-08
6.316032e-08
6.3379577e-08
6.3600154e-08
6.381928e-08
6.4034226e-08
6.4242337e-08
6.4441092e-08
6.4628194e-08
6.4801789e-08
6.4961028e-08
6.5107338e-08
6.5246849e-08
6.5393748e-08
6.5572097e-08
6.5810008e-08
6.6118342e-08
6.6447683e-08
6.6601764e-08
6.3983984e-08
6.4110856e-08
6.4254981e-08
6.4414506e-08
6.4587361e-08
6.4771305e-08
6.4963955e-08
6.5162827e-08
6.5365368e-08
6.5568989e-08
6.5771099e-08
6.5969144e-08
6.6160642e-08
6.6343234e-08
6.6514779e-08
6.667358e-08
6.6818951e-08
6.6952525e-08
6.708073e-08
6.7218201e-08
6.7389549e-08
6.7623261e-08
6.7929675e-08
6.8256787e-08
6.8402621e-08
6.6068906e-08
6.6185988e-08
6.6319001e-08
6.6466219e-08
6.6625715e-08
6.6795399e-08
6.6973047e-08
6.7156341e-08
6.7342895e-08
6.7530293e-08
6.7716115e-08
6.7897974e-08
6.807355e-08
6.8240643e-08
6.8397261e-08
6.8541855e-08
6.86739e-08
6.8795227e-08
6.891256e-08
6.9040968e-08
6.9205602e-08
6.943528e-08
6.9739717e-08
7.0064039e-08
7.0198411e-08
6.813184e-08
6.8239591e-08
6.836201e-08
6.8497495e-08
6.8644252e-08
6.8800334e-08
6.8963669e-08
6.9132095e-08
6.9303387e-08
6.947529e-08
6.9645548e-08
6.9811933e-08
6.9972281e-08
7.0124539e-08
7.0266862e-08
7.0397841e-08
7.0517105e-08
7.0626681e-08
7.0733579e-08
7.0853302e-08
7.1011528e-08
7.1237386e-08
7.1539854e-08
7.1860715e-08
7.1980599e-08
7.0163306e-08
7.0262179e-08
7.0374517e-08
7.0498836e-08
7.0633468e-08
7.0776602e-08
7.0926309e-08
7.1080575e-08
7.1237327e-08
7.1394464e-08
7.1549882e-08
7.1701507e-08
7.1847322e-08
7.1985417e-08
7.2114081e-08
7.2232044e-08
7.2339081e-08
7.2437408e-08
7.2534317e-08
7.2645738e-08
7.2797885e-08
7.3020245e-08
7.3321251e-08
7.3639946e-08
7.37488e-08
7.2153089e-08
7.2243534e-08
7.2346303e-08
7.2460022e-08
7.2583144e-08
7.2713983e-08
7.2850748e-08
7.2991562e-08
7.3134498e-08
7.32776e-08
7.341891e-08
7.3556496e-08
7.3688482e-08
7.3813091e-08
7.3928745e-08
7.40343e-08
7.4129673e-08
7.4217259e-08
7.4304623e-08
7.4408106e-08
7.4554447e-08
7.477349e-08
7.5073117e-08
7.5389232e-08
7.5483295e-08
7.4090313e-08
7.4172781e-08
7.4266495e-08
7.4370182e-08
7.448241e-08
7.4601613e-08
7.4726125e-08
7.4854203e-08
7.4984055e-08
7.5113862e-08
7.5241804e-08
7.5366082e-08
7.5484953e-08
7.5596768e-08
7.5700071e-08
7.579384e-08
7.5878123e-08
7.5955486e-08
7.6033746e-08
7.6129624e-08
7.627034e-08
7.6486025e-08
7.6783994e-08
7.7097602e-08
7.7181511e-08
7.5963536e-08
7.6038485e-08
7.6123661e-08
7.621789e-08
7.6319847e-08
7.6428078e-08
7.6541037e-08
7.6657105e-08
7.6774616e-08
7.6891881e-08
7.7007206e-08
7.7118922e-08
7.7225409e-08
7.7325137e-08
7.7416765e-08
7.7499386e-08
7.7573171e-08
7.7640842e-08
7.7710447e-08
7.7799052e-08
7.793429e-08
7.8146502e-08
7.8442365e-08
7.8752737e-08
7.8825671e-08
7.7760879e-08
7.7828769e-08
7.7905933e-08
7.7991289e-08
7.8083608e-08
7.8181544e-08
7.8283662e-08
7.8388459e-08
7.8494387e-08
7.8599877e-08
7.8703356e-08
7.8803274e-08
7.8898126e-08
7.8986493e-08
7.9067142e-08
7.9139273e-08
7.9203171e-08
7.9261704e-08
7.932313e-08
7.940483e-08
7.9534807e-08
7.9743574e-08
8.0037166e-08
8.034385e-08
8.0404068e-08
7.947019e-08
7.9531493e-08
7.960118e-08
7.9678256e-08
7.9761584e-08
7.9849917e-08
7.9941922e-08
8.0036204e-08
8.0131326e-08
8.022583e-08
8.0318255e-08
8.0407159e-08
8.0491146e-08
8.0568902e-08
8.0639292e-08
8.0701614e-08
8.0756262e-08
8.0806237e-08
8.0859998e-08
8.0935221e-08
8.1060271e-08
8.1265865e-08
8.1557536e-08
8.1861192e-08
8.1909734e-08
8.1079299e-08
8.1134496e-08
8.1197256e-08
8.1266661e-08
8.1341661e-08
8.1421101e-08
8.1503741e-08
8.1588286e-08
8.1673401e-08
8.175773e-08
8.1839916e-08
8.1918619e-08
8.1992539e-08
8.2060459e-08
8.2121335e-08
8.2174558e-08
8.2220619e-08
8.2262648e-08
8.2309291e-08
8.2378509e-08
8.249902e-08
8.2701768e-08
8.299187e-08
8.3293064e-08
8.3331146e-08
8.2576494e-08
8.2626078e-08
8.2682473e-08
8.2744836e-08
8.2812193e-08
8.288347e-08
8.2957519e-08
8.3033132e-08
8.3109067e-08
8.3184063e-08
8.3256856e-08
8.33262e-08
8.3390884e-08
8.3449776e-08
8.3501918e-08
8.3546782e-08
8.3584952e-08
8.3619673e-08
8.365977e-08
8.3723468e-08
8.3839811e-08
8.4039937e-08
8.4328513e-08
8.4627106e-08
8.4654665e-08
8.3951515e-08
8.3995999e-08
8.4046614e-08
8.4102585e-08
8.416301e-08
8.422689e-08
8.4293153e-08
8.4360674e-08
8.4428294e-08
8.4494837e-08
8.4559126e-08
8.4619997e-08
8.4676319e-08
8.4727038e-08
8.4771267e-08
8.4808554e-08
8.4839563e-08
8.4867648e-08
8.4901787e-08
8.4960438e-08
8.5072922e-08
8.5270506e-08
8.5557358e-08
8.5852873e-08
8.5869366e-08
8.5197617e-08
8.5237535e-08
8.5282983e-08
8.533325e-08
8.5387496e-08
8.5444788e-08
8.550412e-08
8.5564438e-08
8.562466e-08
8.5683687e-08
8.5740418e-08
8.5793763e-08
8.5842662e-08
8.5886124e-08
8.5923322e-08
8.5953869e-08
8.59785e-08
8.6000656e-08
8.6029441e-08
8.6083484e-08
8.6192293e-08
8.638716e-08
8.6671681e-08
8.6963113e-08
8.6967515e-08
8.6314914e-08
8.6350834e-08
8.6391772e-08
8.6437072e-08
8.6485953e-08
8.6537531e-08
8.6590857e-08
8.6644936e-08
8.669875e-08
8.6751272e-08
8.6801474e-08
8.6848329e-08
8.6890834e-08
8.6928042e-08
8.6959174e-08
8.6983891e-08
8.7002986e-08
8.7019966e-08
8.7044007e-08
8.7093809e-08
8.71989e-08
8.7390412e-08
8.7671325e-08
8.7957252e-08
8.7949743e-08
8.7313341e-08
8.7345876e-08
8.7383014e-08
8.7424155e-08
8.7468565e-08
8.7515396e-08
8.7563731e-08
8.7612624e-08
8.7661111e-08
8.7708232e-08
8.7753029e-08
8.7794533e-08
8.7831777e-08
8.786384e-08
8.7889962e-08
8.7909838e-08
8.7924301e-08
8.7936897e-08
8.7956789e-08
8.8002572e-08
8.8103489e-08
8.8290122e-08
8.8564569e-08
8.8841125e-08
8.8818513e-08
8.8208878e-08
8.823868e-08
8.8272785e-08
8.8310648e-08
8.8351578e-08
8.8394723e-08
8.8439179e-08
8.8484039e-08
8.8528375e-08
8.8571277e-08
8.8611868e-08
8.8649237e-08
8.8682437e-08
8.8710545e-08
8.8732777e-08
8.8748836e-08
8.8759594e-08
8.8768595e-08
8.8784868e-08
8.8826614e-08
8.892227e-08
8.9101147e-08
8.9363858e-08
8.9623754e-08
8.9579947e-08
8.9001231e-08
8.9028948e-08
8.906081e-08
8.9096333e-08
8.9134851e-08
8.9175438e-08
8.9217192e-08
8.9259273e-08
8.930076e-08
8.9340656e-08
8.9378257e-08
8.9412695e-08
8.9443066e-08
8.9468445e-08
8.9487877e-08
8.9501074e-08
8.9508982e-08
8.9515106e-08
8.9528141e-08
8.9565524e-08
8.9654061e-08
8.9820736e-08
9.0063622e-08
9.0295903e-08
9.0224317e-08
8.9617359e-08
8.9643554e-08
8.9673911e-08
8.970801e-08
8.9745191e-08
8.978433e-08
8.9824566e-08
8.9865287e-08
8.9905719e-08
8.9943868e-08
8.9979845e-08
9.0012434e-08
9.0041108e-08
9.0065056e-08
9.008266e-08
9.0093927e-08
9.0099648e-08
9.0103425e-08
9.0113163e-08
9.0145565e-08
9.0224431e-08
9.0373553e-08
9.0587009e-08
9.0779144e-08
9.0676079e-08
8.9763733e-08
8.9788716e-08
8.9818092e-08
8.9851521e-08
8.9888308e-08
8.9926943e-08
8.9966772e-08
9.0008086e-08
9.0051821e-08
9.0090054e-08
9.012835e-08
9.016016e-08
9.0188192e-08
9.0212395e-08
9.022924e-08
9.0241537e-08
9.0245609e-08
9.0247024e-08
9.0251006e-08
9.0277347e-08
9.0343267e-08
9.0470796e-08
9.0648854e-08
9.0798509e-08
9.0697388e-08
)
;

boundaryField
{
    Walls
    {
        type            nutUWallFunction;
        Cmu             0.09;
        kappa           0.41;
        E               9.8;
        value           uniform 0;
    }
    Inlet
    {
        type            calculated;
        value           nonuniform List<scalar> 3(4.8378925e-05 1.5524389e-05 8.0484478e-07);
    }
    Outlet
    {
        type            calculated;
        value           nonuniform List<scalar> 
86
(
0
0
0
0
0
0
0
0
0
0
0
0
0
0
0
0
0
0
0
0
0
0
0
0
0
0
0
0
0
0
5.4953858e-06
5.1982993e-06
3.4863802e-06
0
0
0
0
3.9792955e-08
3.7014517e-08
0
0
0
0
0
0
4.3251958e-08
4.4451913e-08
4.5719169e-08
4.7054361e-08
4.8453346e-08
4.9905177e-08
5.1404428e-08
5.2944723e-08
5.4533383e-08
5.6160881e-08
5.782462e-08
5.9524747e-08
6.1262008e-08
6.3026389e-08
6.4807776e-08
6.6601764e-08
6.8402621e-08
7.0198411e-08
0
0
0
0
0
0
0
0
0
0
0
0
0
0
0
0
0
0
0
0
0
3.3167394e-06
5.1128801e-06
)
;
    }
    Front
    {
        type            wedge;
    }
    Back
    {
        type            wedge;
    }
    defaultFaces
    {
        type            empty;
    }
}


// ************************************************************************* //
