/*--------------------------------*- C++ -*----------------------------------*\
| =========                 |                                                 |
| \\      /  F ield         | OpenFOAM: The Open Source CFD Toolbox           |
|  \\    /   O peration     | Version:  4.0                                   |
|   \\  /    A nd           | Web:      www.OpenFOAM.org                      |
|    \\/     M anipulation  |                                                 |
\*---------------------------------------------------------------------------*/
FoamFile
{
    version     2.0;
    format      ascii;
    class       volScalarField;
    location    "0.08";
    object      omega;
}
// * * * * * * * * * * * * * * * * * * * * * * * * * * * * * * * * * * * * * //

dimensions      [0 0 -1 0 0 0 0];

internalField   nonuniform List<scalar> 
1740
(
59.181581
676.9239
14918.293
166.2921
1392.814
15028.486
280.254
1904.5
15115.095
378.92389
2191.8312
15199.407
491.55079
2472.4161
15274.162
597.22448
2773.255
15330.713
728.5467
3022.0964
15380.142
875.30421
3298.6647
15420.195
995.97431
3489.6425
15449.421
1076.0771
3615.033
15475.775
1145.1568
3682.1125
15499.675
1236.0856
3755.4949
15509.816
1338.082
3789.7366
15530.667
1413.8197
3869.7951
15547.315
1481.5459
3923.5145
15547.261
1567.9451
3949.4636
15557.015
1624.1496
4036.9956
15564.088
1670.1479
4096.0791
15564.081
1707.1002
4056.105
15567.737
1740.0387
4061.6562
15562.563
1773.7916
4062.788
15571.658
1816.2492
4114.3495
15581.234
1852.0078
4122.5261
15569.758
1866.6665
4084.2087
15570.477
1884.5399
4104.6735
15579.265
1923.266
4198.9408
15582.013
1977.0823
4231.0553
15578.389
2020.8058
4269.8122
15570.998
2040.4374
4248.1438
15560.673
2154.5458
4303.1449
15499.34
3213.5232
4567.5649
10698.411
3337.7226
4233.8578
5913.3201
1574.7338
1863.5941
2156.9731
829.57397
905.48026
963.80058
485.35518
503.89618
514.07005
311.89919
315.82536
316.17988
221.23409
221.74948
220.68036
176.80901
176.74574
176.04227
158.69149
158.67764
158.47497
153.088
153.2162
153.3425
151.13451
151.24368
151.33872
149.22147
149.31623
149.3948
147.70601
147.76449
147.80849
146.65055
146.67823
146.69237
145.92056
145.93026
145.92713
145.37919
145.37981
145.36835
144.93904
144.93535
144.92036
144.55208
144.54645
144.53028
144.193
144.1866
144.17038
143.84848
143.84188
143.82615
143.51134
143.50484
143.48984
143.17768
143.17143
143.15727
142.84539
142.83946
142.82616
142.51337
142.50777
142.49534
142.18113
142.17589
142.16429
141.84859
141.8437
141.83291
141.51597
141.51142
141.5014
141.18365
141.17943
141.17014
140.85221
140.84831
140.83972
140.52238
140.51877
140.51085
140.195
140.19168
140.18439
139.87104
139.86799
139.86129
139.55159
139.54879
139.54265
139.23781
139.23526
139.22965
138.93101
138.92868
138.92357
138.63252
138.63041
138.62577
138.34379
138.34188
138.33768
138.06627
138.06454
138.06075
137.80128
137.79973
137.79632
137.5496
137.54821
137.54515
137.30972
137.30847
137.30574
137.07225
137.07114
137.0687
136.80271
136.80173
136.79957
136.39387
136.393
136.39111
135.5476
135.54685
135.54521
133.51847
133.51784
133.51646
128.64299
128.64247
128.64132
117.68781
117.68736
117.68621
95.534964
95.534466
95.532787
56.715076
56.714551
56.712406
13480.448
13536.189
5994.1357
5334.4085
2084.1294
1881.6298
925.88239
856.46578
497.25239
470.19675
308.20062
296.49587
216.82495
211.55533
174.41005
172.24626
157.98581
157.29306
153.37351
153.28258
151.34402
151.24422
149.39495
149.31117
147.79723
147.72859
146.6708
146.61284
145.90015
145.84935
145.33956
145.29379
144.89168
144.84976
144.5026
144.46388
144.14409
144.10816
143.80138
143.76798
143.46661
143.43555
143.13555
143.10664
142.80589
142.779
142.47646
142.45145
142.14673
142.1235
141.81661
141.79505
141.48628
141.46629
141.15615
141.13764
140.82679
140.80969
140.49892
140.48315
140.1734
140.15888
139.8512
139.83787
139.53341
139.52119
139.2212
139.21004
138.91587
138.9057
138.61878
138.60953
138.33135
138.32297
138.05503
138.04747
137.79118
137.78437
137.54054
137.53443
137.30162
137.29615
137.06503
137.06016
136.79632
136.792
136.38825
136.38446
135.54275
135.5395
133.51439
133.51162
128.63945
128.63667
117.68369
117.67866
95.527726
95.5156
56.705084
56.686575
12058.204
2044.9179
682.80937
357.46266
260.80756
228.73993
215.21847
206.871
199.93719
193.46381
187.26942
181.37939
175.8725
170.83275
166.32459
162.37912
158.98253
156.04816
153.35223
150.40464
146.23157
139.11166
126.54644
106.45615
79.907585
12058.128
2040.22
696.7486
371.46242
277.09415
246.81682
232.97872
223.55906
215.4473
207.84409
200.55628
193.59015
187.01971
180.92564
175.36781
170.37848
165.95636
162.0224
158.33208
154.31436
148.80048
139.63207
123.22264
94.265622
45.352693
12058.175
2029.2934
717.36288
430.85028
360.74325
334.2141
316.97465
302.16041
288.31925
275.08755
262.29964
249.97542
238.21842
227.09515
216.62763
206.82062
197.70639
189.26499
181.30793
173.28324
163.96198
151.00897
130.54738
97.154798
45.369059
12058.532
2029.1367
816.98023
611.06186
554.41635
518.68455
486.62589
456.71912
429.0414
403.30059
379.00805
356.14724
334.89685
315.20008
296.87633
279.71251
263.67403
248.71063
234.67553
221.20407
207.48007
191.86726
171.33468
140.55678
87.93574
12061.566
2149.2511
1232.8601
1080.8249
993.89992
912.85358
835.74675
765.29953
702.33235
645.26801
592.7093
544.60493
501.45983
463.00076
428.45595
397.06457
368.73135
343.26183
320.38192
299.73565
280.80939
262.85189
244.66396
225.18897
205.55099
12087.319
3823.7108
2809.3337
2404.7886
2097.6692
1830.6564
1597.0263
1395.5428
1221.8144
1071.8102
942.73672
831.96659
737.16695
656.11157
586.71279
527.22167
476.30034
432.77129
395.57323
363.74929
336.40261
312.71599
291.79535
273.29969
257.92649
10365.074
7909.034
6104.2907
4793.6942
3823.1959
3087.872
2519.1963
2072.865
1719.0856
1436.5038
1209.2985
1025.6794
876.80011
755.79512
657.17986
576.54153
510.35236
455.80255
410.64311
373.06214
341.57318
314.97026
292.20548
272.76448
257.44204
4090.0264
3307.7781
2844.8775
2469.8062
2151.708
1872.6921
1629.8196
1420.0803
1240.1759
1086.1426
954.3011
841.52721
745.00512
662.25908
591.39547
530.79173
479.02738
434.84975
397.14403
364.91684
337.24792
313.30811
292.1967
273.56508
258.10913
1594.6963
1401.6279
1272.8044
1165.7873
1065.0141
968.95598
880.82256
803.16034
733.13221
669.68694
612.49574
561.98896
517.15117
476.40976
439.59844
406.50388
376.84999
350.33143
326.60738
305.27858
285.80585
267.43421
248.97681
229.38065
209.6184
774.22305
712.15454
667.08442
627.61736
588.38207
549.19746
512.16137
478.48944
447.41209
418.64733
392.11109
367.84651
345.53704
324.72575
305.29913
287.20329
270.37916
254.73201
240.07584
226.02038
211.74643
195.653
174.79222
143.90766
91.094681
441.02072
417.90844
399.95485
383.48476
366.43757
348.69599
331.15921
314.49604
298.70456
283.74058
269.6034
256.32187
243.83104
232.0326
220.91391
210.50592
200.8341
191.85524
183.34931
174.7364
164.7656
151.11872
130.0157
96.272836
44.983939
284.40233
274.31622
266.01729
258.20481
249.99553
241.2827
232.42785
223.78549
215.48148
207.55992
200.05825
193.02303
186.47876
180.43738
174.92138
169.95479
165.53146
161.56443
157.79827
153.65725
147.9882
138.67263
122.09325
92.50701
41.901489
206.16294
201.44441
197.3441
193.40846
189.29991
184.97467
180.59002
176.33013
172.30107
168.55067
165.1044
161.98196
159.1926
156.73507
154.60036
152.76945
151.20141
149.80725
148.39531
146.56451
143.52058
137.80201
126.86489
105.94481
61.991807
169.99141
167.89485
165.9488
164.02692
162.04453
160.01405
158.01386
156.12849
154.41132
152.87755
151.52445
150.34465
149.32834
148.46362
147.73547
147.1237
146.59801
146.10077
145.50649
144.5413
142.65289
138.83732
131.60735
119.60425
104.40839
156.4966
155.6387
154.71413
153.71084
152.64281
151.55469
150.50643
149.54879
148.71632
148.00881
147.40815
146.89644
146.45647
146.07226
145.75132
145.48187
145.24238
144.99155
144.63167
143.92852
142.35934
138.89246
131.86449
119.63625
102.24597
153.03796
152.618
152.03934
151.32426
150.49855
149.59407
148.68942
147.86532
147.16574
146.61436
146.17507
145.82103
145.53219
145.29417
145.0955
144.92449
144.7649
144.58053
144.27421
143.58774
141.88242
137.72741
128.28587
108.63995
69.825122
151.02399
150.66228
150.16012
149.5365
148.83097
148.10233
147.41404
146.81127
146.31084
145.90733
145.58919
145.33131
145.1178
144.93775
144.78293
144.64528
144.51094
144.3432
144.03465
143.28434
141.31638
136.3255
124.59096
99.486672
51.785213
149.13342
148.8424
148.447
147.97461
147.46461
146.95923
146.49276
146.08448
145.73879
145.4502
145.20896
145.00811
144.83595
144.68583
144.55283
144.4312
144.30802
144.14463
143.82361
143.01219
140.85253
135.36767
122.57237
95.776987
47.645957
147.59695
147.39053
147.11889
146.80296
146.46796
146.13732
145.82817
145.54961
145.30386
145.0886
144.89885
144.73436
144.5886
144.45785
144.33926
144.22836
144.11261
143.95195
143.62358
142.78195
140.54934
134.94237
122.06028
95.607966
49.281051
146.51583
146.37368
146.19251
145.98436
145.76298
145.54071
145.32668
145.12624
144.94157
144.77267
144.61836
144.47745
144.35004
144.23345
144.12587
144.02351
143.91409
143.75712
143.42893
142.58571
140.36712
134.85831
122.34812
97.01259
53.302659
145.77369
145.67024
145.54243
145.39665
145.24021
145.0798
144.92071
144.76655
144.61939
144.48024
144.3493
144.22623
144.11259
144.00705
143.90843
143.81336
143.70978
143.55751
143.23461
142.40546
140.23827
134.89372
122.81737
98.479786
56.805927
145.23079
145.14928
145.05124
144.94019
144.82021
144.69517
144.56842
144.44252
144.31932
144.20011
144.08569
143.97662
143.87339
143.77674
143.68569
143.59702
143.4989
143.35171
143.03588
142.22412
140.10721
134.89259
123.0953
99.239029
58.248509
144.79473
144.72616
144.64534
144.5544
144.45582
144.35208
144.24543
144.13781
144.03081
143.92571
143.82351
143.72503
143.63095
143.54165
143.45714
143.37421
143.28115
143.13884
142.82956
142.03136
139.94646
134.79715
123.09641
99.273958
58.041861
144.41441
144.3542
144.28421
144.20589
144.12091
144.03099
143.9378
143.84287
143.74755
143.65303
143.56034
143.47038
143.38387
143.30122
143.22257
143.14486
143.05645
142.91853
142.61425
141.82367
139.75145
134.61675
122.91066
99.011962
57.57201
144.06299
144.00877
143.9463
143.87668
143.80113
143.72099
143.63754
143.55206
143.46572
143.3796
143.2947
143.21189
143.13194
143.05536
142.98192
142.90899
142.82488
142.69081
142.38998
141.60223
139.53053
134.38892
122.66044
98.712516
57.181795
143.72636
143.67684
143.6201
143.55702
143.48861
143.41593
143.34007
143.2621
143.18305
143.10393
143.02564
142.94905
142.87491
142.80372
142.73521
142.66672
142.58661
142.45596
142.15758
141.37011
139.29451
134.1464
122.43059
98.570279
57.195963
143.39703
143.35143
143.29936
143.24159
143.17895
143.11236
143.04275
142.97106
142.89822
142.82514
142.75267
142.68164
142.61276
142.5465
142.48262
142.41826
142.3419
142.21442
141.91806
141.13017
139.05078
133.90351
122.23746
98.582901
57.537514
143.07091
143.02874
142.9807
142.92745
142.86973
142.80834
142.74411
142.67789
142.61051
142.54281
142.47559
142.40961
142.34555
142.28387
142.22427
142.16386
142.09107
141.96665
141.67236
140.88462
138.80345
133.66233
122.0569
98.633394
58.434467
142.74582
142.70674
142.66228
142.61302
142.55965
142.50287
142.44342
142.38209
142.31963
142.25682
142.1944
142.13308
142.07351
142.01609
141.96052
141.90387
141.83451
141.71313
141.42126
140.63498
138.55515
133.42351
121.86714
98.578127
58.43093
142.42064
142.38439
142.34318
142.29754
142.2481
142.19549
142.14039
142.08352
142.02557
141.96727
141.90929
141.85232
141.79694
141.74354
141.69178
141.63872
141.57263
141.45427
141.16523
140.38191
138.30686
133.18897
121.6815
98.547959
58.669649
142.09489
142.06126
142.02305
141.98074
141.93491
141.88613
141.83505
141.78229
141.72853
141.67442
141.6206
141.5677
141.51627
141.46667
141.41851
141.36883
141.30589
141.1905
140.90447
140.12504
138.05683
132.95357
121.4837
98.476545
58.94217
141.76851
141.73732
141.70189
141.66268
141.6202
141.57499
141.52763
141.47872
141.42887
141.37868
141.32877
141.27971
141.23201
141.186
141.14126
141.0948
141.03486
140.92225
140.63916
139.86384
137.80344
132.71599
121.27566
98.312752
58.756762
141.4417
141.4128
141.37998
141.34366
141.30431
141.26244
141.21857
141.17326
141.12708
141.0806
141.03436
140.98893
140.94477
140.90216
140.86066
140.81725
140.76013
140.65012
140.36967
139.59812
137.54547
132.47514
121.06827
98.137064
58.313054
141.11488
141.08814
141.05778
141.02417
140.98776
140.94902
140.90843
140.86652
140.8238
140.7808
140.73805
140.69604
140.65524
140.61586
140.57745
140.53693
140.48246
140.37483
140.09663
139.32806
137.28161
132.22594
120.85084
97.979792
58.436415
140.78865
140.76395
140.73589
140.70484
140.6712
140.6354
140.59791
140.55919
140.51974
140.48004
140.44059
140.40184
140.36421
140.32792
140.29244
140.25466
140.20269
140.09723
139.82088
139.05438
137.01233
131.96899
120.62739
97.842033
58.671713
140.46375
140.44096
140.41507
140.38643
140.3554
140.32239
140.28782
140.25212
140.21576
140.17918
140.14285
140.10719
140.07258
140.03921
140.00652
139.97135
139.92173
139.81825
139.54337
138.77809
136.73895
131.70712
120.40303
97.70304
58.634651
140.14102
140.12004
140.09621
140.06984
140.04128
140.01089
139.97907
139.94624
139.9128
139.87918
139.8458
139.81306
139.78132
139.75073
139.72069
139.688
139.6406
139.5389
139.26512
138.50019
136.46216
131.43954
120.17354
97.567513
58.613857
139.82146
139.80219
139.7803
139.75607
139.72983
139.70193
139.67271
139.64257
139.6119
139.58107
139.55049
139.52053
139.49151
139.46355
139.43603
139.40569
139.36038
139.26031
138.98732
138.22197
136.18304
131.16434
119.9234
97.403275
58.726807
139.50615
139.48849
139.46843
139.44623
139.42218
139.39661
139.36986
139.34227
139.3142
139.28602
139.25809
139.23076
139.20431
139.17885
139.15371
139.12561
139.08226
138.98367
138.71121
137.94477
135.903
130.88314
119.65754
97.215901
58.782677
139.1963
139.18015
139.16181
139.14151
139.11954
139.09617
139.07174
139.04655
139.02094
138.99526
138.96983
138.94498
138.92097
138.89787
138.875
138.849
138.80751
138.71028
138.43814
137.67001
135.6234
130.59543
119.36054
96.909393
58.253399
138.89317
138.87845
138.86173
138.84322
138.82319
138.80191
138.77965
138.75673
138.73344
138.71011
138.68704
138.66453
138.64282
138.62195
138.60122
138.57721
138.53748
138.44152
138.16963
137.39967
135.34766
130.30997
119.06507
96.627939
58.116038
138.59815
138.58476
138.56956
138.55274
138.53454
138.5152
138.49499
138.47419
138.45309
138.43197
138.41112
138.39081
138.37126
138.3525
138.33378
138.31166
138.27359
138.17888
137.90733
137.13591
135.07949
130.03446
118.78208
96.321458
57.667177
138.31266
138.30053
138.28675
138.2715
138.25501
138.23749
138.21921
138.2004
138.18134
138.16229
138.14352
138.12528
138.10776
138.09097
138.07414
138.0538
138.01733
137.92384
137.65278
136.88036
134.82046
129.76975
118.51648
96.080683
57.494263
138.03815
138.02719
138.01474
138.00096
137.98606
137.97025
137.95375
137.9368
137.91965
137.90254
137.88571
137.8694
137.85378
137.83884
137.82379
137.80512
137.77014
137.67786
137.40735
136.63413
134.57081
129.51335
118.25774
95.867213
57.456455
137.77597
137.7661
137.75488
137.74247
137.72905
137.71482
137.69999
137.68477
137.66939
137.65407
137.63905
137.62453
137.61068
137.59745
137.58406
137.56694
137.53338
137.44221
137.17222
136.39806
134.33047
129.26258
117.99318
95.62158
57.340567
137.52689
137.51802
137.50794
137.4968
137.48475
137.47198
137.45868
137.44505
137.43131
137.41766
137.40431
137.39145
137.37923
137.36759
137.35572
137.34005
137.30778
137.21764
136.94807
136.17287
134.10095
129.02251
117.73792
95.374383
57.189063
137.28941
137.28146
137.27243
137.26245
137.25165
137.24022
137.22833
137.21617
137.20393
137.19181
137.17999
137.16865
137.15793
137.14775
137.13727
137.12292
137.09184
137.00263
136.73342
135.95738
133.88218
128.79709
117.50769
95.168332
57.077922
137.05414
137.04705
137.03899
137.03007
137.02042
137.01022
136.99961
136.98878
136.97792
136.96718
136.95676
136.94679
136.93742
136.92855
136.91934
136.90618
136.87616
136.7878
136.51898
135.74244
133.66533
128.57745
117.2908
94.981558
56.975169
136.78666
136.78037
136.77321
136.76527
136.75669
136.74759
136.73814
136.72852
136.7189
136.70944
136.70027
136.69154
136.68335
136.67562
136.66752
136.65539
136.62633
136.53874
136.27039
135.49384
133.41637
128.32957
117.05276
94.77946
56.849906
136.37979
136.37428
136.36801
136.36105
136.35348
136.34542
136.33703
136.32851
136.32004
136.31176
136.30373
136.29607
136.28887
136.28208
136.27486
136.26357
136.23527
136.14838
135.88067
135.10488
133.02925
127.94846
116.68864
94.450636
56.585741
135.5355
135.53085
135.52559
135.51976
135.51337
135.50644
135.4991
135.49165
135.48433
135.47724
135.47034
135.46362
135.4572
135.45105
135.44436
135.43347
135.40554
135.31916
135.0524
134.27887
132.20976
127.14817
115.93932
93.817287
56.175529
133.50827
133.50464
133.50079
133.49676
133.4924
133.48729
133.48142
133.47534
133.46945
133.46383
133.45823
133.45248
133.44664
133.44075
133.43384
133.42227
133.39352
133.30701
133.04188
132.27408
130.22245
125.21178
114.13697
92.321214
55.260579
128.63325
128.63065
128.62916
128.62889
128.62942
128.62868
128.62614
128.62317
128.62026
128.617
128.61335
128.60887
128.60369
128.59781
128.58915
128.57389
128.54104
128.45264
128.19083
127.43803
125.43228
120.55196
109.81338
88.759373
53.134593
117.67191
117.66923
117.67156
117.67956
117.69221
117.70252
117.70913
117.71645
117.72455
117.7267
117.72707
117.72479
117.72158
117.71823
117.7053
117.67938
117.63534
117.54183
117.28764
116.57405
114.68438
110.1248
100.18369
80.903336
48.618071
95.498201
95.491952
95.499028
95.521022
95.556108
95.587192
95.614268
95.653089
95.712405
95.73198
95.754761
95.75805
95.763296
95.779209
95.762777
95.726196
95.663493
95.56304
95.315624
94.694436
93.066309
89.230927
81.003765
65.360062
39.695182
56.659293
56.64855
56.657019
56.686571
56.734996
56.779257
56.826228
56.920531
57.154395
57.227267
57.411917
57.436334
57.461824
57.529952
57.534325
57.603577
57.545782
57.44507
57.136759
56.697196
55.57426
53.165301
48.147773
38.940134
24.563186
)
;

boundaryField
{
    Walls
    {
        Cmu             0.09;
        kappa           0.41;
        E               9.8;
        beta1           0.075;
        type            omegaWallFunction;
        value           nonuniform List<scalar> 
38
(
12058.204
12058.128
12058.175
12058.532
12061.566
12087.319
13480.448
13536.189
14918.293
15028.486
15115.095
15199.407
15274.162
15330.713
15380.142
15420.195
15449.421
15475.775
15499.675
15509.816
15530.667
15547.315
15547.261
15557.015
15564.088
15564.081
15567.737
15562.563
15571.658
15581.234
15569.758
15570.477
15579.265
15582.013
15578.389
15570.998
15560.673
15499.34
)
;
    }
    Inlet
    {
        type            turbulentMixingLengthDissipationRateInlet;
        mixingLength    0.03;
        phi             phi;
        k               k;
        value           nonuniform List<scalar> 3(0.0046015343 0.0051296206 0.0045089985);
    }
    Outlet
    {
        type            inletOutlet;
        inletValue      uniform 1e-05;
        value           nonuniform List<scalar> 
86
(
1e-05
1e-05
1e-05
1e-05
1e-05
1e-05
1e-05
1e-05
1e-05
1e-05
1e-05
1e-05
1e-05
1e-05
1e-05
1e-05
1e-05
1e-05
1e-05
1e-05
1e-05
1e-05
1e-05
1e-05
1e-05
1e-05
1e-05
1e-05
1e-05
1e-05
257.44204
258.10913
209.6184
1e-05
1e-05
1e-05
1e-05
104.40839
102.24597
1e-05
1e-05
1e-05
1e-05
1e-05
1e-05
58.248509
58.041861
57.57201
57.181795
57.195963
57.537514
58.434467
58.43093
58.669649
58.94217
58.756762
58.313054
58.436415
58.671713
58.634651
58.613857
58.726807
58.782677
1e-05
1e-05
1e-05
1e-05
1e-05
1e-05
1e-05
1e-05
1e-05
1e-05
1e-05
1e-05
1e-05
1e-05
1e-05
1e-05
1e-05
1e-05
1e-05
1e-05
1e-05
205.55099
257.92649
)
;
    }
    Front
    {
        type            wedge;
    }
    Back
    {
        type            wedge;
    }
    defaultFaces
    {
        type            empty;
    }
}


// ************************************************************************* //
