/*--------------------------------*- C++ -*----------------------------------*\
| =========                 |                                                 |
| \\      /  F ield         | OpenFOAM: The Open Source CFD Toolbox           |
|  \\    /   O peration     | Version:  4.0                                   |
|   \\  /    A nd           | Web:      www.OpenFOAM.org                      |
|    \\/     M anipulation  |                                                 |
\*---------------------------------------------------------------------------*/
FoamFile
{
    version     2.0;
    format      ascii;
    class       volScalarField;
    location    "0.08";
    object      p;
}
// * * * * * * * * * * * * * * * * * * * * * * * * * * * * * * * * * * * * * //

dimensions      [0 2 -2 0 0 0 0];

internalField   nonuniform List<scalar> 
1740
(
491.74631
491.70441
491.63335
475.07957
474.97885
475.02401
458.22724
458.08721
458.29711
441.39329
441.52645
441.73208
424.73103
425.3061
425.51965
408.58952
408.90948
408.95495
392.40438
392.20872
392.38744
375.73576
375.61374
376.04713
359.16272
359.21923
359.49317
342.7811
342.68797
342.68144
326.61028
326.47965
326.14305
310.52327
310.67276
310.20707
294.0692
294.15687
293.96891
277.40339
277.20901
277.29061
260.84519
260.69148
260.65977
244.54294
244.50215
244.2997
228.11312
228.09507
228.17923
211.63595
211.61251
211.66403
195.52163
195.26592
195.14071
179.12161
178.96665
179.10404
162.5761
162.76609
162.99025
146.33142
146.51747
146.6877
130.15212
130.24734
130.2713
113.57389
113.69172
113.64698
96.522309
96.584964
96.776221
79.623848
79.568842
79.8717
63.418377
63.376118
63.494003
47.321722
47.277497
47.298879
31.258272
31.189864
31.052253
16.199752
16.129163
15.461715
4.0236215
3.5180644
1.4462721
-0.65277702
-0.58580978
-0.47806263
-0.17439319
-0.16702457
-0.16740028
-0.048201152
-0.048904519
-0.054796745
-0.0368678
-0.036338249
-0.036247955
-0.03366517
-0.033177618
-0.032026357
-0.030553304
-0.030150176
-0.029016587
-0.027002754
-0.026808597
-0.026156071
-0.023417593
-0.023211756
-0.022779021
-0.020301465
-0.020141901
-0.019785704
-0.017851968
-0.017724067
-0.017429081
-0.015993856
-0.015895864
-0.015672694
-0.01457728
-0.014508754
-0.01432979
-0.013461876
-0.01339969
-0.013252411
-0.012529562
-0.012478968
-0.012356239
-0.011741091
-0.011698473
-0.011593434
-0.011065692
-0.011029067
-0.010939401
-0.010479498
-0.010447513
-0.010371651
-0.0099629994
-0.0099349122
-0.0098697423
-0.009499455
-0.0094745754
-0.0094174412
-0.0090748861
-0.0090525965
-0.0090017055
-0.0086780288
-0.0086578437
-0.0086119499
-0.0083001075
-0.0082816606
-0.0082398627
-0.0079345575
-0.0079175667
-0.0078792197
-0.0075769062
-0.0075610137
-0.0075257068
-0.0072281351
-0.0072127584
-0.0071778124
-0.0068775091
-0.0068633122
-0.0068315715
-0.0065279385
-0.0065146023
-0.0064847947
-0.0061792877
-0.0061666803
-0.0061385238
-0.0058318347
-0.0058199017
-0.0057932856
-0.0054862566
-0.0054749689
-0.0054498226
-0.0051434587
-0.0051327966
-0.0051090685
-0.0048044601
-0.0047944097
-0.0047720641
-0.0044703067
-0.0044608601
-0.0044398745
-0.0041420016
-0.0041331555
-0.0041135159
-0.0038204467
-0.0038121986
-0.0037938971
-0.0035063966
-0.0034987448
-0.0034817745
-0.0032004276
-0.0031933703
-0.0031777243
-0.0029029248
-0.0028964589
-0.0028821294
-0.0026140762
-0.0026081986
-0.0025951764
-0.0023338754
-0.0023285819
-0.0023168565
-0.0020621271
-0.0020574128
-0.0020469721
-0.0017984592
-0.0017943184
-0.001785149
-0.0015423416
-0.001538768
-0.0015308558
-0.0012931051
-0.0012900925
-0.0012834233
-0.0010499489
-0.0010474909
-0.0010420514
-0.00081192176
-0.00081001331
-0.00080579126
-0.00057791268
-0.00057655017
-0.00057353606
-0.0003464822
-0.00034566445
-0.00034385356
-0.00011586806
-0.00011559554
-0.00011498943
-1.4105783
-0.98641902
-0.38585891
-0.29622368
-0.14708489
-0.13142261
-0.052457131
-0.048902476
-0.033039192
-0.028107343
-0.029235202
-0.025052091
-0.026860964
-0.023783077
-0.024670049
-0.02241585
-0.02194032
-0.020444138
-0.019145112
-0.018156134
-0.016937672
-0.016249635
-0.015319236
-0.014776262
-0.014034755
-0.013597699
-0.013005234
-0.012640355
-0.01214919
-0.011847461
-0.01142104
-0.011175918
-0.010796447
-0.0105921
-0.010250872
-0.010077615
-0.0097657772
-0.00961698
-0.0093263454
-0.0091967582
-0.0089208313
-0.0088064968
-0.0085393127
-0.0084371904
-0.0081739392
-0.0080817036
-0.0078188145
-0.0077346509
-0.0074697552
-0.0073922441
-0.0071242065
-0.0070521181
-0.0067827884
-0.0067145105
-0.0064386887
-0.0063752551
-0.0060950235
-0.0060355177
-0.0057522461
-0.0056962829
-0.0054111173
-0.005358457
-0.0050726005
-0.0050230774
-0.0047377645
-0.0046912618
-0.0044076976
-0.0043641353
-0.0040834326
-0.0040427559
-0.0037658871
-0.0037280556
-0.0034558211
-0.0034208016
-0.0031538118
-0.0031215737
-0.0028602416
-0.0028307557
-0.0025752957
-0.0025485321
-0.0022989637
-0.0022748908
-0.0020310461
-0.0020096306
-0.0017711672
-0.0017523745
-0.0015187947
-0.0015025899
-0.0012732595
-0.0012596085
-0.0010337631
-0.0010226339
-0.00079935884
-0.0007907235
-0.00056894422
-0.00056278074
-0.00034109463
-0.00033739162
-0.00011406544
-0.00011282511
-0.013307916
-0.01272043
-0.011632696
-0.010222146
-0.0087170651
-0.0072858422
-0.0060297102
-0.005016966
-0.004259462
-0.0037225111
-0.0033520778
-0.0030918757
-0.002897117
-0.0027335587
-0.0025772484
-0.002412676
-0.0022294719
-0.002024755
-0.0017978306
-0.0015503049
-0.0012854721
-0.0010076663
-0.00072178203
-0.00043276546
-0.00014381305
-0.013571769
-0.012877174
-0.011645902
-0.010136481
-0.0086476388
-0.0073049627
-0.0061702362
-0.0053056547
-0.0046837265
-0.0042446978
-0.0039269201
-0.0036770986
-0.00346306
-0.0032620766
-0.0030590818
-0.0028437487
-0.0026111694
-0.0023568535
-0.0020809974
-0.0017858137
-0.0014747713
-0.0011522078
-0.0008228438
-0.00049025338
-0.00015673186
-0.016641163
-0.015912605
-0.014613778
-0.013199789
-0.012053184
-0.011342773
-0.010977469
-0.010728017
-0.010442713
-0.010065254
-0.0096113647
-0.0090830291
-0.0085053254
-0.0078926659
-0.0072531096
-0.0065885076
-0.0059025022
-0.0052007065
-0.0044892034
-0.0037739685
-0.0030605261
-0.0023539383
-0.0016580919
-0.00097322009
-0.00029953043
-0.03434605
-0.03310826
-0.031981257
-0.03162332
-0.031437773
-0.031043597
-0.03030139
-0.029167109
-0.027721527
-0.026069073
-0.024279441
-0.022380262
-0.020455116
-0.018532404
-0.016617711
-0.014720653
-0.012861306
-0.011058084
-0.0093243814
-0.0076689268
-0.0060961869
-0.0046066491
-0.0031970984
-0.0018556574
-0.00057500852
-0.091686962
-0.089734767
-0.087411463
-0.083074132
-0.078230125
-0.072644256
-0.066750189
-0.060871671
-0.055130931
-0.04958455
-0.044307855
-0.039358588
-0.034811225
-0.030578685
-0.026538588
-0.022784574
-0.019344351
-0.016205256
-0.013346275
-0.010744491
-0.0083770738
-0.006220726
-0.0042541523
-0.0024492821
-0.00079174097
-0.26570372
-0.21953684
-0.19586461
-0.16139715
-0.13305635
-0.10835717
-0.087435977
-0.070248441
-0.056291303
-0.04499886
-0.035899046
-0.028607196
-0.022736808
-0.018027995
-0.01433843
-0.011410274
-0.0090651452
-0.0071803947
-0.0056542369
-0.0044030023
-0.0033603331
-0.0024710755
-0.0016999104
-0.0010024574
-0.00040611484
-0.38555129
-0.17170454
-0.11407107
-0.071925257
-0.034802643
-0.0056456154
0.013207225
0.023026496
0.027151512
0.028340678
0.027859513
0.02627838
0.02406917
0.021539869
0.018897081
0.016274705
0.013760744
0.01141111
0.0092570896
0.0073116511
0.0055718472
0.0040298563
0.0026555921
0.0014567467
0.00031468143
-0.23991635
-0.20745393
-0.17729258
-0.14826897
-0.12162016
-0.098441882
-0.078935596
-0.063045254
-0.050280458
-0.039951487
-0.031723576
-0.02517563
-0.020026546
-0.015931077
-0.012656665
-0.010048407
-0.0079713386
-0.0063109113
-0.0049730593
-0.0038806886
-0.0029723861
-0.0021971059
-0.0015233946
-0.00090687414
-0.00038200256
-0.11883473
-0.10960596
-0.10207582
-0.09484778
-0.087416808
-0.079775456
-0.072433634
-0.065433417
-0.058753416
-0.052633071
-0.046905153
-0.041547575
-0.036496883
-0.031805572
-0.027507031
-0.02358736
-0.020019969
-0.016775489
-0.013824826
-0.011139967
-0.0086946488
-0.0064643098
-0.0044270599
-0.0025512038
-0.00082733936
-0.04532481
-0.042884375
-0.041853275
-0.041225291
-0.040505271
-0.039474676
-0.038076859
-0.03626596
-0.034141794
-0.031846215
-0.02943736
-0.026982312
-0.024518406
-0.022068171
-0.019654015
-0.017298877
-0.015024285
-0.012847486
-0.01078015
-0.0088283362
-0.00699225
-0.005268024
-0.0036460405
-0.0021132171
-0.00065644461
-0.02257305
-0.017947042
-0.015237566
-0.014299061
-0.014332597
-0.014846953
-0.015135988
-0.015144169
-0.014886699
-0.014420505
-0.013779044
-0.013001788
-0.01212584
-0.011176501
-0.010174476
-0.0091411463
-0.0080945483
-0.0070487831
-0.0060155016
-0.0050059723
-0.0040237935
-0.0030719205
-0.0021507063
-0.0012564491
-0.00038524129
-0.020276947
-0.015805429
-0.012178278
-0.0096014772
-0.0078461377
-0.0068400938
-0.0063981365
-0.00623976
-0.0061772753
-0.0061228244
-0.0060259715
-0.0058527296
-0.0056112046
-0.005302968
-0.0049381616
-0.0045277431
-0.0040827256
-0.0036137168
-0.0031292815
-0.0026343818
-0.0021376786
-0.0016446264
-0.0011592061
-0.00068352219
-0.00021608558
-0.020112659
-0.016395992
-0.013049406
-0.010345268
-0.0084536266
-0.0069777163
-0.0059657827
-0.0053056169
-0.0048754335
-0.0046040995
-0.0043746127
-0.0041798635
-0.0039686465
-0.0037288591
-0.0034608919
-0.0031681789
-0.0028552099
-0.0025266708
-0.0021873023
-0.0018418431
-0.001495039
-0.0011506703
-0.0008118407
-0.00048097985
-0.000157484
-0.019637223
-0.016668031
-0.013809631
-0.011302993
-0.009267218
-0.007621471
-0.0063515325
-0.0054314852
-0.0047772805
-0.0042809616
-0.0039085725
-0.0035919793
-0.0033074228
-0.0030451121
-0.0027919775
-0.0025397261
-0.0022841065
-0.0020232559
-0.001756934
-0.0014860859
-0.0012125667
-0.00093846668
-0.00066586072
-0.00039667539
-0.00013288454
-0.018431376
-0.016153913
-0.013827208
-0.011624282
-0.0096841151
-0.0080321552
-0.0066703902
-0.0055857272
-0.0047397386
-0.0040802098
-0.0035680844
-0.0031614796
-0.0028192036
-0.0025323708
-0.0022784087
-0.002044138
-0.0018217363
-0.0016050999
-0.0013902557
-0.0011752172
-0.00095962581
-0.0007440211
-0.0005294
-0.00031666215
-0.00010716993
-0.016779014
-0.01511385
-0.013290341
-0.011462852
-0.0097434917
-0.0081938028
-0.0068459381
-0.0057121522
-0.0047768783
-0.0040160911
-0.0034045554
-0.0029116223
-0.0025250529
-0.0022103985
-0.0019379224
-0.0016970807
-0.0014831859
-0.0012870079
-0.0011014349
-0.00092206471
-0.00074699832
-0.00057540525
-0.00040706055
-0.00024209717
-8.1267619e-05
-0.015264494
-0.014015314
-0.012587668
-0.011097152
-0.0096234871
-0.0082378624
-0.0069793794
-0.0058724296
-0.0049193264
-0.0041154933
-0.003446879
-0.0028953022
-0.0024430397
-0.0020668381
-0.0017617427
-0.0015081809
-0.0012892887
-0.0010973032
-0.00092311055
-0.00076082791
-0.0006086401
-0.00046485345
-0.00032780133
-0.00019600179
-6.7416384e-05
-0.014015924
-0.0130464
-0.011915932
-0.010696903
-0.0094513706
-0.0082382902
-0.0070976532
-0.0060580297
-0.005132263
-0.0043253886
-0.0036298894
-0.0030396694
-0.0025441192
-0.0021288933
-0.0017833116
-0.0014949925
-0.0012500005
-0.0010382233
-0.00085451488
-0.00069358436
-0.00054874485
-0.00041560327
-0.00029180621
-0.00017458959
-6.0826046e-05
-0.012997113
-0.012229731
-0.011324011
-0.010322644
-0.0092728931
-0.0082205789
-0.0072027266
-0.0062470755
-0.0053713948
-0.0045850725
-0.0038894175
-0.0032823371
-0.002757878
-0.0023090595
-0.0019274685
-0.0016044022
-0.0013295513
-0.0010940712
-0.00089120402
-0.00071495412
-0.00055955613
-0.00042029249
-0.00029341033
-0.00017455572
-5.9927875e-05
-0.01215922
-0.011543628
-0.01080809
-0.0099804687
-0.0090945695
-0.0081854836
-0.0072848215
-0.00641802
-0.0056035055
-0.0048531329
-0.0041727506
-0.0035641782
-0.0030259523
-0.0025548017
-0.0021456691
-0.00179191
-0.0014866055
-0.001222929
-0.00099438394
-0.00079536224
-0.00062032073
-0.00046440397
-0.0003235693
-0.000191393
-6.355423e-05
-0.011455321
-0.010953819
-0.010349948
-0.009661366
-0.0089120152
-0.0081283372
-0.0073358681
-0.0065565794
-0.0058078803
-0.005102384
-0.0044482884
-0.0038501463
-0.0033095482
-0.0028260239
-0.0023971114
-0.0020188347
-0.0016865252
-0.0013950678
-0.0011392003
-0.00091386403
-0.00071405598
-0.00053508891
-0.00037291473
-0.00021939331
-7.0370421e-05
-0.010850274
-0.010435864
-0.0099348409
-0.0093580195
-0.0087220665
-0.0080465676
-0.0073514058
-0.006654707
-0.0059720554
-0.0053158155
-0.0046951357
-0.0041160919
-0.0035822623
-0.0030951472
-0.0026544051
-0.0022581772
-0.0019035855
-0.0015871065
-0.0013047376
-0.0010522819
-0.00082546103
-0.00061999609
-0.00043150635
-0.00025247419
-8.0509393e-05
-0.010319476
-0.0099730957
-0.0095531502
-0.0090661506
-0.0085235393
-0.0079396894
-0.0073296337
-0.0067082331
-0.0060889707
-0.0054832173
-0.0049000865
-0.0043462021
-0.0038262333
-0.0033429974
-0.0028976436
-0.0024898734
-0.0021183343
-0.0017808376
-0.0014745851
-0.0011963299
-0.0009425524
-0.00070956268
-0.00049355311
-0.00028930141
-9.4361886e-05
-0.0098464681
-0.0095536144
-0.009197898
-0.0087830701
-0.008316762
-0.0078093912
-0.0072725666
-0.0067183276
-0.0061579802
-0.0056015286
-0.0050572829
-0.0045320555
-0.0040308816
-0.0035572484
-0.0031132578
-0.002699779
-0.00231663
-0.0019627565
-0.0016363985
-0.0013352483
-0.0010566066
-0.00079752796
-0.00055501195
-0.00032591139
-0.00010746219
-0.0094184378
-0.0091678098
-0.0088630592
-0.0085061883
-0.0081022844
-0.0076586996
-0.0071845568
-0.0066893631
-0.0061823791
-0.0056721476
-0.0051661638
-0.0046708138
-0.0041911285
-0.0037309322
-0.0032929064
-0.0028786645
-0.0024888794
-0.0021233757
-0.0017812923
-0.0014611977
-0.0011612239
-0.00087925178
-0.00061314695
-0.00036038721
-0.00011872035
-0.0090246491
-0.0088073001
-0.0085430777
-0.0082328634
-0.0078800112
-0.0074897673
-0.0070689865
-0.0066250874
-0.0061655807
-0.0056976905
-0.0052279952
-0.0047622508
-0.0043052791
-0.0038609534
-0.0034322397
-0.0030212238
-0.0026291626
-0.0022565567
-0.0019032689
-0.001568618
-0.0012515017
-0.00095053574
-0.00066424804
-0.00039070015
-0.00012822405
-0.0086552792
-0.008464586
-0.0082329211
-0.0079605104
-0.0076494878
-0.0073036807
-0.0069280602
-0.0065283636
-0.0061106639
-0.0056809893
-0.0052449879
-0.0048077607
-0.0043737576
-0.0039467318
-0.0035297498
-0.0031251353
-0.0027345239
-0.0023589301
-0.0019987783
-0.0016540115
-0.0013241883
-0.001008538
-0.00070611724
-0.00041553003
-0.00013574674
-0.0083026748
-0.0081334384
-0.0079281103
-0.0076865033
-0.0074099203
-0.0071010525
-0.0067635322
-0.0064017668
-0.0060206849
-0.0056251952
-0.0052200829
-0.0048098166
-0.0043984418
-0.0039895073
-0.0035859683
-0.0031902612
-0.0028042644
-0.0024293421
-0.0020663501
-0.0017157392
-0.0013775879
-0.0010516812
-0.00073757906
-0.00043434728
-0.0001415041
-0.0079607019
-0.0078088581
-0.0076249664
-0.0074085625
-0.007160405
-0.0068823283
-0.0065769801
-0.0062478203
-0.0058986896
-0.0055336222
-0.0051566595
-0.0047716819
-0.0043822951
-0.0039917522
-0.0036028766
-0.0032180932
-0.0028394
-0.002468367
-0.002106197
-0.0017537112
-0.0014114124
-0.0010795597
-0.00075821747
-0.00044694978
-0.00014578172
-0.0076247073
-0.0074871468
-0.0073208336
-0.0071251899
-0.0069005774
-0.0066482804
-0.0063702599
-0.0060691375
-0.0057479455
-0.005409987
-0.0050586512
-0.0046972939
-0.0043290859
-0.0039569754
-0.003583616
-0.0032113492
-0.0028422024
-0.0024778852
-0.0021198049
-0.0017690685
-0.0014265256
-0.0010928195
-0.00076842924
-0.00045334225
-0.00014795713
-0.0072914467
-0.0071657128
-0.0070139784
-0.0068356308
-0.00663077
-0.0064002553
-0.0061455677
-0.0058687126
-0.0055720796
-0.0052583774
-0.0049304397
-0.0045911248
-0.0042432356
-0.0038894187
-0.0035321334
-0.0031736154
-0.0028158674
-0.0024606573
-0.0021095234
-0.001763774
-0.0014245156
-0.0010926811
-0.0007690584
-0.00045394468
-0.00014805685
-0.0069589485
-0.006843028
-0.0067035134
-0.0065397675
-0.0063517579
-0.0061398913
-0.005905334
-0.0056496762
-0.0053748291
-0.0050829796
-0.004776495
-0.0044578219
-0.004129417
-0.0037936526
-0.0034527931
-0.0031089563
-0.002764092
-0.0024199772
-0.0020782152
-0.0017402409
-0.0014073331
-0.0010806206
-0.00076112071
-0.00044939791
-0.00014640346
-0.0066265364
-0.0065184166
-0.0063894151
-0.0062380952
-0.0060646419
-0.0058690545
-0.0056521399
-0.0054152186
-0.0051598645
-0.0048878563
-0.0046011751
-0.0043019089
-0.003992208
-0.0036742075
-0.0033499882
-0.0030215353
-0.0026907245
-0.0023593111
-0.0020289186
-0.0017010474
-0.0013770742
-0.0010582551
-0.00074575454
-0.00044040877
-0.00014330265
-0.0062938382
-0.0061933573
-0.0060725865
-0.005931569
-0.0057710107
-0.0055898536
-0.005388651
-0.0051685479
-0.0049307957
-0.0046769194
-0.0044086062
-0.0041276621
-0.0038359593
-0.0035354157
-0.0032279387
-0.0029153735
-0.0025995138
-0.0022820654
-0.0019646407
-0.0016487588
-0.0013358455
-0.0010272326
-0.00072419511
-0.00042770791
-0.00013898893
-0.0059592858
-0.0058655062
-0.0057534477
-0.0056230167
-0.0054729028
-0.0053043357
-0.0051172447
-0.0049125247
-0.0046909418
-0.0044538289
-0.0042026812
-0.0039390993
-0.0036647412
-0.0033813375
-0.0030906036
-0.0027942572
-0.0024940058
-0.0021914844
-0.0018882667
-0.0015858569
-0.0012857021
-0.00098917381
-0.00069760283
-0.0004120318
-0.00013375542
-0.0056247603
-0.0055370029
-0.0054324152
-0.0053105908
-0.0051710867
-0.0050141459
-0.0048402906
-0.0046495891
-0.0044430564
-0.0042217157
-0.0039868725
-0.003739914
-0.0034823371
-0.0032157229
-0.0029416435
-0.0026616958
-0.002377511
-0.0020906098
-0.0018025158
-0.0015147055
-0.0012286238
-0.00094565461
-0.00066714503
-0.00039408544
-0.00012791081
-0.0052913081
-0.0052091048
-0.0051113316
-0.004997593
-0.0048676296
-0.0047215009
-0.0045595043
-0.0043819727
-0.0041896251
-0.0039833189
-0.0037640888
-0.0035331939
-0.0032919979
-0.0030418982
-0.0027843804
-0.0025208579
-0.0022530399
-0.0019822212
-0.0017098862
-0.0014374924
-0.0011664411
-0.00089809187
-0.00063376422
-0.00037436645
-0.00012141275
-0.0049600561
-0.0048830617
-0.0047916542
-0.0046854883
-0.0045643631
-0.0044282781
-0.0042774302
-0.0041122084
-0.003933177
-0.003741094
-0.003536867
-0.0033215598
-0.0030963637
-0.0028625705
-0.0026215267
-0.0023746897
-0.0021232315
-0.0018687376
-0.001612584
-0.0013561454
-0.0011007595
-0.00084773594
-0.00059834162
-0.00035340994
-0.0001144824
-0.0046321904
-0.0045601544
-0.0044747847
-0.0043757889
-0.0042629977
-0.0041363974
-0.003996145
-0.0038425727
-0.0036761778
-0.0034976324
-0.0033077464
-0.0031074649
-0.0028978575
-0.0026800675
-0.0024553119
-0.0022248651
-0.0019899909
-0.0017520459
-0.0015123462
-0.0012721872
-0.0010328488
-0.0007955782
-0.00056159721
-0.00033166827
-0.00010734438
-0.0043088883
-0.0042416295
-0.0041620526
-0.0040699144
-0.0039650727
-0.0038475164
-0.0037173795
-0.0035749484
-0.0034206643
-0.0032551152
-0.003079028
-0.0028932553
-0.0026987581
-0.0024965672
-0.0022877934
-0.0020736046
-0.0018551859
-0.0016337638
-0.0014105656
-0.0011868064
-0.00096369207
-0.0007424066
-0.00052411025
-0.00030949194
-0.00010007645
-0.0039912428
-0.0039286258
-0.0038546528
-0.0037691241
-0.0036719252
-0.0035630552
-0.0034426339
-0.0033109152
-0.003168288
-0.0030152759
-0.0028525314
-0.0026808105
-0.0025009827
-0.0023139903
-0.0021208479
-0.0019226217
-0.0017204033
-0.0015153147
-0.0013084911
-0.0011010697
-0.00089417779
-0.00068892125
-0.00048639009
-0.00028718278
-9.2780652e-05
-0.0036802071
-0.0036221244
-0.0035536033
-0.0034744831
-0.003384674
-0.0032841904
-0.0031731411
-0.0030517549
-0.0029203801
-0.0027794832
-0.0026296436
-0.0024715535
-0.0023059823
-0.0021337904
-0.0019559006
-0.0017732823
-0.0015869405
-0.0013979048
-0.0012072206
-0.0010159395
-0.00082510629
-0.00063574729
-0.00044887927
-0.00026500201
-8.5536915e-05
-0.0033765599
-0.0033229216
-0.0032597238
-0.0031868408
-0.003104209
-0.0030118475
-0.0029098632
-0.0027984646
-0.0026779663
-0.0025487872
-0.0024114471
-0.002266563
-0.0021148321
-0.0019570294
-0.0017939893
-0.0016265933
-0.0014557602
-0.0012824319
-0.0011075661
-0.00093212655
-0.00075707419
-0.00058335638
-0.00041191408
-0.00024314722
-7.8410089e-05
-0.0030808877
-0.0030316153
-0.0029736287
-0.0029068322
-0.002831183
-0.0027467069
-0.0026535085
-0.0025517798
-0.0024418054
-0.0023239634
-0.002198721
-0.0020666304
-0.0019283185
-0.0017844804
-0.0016358677
-0.0014832788
-0.001327546
-0.0011695263
-0.001010092
-0.00085012214
-0.00069049428
-0.0005320755
-0.00037572989
-0.00022175766
-7.1445663e-05
-0.0027935771
-0.002748598
-0.0026957194
-0.0026348708
-0.0025660258
-0.0024892168
-0.0024045469
-0.0023121921
-0.0022124104
-0.0021055418
-0.0019920063
-0.0018722983
-0.0017469795
-0.0016166714
-0.001482048
-0.001343826
-0.0012027552
-0.0010596102
-0.00091517986
-0.00077025965
-0.00062564566
-0.00048212495
-0.00034048501
-0.00020092746
-6.4672724e-05
-0.0025148136
-0.0024740572
-0.0024261884
-0.0023711567
-0.0023089494
-0.0022396032
-0.0021632202
-0.0020799608
-0.0019900579
-0.0018938164
-0.0017916112
-0.0016838833
-0.0015711338
-0.0014539172
-0.0013328346
-0.001208526
-0.001081662
-0.00095293608
-0.000823056
-0.00069273647
-0.00056269318
-0.00043363419
-0.00030627184
-0.0001807121
-5.8107812e-05
-0.0022445841
-0.0022079808
-0.0021650261
-0.0021156856
-0.0020599574
-0.0019978831
-0.0019295573
-0.0018551286
-0.0017748058
-0.0016888606
-0.0015976251
-0.0015014899
-0.0014008986
-0.0012963432
-0.0011883568
-0.0010775067
-0.00096438826
-0.00084961724
-0.00073382282
-0.00061764113
-0.00050170945
-0.00038665882
-0.00027312773
-0.00016113252
-5.1758879e-05
-0.0019826863
-0.0019501669
-0.001912033
-0.0018682632
-0.0018188637
-0.0017638777
-0.001703393
-0.0016375446
-0.0015665189
-0.0014905557
-0.0014099469
-0.0013250355
-0.0012362105
-0.0011439041
-0.0010485846
-0.0009507506
-0.0008509256
-0.00074965107
-0.00064748081
-0.00054497507
-0.00044269541
-0.00034119848
-0.00024105097
-0.00014218734
-4.5624292e-05
-0.001728743
-0.0017002393
-0.001666836
-0.0016285215
-0.0015853078
-0.0015372377
-0.0014843909
-0.0014268884
-0.0013648946
-0.0012986186
-0.0012283146
-0.0011542798
-0.0010768522
-0.00099640602
-0.0009133476
-0.00082810984
-0.00074114722
-0.00065293018
-0.00056394007
-0.00047466423
-0.00038559144
-0.00029720659
-0.00021000714
-0.0001238564
-3.9697676e-05
-0.0014822221
-0.001457668
-0.0014289093
-0.0013959416
-0.0013587799
-0.0013174649
-0.0012720676
-0.0012226947
-0.001169488
-0.0011126275
-0.0010523308
-0.00098885199
-0.00092247969
-0.00085353328
-0.00078235941
-0.00070932762
-0.00063482614
-0.00055925702
-0.00048303191
-0.0004065678
-0.00033028335
-0.00025459407
-0.00017993004
-0.00010610168
-3.3968689e-05
-0.0012424574
-0.0012217902
-0.0011975958
-0.0011698742
-0.0011386416
-0.001103935
-0.0010658148
-0.0010243752
-0.00097973431
-0.00093204356
-0.00088148536
-0.00082827243
-0.00077264578
-0.00071487215
-0.00065524092
-0.00059406073
-0.00053165581
-0.00046836219
-0.00040452405
-0.00034049031
-0.00027661158
-0.00021323597
-0.00015072731
-8.8869209e-05
-2.842225e-05
-0.0010086558
-0.00099181844
-0.00097211541
-0.00094954922
-0.00092413536
-0.00089590579
-0.00086491254
-0.00083123161
-0.00079496096
-0.00075622371
-0.00071516784
-0.0006719656
-0.00062681222
-0.00057992364
-0.00053153404
-0.00048189317
-0.00043126344
-0.00037991694
-0.00032813231
-0.0002761922
-0.00022438079
-0.00017298026
-0.00012228735
-7.2093754e-05
-2.3039821e-05
-0.00077988058
-0.00076682369
-0.00075154946
-0.00073406135
-0.00071437286
-0.00069251023
-0.00066851509
-0.00064244658
-0.00061438146
-0.00058441545
-0.00055266295
-0.00051925693
-0.00048434788
-0.00044810234
-0.00041070106
-0.00037233667
-0.00033321149
-0.00029353531
-0.00025352313
-0.00021339275
-0.00017336323
-0.00013365191
-9.4486724e-05
-5.5701156e-05
-1.7797382e-05
-0.00055504316
-0.00054572785
-0.00053483332
-0.00052236297
-0.00050832735
-0.00049274607
-0.00047564947
-0.00045707983
-0.00043709243
-0.00041575545
-0.0003931509
-0.00036937326
-0.00034452951
-0.0003187378
-0.00029212648
-0.0002648325
-0.00023699954
-0.00020877648
-0.00018031596
-0.00015177243
-0.000123301
-9.5054996e-05
-6.7192552e-05
-3.9612206e-05
-1.2663197e-05
-0.00033274345
-0.00032714833
-0.00032060585
-0.00031311853
-0.00030469318
-0.00029534199
-0.00028508345
-0.00027394311
-0.00026195414
-0.00024915764
-0.00023560276
-0.00022134641
-0.00020645265
-0.00019099234
-0.00017504225
-0.0001586843
-0.00014200453
-0.00012509203
-0.00010803791
-9.0934568e-05
-7.3874308e-05
-5.6947752e-05
-4.0245855e-05
-2.3730431e-05
-7.5942469e-06
-0.00011126824
-0.00010939432
-0.00010720335
-0.00010469631
-0.00010187562
-9.8745481e-05
-9.5312166e-05
-9.15843e-05
-8.7572953e-05
-8.3292015e-05
-7.8757758e-05
-7.3989419e-05
-6.9008436e-05
-6.3838561e-05
-5.8505452e-05
-5.3036499e-05
-4.7460393e-05
-4.1806909e-05
-3.6106426e-05
-3.0389745e-05
-2.4687482e-05
-1.9029428e-05
-1.3443973e-05
-7.9288813e-06
-2.5420685e-06
)
;

boundaryField
{
    Walls
    {
        type            zeroGradient;
    }
    Inlet
    {
        type            fixedValue;
        value           uniform 500;
    }
    Outlet
    {
        type            fixedValue;
        value           uniform 0;
    }
    Front
    {
        type            wedge;
    }
    Back
    {
        type            wedge;
    }
    defaultFaces
    {
        type            empty;
    }
}


// ************************************************************************* //
