/*--------------------------------*- C++ -*----------------------------------*\
| =========                 |                                                 |
| \\      /  F ield         | OpenFOAM: The Open Source CFD Toolbox           |
|  \\    /   O peration     | Version:  4.0                                   |
|   \\  /    A nd           | Web:      www.OpenFOAM.org                      |
|    \\/     M anipulation  |                                                 |
\*---------------------------------------------------------------------------*/
FoamFile
{
    version     2.0;
    format      ascii;
    class       volVectorField;
    location    "0.08";
    object      U;
}
// * * * * * * * * * * * * * * * * * * * * * * * * * * * * * * * * * * * * * //

dimensions      [0 1 -1 0 0 0 0];

internalField   nonuniform List<vector> 
1740
(
(1.4493829 -0.0019731552 4.5997918e-06)
(1.4691333 -0.0067269077 6.9343582e-07)
(1.6062527 -0.0044041766 4.3373048e-08)
(1.4805667 -0.0064199722 7.9786958e-06)
(1.5037032 -0.023475216 1.6217175e-06)
(1.6353081 -0.016277165 3.0472412e-07)
(1.4719137 -0.0053280914 1.1564957e-05)
(1.4930855 -0.025943389 2.5155636e-06)
(1.521022 -0.014060232 4.4945032e-07)
(1.4559787 -0.015346111 1.3487219e-05)
(1.5703969 -0.01267153 3.3526898e-06)
(1.5813913 -0.0054793844 5.3643073e-07)
(1.5460629 -0.029420667 1.4857718e-05)
(1.5621115 -0.011064222 4.3392813e-06)
(1.5753207 -0.0030936786 8.1237618e-07)
(1.6556962 0.0027126813 1.5768733e-05)
(1.4730971 0.01047252 4.9166084e-06)
(1.4816594 0.0014846084 9.6357854e-07)
(1.5640836 0.029143119 1.6985992e-05)
(1.4960949 0.020026934 5.8453145e-06)
(1.5870215 -0.0017554583 1.1296483e-06)
(1.4911145 0.0086354264 1.7753394e-05)
(1.5818213 -0.0023191694 6.3405428e-06)
(1.5880962 -0.0072195084 1.3391821e-06)
(1.4774166 -0.014572479 1.8630736e-05)
(1.5810133 -0.018688055 7.1789488e-06)
(1.5044567 -0.0087696225 1.5519018e-06)
(1.5256258 0.00021867541 1.9158779e-05)
(1.5843277 -0.0059672842 7.7035715e-06)
(1.5011796 -0.0058713611 1.7132416e-06)
(1.5100515 0.011091762 1.931602e-05)
(1.6658879 0.0079244371 8.2875275e-06)
(1.5277816 -0.0015306182 1.9204686e-06)
(1.4546413 -0.0094231752 1.9510088e-05)
(1.5729799 0.0094329057 8.9344619e-06)
(1.5159332 0.0076679677 2.1556812e-06)
(1.5899627 -0.015581523 1.9994785e-05)
(1.5184939 0.0017371753 9.4348599e-06)
(1.5619816 0.0062411149 2.2588316e-06)
(1.5914009 0.0092166077 2.0514194e-05)
(1.5002181 -0.0002120295 1.0049017e-05)
(1.5824926 -0.0064080385 2.589221e-06)
(1.4573572 0.0056977017 2.0568837e-05)
(1.5717341 -0.00048211332 1.0429586e-05)
(1.4836311 -0.0036808005 2.7368014e-06)
(1.5583453 -0.019759159 2.086716e-05)
(1.5636289 0.005808061 1.1011362e-05)
(1.5637259 0.0093311164 2.8759619e-06)
(1.5684881 -0.0065753549 2.1425902e-05)
(1.462805 -0.0097179605 1.1377863e-05)
(1.5718201 -0.0056009437 3.09229e-06)
(1.5508316 0.010194563 2.1403907e-05)
(1.5785416 -0.0065954897 1.1759359e-05)
(1.4859194 -0.0081986995 3.2295731e-06)
(1.5516534 0.014389356 2.1362163e-05)
(1.5689952 0.019054351 1.2171557e-05)
(1.5642756 0.0044919145 3.4099512e-06)
(1.4633027 0.0065021131 2.152184e-05)
(1.5614226 0.011489551 1.2487582e-05)
(1.5411649 0.0076343545 3.6487369e-06)
(1.4506965 -0.0023413711 2.1648606e-05)
(1.5602987 -0.0010904934 1.2809533e-05)
(1.5609718 0.0040125237 3.7143496e-06)
(1.5065602 -0.0059256419 2.1872532e-05)
(1.5666784 -0.014731714 1.3144384e-05)
(1.5762908 -0.0093212056 3.9801324e-06)
(1.5243147 -0.0048546906 2.2004722e-05)
(1.5906288 -0.010379943 1.3526259e-05)
(1.4799038 -0.0038695289 4.1095124e-06)
(1.4987435 -0.0026578721 2.1872312e-05)
(1.5198674 0.0044039869 1.3756709e-05)
(1.5243628 0.0051990074 4.2390576e-06)
(1.5262928 0.005907621 2.1777363e-05)
(1.5395482 -0.0044569678 1.3957918e-05)
(1.5431437 -0.0091657523 4.4238758e-06)
(1.5362366 0.010264133 2.2054705e-05)
(1.6050839 -0.017160687 1.4322401e-05)
(1.5128263 -0.016461165 4.546386e-06)
(1.4938509 0.0050361622 2.2473001e-05)
(1.6689552 -0.0066620126 1.4646522e-05)
(1.4737443 -0.0074358182 4.6858656e-06)
(1.4331202 -0.0069118115 2.2903143e-05)
(1.5802175 -7.8987872e-05 1.5016779e-05)
(1.4579642 0.0020733982 4.8289998e-06)
(1.3877715 -0.0020673571 2.2488066e-05)
(1.5429578 -0.0038416635 1.5143695e-05)
(1.433255 0.0079351478 4.8725928e-06)
(1.261083 0.029007446 2.3459318e-05)
(1.3606994 0.10761781 1.5727044e-05)
(1.3353104 0.060141749 5.4891828e-06)
(0.82360516 0.36486623 1.1802266e-05)
(0.8040818 0.93496795 1.0000567e-05)
(0.7329323 1.2552431 5.3802714e-06)
(0.21395013 0.10848483 1.473321e-06)
(0.18730426 0.36488731 3.0318214e-06)
(0.080369726 0.49610083 6.7088379e-07)
(-0.031179875 -0.014432324 1.2588716e-06)
(-0.027858984 -0.028926574 1.746982e-06)
(-0.022067652 -0.034704863 6.7344834e-07)
(-0.0071475363 -0.0031535129 4.9431668e-07)
(-0.0068282279 -0.007738787 8.2405411e-07)
(-0.0068744833 -0.010460222 4.6196686e-07)
(-0.00076136766 -0.00021890276 1.4873288e-07)
(-0.00082702894 -0.00071523862 3.203957e-07)
(-0.0012010092 -0.0013324403 2.2631578e-07)
(-0.00033321265 -9.2791366e-06 4.2935446e-08)
(-0.00032869569 -3.8540946e-05 1.1217535e-07)
(-0.00038556147 -0.00010493943 9.0200588e-08)
(-0.000351413 1.3718409e-05 8.0482433e-09)
(-0.00033806733 5.9827505e-05 3.1193024e-08)
(-0.00031318731 0.00011584768 2.7287784e-08)
(-0.00037542575 3.1564801e-06 -8.8285819e-10)
(-0.00036692404 2.3200158e-05 5.163874e-09)
(-0.00033088313 2.5674812e-05 4.5796874e-09)
(-0.00035219691 -1.8346135e-05 -1.3192821e-09)
(-0.00035197138 -2.5978617e-05 -1.5168701e-10)
(-0.00033697967 -5.4109416e-05 -4.2376701e-10)
(-0.00029244083 -2.7858192e-05 -1.6747306e-10)
(-0.00028958952 -6.2701138e-05 1.1990264e-10)
(-0.00028278582 -9.5077697e-05 -2.0638097e-10)
(-0.00022641011 -2.5279881e-05 3.0090564e-10)
(-0.00022411697 -5.8576941e-05 6.2066792e-10)
(-0.00021742985 -8.8477074e-05 3.9727874e-10)
(-0.00017223417 -1.7796731e-05 1.883811e-10)
(-0.00016982004 -3.9471507e-05 5.4686032e-10)
(-0.00016394188 -6.223758e-05 4.8710812e-10)
(-0.00013328152 -1.089834e-05 -2.2677819e-11)
(-0.00013194367 -2.4666779e-05 2.6244659e-10)
(-0.00012812361 -3.8248408e-05 2.982905e-10)
(-0.00010787829 -7.45963e-06 -1.788592e-10)
(-0.00010737301 -1.5481482e-05 8.7664261e-12)
(-0.00010454713 -2.4173206e-05 8.612062e-11)
(-9.0717136e-05 -5.2252824e-06 -2.3085819e-10)
(-9.0049533e-05 -1.0753116e-05 -1.1275178e-10)
(-8.7931172e-05 -1.7722443e-05 -3.4200447e-11)
(-7.7217794e-05 -4.0710768e-06 -2.1075191e-10)
(-7.6787293e-05 -8.3602522e-06 -1.3204285e-10)
(-7.5130432e-05 -1.3970438e-05 -6.9039372e-11)
(-6.6580208e-05 -3.331519e-06 -1.6695176e-10)
(-6.6280348e-05 -6.8902654e-06 -1.0463651e-10)
(-6.4811147e-05 -1.1246658e-05 -5.9362657e-11)
(-5.8215954e-05 -2.7120783e-06 -1.2835473e-10)
(-5.7991316e-05 -5.556794e-06 -7.2764742e-11)
(-5.6755926e-05 -8.9822068e-06 -3.7667269e-11)
(-5.175184e-05 -2.1201797e-06 -1.0337004e-10)
(-5.1575663e-05 -4.246882e-06 -5.3920987e-11)
(-5.063481e-05 -6.941554e-06 -2.2111043e-11)
(-4.6897957e-05 -1.5941869e-06 -8.693448e-11)
(-4.6770612e-05 -3.0941074e-06 -4.4753548e-11)
(-4.6057096e-05 -5.0763173e-06 -1.5216034e-11)
(-4.3367254e-05 -1.1564898e-06 -7.6404837e-11)
(-4.328356e-05 -2.1511228e-06 -4.2280587e-11)
(-4.2724811e-05 -3.5254779e-06 -1.4868484e-11)
(-4.0887106e-05 -8.1382552e-07 -6.9289738e-11)
(-4.0838247e-05 -1.4201567e-06 -4.3217642e-11)
(-4.0388689e-05 -2.3372879e-06 -1.7917784e-11)
(-3.921142e-05 -5.5903663e-07 -6.3127891e-11)
(-3.9190043e-05 -8.8251326e-07 -4.3937848e-11)
(-3.881907e-05 -1.4838934e-06 -2.0942946e-11)
(-3.8114824e-05 -3.7538612e-07 -5.6921489e-11)
(-3.8122938e-05 -5.0053268e-07 -4.2757992e-11)
(-3.78055e-05 -8.7966403e-07 -2.2217687e-11)
(-3.7201104e-05 -2.5623599e-07 -5.0976023e-11)
(-3.7255513e-05 -2.2552705e-07 -4.05809e-11)
(-3.7099678e-05 -4.5456949e-07 -2.2196411e-11)
(-3.6800696e-05 -2.1197273e-07 -4.6039619e-11)
(-3.6849479e-05 -2.2530624e-07 -3.7577625e-11)
(-3.6683789e-05 -3.7632865e-07 -2.1264206e-11)
(-3.6812761e-05 -1.360782e-07 -4.2055037e-11)
(-3.6843638e-05 -5.612794e-08 -3.4490029e-11)
(-3.6594182e-05 -1.0674315e-07 -1.9731419e-11)
(-3.667999e-05 -1.104797e-07 -3.9050688e-11)
(-3.6734555e-05 -2.5318635e-08 -3.2139401e-11)
(-3.6566746e-05 -6.7453238e-08 -1.8774058e-11)
(-3.6541356e-05 -1.02398e-07 -3.8124148e-11)
(-3.6605668e-05 -1.4258236e-08 -3.1495244e-11)
(-3.6458289e-05 -6.0885308e-08 -1.8536527e-11)
(-3.6354408e-05 -1.1957172e-07 -3.6787982e-11)
(-3.6422886e-05 -6.9251129e-08 -3.044671e-11)
(-3.6284863e-05 -1.4867988e-07 -1.8090244e-11)
(-3.6086355e-05 -1.4916131e-07 -3.536844e-11)
(-3.6156863e-05 -1.5800766e-07 -2.9185304e-11)
(-3.6025129e-05 -2.8892319e-07 -1.7536976e-11)
(-3.5719306e-05 -1.8255904e-07 -3.4211356e-11)
(-3.5790661e-05 -2.5555554e-07 -2.7978577e-11)
(-3.566338e-05 -4.456526e-07 -1.6971916e-11)
(-3.5245894e-05 -2.1692123e-07 -3.3200932e-11)
(-3.5317053e-05 -3.5093991e-07 -2.691013e-11)
(-3.5192686e-05 -5.9901921e-07 -1.6496788e-11)
(-3.4666934e-05 -2.4789429e-07 -3.2513548e-11)
(-3.4736929e-05 -4.431806e-07 -2.5958245e-11)
(-3.4614302e-05 -7.5429906e-07 -1.6051571e-11)
(-3.3989927e-05 -2.7877478e-07 -3.2003063e-11)
(-3.4058068e-05 -5.2664445e-07 -2.5143874e-11)
(-3.3936388e-05 -8.8389137e-07 -1.5705485e-11)
(-3.3227827e-05 -3.0336444e-07 -3.1624044e-11)
(-3.3293677e-05 -5.9445314e-07 -2.4424546e-11)
(-3.3172535e-05 -9.9191167e-07 -1.5422878e-11)
(-3.2397598e-05 -3.2028055e-07 -3.1362488e-11)
(-3.2460843e-05 -6.4449525e-07 -2.3791406e-11)
(-3.2340144e-05 -1.0723512e-06 -1.5177864e-11)
(-3.1518522e-05 -3.3264934e-07 -3.1022664e-11)
(-3.1579001e-05 -6.8375297e-07 -2.3140499e-11)
(-3.1458781e-05 -1.1285898e-06 -1.4934304e-11)
(-3.0610839e-05 -3.3573402e-07 -3.0899384e-11)
(-3.0668492e-05 -7.0069358e-07 -2.2638681e-11)
(-3.054885e-05 -1.1557469e-06 -1.4732233e-11)
(-2.9694958e-05 -3.3209e-07 -3.0815809e-11)
(-2.9749786e-05 -7.0147764e-07 -2.2189059e-11)
(-2.963085e-05 -1.1572201e-06 -1.4543827e-11)
(-2.8790882e-05 -3.2213122e-07 -3.0741327e-11)
(-2.8842974e-05 -6.8694066e-07 -2.1790858e-11)
(-2.8724897e-05 -1.1326797e-06 -1.4385509e-11)
(-2.7917655e-05 -3.064238e-07 -3.0690244e-11)
(-2.7967193e-05 -6.5858333e-07 -2.1497162e-11)
(-2.7850127e-05 -1.0831538e-06 -1.4312565e-11)
(-2.7092732e-05 -2.8404999e-07 -3.0750492e-11)
(-2.7139946e-05 -6.1401225e-07 -2.1368681e-11)
(-2.7024011e-05 -1.0095158e-06 -1.4348866e-11)
(-2.6331605e-05 -2.5580075e-07 -3.0905014e-11)
(-2.6376743e-05 -5.5520607e-07 -2.1381061e-11)
(-2.6262e-05 -9.1297246e-07 -1.4480299e-11)
(-2.5648386e-05 -2.2225972e-07 -3.1131592e-11)
(-2.5691715e-05 -4.8314664e-07 -2.1522875e-11)
(-2.5578151e-05 -7.9404401e-07 -1.4712353e-11)
(-2.5057784e-05 -1.8484505e-07 -3.1336136e-11)
(-2.5099565e-05 -4.0063752e-07 -2.1746963e-11)
(-2.4987109e-05 -6.5563555e-07 -1.5035563e-11)
(-2.4575945e-05 -1.4364032e-07 -3.1599399e-11)
(-2.4616435e-05 -3.0950069e-07 -2.2042914e-11)
(-2.4504928e-05 -5.0513822e-07 -1.5326608e-11)
(-2.422841e-05 -9.8784061e-08 -3.1772795e-11)
(-2.4267894e-05 -2.1066863e-07 -2.2084105e-11)
(-2.4156999e-05 -3.4400378e-07 -1.5269541e-11)
(-2.4048926e-05 -5.0458605e-08 -3.1445017e-11)
(-2.4087818e-05 -1.074484e-07 -2.0903627e-11)
(-2.3977036e-05 -1.7968423e-07 -1.4011098e-11)
(-2.4059719e-05 -8.2793745e-09 -2.8867996e-11)
(-2.4098591e-05 -1.5978606e-08 -1.6165068e-11)
(-2.3987223e-05 -3.0097447e-08 -9.9577104e-12)
(-0.047453346 1.9436829 -3.8166416e-07)
(-0.033397133 1.6917143 -3.4763569e-06)
(-0.06439034 0.3377069 -2.5996674e-07)
(-0.044333095 0.14854705 -9.847913e-07)
(-0.017367452 -0.043074175 -7.1592024e-08)
(-0.012885399 -0.044943368 -4.7352806e-07)
(-0.0059734667 -0.013826533 6.3139888e-08)
(-0.0054056849 -0.016033245 -1.9491502e-07)
(-0.0012248739 -0.0023677261 5.5542905e-08)
(-0.0012564564 -0.0034909359 -8.3096168e-08)
(-0.00033104316 -0.00021517682 2.342541e-08)
(-0.00023391945 -0.00036705591 -4.1093488e-08)
(-0.00024557989 0.00018044032 3.2870093e-09)
(-0.00014445562 0.00024090664 -2.313987e-08)
(-0.00026231453 6.9519583e-05 -3.2239461e-09)
(-0.00017954448 0.00015591843 -1.2585603e-08)
(-0.0002929861 -6.4582248e-05 -2.8063659e-09)
(-0.00022676517 -4.5860566e-05 -5.701585e-09)
(-0.0002649157 -0.00012237116 -1.0202175e-09)
(-0.00022268837 -0.00014341054 -1.9036266e-09)
(-0.00020261287 -0.00011568474 5.2118044e-11)
(-0.00017940424 -0.00014114701 -2.6442234e-10)
(-0.00015383056 -8.2804774e-05 3.4617626e-10)
(-0.00014084202 -0.00010272089 2.1447205e-10)
(-0.00012270924 -5.1753873e-05 2.6330793e-10)
(-0.00011350954 -6.4988236e-05 2.1535092e-10)
(-0.00010005358 -3.2257036e-05 1.0647049e-10)
(-9.3068321e-05 -4.0216469e-05 1.0446358e-10)
(-8.4101221e-05 -2.2051503e-05 4.8739471e-12)
(-7.7904663e-05 -2.689185e-05 2.2299304e-11)
(-7.1839594e-05 -1.7757643e-05 -2.9518496e-11)
(-6.6799139e-05 -2.1363625e-05 -7.6894337e-12)
(-6.2160384e-05 -1.4801315e-05 -2.7314929e-11)
(-5.8447735e-05 -1.7745987e-05 -7.7722215e-12)
(-5.4757516e-05 -1.2017321e-05 -1.3869262e-11)
(-5.1890869e-05 -1.4120898e-05 1.1294327e-12)
(-4.911658e-05 -9.3569571e-06 -2.8398901e-12)
(-4.6865052e-05 -1.0698037e-05 8.7029829e-12)
(-4.4878208e-05 -6.7901831e-06 1.8132103e-12)
(-4.3103235e-05 -7.907009e-06 1.1472788e-11)
(-4.1783702e-05 -4.7066105e-06 1.2486835e-12)
(-4.0370605e-05 -5.5665248e-06 1.0027151e-11)
(-3.9627465e-05 -3.1194293e-06 -2.1868819e-12)
(-3.8491621e-05 -3.6921022e-06 6.5173735e-12)
(-3.8197197e-05 -1.9627318e-06 -5.9059402e-12)
(-3.7275067e-05 -2.3387416e-06 2.8131142e-12)
(-3.7299643e-05 -1.1417023e-06 -8.2150646e-12)
(-3.6544339e-05 -1.3315712e-06 2.1098736e-13)
(-3.6758755e-05 -6.0358777e-07 -9.1367064e-12)
(-3.6140151e-05 -6.6888235e-07 -1.1721703e-12)
(-3.6321184e-05 -3.5958617e-07 -9.2155688e-12)
(-3.5850102e-05 -2.8108798e-07 -1.8025937e-12)
(-3.6212374e-05 -1.8939249e-07 -8.8530081e-12)
(-3.5769733e-05 -2.0339649e-07 -2.1780867e-12)
(-3.6300774e-05 -6.0184133e-08 -8.8954288e-12)
(-3.5850244e-05 -1.6273945e-08 -2.6615103e-12)
(-3.6202692e-05 -7.2198954e-08 -8.9990042e-12)
(-3.5819588e-05 -6.665583e-08 -2.978743e-12)
(-3.6042774e-05 -2.0306624e-07 -8.9883049e-12)
(-3.5691589e-05 -2.4623727e-07 -3.2472265e-12)
(-3.579415e-05 -3.9638133e-07 -8.9396471e-12)
(-3.5463493e-05 -4.9639482e-07 -3.5018066e-12)
(-3.5440591e-05 -6.134339e-07 -8.8381932e-12)
(-3.512413e-05 -7.76525e-07 -3.6824737e-12)
(-3.4975473e-05 -8.3069604e-07 -8.7212875e-12)
(-3.4668814e-05 -1.0568939e-06 -3.794096e-12)
(-3.4400635e-05 -1.0442337e-06 -8.6136463e-12)
(-3.4100608e-05 -1.3286914e-06 -3.8894006e-12)
(-3.3724989e-05 -1.2290542e-06 -8.574806e-12)
(-3.3429579e-05 -1.5712955e-06 -4.0162511e-12)
(-3.2962787e-05 -1.3820415e-06 -8.5942661e-12)
(-3.2670927e-05 -1.7693423e-06 -4.189132e-12)
(-3.2131841e-05 -1.4967906e-06 -8.6358995e-12)
(-3.1843063e-05 -1.9179394e-06 -4.3841068e-12)
(-3.1251926e-05 -1.5658524e-06 -8.6894203e-12)
(-3.0966055e-05 -2.0055254e-06 -4.5926518e-12)
(-3.0343553e-05 -1.6057643e-06 -8.7213442e-12)
(-3.0060597e-05 -2.0567207e-06 -4.7597408e-12)
(-2.9427288e-05 -1.6102506e-06 -8.7359681e-12)
(-2.9147399e-05 -2.0622521e-06 -4.8921206e-12)
(-2.8523284e-05 -1.576859e-06 -8.757316e-12)
(-2.8246667e-05 -2.0190387e-06 -5.0140136e-12)
(-2.7650661e-05 -1.5055751e-06 -8.8344525e-12)
(-2.7377493e-05 -1.9275005e-06 -5.1669734e-12)
(-2.682683e-05 -1.4036229e-06 -8.9763156e-12)
(-2.6557212e-05 -1.7969599e-06 -5.3605224e-12)
(-2.6067151e-05 -1.2697557e-06 -9.1811446e-12)
(-2.5801076e-05 -1.625256e-06 -5.5973559e-12)
(-2.5385576e-05 -1.1041951e-06 -9.4574224e-12)
(-2.5122903e-05 -1.4130888e-06 -5.8838055e-12)
(-2.4796628e-05 -9.102007e-07 -9.7981026e-12)
(-2.4537045e-05 -1.1639695e-06 -6.2130145e-12)
(-2.4316205e-05 -7.0067485e-07 -1.0073231e-11)
(-2.4059204e-05 -8.9583684e-07 -6.4792899e-12)
(-2.3969434e-05 -4.7741408e-07 -1.0044186e-11)
(-2.3714156e-05 -6.1088642e-07 -6.5210995e-12)
(-2.3789752e-05 -2.5082282e-07 -9.1057997e-12)
(-2.3534953e-05 -3.2182386e-07 -5.9306895e-12)
(-2.3798947e-05 -4.3192125e-08 -6.2650772e-12)
(-2.3542828e-05 -5.6186072e-08 -4.0532553e-12)
(0.0014231935 3.2012861e-06 -1.5296959e-08)
(0.0013643982 -4.3539662e-05 -3.4789452e-08)
(0.0012421862 -3.0062179e-05 -4.6381901e-08)
(0.0010883178 -3.2128368e-05 -5.126909e-08)
(0.00093034799 -1.5819383e-05 -5.0997865e-08)
(0.00078356091 -1.4459949e-05 -4.7323587e-08)
(0.00065658071 -2.0316103e-05 -4.1988287e-08)
(0.00055644984 -4.0216581e-05 -3.6219854e-08)
(0.00048248173 -7.3419044e-05 -3.0635135e-08)
(0.00042978396 -0.00011685033 -2.5494073e-08)
(0.00039230847 -0.00016476177 -2.0879005e-08)
(0.00036430515 -0.00021360996 -1.6831235e-08)
(0.00034173436 -0.000259532 -1.3334372e-08)
(0.00032159816 -0.00030095725 -1.032903e-08)
(0.00030183763 -0.0003375328 -7.771033e-09)
(0.0002810849 -0.00036810794 -5.6321992e-09)
(0.00025852638 -0.00039224886 -3.8881974e-09)
(0.00023376336 -0.00041139278 -2.5009734e-09)
(0.00020675915 -0.0004257875 -1.4230328e-09)
(0.000177705 -0.0004348659 -6.2254329e-10)
(0.00014694797 -0.00043948407 -5.8487648e-11)
(0.0001149366 -0.00043999062 2.9413547e-10)
(8.2170157e-05 -0.00043721887 4.5197804e-10)
(4.9091371e-05 -0.00042767319 4.417035e-10)
(1.5904663e-05 -0.00041241498 3.2175989e-10)
(0.00017507921 -0.00010055289 -2.8743578e-08)
(0.00016818221 -0.00041557512 -6.412598e-08)
(0.00015686032 -0.00059100946 -8.4423222e-08)
(0.00015626749 -0.00086156819 -9.2141959e-08)
(0.0001745588 -0.0010863644 -9.073656e-08)
(0.00021190577 -0.0013507696 -8.4261613e-08)
(0.00025836347 -0.0016118664 -7.5684213e-08)
(0.0002983071 -0.0018778403 -6.6706905e-08)
(0.00032310389 -0.0021541775 -5.796937e-08)
(0.0003315709 -0.0024312145 -4.9765601e-08)
(0.00032732921 -0.0026854552 -4.2234328e-08)
(0.00031340582 -0.0029155109 -3.5457025e-08)
(0.00029345865 -0.0031193125 -2.9417033e-08)
(0.00027003183 -0.0032957066 -2.3994793e-08)
(0.00024480092 -0.003443818 -1.9143312e-08)
(0.00021867526 -0.0035641332 -1.4863198e-08)
(0.00019238708 -0.003656704 -1.1177881e-08)
(0.00016638377 -0.0037222623 -8.0739249e-09)
(0.00014102151 -0.0037622794 -5.4947159e-09)
(0.00011653116 -0.0037777912 -3.452112e-09)
(9.3032028e-05 -0.0037701931 -1.8885654e-09)
(7.0564832e-05 -0.0037414196 -7.7753658e-10)
(4.9079201e-05 -0.0036966419 -9.4849749e-11)
(2.83252e-05 -0.0036256085 2.2227032e-10)
(8.1546352e-06 -0.0034737144 1.8947754e-10)
(0.0010887813 -0.00039058772 -6.3158972e-08)
(0.0010620881 -0.0017661285 -1.359611e-07)
(0.0010659408 -0.0024307432 -1.7291143e-07)
(0.0011242384 -0.0034272306 -1.8161086e-07)
(0.0011908868 -0.0042431425 -1.743501e-07)
(0.0012396401 -0.0050822416 -1.6086045e-07)
(0.0012598802 -0.00589239 -1.4561141e-07)
(0.0012457999 -0.0067021054 -1.3076554e-07)
(0.0012029068 -0.0076014711 -1.1639365e-07)
(0.0011397045 -0.0085487975 -1.0269284e-07)
(0.0010630126 -0.009378869 -9.0071813e-08)
(0.00097702457 -0.010076245 -7.8573363e-08)
(0.00088780932 -0.010645303 -6.8170191e-08)
(0.00079802883 -0.011096416 -5.8479134e-08)
(0.00070875506 -0.011433524 -4.9398384e-08)
(0.00062101928 -0.011666389 -4.0937392e-08)
(0.00053611982 -0.011801533 -3.322149e-08)
(0.00045524718 -0.011847091 -2.6318231e-08)
(0.00037908888 -0.011813295 -2.0072548e-08)
(0.00030798635 -0.011708501 -1.4730899e-08)
(0.00024199634 -0.011543085 -1.0287506e-08)
(0.00018092542 -0.011328976 -6.7623958e-09)
(0.00012436851 -0.011083578 -4.1851376e-09)
(7.148826e-05 -0.010762021 -2.2408285e-09)
(2.1882801e-05 -0.010288437 -8.9826611e-10)
(0.003928541 -0.0011722446 -1.4184102e-07)
(0.0038689663 -0.0051293053 -2.8207909e-07)
(0.0038090239 -0.0066972219 -3.3477267e-07)
(0.0036502714 -0.010191624 -3.324794e-07)
(0.0034542726 -0.0133539 -3.0964719e-07)
(0.0031983073 -0.016132687 -2.8326896e-07)
(0.0029088451 -0.018150758 -2.5735602e-07)
(0.0026130471 -0.019467554 -2.3492911e-07)
(0.0023289383 -0.020041774 -2.1369295e-07)
(0.0020604379 -0.020116577 -1.9270971e-07)
(0.0018090515 -0.019859135 -1.7342467e-07)
(0.0015785701 -0.019388416 -1.557583e-07)
(0.0013717076 -0.018772422 -1.4002655e-07)
(0.0011831225 -0.01806744 -1.250081e-07)
(0.0010059853 -0.01728075 -1.1053695e-07)
(0.00084505523 -0.016461002 -9.6614109e-08)
(0.00070157734 -0.015643231 -8.3281025e-08)
(0.00057458512 -0.014849014 -7.0579885e-08)
(0.00046265496 -0.014095182 -5.8562758e-08)
(0.00036427386 -0.013392077 -4.739139e-08)
(0.00027796265 -0.012747741 -3.7205647e-08)
(0.00020224823 -0.012164308 -2.8178124e-08)
(0.00013582971 -0.011657994 -2.0870033e-08)
(7.7202987e-05 -0.011138654 -1.4089115e-08)
(2.5732379e-05 -0.010585941 -7.8085994e-09)
(0.01208164 -0.008910412 -3.2772304e-07)
(0.0097457289 -0.026275363 -5.4876905e-07)
(0.0085401496 -0.029086331 -5.9089485e-07)
(0.006755721 -0.033639228 -5.6683986e-07)
(0.0052958655 -0.031346007 -5.2398523e-07)
(0.0040279876 -0.027751889 -4.7803509e-07)
(0.0029760446 -0.023154993 -4.3450381e-07)
(0.002138997 -0.018285594 -3.9374459e-07)
(0.0014873634 -0.013456892 -3.5931921e-07)
(0.00098533493 -0.0089114413 -3.2820289e-07)
(0.00060465116 -0.0048170783 -2.9952762e-07)
(0.00032403631 -0.0012362124 -2.7219191e-07)
(0.00011874531 0.0018432726 -2.4968507e-07)
(-2.6227218e-05 0.0045027545 -2.2769482e-07)
(-0.00011859609 0.0069955025 -2.0634998e-07)
(-0.00017227748 0.0092269128 -1.8573895e-07)
(-0.00019760621 0.011090071 -1.6581387e-07)
(-0.00020191718 0.01257339 -1.4652053e-07)
(-0.00019119136 0.013698089 -1.2784227e-07)
(-0.00017022074 0.01449828 -1.0981223e-07)
(-0.00014267483 0.015000719 -9.2437923e-08)
(-0.00011134528 0.015256331 -7.5424213e-08)
(-7.8069371e-05 0.015248926 -6.1795488e-08)
(-4.4524854e-05 0.015146243 -4.7585224e-08)
(-8.8391854e-06 0.014530344 -3.6563125e-08)
(0.015332322 0.022925341 -7.3619811e-07)
(0.0042766432 -0.0023028504 -1.0191313e-06)
(0.0013896719 0.04803711 -1.0084722e-06)
(-0.00057779631 0.050891505 -9.2843195e-07)
(-0.0022543969 0.065408899 -8.5027347e-07)
(-0.0034831251 0.07610016 -7.6444722e-07)
(-0.0041567331 0.083455945 -6.870043e-07)
(-0.004361585 0.089515611 -6.1867888e-07)
(-0.0042775105 0.094029575 -5.5845173e-07)
(-0.0040508223 0.096875611 -5.0597355e-07)
(-0.0037513634 0.098386236 -4.6030527e-07)
(-0.0033982335 0.09884106 -4.1267515e-07)
(-0.003043246 0.098625109 -3.8247666e-07)
(-0.0027038533 0.097660055 -3.4952912e-07)
(-0.0023612767 0.09597344 -3.1714208e-07)
(-0.0020300045 0.093722684 -2.8725375e-07)
(-0.0017207779 0.091197359 -2.5905693e-07)
(-0.0014358054 0.088546719 -2.3221205e-07)
(-0.0011755691 0.085840198 -2.0654305e-07)
(-0.00093949499 0.083139229 -1.8195174e-07)
(-0.00072618901 0.080453974 -1.5837664e-07)
(-0.00053399026 0.077886864 -1.3568591e-07)
(-0.00036020006 0.075232743 -1.1439284e-07)
(-0.00020375531 0.073134401 -9.4500189e-08)
(-5.771899e-05 0.069355677 -7.259058e-08)
(-0.0013295887 1.1733038 -2.5290373e-06)
(-0.00062568373 0.96217749 -2.0019959e-06)
(-0.00096513198 0.8670968 -1.6145617e-06)
(-0.00068313382 0.77539667 -1.3169008e-06)
(-0.00059520597 0.67986504 -1.0950029e-06)
(-0.00051611662 0.58892504 -9.3108131e-07)
(-0.00044249817 0.51087521 -8.066965e-07)
(-0.0003750249 0.44746411 -7.1127961e-07)
(-0.00031293878 0.39524022 -6.327999e-07)
(-0.00026287034 0.35075913 -5.7119918e-07)
(-0.00021741628 0.31242584 -5.212462e-07)
(-0.00017872973 0.27950326 -4.759821e-07)
(-0.00014116965 0.25145297 -4.3612908e-07)
(-0.00010922119 0.22752326 -3.9942533e-07)
(-8.7585084e-05 0.20705565 -3.6495254e-07)
(-7.0919666e-05 0.18952394 -3.3231424e-07)
(-5.6959984e-05 0.17450795 -3.0116257e-07)
(-4.5281831e-05 0.16164751 -2.7131723e-07)
(-3.5481425e-05 0.15061785 -2.4271238e-07)
(-2.7214533e-05 0.14117477 -2.1531875e-07)
(-2.0221854e-05 0.13303595 -1.891129e-07)
(-1.4287829e-05 0.12617855 -1.6406346e-07)
(-9.209954e-06 0.11998811 -1.4000714e-07)
(-4.9900867e-06 0.11560723 -1.186334e-07)
(-1.2571395e-06 0.10899185 -9.1118833e-08)
(-0.013784726 0.088287805 -1.1655289e-06)
(-0.0032127984 0.097097264 -1.1909518e-06)
(-0.00062401577 0.10378103 -1.1342134e-06)
(0.0011895615 0.10586007 -1.0379433e-06)
(0.0027318737 0.1085086 -9.3312718e-07)
(0.0038499462 0.11049622 -8.3152175e-07)
(0.0044485627 0.11230172 -7.4080958e-07)
(0.00459556 0.11395105 -6.6081857e-07)
(0.0044630109 0.1147685 -5.7765297e-07)
(0.0041886483 0.11479997 -5.3209063e-07)
(0.0038686452 0.1141002 -4.8596395e-07)
(0.0035239666 0.11262506 -4.3789472e-07)
(0.0031466996 0.11060839 -3.964314e-07)
(0.0027715344 0.10786258 -3.5938448e-07)
(0.0024109655 0.1047503 -3.2560017e-07)
(0.0020712317 0.10148829 -2.9429279e-07)
(0.0017555115 0.098171618 -2.6493107e-07)
(0.0014651532 0.094864127 -2.3716891e-07)
(0.0012002255 0.091609465 -2.1077991e-07)
(0.00095989388 0.088453605 -1.8561335e-07)
(0.00074258844 0.085391152 -1.6155743e-07)
(0.00054658438 0.082514709 -1.3845987e-07)
(0.0003691551 0.079597934 -1.1688946e-07)
(0.00020904058 0.077318359 -9.6777654e-08)
(5.9555236e-05 0.073287991 -7.4201611e-08)
(-0.010141871 -0.042705924 -6.6745633e-07)
(-0.008571729 -0.040714588 -7.1778009e-07)
(-0.0070523918 -0.038940269 -6.9830545e-07)
(-0.0055729485 -0.035495628 -6.5176113e-07)
(-0.0042232556 -0.030508602 -5.9596273e-07)
(-0.0030696291 -0.024854939 -5.3769224e-07)
(-0.0021273552 -0.019064194 -4.8554269e-07)
(-0.0013946124 -0.013402617 -4.3807059e-07)
(-0.00084087316 -0.008289095 -3.9448476e-07)
(-0.00042263962 -0.0037677516 -3.6163193e-07)
(-0.00011974015 9.9581768e-05 -3.29718e-07)
(9.3294903e-05 0.0034284855 -2.9907751e-07)
(0.00023308246 0.0066246756 -2.7110794e-07)
(0.00031878016 0.009539278 -2.4521614e-07)
(0.00036366064 0.012060731 -2.2099031e-07)
(0.00037697648 0.014154976 -1.9809022e-07)
(0.00036686255 0.015834521 -1.7627649e-07)
(0.00034016287 0.017129017 -1.5539934e-07)
(0.00030236139 0.018071345 -1.3537455e-07)
(0.00025776542 0.018700173 -1.1616888e-07)
(0.00020956305 0.019043987 -9.7734799e-08)
(0.00016003009 0.019142435 -7.9702648e-08)
(0.00011068226 0.019007033 -6.5681137e-08)
(6.2973427e-05 0.018774377 -5.049835e-08)
(1.4358375e-05 0.017973733 -3.842425e-08)
(-0.0050300313 -0.01787057 -3.339639e-07)
(-0.0047843696 -0.020561024 -3.8648872e-07)
(-0.0045300434 -0.023351641 -3.8936953e-07)
(-0.0041998353 -0.025396123 -3.7010304e-07)
(-0.0038071774 -0.026731029 -3.430458e-07)
(-0.003382164 -0.027270563 -3.1754554e-07)
(-0.0029871034 -0.027165292 -2.867859e-07)
(-0.002621806 -0.026571788 -2.57766e-07)
(-0.0022869758 -0.025714899 -2.3220255e-07)
(-0.0019923185 -0.024676337 -2.1041619e-07)
(-0.0017272081 -0.023531838 -1.898734e-07)
(-0.0014884966 -0.022331141 -1.704015e-07)
(-0.0012709421 -0.021065502 -1.5225067e-07)
(-0.00107596 -0.019791307 -1.3525931e-07)
(-0.00090420182 -0.018546042 -1.192599e-07)
(-0.00075381905 -0.017353929 -1.0406555e-07)
(-0.00062247539 -0.016234522 -8.9602406e-08)
(-0.00050789445 -0.015201181 -7.5881527e-08)
(-0.000407943 -0.014260868 -6.2929784e-08)
(-0.00032055858 -0.0134159 -5.0911343e-08)
(-0.00024420365 -0.012665999 -3.9972261e-08)
(-0.0001774355 -0.012009705 -3.0316541e-08)
(-0.00011910658 -0.011454721 -2.2528777e-08)
(-6.7725724e-05 -0.010907393 -1.5228219e-08)
(-2.3114172e-05 -0.010350952 -8.4063214e-09)
(-0.0013151937 -0.0046068836 -1.6818327e-07)
(-0.001417571 -0.0056762087 -2.0724785e-07)
(-0.0015509054 -0.0067670042 -2.1537769e-07)
(-0.0016514169 -0.0077986906 -2.074434e-07)
(-0.0017049182 -0.0087766866 -1.9250677e-07)
(-0.0017036265 -0.009795364 -1.7549504e-07)
(-0.0016539091 -0.010881316 -1.5658468e-07)
(-0.0015678226 -0.011866534 -1.3857203e-07)
(-0.0014603446 -0.012688328 -1.2254457e-07)
(-0.0013434993 -0.013345541 -1.0840436e-07)
(-0.0012229228 -0.01385752 -9.5344415e-08)
(-0.0011039096 -0.014242743 -8.3146426e-08)
(-0.00098797927 -0.014510534 -7.1831503e-08)
(-0.00087623261 -0.014674908 -6.1361131e-08)
(-0.00076930806 -0.014744536 -5.177068e-08)
(-0.00066782384 -0.014727414 -4.2912805e-08)
(-0.0005723213 -0.014632058 -3.4717703e-08)
(-0.0004831413 -0.014464774 -2.7339662e-08)
(-0.00040044311 -0.014226201 -2.0845321e-08)
(-0.00032427637 -0.013926633 -1.5226976e-08)
(-0.00025422264 -0.013588727 -1.052755e-08)
(-0.00018978985 -0.013230598 -6.8274127e-09)
(-0.00013027569 -0.012870013 -4.1644511e-09)
(-7.4854884e-05 -0.012446904 -2.1907034e-09)
(-2.303716e-05 -0.011881828 -9.0287622e-10)
(-0.00013516756 -0.00061222658 -8.4731542e-08)
(-8.5667796e-05 -0.00090996161 -1.0641906e-07)
(-0.00011717483 -0.0012472664 -1.1179015e-07)
(-0.0002082625 -0.0016571902 -1.0775887e-07)
(-0.00030786876 -0.002094557 -9.9238772e-08)
(-0.00041152413 -0.0025306715 -8.9038484e-08)
(-0.00047945226 -0.0029755088 -7.8151705e-08)
(-0.00051445482 -0.0033892915 -6.7684056e-08)
(-0.00052359152 -0.0037530455 -5.8247943e-08)
(-0.00051351242 -0.004063168 -4.9872695e-08)
(-0.00049207885 -0.0043252015 -4.2297665e-08)
(-0.00046168689 -0.0045442818 -3.540432e-08)
(-0.00042698219 -0.0047228165 -2.9179727e-08)
(-0.00038992258 -0.0048645156 -2.3617548e-08)
(-0.0003515666 -0.0049719179 -1.8723047e-08)
(-0.00031285031 -0.0050478125 -1.4423142e-08)
(-0.00027448113 -0.0050955149 -1.0698594e-08)
(-0.00023695196 -0.0051199523 -7.5529871e-09)
(-0.00020062614 -0.0051320669 -4.96861e-09)
(-0.00016584836 -0.0051328219 -2.923513e-09)
(-0.00013256059 -0.0051101761 -1.3852999e-09)
(-0.00010072288 -0.0050610902 -3.1505302e-10)
(-7.0194296e-05 -0.0049902227 2.8679513e-10)
(-4.0647997e-05 -0.0048813276 4.7872966e-10)
(-1.1928124e-05 -0.0046712268 2.6802802e-10)
(-3.8995158e-05 0.0003251388 -4.1808679e-08)
(4.0848723e-05 0.00040030545 -5.1044689e-08)
(8.229436e-05 0.0004392388 -5.2960114e-08)
(8.6948065e-05 0.00041949978 -5.0394417e-08)
(7.3015667e-05 0.00033851968 -4.5629302e-08)
(4.0059586e-05 0.00022843952 -4.006575e-08)
(-2.9728353e-06 0.00010977145 -3.4356642e-08)
(-4.2641351e-05 -1.4081784e-05 -2.896122e-08)
(-7.3500939e-05 -0.00013464543 -2.4142055e-08)
(-9.6601638e-05 -0.00024625542 -1.9929747e-08)
(-0.00011100075 -0.00034651255 -1.6235774e-08)
(-0.00011849973 -0.00043344034 -1.2997117e-08)
(-0.00012076688 -0.0005074789 -1.0185998e-08)
(-0.00011837921 -0.00056883996 -7.7820289e-09)
(-0.00011254432 -0.00061924722 -5.7626009e-09)
(-0.0001042679 -0.00066005605 -4.0847507e-09)
(-9.4348996e-05 -0.00069230944 -2.7152309e-09)
(-8.3441257e-05 -0.00071682867 -1.626588e-09)
(-7.2006732e-05 -0.00073477979 -7.8890628e-10)
(-6.0256868e-05 -0.00074653881 -1.7223117e-10)
(-4.8549552e-05 -0.00075177304 2.4917263e-10)
(-3.7061803e-05 -0.00075056534 4.9352332e-10)