/*--------------------------------*- C++ -*----------------------------------*\
| =========                 |                                                 |
| \\      /  F ield         | OpenFOAM: The Open Source CFD Toolbox           |
|  \\    /   O peration     | Version:  4.0                                   |
|   \\  /    A nd           | Web:      www.OpenFOAM.org                      |
|    \\/     M anipulation  |                                                 |
\*---------------------------------------------------------------------------*/
FoamFile
{
    version     2.0;
    format      ascii;
    class       volScalarField;
    location    "0.07";
    object      k;
}
// * * * * * * * * * * * * * * * * * * * * * * * * * * * * * * * * * * * * * //

dimensions      [0 2 -2 0 0 0 0];

internalField   nonuniform List<scalar> 
1740
(
0.0086685775
0.0090207738
0.018457675
0.0091451861
0.0099098084
0.027474134
0.0095164132
0.010524989
0.034533254
0.0098766551
0.010724071
0.041575138
0.010015127
0.011009383
0.047547918
0.010087712
0.011456563
0.052240975
0.010195038
0.01217769
0.056148334
0.010257509
0.012308663
0.059118986
0.010259328
0.012290075
0.061848613
0.0102019
0.012334066
0.064098841
0.010088462
0.012535369
0.066095853
0.0099645631
0.012923677
0.06792676
0.0098845822
0.013341691
0.068868469
0.0098068171
0.013654824
0.069906068
0.009703174
0.013798645
0.070786321
0.0096241274
0.013966694
0.071151539
0.0095074945
0.014071644
0.071887604
0.0093780532
0.014542982
0.072440263
0.0092528092
0.014462978
0.072274892
0.0091269364
0.014542555
0.072520549
0.0090438155
0.014760006
0.073075522
0.0089405003
0.014807393
0.072621908
0.0088397175
0.014611004
0.072839967
0.0087871224
0.014578605
0.072773628
0.0086572508
0.014439937
0.072791363
0.0085158442
0.01453647
0.072892373
0.0084660879
0.014709746
0.072854161
0.0084467627
0.015113408
0.072664305
0.0084489461
0.015262466
0.071814829
0.0090472487
0.016313671
0.066791401
0.01276328
0.018232827
0.047386612
0.023957446
0.031205696
0.039840536
0.010198808
0.012475342
0.013689296
0.0041683968
0.0045078743
0.0045665741
0.0018990126
0.0019430611
0.0019111783
0.0008771664
0.0008773165
0.00085275234
0.00037310952
0.00036946143
0.00035635322
0.00013848518
0.00013637952
0.00013068418
4.5804068e-05
4.4993861e-05
4.2987251e-05
1.5288829e-05
1.5045869e-05
1.4465344e-05
6.75122e-06
6.6953273e-06
6.5629519e-06
4.7757966e-06
4.7714354e-06
4.7599703e-06
4.5302798e-06
4.5380984e-06
4.5549221e-06
4.6980327e-06
4.7080547e-06
4.7299783e-06
4.9577612e-06
4.9677198e-06
4.9895261e-06
5.2384279e-06
5.2478684e-06
5.2685284e-06
5.525779e-06
5.5346379e-06
5.5540163e-06
5.8172526e-06
5.8255453e-06
5.843681e-06
6.1124425e-06
6.1201988e-06
6.1371601e-06
6.4112601e-06
6.4185112e-06
6.4343678e-06
6.7136121e-06
6.7203876e-06
6.7352048e-06
7.0193491e-06
7.0256764e-06
7.0395144e-06
7.3282554e-06
7.3341598e-06
7.3470737e-06
7.6400435e-06
7.6455484e-06
7.6575894e-06
7.9543502e-06
7.9594772e-06
7.9706925e-06
8.2707311e-06
8.2755003e-06
8.2859337e-06
8.5886553e-06
8.5930855e-06
8.602778e-06
8.9075007e-06
8.9116096e-06
8.9205996e-06
9.2265495e-06
9.2303535e-06
9.2386771e-06
9.5449843e-06
9.5484991e-06
9.5561905e-06
9.861886e-06
9.8651265e-06
9.8722182e-06
1.0176233e-05
1.0179214e-05
1.0185737e-05
1.0486903e-05
1.0489637e-05
1.0495622e-05
1.0792675e-05
1.0795177e-05
1.0800652e-05
1.1092237e-05
1.1094518e-05
1.1099513e-05
1.1384191e-05
1.1386265e-05
1.1390807e-05
1.1667069e-05
1.1668948e-05
1.1673064e-05
1.193934e-05
1.1941037e-05
1.1944755e-05
1.2199427e-05
1.2200954e-05
1.2204301e-05
1.2445706e-05
1.2447076e-05
1.2450078e-05
1.2676449e-05
1.2677674e-05
1.2680358e-05
1.2889548e-05
1.2890639e-05
1.2893034e-05
1.3081472e-05
1.3082443e-05
1.3084574e-05
1.3243897e-05
1.324476e-05
1.3246654e-05
1.3354012e-05
1.3354778e-05
1.3356462e-05
1.3350123e-05
1.3350803e-05
1.3352301e-05
1.3079146e-05
1.3079747e-05
1.3081073e-05
1.2206165e-05
1.2206681e-05
1.2207822e-05
1.012145e-05
1.0121851e-05
1.0122727e-05
6.0698045e-06
6.0700297e-06
6.0704775e-06
0.05634574
0.06096825
0.046170378
0.046638013
0.012438118
0.011301238
0.0042485713
0.0040004589
0.0018044712
0.00172284
0.00080790949
0.00076959337
0.00033597606
0.00031628696
0.00012223117
0.00011341712
4.0044024e-05
3.6847033e-05
1.3614656e-05
1.2670226e-05
6.3690123e-06
6.1550005e-06
4.743845e-06
4.7316938e-06
4.5805043e-06
4.6161183e-06
4.7630254e-06
4.8069558e-06
5.0223278e-06
5.0656159e-06
5.2995809e-06
5.3404978e-06
5.5831338e-06
5.6214924e-06
5.8709306e-06
5.9068336e-06
6.1626479e-06
6.1962369e-06
6.4581985e-06
6.4896115e-06
6.7574765e-06
6.7868416e-06
7.0603171e-06
7.0877518e-06
7.3664903e-06
7.3921023e-06
7.675696e-06
7.6995848e-06
7.9875598e-06
8.0098177e-06
8.3016272e-06
8.32234e-06
8.6173589e-06
8.6366068e-06
8.9341254e-06
8.9519836e-06
9.251202e-06
9.2677413e-06
9.5677655e-06
9.5830534e-06
9.8828922e-06
9.8969928e-06
1.0195557e-05
1.0208532e-05
1.0504633e-05
1.0516541e-05
1.0808897e-05
1.0819797e-05
1.1107035e-05
1.1116983e-05
1.1397649e-05
1.1406699e-05
1.1679267e-05
1.1687475e-05
1.1950359e-05
1.1957778e-05
1.2209347e-05
1.2216032e-05
1.2454607e-05
1.2460611e-05
1.2684411e-05
1.2689787e-05
1.2896651e-05
1.2901453e-05
1.3087796e-05
1.3092079e-05
1.3249522e-05
1.3253341e-05
1.3359017e-05
1.3362428e-05
1.335458e-05
1.3357634e-05
1.3083098e-05
1.3085814e-05
1.2209551e-05
1.2211782e-05
1.0123933e-05
1.0124884e-05
6.0707238e-06
6.0688886e-06
4.9122916e-06
1.3559649e-05
6.2863331e-05
0.00012978662
0.00017765714
0.00019537413
0.00019148331
0.00017632797
0.00015657668
0.00013564425
0.00011512312
9.5801476e-05
7.8162036e-05
6.2543995e-05
4.9150275e-05
3.8029315e-05
2.9083015e-05
2.2108633e-05
1.683938e-05
1.2975653e-05
1.0203055e-05
8.1979436e-06
6.6225208e-06
5.1470177e-06
3.5761594e-06
1.9241245e-06
3.9491993e-05
0.0001724212
0.00033133433
0.000432422
0.00046756718
0.00046139918
0.00043392291
0.00039659504
0.00035500988
0.00031175825
0.00026837612
0.00022616607
0.00018638419
0.00015010848
0.00011811226
9.0815907e-05
6.83256e-05
5.0453459e-05
3.6760237e-05
2.6616791e-05
1.9267687e-05
1.3844608e-05
9.2855411e-06
4.0980598e-06
7.355111e-06
0.00014580184
0.00054384024
0.00091698601
0.0011069835
0.0011645911
0.0011498506
0.0010990927
0.0010303205
0.00095135449
0.00086498522
0.00077324391
0.00067839341
0.00058312902
0.00049013988
0.00040193683
0.00032088328
0.0002490777
0.00018798367
0.0001381775
9.9276755e-05
7.0055571e-05
4.8526922e-05
3.1761974e-05
1.4683338e-05
3.7830863e-05
0.00057425651
0.0016476705
0.0023457894
0.0026276792
0.0026807271
0.0026215716
0.002514149
0.0023855798
0.0022448492
0.0020906467
0.0019242169
0.0017476787
0.0015639841
0.0013756366
0.0011849921
0.00099639114
0.00081548009
0.00064817405
0.00049975027
0.00037392206
0.0002722707
0.00019356594
0.00013312025
7.5091453e-05
0.00028440754
0.0024533141
0.0049282376
0.0060517317
0.0063932635
0.0063147392
0.0060504196
0.0057331276
0.0054126378
0.0050911795
0.0047542072
0.0044060961
0.0040507421
0.0036930526
0.0033313759
0.0029603938
0.0025849088
0.002211966
0.0018496691
0.0015071739
0.0011937245
0.0009182721
0.00068688877
0.00050628941
0.00038615911
0.002362687
0.010502224
0.016645929
0.018694855
0.018305428
0.016792702
0.014987632
0.013290667
0.011790297
0.010470287
0.0093113072
0.0082921843
0.0073905534
0.0065837571
0.0058491232
0.0051687008
0.0045317228
0.0039319733
0.0033668241
0.0028370619
0.0023455591
0.0018978704
0.0014987376
0.0011608087
0.00090927659
0.04502322
0.034159849
0.02665112
0.021479309
0.017824065
0.015130606
0.013060069
0.011422224
0.010103804
0.0090247026
0.0081233475
0.0073521618
0.0066743934
0.0060613117
0.0054907935
0.0049472607
0.0044212986
0.0039087762
0.0034097687
0.0029277549
0.0024682752
0.0020387145
0.00164614
0.0013026547
0.0010379825
0.037300495
0.031062513
0.027915446
0.025351359
0.022531618
0.019588999
0.016883529
0.014580029
0.012669302
0.01107866
0.0097399043
0.0086009367
0.0076171513
0.0067506245
0.0059727764
0.005262968
0.004606508
0.0039938898
0.0034201108
0.0028843053
0.0023882315
0.0019366801
0.0015337997
0.0011918363
0.000936159
0.010164496
0.0095130614
0.0091922457
0.0088848043
0.0084255443
0.0078452093
0.0072462341
0.0067035083
0.0062015994
0.0057250859
0.0052688395
0.0048373021
0.004422754
0.0040110221
0.0035971125
0.0031835159
0.0027734656
0.0023716585
0.0019844869
0.0016199747
0.0012866967
0.00099335669
0.00074600239
0.00055178849
0.00042120088
0.003829733
0.003745576
0.003707063
0.0036434082
0.0035161465
0.00333557
0.0031327469
0.0029333317
0.0027359213
0.0025376935
0.0023372634
0.002135586
0.0019316871
0.0017240177
0.0015127916
0.0013011227
0.0010935591
0.00089555562
0.00071287892
0.00055082633
0.00041323276
0.00030178783
0.00021520616
0.00014840118
8.3862442e-05
0.00167932
0.001664279
0.0016569823
0.0016332689
0.001580324
0.0015005371
0.0014043834
0.001301822
0.0011959418
0.0010874991
0.00097715418
0.00086623284
0.00075604421
0.00064793062
0.00054353156
0.00044511005
0.00035508698
0.00027559372
0.00020808412
0.00015309679
0.0001101471
7.7839774e-05
5.3959831e-05
3.5261417e-05
1.6244552e-05
0.00074518973
0.0007310336
0.0007187682
0.00069937743
0.00066772332
0.00062431766
0.00057317226
0.0005186511
0.00046321313
0.00040805203
0.00035399654
0.00030197551
0.00025293118
0.00020769444
0.00016693061
0.00013117836
0.00010077379
7.5780153e-05
5.595746e-05
4.079441e-05
2.9573186e-05
2.1439742e-05
1.5420774e-05
1.032575e-05
4.4948723e-06
0.0003008048
0.00028887248
0.00027769678
0.00026417375
0.00024651096
0.00022493359
0.00020102303
0.00017658228
0.00015282361
0.00013036621
0.00010953998
9.0596494e-05
7.3740294e-05
5.9090568e-05
4.6663087e-05
3.6386721e-05
2.8120126e-05
2.166536e-05
1.6779662e-05
1.3190184e-05
1.0607841e-05
8.7324155e-06
7.2409067e-06
5.7442274e-06
3.5304968e-06
0.00010566897
9.9088506e-05
9.2957989e-05
8.6380882e-05
7.8845241e-05
7.044959e-05
6.1704639e-05
5.3182395e-05
4.5267987e-05
3.8132475e-05
3.182494e-05
2.6351706e-05
2.1701079e-05
1.7839894e-05
1.4710843e-05
1.2237745e-05
1.0334e-05
8.9094784e-06
7.8737982e-06
7.1372319e-06
6.6087741e-06
6.1903846e-06
5.7718687e-06
5.2506184e-06
4.6482078e-06
3.3889266e-05
3.1296286e-05
2.8930489e-05
2.6575615e-05
2.41008e-05
2.1528764e-05
1.8985741e-05
1.6610479e-05
1.4491054e-05
1.2657464e-05
1.1104509e-05
9.8148018e-06
8.7675847e-06
7.9392406e-06
7.302868e-06
6.8293039e-06
6.4891537e-06
6.2543551e-06
6.098183e-06
5.9932276e-06
5.9059774e-06
5.7861034e-06
5.5536463e-06
5.1126542e-06
4.4515527e-06
1.1779749e-05
1.1000307e-05
1.0313709e-05
9.6736843e-06
9.0479338e-06
8.4372319e-06
7.8654253e-06
7.3589588e-06
6.9329336e-06
6.5892637e-06
6.3218342e-06
6.1218755e-06
5.9803352e-06
5.8882438e-06
5.8366125e-06
5.8165652e-06
5.8196563e-06
5.8379235e-06
5.8629917e-06
5.8829477e-06
5.873882e-06
5.7802094e-06
5.4772335e-06
4.717707e-06
3.0293369e-06
5.9597296e-06
5.8018336e-06
5.6803469e-06
5.5853041e-06
5.5080555e-06
5.44619e-06
5.402101e-06
5.3788605e-06
5.3774053e-06
5.396121e-06
5.4318717e-06
5.4811315e-06
5.5404977e-06
5.6067882e-06
5.677018e-06
5.7483928e-06
5.818276e-06
5.8838755e-06
5.9409701e-06
5.9798609e-06
5.9741672e-06
5.8541971e-06
5.4555972e-06
4.4517935e-06
2.3663792e-06
4.7323406e-06
4.7503502e-06
4.7854805e-06
4.834833e-06
4.8952819e-06
4.964751e-06
5.0421215e-06
5.1265016e-06
5.2167081e-06
5.3111742e-06
5.4081361e-06
5.5058393e-06
5.602658e-06
5.697097e-06
5.7877856e-06
5.8734549e-06
5.9528363e-06
6.0242357e-06
6.0840258e-06
6.1219538e-06
6.1084179e-06
5.9653074e-06
5.5135284e-06
4.4181242e-06
2.2694464e-06
4.6631446e-06
4.7220413e-06
4.7920594e-06
4.871676e-06
4.9591549e-06
5.0528879e-06
5.1514504e-06
5.2534996e-06
5.3576964e-06
5.4626941e-06
5.5671737e-06
5.6698724e-06
5.7696281e-06
5.8653685e-06
5.9561067e-06
6.0409161e-06
6.1188083e-06
6.1882567e-06
6.2455546e-06
6.2798383e-06
6.2600176e-06
6.1060867e-06
5.640512e-06
4.5449583e-06
2.4456572e-06
4.8614933e-06
4.9260979e-06
4.9998589e-06
5.0815947e-06
5.1699916e-06
5.2637138e-06
5.3614459e-06
5.4618995e-06
5.5638117e-06
5.6659567e-06
5.7671594e-06
5.8663029e-06
5.9623427e-06
6.0543155e-06
6.1413296e-06
6.2225362e-06
6.2969988e-06
6.363191e-06
6.4173053e-06
6.4482491e-06
6.4248643e-06
6.2686523e-06
5.8084029e-06
4.7376823e-06
2.6651907e-06
5.1188101e-06
5.1811908e-06
5.251864e-06
5.3297954e-06
5.4138554e-06
5.5028647e-06
5.5956259e-06
5.6909457e-06
5.787646e-06
5.8845796e-06
5.9806418e-06
6.074781e-06
6.166004e-06
6.2533902e-06
6.3360845e-06
6.4132665e-06
6.4840142e-06
6.5467915e-06
6.5977536e-06
6.6258214e-06
6.6002853e-06
6.4445434e-06
5.9920504e-06
4.9418914e-06
2.8766722e-06
5.3906797e-06
5.4494183e-06
5.5158806e-06
5.5891298e-06
5.6681512e-06
5.7518716e-06
5.8391928e-06
5.9290052e-06
6.0202062e-06
6.1117155e-06
6.2024861e-06
6.2915154e-06
6.3778545e-06
6.4606157e-06
6.5389718e-06
6.6121249e-06
6.6791656e-06
6.7385567e-06
6.7864463e-06
6.8118037e-06
6.7841861e-06
6.6274755e-06
6.174198e-06
5.114975e-06
3.0281468e-06
5.668526e-06
5.7235732e-06
5.7858663e-06
5.8545466e-06
5.9286859e-06
6.0072989e-06
6.089367e-06
6.1738577e-06
6.2597377e-06
6.3459883e-06
6.4316173e-06
6.515671e-06
6.5972425e-06
6.6754807e-06
6.7495864e-06
6.8187853e-06
6.8821831e-06
6.9382444e-06
6.9831002e-06
7.0056703e-06
6.9752983e-06
6.8146895e-06
6.351282e-06
5.2607807e-06
3.1250683e-06
5.9508641e-06
6.00241e-06
6.0607635e-06
6.1251348e-06
6.1946667e-06
6.2684495e-06
6.3455367e-06
6.4249634e-06
6.5057616e-06
6.586972e-06
6.6676559e-06
6.7469075e-06
6.8238625e-06
6.8977074e-06
6.9676744e-06
7.0330144e-06
7.0928491e-06
7.1456418e-06
7.1874752e-06
7.2070741e-06
7.173075e-06
7.0057883e-06
6.5257121e-06
5.3927129e-06
3.1645565e-06
6.2374429e-06
6.2856976e-06
6.3403485e-06
6.4006661e-06
6.465856e-06
6.5350745e-06
6.6074417e-06
6.6820554e-06
6.7580074e-06
6.8343947e-06
6.9103313e-06
6.984959e-06
7.0574561e-06
7.1270463e-06
7.1929956e-06
7.2545805e-06
7.3109398e-06
7.3605292e-06
7.3993495e-06
7.4158044e-06
7.3774896e-06
7.2018358e-06
6.7030325e-06
5.5319286e-06
3.2418174e-06
6.5281613e-06
6.5733204e-06
6.624486e-06
6.6809823e-06
6.7420726e-06
6.8069713e-06
6.8748595e-06
6.9448942e-06
7.0162232e-06
7.087997e-06
7.1593795e-06
7.2295597e-06
7.297758e-06
7.363236e-06
7.4252929e-06
7.4832325e-06
7.5362099e-06
7.5826681e-06
7.6185015e-06
7.6317154e-06
7.5887195e-06
7.4041208e-06
6.887313e-06
5.6849635e-06
3.3463731e-06
6.8228889e-06
6.8651308e-06
6.9130086e-06
6.9658954e-06
7.0231068e-06
7.0839116e-06
7.1475448e-06
7.2132194e-06
7.2801366e-06
7.3474972e-06
7.4145139e-06
7.4804201e-06
7.5444781e-06
7.6059872e-06
7.6642797e-06
7.7186871e-06
7.7683804e-06
7.8117872e-06
7.8446833e-06
7.8546424e-06
7.8068484e-06
7.61322e-06
7.0792807e-06
5.8501238e-06
3.484811e-06
7.1214385e-06
7.1609264e-06
7.2056972e-06
7.2551688e-06
7.3087048e-06
7.3656242e-06
7.4252125e-06
7.4867336e-06
7.5494393e-06
7.6125791e-06
7.6754116e-06
7.7372137e-06
7.7972884e-06
7.8549716e-06
7.9096287e-06
7.9606189e-06
8.0071293e-06
8.0475712e-06
8.0776006e-06
8.0843594e-06
8.0318223e-06
7.8292752e-06
7.278307e-06
6.020737e-06
3.6071126e-06
7.423559e-06
7.4604431e-06
7.5022741e-06
7.5485105e-06
7.59856e-06
7.6517884e-06
7.7075286e-06
7.7650916e-06
7.8237767e-06
7.88288e-06
7.9417042e-06
7.9995678e-06
8.0558132e-06
8.1098124e-06
8.1609634e-06
8.2086522e-06
8.2520825e-06
8.2896507e-06
8.3168992e-06
8.3205642e-06
8.2634763e-06
8.0523157e-06
7.4841308e-06
6.1949446e-06
3.7398613e-06
7.7289321e-06
7.7633518e-06
7.8023974e-06
7.8455659e-06
7.8923057e-06
7.9420257e-06
7.9941031e-06
8.0478935e-06
8.1027404e-06
8.157984e-06
8.2129694e-06
8.2670557e-06
8.3196229e-06
8.3700781e-06
8.4178508e-06
8.462354e-06
8.5028077e-06
8.5375945e-06
8.5621519e-06
8.562846e-06
8.5014547e-06
8.2821205e-06
7.6967451e-06
6.3731629e-06
3.8618906e-06
8.0371673e-06
8.0692518e-06
8.1056564e-06
8.1459132e-06
8.189509e-06
8.2358922e-06
8.2844819e-06
8.3346757e-06
8.385859e-06
8.4374132e-06
8.4887241e-06
8.5391894e-06
8.5882258e-06
8.6352746e-06
8.6797961e-06
8.7212288e-06
8.7588083e-06
8.7909035e-06
8.8128511e-06
8.8106685e-06
8.7451324e-06
8.5178062e-06
7.9144936e-06
6.5502181e-06
3.9596039e-06
8.3477962e-06
8.377666e-06
8.4115646e-06
8.4490566e-06
8.489664e-06
8.5328727e-06
8.5781406e-06
8.6249052e-06
8.6725916e-06
8.7206205e-06
8.7684158e-06
8.8154124e-06
8.8610625e-06
8.90484e-06
8.9462352e-06
8.9847114e-06
9.019518e-06
9.0490082e-06
9.068415e-06
9.0634089e-06
8.993783e-06
8.7585334e-06
8.1371975e-06
6.7316889e-06
4.0766099e-06
8.6602672e-06
8.6880353e-06
8.7195543e-06
8.7544196e-06
8.7921859e-06
8.8323741e-06
8.8744782e-06
8.9179734e-06
8.9623226e-06
9.0069837e-06
9.0514172e-06
9.0950934e-06
9.1374981e-06
9.1781371e-06
9.2165292e-06
9.2521616e-06
9.284296e-06
9.3112659e-06
9.3281934e-06
9.3203907e-06
9.2466619e-06
9.0034971e-06
8.3645965e-06
6.9209704e-06
4.1988489e-06
8.9739399e-06
8.9997128e-06
9.0289714e-06
9.0613404e-06
9.096405e-06
9.1337188e-06
9.1728102e-06
9.2131894e-06
9.2543549e-06
9.2958001e-06
9.3370206e-06
9.3775203e-06
9.4168174e-06
9.4544481e-06
9.4899586e-06
9.5228588e-06
9.552421e-06
9.5769554e-06
9.5914636e-06
9.580874e-06
9.5029422e-06
9.2515152e-06
8.5941503e-06
7.1099025e-06
4.3122625e-06
9.2880803e-06
9.3119587e-06
9.3390703e-06
9.3690666e-06
9.4015622e-06
9.4361412e-06
9.4723642e-06
9.5097746e-06
9.5479045e-06
9.586281e-06
9.6244328e-06
9.6618961e-06
9.6982201e-06
9.7329699e-06
9.7657184e-06
9.7959967e-06
9.8230863e-06
9.8452704e-06
9.8574197e-06
9.8440505e-06
9.7618003e-06
9.5017584e-06
8.8253121e-06
7.3000205e-06
4.4271087e-06
9.6018571e-06
9.6239369e-06
9.6490095e-06
9.6767515e-06
9.7068048e-06
9.7387827e-06
9.772276e-06
9.8068594e-06
9.8420968e-06
9.8775473e-06
9.9127708e-06
9.9473344e-06
9.9808168e-06
1.0012811e-05
1.0042915e-05
1.007068e-05
1.0095396e-05
1.0115314e-05
1.0125165e-05
1.010902e-05
1.0022342e-05
9.7534687e-06
9.0582995e-06
7.4966093e-06
4.5465822e-06
9.9143397e-06
9.9347126e-06
9.9578494e-06
9.9834507e-06
1.0011184e-05
1.0040689e-05
1.0071587e-05
1.010348e-05
1.0135964e-05
1.0168627e-05
1.0201059e-05
1.0232857e-05
1.0263626e-05
1.0292988e-05
1.0320564e-05
1.0345924e-05
1.0368363e-05
1.0386101e-05
1.0393711e-05
1.0374792e-05
1.0283554e-05
1.0005499e-05
9.2912721e-06
7.6946568e-06
4.7096943e-06
1.0224497e-05
1.0243251e-05
1.0264552e-05
1.0288121e-05
1.0313652e-05
1.034081e-05
1.0369242e-05
1.0398578e-05
1.0428443e-05
1.0458454e-05
1.0488228e-05
1.0517391e-05
1.0545575e-05
1.0572426e-05
1.0597587e-05
1.0620649e-05
1.064091e-05
1.0656552e-05
1.0661988e-05
1.0640319e-05
1.0544457e-05
1.0256973e-05
9.522935e-06
7.8876799e-06
4.8361111e-06
1.0531198e-05
1.0548418e-05
1.0567979e-05
1.0589624e-05
1.0613066e-05
1.0637998e-05
1.066409e-05
1.0691e-05
1.0718378e-05
1.0745868e-05
1.0773117e-05
1.0799774e-05
1.0825497e-05
1.0849956e-05
1.0872818e-05
1.0893687e-05
1.0911867e-05
1.09255e-05
1.0928831e-05
1.0904445e-05
1.0803902e-05
1.0506718e-05
9.7521332e-06
8.0766831e-06
4.9558593e-06
1.0833216e-05
1.0848986e-05
1.08669e-05
1.0886723e-05
1.0908189e-05
1.0931012e-05
1.0954888e-05
1.0979499e-05
1.100452e-05
1.1029621e-05
1.1054473e-05
1.1078751e-05
1.1102138e-05
1.1124324e-05
1.1144998e-05
1.1163781e-05
1.1179978e-05
1.1191688e-05
1.1192985e-05
1.1165921e-05
1.106064e-05
1.0753391e-05
9.9768965e-06
8.2572307e-06
5.0616454e-06
1.1129233e-05
1.1143632e-05
1.1159992e-05
1.1178094e-05
1.1197693e-05
1.1218525e-05
1.1240306e-05
1.1262744e-05
1.1285536e-05
1.1308376e-05
1.133096e-05
1.1352985e-05
1.1374157e-05
1.139419e-05
1.1412789e-05
1.1429591e-05
1.1443902e-05
1.145378e-05
1.1453125e-05
1.1423452e-05
1.1313478e-05
1.0996121e-05
1.0197301e-05
8.4322019e-06
5.1646716e-06
1.1417849e-05
1.1430957e-05
1.1445853e-05
1.1462333e-05
1.1480173e-05
1.1499128e-05
1.1518935e-05
1.1539323e-05
1.1560012e-05
1.158072e-05
1.1601163e-05
1.1621061e-05
1.1640142e-05
1.1658138e-05
1.1674775e-05
1.1689702e-05
1.1702227e-05
1.1710366e-05
1.1707853e-05
1.1675683e-05
1.1561202e-05
1.1234166e-05
1.0414518e-05
8.6098688e-06
5.260716e-06
1.169759e-05
1.1709487e-05
1.1723006e-05
1.1737964e-05
1.1754152e-05
1.1771343e-05
1.1789295e-05
1.1807757e-05
1.182647e-05
1.1845172e-05
1.1863601e-05
1.1881497e-05
1.1898609e-05
1.1914687e-05
1.1929475e-05
1.1942635e-05
1.1953474e-05
1.1959971e-05
1.19557e-05
1.1921165e-05
1.1802389e-05
1.1466037e-05
1.0625942e-05
8.7810484e-06
5.3675583e-06
1.1966926e-05
1.1977688e-05
1.1989921e-05
1.2003454e-05
1.2018096e-05
1.2033636e-05
1.2049852e-05
1.2066511e-05
1.2083373e-05
1.2100197e-05
1.2116739e-05
1.2132759e-05
1.2148025e-05
1.2162304e-05
1.2175356e-05
1.2186856e-05
1.2196111e-05
1.2201063e-05
1.2195135e-05
1.2158356e-05
1.2035459e-05
1.169e-05
1.0829578e-05
8.9458627e-06
5.4632208e-06
1.2224278e-05
1.2233984e-05
1.2245018e-05
1.2257224e-05
1.2270425e-05
1.2284428e-05
1.2299026e-05
1.2314005e-05
1.2329143e-05
1.2344215e-05
1.2358998e-05
1.2373269e-05
1.2386812e-05
1.2399413e-05
1.2410844e-05
1.2420793e-05
1.2428566e-05
1.2432069e-05
1.2424579e-05
1.2385657e-05
1.2258738e-05
1.1904123e-05
1.1022311e-05
9.0943212e-06
5.5642852e-06
1.2468021e-05
1.2476748e-05
1.2486671e-05
1.2497648e-05
1.2509515e-05
1.2522094e-05
1.2535194e-05
1.2548616e-05
1.2562156e-05
1.2575606e-05
1.2588758e-05
1.2601407e-05
1.2613353e-05
1.2624395e-05
1.2634322e-05
1.264283e-05
1.2649225e-05
1.2651377e-05
1.2642418e-05
1.2601457e-05
1.2470668e-05
1.2107232e-05
1.1205054e-05
9.2357656e-06
5.6444514e-06
1.2696429e-05
1.2704254e-05
1.2713155e-05
1.2723001e-05
1.273364e-05
1.2744908e-05
1.275663e-05
1.276862e-05
1.278069e-05
1.2792646e-05
1.2804298e-05
1.2815454e-05
1.2825928e-05
1.2835536e-05
1.2844076e-05
1.2851255e-05
1.2856377e-05
1.2857278e-05
1.2846951e-05
1.280408e-05
1.2669682e-05
1.2298172e-05
1.1377958e-05
9.3741125e-06
5.7370879e-06
1.2907392e-05
1.2914394e-05
1.2922362e-05
1.2931175e-05
1.2940694e-05
1.2950767e-05
1.296123e-05
1.2971914e-05
1.2982642e-05
1.2993237e-05
1.3003519e-05
1.3013312e-05
1.3022443e-05
1.3030739e-05
1.3038012e-05
1.3043976e-05
1.3047933e-05
1.3047686e-05
1.3036103e-05
1.2991477e-05
1.2853789e-05
1.2475024e-05
1.1538779e-05
9.503425e-06
5.8171074e-06
1.3097382e-05
1.3103641e-05
1.3110767e-05
1.3118648e-05
1.3127155e-05
1.3136147e-05
1.3145474e-05
1.3154978e-05
1.3164496e-05
1.3173862e-05
1.3182908e-05
1.3191468e-05
1.3199383e-05
1.3206493e-05
1.3212619e-05
1.3217483e-05
1.3220386e-05
1.32191e-05
1.320638e-05
1.3160175e-05
1.3019555e-05
1.2634372e-05
1.1684105e-05
9.6222893e-06
5.8976106e-06
1.3258078e-05
1.3263675e-05
1.3270052e-05
1.3277104e-05
1.328471e-05
1.3292738e-05
1.3301049e-05
1.3309499e-05
1.331794e-05
1.3326214e-05
1.333416e-05
1.334162e-05
1.3348446e-05
1.3354492e-05
1.3359592e-05
1.3363472e-05
1.3365432e-05
1.336322e-05
1.3349493e-05
1.3301907e-05
1.3158765e-05
1.2768114e-05
1.1805764e-05
9.7198779e-06
5.9567133e-06
1.3366668e-05
1.337169e-05
1.3377418e-05
1.3383752e-05
1.3390575e-05
1.3397758e-05
1.3405171e-05
1.3412692e-05
1.3420191e-05
1.3427518e-05
1.3434506e-05
1.3440997e-05
1.3446857e-05
1.3451957e-05
1.3456142e-05
1.3459144e-05
1.3460265e-05
1.345724e-05
1.3442651e-05
1.3393919e-05
1.324878e-05
1.2854087e-05
1.1883392e-05
9.7815347e-06
5.9928527e-06
1.3361444e-05
1.3365979e-05
1.3371168e-05
1.3376917e-05
1.3383104e-05
1.3389579e-05
1.3396211e-05
1.3402917e-05
1.3409607e-05
1.3416142e-05
1.3422326e-05
1.3427983e-05
1.3432993e-05
1.3437248e-05
1.34406e-05
1.3442787e-05
1.3443117e-05
1.3439363e-05
1.3424075e-05
1.3374514e-05
1.3228147e-05
1.2831712e-05
1.1859487e-05
9.7588535e-06
5.9778431e-06
1.3089204e-05
1.3093318e-05
1.3098091e-05
1.3103445e-05
1.310927e-05
1.311528e-05
1.3121268e-05
1.3127264e-05
1.3133257e-05
1.3139155e-05
1.3144697e-05
1.3149654e-05
1.3153916e-05
1.3157389e-05
1.3159902e-05
1.3161168e-05
1.3160516e-05
1.3155969e-05
1.3140185e-05
1.3090415e-05
1.2944533e-05
1.2551579e-05
1.1593374e-05
9.5340283e-06
5.8405444e-06
1.2214391e-05
1.2218001e-05
1.2222454e-05
1.2227773e-05
1.2234028e-05
1.2240217e-05
1.2245865e-05
1.2251447e-05
1.2256818e-05
1.2262163e-05
1.2267169e-05
1.2271515e-05
1.2275086e-05
1.2277755e-05
1.227922e-05
1.2279015e-05
1.2276494e-05
1.2270668e-05
1.2254685e-05
1.2206261e-05
1.2065512e-05
1.1689622e-05
1.0783231e-05
8.858063e-06
5.4329382e-06
1.0124701e-05
1.0127103e-05
1.0131151e-05
1.0137168e-05
1.0146183e-05
1.0154055e-05
1.016028e-05
1.0167537e-05
1.0172935e-05
1.0177561e-05
1.0181861e-05
1.0185475e-05
1.0188264e-05
1.0189985e-05
1.0189998e-05
1.0187173e-05
1.0181061e-05
1.0173141e-05
1.0157832e-05
1.0114811e-05
9.9913241e-06
9.6657467e-06
8.8952607e-06
7.2936859e-06
4.4889971e-06
6.0620859e-06
6.0617337e-06
6.0646568e-06
6.0714536e-06
6.0851054e-06
6.0949437e-06
6.1029371e-06
6.119e-06
6.1491761e-06
6.1528109e-06
6.1556259e-06
6.1579178e-06
6.1595642e-06
6.1602445e-06
6.158944e-06
6.1287958e-06
6.1199988e-06
6.1116425e-06
6.1003458e-06
6.0719868e-06
5.9920399e-06
5.7847058e-06
5.3072696e-06
4.3510356e-06
2.7468977e-06
)
;

boundaryField
{
    Walls
    {
        type            kqRWallFunction;
        value           nonuniform List<scalar> 
38
(
4.9122916e-06
1.9241245e-06
7.355111e-06
3.7830863e-05
0.00028440754
0.002362687
0.05634574
0.06096825
0.018457675
0.027474134
0.034533254
0.041575138
0.047547918
0.052240975
0.056148334
0.059118986
0.061848613
0.064098841
0.066095853
0.06792676
0.068868469
0.069906068
0.070786321
0.071151539
0.071887604
0.072440263
0.072274892
0.072520549
0.073075522
0.072621908
0.072839967
0.072773628
0.072791363
0.072892373
0.072854161
0.072664305
0.071814829
0.066791401
)
;
    }
    Inlet
    {
        type            turbulentIntensityKineticEnergyInlet;
        intensity       0.05;
        value           nonuniform List<scalar> 3(0.0083545806 0.0081951082 0.0095884709);
    }
    Outlet
    {
        type            inletOutlet;
        inletValue      uniform 0;
        value           nonuniform List<scalar> 
86
(
0
0
0
0
0
0
0
0
0
0
0
0
0
0
0
0
0
0
0
0
0
0
0
0
0
0
0
0
0
0
0.0010379825
0.000936159
0.00042120088
0
0
0
0
4.6482078e-06
4.4515527e-06
0
0
0
0
0
0
0
3.1250683e-06
3.1645565e-06
3.2418174e-06
3.3463731e-06
3.484811e-06
3.6071126e-06
3.7398613e-06
3.8618906e-06
3.9596039e-06
4.0766099e-06
4.1988489e-06
4.3122625e-06
4.4271087e-06
0
0
0
0
0
0
0
0
0
0
0
0
0
0
0
0
0
0
0
0
0
0
0
0
0
0.00038615911
0.00090927659
)
;
    }
    Front
    {
        type            wedge;
    }
    Back
    {
        type            wedge;
    }
    defaultFaces
    {
        type            empty;
    }
}


// ************************************************************************* //
