/*--------------------------------*- C++ -*----------------------------------*\
| =========                 |                                                 |
| \\      /  F ield         | OpenFOAM: The Open Source CFD Toolbox           |
|  \\    /   O peration     | Version:  4.0                                   |
|   \\  /    A nd           | Web:      www.OpenFOAM.org                      |
|    \\/     M anipulation  |                                                 |
\*---------------------------------------------------------------------------*/
FoamFile
{
    version     2.0;
    format      ascii;
    class       volVectorField;
    location    "0.07";
    object      U;
}
// * * * * * * * * * * * * * * * * * * * * * * * * * * * * * * * * * * * * * //

dimensions      [0 1 -1 0 0 0 0];

internalField   nonuniform List<vector> 
1740
(
(1.4902942 -0.0059169707 4.5239284e-06)
(1.4840714 -0.010296501 6.7133497e-07)
(1.600117 -0.0036736837 3.4940422e-08)
(1.5477121 -0.019363707 8.0827094e-06)
(1.5002181 -0.03035824 1.6816449e-06)
(1.6126839 -0.01717759 3.0941659e-07)
(1.6029839 -0.00042349781 1.0542346e-05)
(1.4865718 -0.016748915 2.4825047e-06)
(1.4929269 -0.015625235 4.552148e-07)
(1.544087 0.027669008 1.3232234e-05)
(1.5712274 0.013780546 3.2410202e-06)
(1.5805606 -0.0047915462 5.4859312e-07)
(1.4398208 0.013463688 1.4839356e-05)
(1.5720995 0.023784358 4.2834758e-06)
(1.5716463 0.0080357275 7.9770315e-07)
(1.4569487 0.0016560205 1.6114006e-05)
(1.470632 0.0025860686 5.0545134e-06)
(1.5720679 -0.0023881521 9.4982341e-07)
(1.4589797 0.0053831452 1.6982077e-05)
(1.5841308 -0.019707329 5.5349302e-06)
(1.5830535 -0.018713028 1.1457196e-06)
(1.4685741 -0.0097887953 1.7547027e-05)
(1.5914244 -0.0077564986 6.4151417e-06)
(1.5242 -0.0049685804 1.3080204e-06)
(1.4940391 -0.018781849 1.8278112e-05)
(1.5017639 0.0096218311 6.9439621e-06)
(1.5382728 0.0096850749 1.4930884e-06)
(1.5898665 -0.010947705 1.9260183e-05)
(1.502314 0.0113048 7.673667e-06)
(1.613044 0.010353314 1.7284851e-06)
(1.5765155 0.0054389594 1.9590746e-05)
(1.4829248 0.010780139 8.3047235e-06)
(1.6010194 0.0068340044 1.914189e-06)
(1.4929871 0.012188004 1.9622913e-05)
(1.4858432 0.0038834591 8.7108139e-06)
(1.5855064 -0.0055022677 2.1228651e-06)
(1.5072625 -0.0044750464 2.0036859e-05)
(1.4975537 -0.012244224 9.4595381e-06)
(1.5917135 -0.011360595 2.3334861e-06)
(1.5167044 -0.010460649 2.0581206e-05)
(1.5189357 -0.014986821 9.9489188e-06)
(1.5309341 -0.0072482703 2.5011268e-06)
(1.5270975 -0.00860516 2.0601849e-05)
(1.544405 -0.008987925 1.0368401e-05)
(1.5472968 -0.0067504161 2.7078695e-06)
(1.5533439 -0.016945447 2.0852293e-05)
(1.5738285 -0.013619207 1.0937798e-05)
(1.5318626 -0.0019694186 2.8789497e-06)
(1.6349522 -0.0086205028 2.0887141e-05)
(1.5426044 0.0041785373 1.1331229e-05)
(1.5112223 0.0045198392 3.1101419e-06)
(1.5621802 0.023977989 2.0715451e-05)
(1.5625813 0.0037268144 1.1561635e-05)
(1.555204 -0.0072072153 3.2662711e-06)
(1.5329365 0.013890928 2.0782492e-05)
(1.654549 0.0051468933 1.2219904e-05)
(1.5219545 -0.0040888597 3.4747513e-06)
(1.5447009 -0.003275192 2.1192183e-05)
(1.5524387 0.016083232 1.2576042e-05)
(1.5532215 0.012112955 3.5935852e-06)
(1.5222875 0.0010507133 2.1493429e-05)
(1.5214302 -0.0043847671 1.2980099e-05)
(1.5895541 -0.00060052174 3.8216594e-06)
(1.5537892 -0.00094590776 2.2102188e-05)
(1.5425442 -0.01771394 1.333776e-05)
(1.5046042 -0.010830666 3.9544216e-06)
(1.5229104 -0.015604681 2.2409443e-05)
(1.5595529 -0.0074679519 1.3656653e-05)
(1.5272586 -0.0041816952 4.1284174e-06)
(1.6198963 -0.033199826 2.265884e-05)
(1.5599544 -0.014758906 1.3940993e-05)
(1.5316399 0.0030443568 4.3008828e-06)
(1.7169716 -0.021029772 2.2519258e-05)
(1.5079858 -0.0094862362 1.4201224e-05)
(1.5245851 0.0063159806 4.427809e-06)
(1.7120978 0.020274864 2.2320298e-05)
(1.4972406 0.022437752 1.4361382e-05)
(1.5016877 0.010577964 4.5846027e-06)
(1.58703 0.035098424 2.2607788e-05)
(1.4844944 0.022712621 1.4681415e-05)
(1.5654854 0.0019472938 4.7013872e-06)
(1.4546117 0.016190833 2.2925736e-05)
(1.4901595 -0.012743267 1.4975501e-05)
(1.5432662 -0.016558837 4.8606766e-06)
(1.385753 0.0016833713 2.246696e-05)
(1.5345437 -0.022123124 1.5133156e-05)
(1.42856 -0.0080344183 4.8821638e-06)
(1.25851 0.025555523 2.3419829e-05)
(1.3591539 0.10160603 1.5720558e-05)
(1.3470592 0.06040116 5.4905065e-06)
(0.82306038 0.36197242 1.1712368e-05)
(0.8054961 0.93826615 9.9624339e-06)
(0.74019925 1.2523178 5.3929021e-06)
(0.21253418 0.11006368 1.4958079e-06)
(0.18726762 0.3663783 3.0591571e-06)
(0.082180538 0.50043516 6.8276913e-07)
(-0.0340791 -0.014722256 1.249504e-06)
(-0.029709786 -0.029511636 1.7449799e-06)
(-0.022299678 -0.034834271 6.7689126e-07)
(-0.0088726929 -0.003518551 4.9235108e-07)
(-0.0080495802 -0.0085918228 8.2302708e-07)
(-0.0073353469 -0.011611206 4.6232474e-07)
(-0.0012574952 -0.00044767057 1.5001694e-07)
(-0.0011772919 -0.0012302059 3.1723196e-07)
(-0.0013570074 -0.0019457042 2.2279036e-07)
(-0.00036682096 -4.9269727e-05 4.0002573e-08)
(-0.00033194774 -8.92958e-05 1.0566076e-07)
(-0.00036866622 -0.00020839552 8.4529365e-08)
(-0.00030850387 1.4601315e-05 6.2136004e-09)
(-0.00029524772 5.3959177e-05 2.7115511e-08)
(-0.00028526786 9.0580159e-05 2.3431525e-08)
(-0.0003282307 -4.989917e-06 -1.2737382e-09)
(-0.00032713477 8.5620665e-06 3.5881657e-09)
(-0.00031543793 2.4487842e-05 3.0413912e-09)
(-0.00030388854 -2.1912838e-05 -1.3079537e-09)
(-0.00030655073 -4.2776013e-05 -6.4762936e-10)
(-0.00030705114 -6.5996708e-05 -8.660833e-10)
(-0.0002469576 -2.827696e-05 -2.3837683e-10)
(-0.00024775723 -6.3700924e-05 -8.4956749e-11)
(-0.00024460276 -0.00010323104 -3.3119148e-10)
(-0.00018460575 -2.4202366e-05 2.1660155e-10)
(-0.00018435009 -5.3932129e-05 4.8514332e-10)
(-0.00018104018 -8.6044596e-05 3.1854503e-10)
(-0.00013512259 -1.5810214e-05 1.4397086e-10)
(-0.00013496181 -3.570912e-05 4.7655613e-10)
(-0.00013226966 -5.7818082e-05 4.4103977e-10)
(-0.00010106359 -9.6555806e-06 -2.1390477e-11)
(-0.00010073437 -2.1476603e-05 2.3693151e-10)
(-9.873119e-05 -3.4892778e-05 2.774734e-10)
(-7.8439709e-05 -5.6966921e-06 -1.6271146e-10)
(-7.8044739e-05 -1.2440367e-05 7.597533e-12)
(-7.639501e-05 -2.0527678e-05 8.0795788e-11)
(-6.3202188e-05 -3.834214e-06 -2.1101838e-10)
(-6.2800428e-05 -7.7521102e-06 -1.1201752e-10)
(-6.134286e-05 -1.3279425e-05 -3.6459598e-11)
(-5.2298409e-05 -2.9950183e-06 -1.9215609e-10)
(-5.1914004e-05 -5.8985243e-06 -1.2959611e-10)
(-5.0609589e-05 -9.8501081e-06 -7.1471199e-11)
(-4.405786e-05 -2.4448551e-06 -1.5484874e-10)
(-4.3698647e-05 -4.8949653e-06 -1.0515036e-10)
(-4.2556757e-05 -7.8932793e-06 -6.2946996e-11)
(-3.7707667e-05 -1.988182e-06 -1.2040332e-10)
(-3.7386604e-05 -4.0393255e-06 -7.4153038e-11)
(-3.6399371e-05 -6.5932607e-06 -4.0074101e-11)
(-3.286449e-05 -1.5348698e-06 -9.7993837e-11)
(-3.2585119e-05 -3.0752641e-06 -5.3433629e-11)
(-3.1740264e-05 -5.0614471e-06 -2.2677708e-11)
(-2.9261839e-05 -1.1458886e-06 -8.262947e-11)
(-2.9023836e-05 -2.2160006e-06 -4.2100006e-11)
(-2.8302841e-05 -3.6684388e-06 -1.3477132e-11)
(-2.6664628e-05 -8.2815934e-07 -7.2815854e-11)
(-2.6465586e-05 -1.5109165e-06 -3.900756e-11)
(-2.585104e-05 -2.512392e-06 -1.173053e-11)
(-2.4857113e-05 -5.7777499e-07 -6.698799e-11)
(-2.4693671e-05 -9.6036855e-07 -4.1171199e-11)
(-2.4169871e-05 -1.6092903e-06 -1.5175335e-11)
(-2.3641417e-05 -4.0235074e-07 -6.1721446e-11)
(-2.3509564e-05 -5.8485692e-07 -4.3243169e-11)
(-2.3061816e-05 -9.9359666e-07 -1.9306255e-11)
(-2.2842267e-05 -2.914878e-07 -5.6216323e-11)
(-2.273772e-05 -3.6384874e-07 -4.2945207e-11)
(-2.2353187e-05 -6.4253781e-07 -2.1480508e-11)
(-2.2315437e-05 -2.0990761e-07 -5.2055717e-11)
(-2.2233502e-05 -2.1103375e-07 -4.1395917e-11)
(-2.1900156e-05 -4.1026666e-07 -2.1895684e-11)
(-2.1948322e-05 -1.5078526e-07 -4.8007625e-11)
(-2.1884566e-05 -1.1173091e-07 -3.8525925e-11)
(-2.1591677e-05 -2.1960405e-07 -2.119485e-11)
(-2.1651564e-05 -1.5276413e-07 -4.3032847e-11)
(-2.1602616e-05 -1.1994428e-07 -3.4764848e-11)
(-2.1341997e-05 -2.3111531e-07 -1.9295129e-11)
(-2.1358471e-05 -1.5495435e-07 -3.9997538e-11)
(-2.1321542e-05 -1.5367392e-07 -3.206489e-11)
(-2.1087201e-05 -2.7189538e-07 -1.8188378e-11)
(-2.1025335e-05 -1.6693996e-07 -3.8043517e-11)
(-2.0997798e-05 -2.0389967e-07 -3.0237375e-11)
(-2.0784724e-05 -3.5520742e-07 -1.7305413e-11)
(-2.0625281e-05 -1.8804289e-07 -3.6480463e-11)
(-2.0604952e-05 -2.6989326e-07 -2.8788623e-11)
(-2.040915e-05 -4.6331189e-07 -1.6574167e-11)
(-2.0143976e-05 -2.1174038e-07 -3.5326576e-11)
(-2.0129177e-05 -3.4012406e-07 -2.7659401e-11)
(-1.9947856e-05 -5.7700673e-07 -1.6036947e-11)
(-1.9575607e-05 -2.363127e-07 -3.4371107e-11)
(-1.9564972e-05 -4.1367678e-07 -2.6568055e-11)
(-1.9395932e-05 -6.9565396e-07 -1.5502447e-11)
(-1.8920492e-05 -2.5996803e-07 -3.3632702e-11)
(-1.8912746e-05 -4.8652858e-07 -2.5662223e-11)
(-1.8754222e-05 -8.133681e-07 -1.5059326e-11)
(-1.8184485e-05 -2.8639134e-07 -3.3026829e-11)
(-1.8178631e-05 -5.5469672e-07 -2.4941899e-11)
(-1.8029381e-05 -9.2180686e-07 -1.4730175e-11)
(-1.7378652e-05 -3.0833817e-07 -3.2468644e-11)
(-1.737408e-05 -6.1467173e-07 -2.4268202e-11)
(-1.7233391e-05 -1.0171901e-06 -1.4497724e-11)
(-1.65174e-05 -3.244818e-07 -3.1913723e-11)
(-1.6513646e-05 -6.6277791e-07 -2.3572138e-11)
(-1.6381071e-05 -1.0932796e-06 -1.4299964e-11)
(-1.5616898e-05 -3.3400587e-07 -3.1406518e-11)
(-1.5613558e-05 -6.9560878e-07 -2.2909414e-11)
(-1.548868e-05 -1.1457207e-06 -1.4075486e-11)
(-1.4694716e-05 -3.364782e-07 -3.095438e-11)
(-1.469138e-05 -7.1219642e-07 -2.2304387e-11)
(-1.4573797e-05 -1.1727727e-06 -1.3855333e-11)
(-1.3768753e-05 -3.319854e-07 -3.0563209e-11)
(-1.3765231e-05 -7.1340005e-07 -2.1764696e-11)
(-1.3654398e-05 -1.1725827e-06 -1.366757e-11)
(-1.285589e-05 -3.2270953e-07 -3.0196917e-11)
(-1.2853011e-05 -6.9776786e-07 -2.126048e-11)
(-1.2748216e-05 -1.1462502e-06 -1.347904e-11)
(-1.1974106e-05 -3.0872391e-07 -2.9880659e-11)
(-1.1971476e-05 -6.6962467e-07 -2.081049e-11)
(-1.187246e-05 -1.0989507e-06 -1.3302217e-11)
(-1.1139638e-05 -2.8865476e-07 -2.9699081e-11)
(-1.1136156e-05 -6.2820462e-07 -2.0529219e-11)
(-1.1042763e-05 -1.0301693e-06 -1.3225554e-11)
(-1.0364938e-05 -2.635223e-07 -2.963624e-11)
(-1.036082e-05 -5.7490824e-07 -2.0410704e-11)
(-1.0272577e-05 -9.4223538e-07 -1.3261094e-11)
(-9.6614351e-06 -2.3448703e-07 -2.9620109e-11)
(-9.6568584e-06 -5.1250071e-07 -2.0366685e-11)
(-9.5733334e-06 -8.3949029e-07 -1.335422e-11)
(-9.0392866e-06 -2.0242837e-07 -2.9610035e-11)
(-9.0343785e-06 -4.4272406e-07 -2.036469e-11)
(-8.9551141e-06 -7.2380043e-07 -1.3495095e-11)
(-8.5088358e-06 -1.6684476e-07 -2.9757695e-11)
(-8.5036985e-06 -3.6414706e-07 -2.0560716e-11)
(-8.4281476e-06 -5.9438987e-07 -1.3743764e-11)
(-8.0833122e-06 -1.285123e-07 -3.0017338e-11)
(-8.0780318e-06 -2.78832e-07 -2.0884596e-11)
(-8.0055129e-06 -4.5461697e-07 -1.4031076e-11)
(-7.7759878e-06 -8.7098954e-08 -3.0275075e-11)
(-7.7706271e-06 -1.86634e-07 -2.104332e-11)
(-7.7003058e-06 -3.0478826e-07 -1.4083373e-11)
(-7.6177264e-06 -4.3804311e-08 -3.0001909e-11)
(-7.6122723e-06 -9.302197e-08 -1.9976768e-11)
(-7.5430018e-06 -1.5502317e-07 -1.3017558e-11)
(-7.6032854e-06 -6.0989409e-09 -2.7599841e-11)
(-7.5978704e-06 -1.0761783e-08 -1.5479359e-11)
(-7.5286586e-06 -2.0692691e-08 -9.2919254e-12)
(-0.047598174 1.9474632 -3.7847657e-07)
(-0.033467204 1.6956098 -3.4697051e-06)
(-0.064113914 0.34164086 -2.539959e-07)
(-0.044364648 0.15094692 -9.8175406e-07)
(-0.017336969 -0.043136797 -6.6018022e-08)
(-0.013001191 -0.045181621 -4.6353246e-07)
(-0.0065213113 -0.014642706 6.9373001e-08)
(-0.0057812361 -0.016466162 -1.8271464e-07)
(-0.0014509227 -0.0030150562 5.6954486e-08)
(-0.0014991296 -0.0040782692 -7.4017073e-08)
(-0.00037263634 -0.00037150727 2.2163045e-08)
(-0.000292783 -0.0005389641 -3.5602696e-08)
(-0.00024870311 0.00013430539 2.4241692e-09)
(-0.00017582442 0.00018002833 -1.9334664e-08)
(-0.00028090201 6.1241282e-05 -3.1009838e-09)
(-0.00022619668 9.9909829e-05 -9.931317e-09)
(-0.00029142934 -8.2390646e-05 -2.4638872e-09)
(-0.00025495461 -8.9235701e-05 -4.2567512e-09)
(-0.00023449829 -0.00013613805 -8.3786334e-10)
(-0.00021343491 -0.00016316181 -1.3120105e-09)
(-0.00017310089 -0.00011555878 9.1898789e-11)
(-0.0001597378 -0.00014095831 -8.4366134e-11)
(-0.00012667193 -7.946105e-05 3.3628021e-10)
(-0.00011800787 -9.8631331e-05 2.4520033e-10)
(-9.4810636e-05 -4.7684144e-05 2.5039361e-10)
(-8.8839562e-05 -6.0409862e-05 2.1415843e-10)
(-7.3335843e-05 -2.7770684e-05 1.0066299e-10)
(-6.8894298e-05 -3.5268778e-05 1.011085e-10)
(-5.8860724e-05 -1.805632e-05 2.2577377e-12)
(-5.5374526e-05 -2.238706e-05 2.0068676e-11)
(-4.8542489e-05 -1.3497326e-05 -3.3032522e-11)
(-4.5722671e-05 -1.677533e-05 -1.0951056e-11)
(-4.0807438e-05 -1.1044996e-05 -3.0316129e-11)
(-3.8498941e-05 -1.3799549e-05 -1.0788932e-11)
(-3.4918805e-05 -8.862318e-06 -1.5759624e-11)
(-3.3009474e-05 -1.0993241e-05 -9.7020071e-13)
(-3.0490095e-05 -6.65611e-06 -4.0936371e-12)
(-2.8892629e-05 -8.4276028e-06 7.6149963e-12)
(-2.7243636e-05 -4.8506418e-06 2.0352937e-12)
(-2.5901406e-05 -5.989517e-06 1.1221783e-11)
(-2.4953285e-05 -3.2991367e-06 2.8073461e-12)
(-2.3823036e-05 -3.9009664e-06 1.03732e-11)
(-2.3407165e-05 -2.0945251e-06 -5.5047456e-13)
(-2.2449571e-05 -2.4762766e-06 7.0938353e-12)
(-2.2410061e-05 -1.2532207e-06 -4.8774996e-12)
(-2.1593127e-05 -1.4353772e-06 3.0064263e-12)
(-2.1792154e-05 -7.799442e-07 -7.7616846e-12)
(-2.108841e-05 -8.3932793e-07 -4.8449851e-14)
(-2.1412367e-05 -5.0458678e-07 -8.9977982e-12)
(-2.0798437e-05 -5.1794349e-07 -1.6495833e-12)
(-2.1161094e-05 -3.0353176e-07 -9.1675095e-12)
(-2.061804e-05 -3.5072552e-07 -2.178383e-12)
(-2.0956626e-05 -2.836988e-07 -8.5972771e-12)
(-2.0469086e-05 -2.9578504e-07 -2.3019738e-12)
(-2.0738683e-05 -3.5009435e-07 -8.3583796e-12)
(-2.0295086e-05 -4.0743228e-07 -2.423674e-12)
(-2.0465589e-05 -4.8327368e-07 -8.0936226e-12)
(-2.0057395e-05 -5.9103886e-07 -2.5003198e-12)
(-2.0114105e-05 -6.3220842e-07 -7.9154204e-12)
(-1.9735031e-05 -7.7989408e-07 -2.6463899e-12)
(-1.967308e-05 -7.8665152e-07 -7.8603467e-12)
(-1.93185e-05 -9.8410268e-07 -2.8736476e-12)
(-1.9138347e-05 -9.5107985e-07 -7.7618375e-12)
(-1.8804459e-05 -1.2050123e-06 -3.0438489e-12)
(-1.8511451e-05 -1.1174807e-06 -7.626158e-12)
(-1.8195483e-05 -1.4191797e-06 -3.1252083e-12)
(-1.7799887e-05 -1.2722592e-06 -7.5253434e-12)
(-1.7500057e-05 -1.6114144e-06 -3.1974762e-12)
(-1.7016414e-05 -1.4063915e-06 -7.5432289e-12)
(-1.673203e-05 -1.7841212e-06 -3.3412407e-12)
(-1.6176182e-05 -1.5132507e-06 -7.6406298e-12)
(-1.5907207e-05 -1.9278006e-06 -3.5500538e-12)
(-1.5295393e-05 -1.5855956e-06 -7.7203885e-12)
(-1.5041697e-05 -2.0296473e-06 -3.7699968e-12)
(-1.439146e-05 -1.6245269e-06 -7.769327e-12)
(-1.4152103e-05 -2.0672901e-06 -3.9671551e-12)
(-1.3482303e-05 -1.6209831e-06 -7.8144376e-12)
(-1.3255904e-05 -2.0612413e-06 -4.1356045e-12)
(-1.2585826e-05 -1.5859894e-06 -7.8349042e-12)
(-1.2371566e-05 -2.0181093e-06 -4.261876e-12)
(-1.1719148e-05 -1.5216875e-06 -7.8447194e-12)
(-1.151653e-05 -1.9374713e-06 -4.3646315e-12)
(-1.0897922e-05 -1.4269159e-06 -7.9100441e-12)
(-1.0706452e-05 -1.8174972e-06 -4.5006405e-12)
(-1.013575e-05 -1.3055991e-06 -8.0441873e-12)
(-9.9548744e-06 -1.6634229e-06 -4.6808258e-12)
(-9.4439446e-06 -1.1632152e-06 -8.2158554e-12)
(-9.2729445e-06 -1.4817446e-06 -4.885107e-12)
(-8.8324559e-06 -1.0020171e-06 -8.4200695e-12)
(-8.6703893e-06 -1.2753246e-06 -5.108585e-12)
(-8.3113407e-06 -8.221339e-07 -8.6793505e-12)
(-8.1570151e-06 -1.0453208e-06 -5.3618605e-12)
(-7.8934576e-06 -6.2815956e-07 -8.9406475e-12)
(-7.745397e-06 -7.9809108e-07 -5.6082616e-12)
(-7.59166e-06 -4.2181371e-07 -8.9996852e-12)
(-7.4480954e-06 -5.3838e-07 -5.7046868e-12)
(-7.4360348e-06 -2.1539694e-07 -8.2521924e-12)
(-7.2947069e-06 -2.7521605e-07 -5.2703581e-12)
(-7.4217961e-06 -2.9352369e-08 -5.7230283e-12)
(-7.2805885e-06 -3.7211128e-08 -3.6494099e-12)
(0.0012076847 -1.3065282e-06 -1.1434208e-08)
(0.0011639555 -4.6308434e-05 -2.5711882e-08)
(0.0010931963 -3.8434818e-05 -3.371126e-08)
(0.0010120364 -5.0604645e-05 -3.6475401e-08)
(0.00092665328 -4.4194769e-05 -3.5340049e-08)
(0.00084146175 -4.5571045e-05 -3.1822141e-08)
(0.00076072667 -4.587584e-05 -2.735082e-08)
(0.00068851388 -5.4306209e-05 -2.285089e-08)
(0.0006252606 -6.9740382e-05 -1.8718013e-08)
(0.00057106623 -9.1541523e-05 -1.5062347e-08)
(0.0005249624 -0.00011757556 -1.1868321e-08)
(0.00048515179 -0.00014875826 -9.1525032e-09)
(0.00044868204 -0.00018138394 -6.8857809e-09)
(0.00041398505 -0.00020975774 -5.0081097e-09)
(0.00038046948 -0.00023457941 -3.4731551e-09)
(0.00034745311 -0.0002564937 -2.2457061e-09)
(0.00031409193 -0.00027619112 -1.2943264e-09)
(0.00027966344 -0.00029279528 -5.7991027e-10)
(0.00024405906 -0.0003050035 -6.0535425e-11)
(0.00020738254 -0.00031332545 2.9524538e-10)
(0.00016985885 -0.00031784944 5.1761769e-10)
(0.00013179601 -0.00031881288 6.2474684e-10)
(9.3555611e-05 -0.00031709489 6.210259e-10)
(5.5472645e-05 -0.00031218415 5.0886361e-10)
(1.7721787e-05 -0.00030004683 3.2760253e-10)
(0.000170513 -9.6155517e-05 -2.3571799e-08)
(0.00016406602 -0.00039948082 -5.20487e-08)
(0.00016034692 -0.00056293053 -6.7745104e-08)
(0.00016156121 -0.00082281673 -7.292068e-08)
(0.00017154234 -0.0010315788 -7.0549461e-08)
(0.00019055276 -0.001271159 -6.4155064e-08)
(0.00021594345 -0.001505204 -5.632448e-08)
(0.000240705 -0.0017381039 -4.8486502e-08)
(0.00026011465 -0.0019750641 -4.1106968e-08)
(0.00026936682 -0.0022137486 -3.4372865e-08)
(0.0002687529 -0.0024364217 -2.82554e-08)
(0.00026037942 -0.0026366193 -2.2881594e-08)
(0.00024832794 -0.00281359 -1.8219044e-08)
(0.00023328215 -0.0029688347 -1.4153281e-08)
(0.00021440089 -0.0031008016 -1.0643457e-08)
(0.00019247989 -0.0032078495 -7.6768955e-09)
(0.00016924907 -0.0032895743 -5.249903e-09)
(0.00014664768 -0.0033477037 -3.3109275e-09)
(0.00012458877 -0.0033839385 -1.7973862e-09)
(0.00010317348 -0.0033985719 -6.7533783e-10)
(8.2508122e-05 -0.0033924016 1.131308e-10)
(6.2659443e-05 -0.0033667581 6.0697219e-10)
(4.3622565e-05 -0.0033259166 8.1966926e-10)
(2.5179436e-05 -0.0032600342 7.5396689e-10)
(7.1858225e-06 -0.0031220665 3.8803087e-10)
(0.0010625163 -0.00042484341 -5.5810287e-08)
(0.0010690045 -0.0018251457 -1.1920788e-07)
(0.0010885978 -0.0024799175 -1.5064638e-07)
(0.0011228878 -0.0034725339 -1.5694882e-07)
(0.0011562677 -0.0042735876 -1.490255e-07)
(0.0011761017 -0.0050780106 -1.3572685e-07)
(0.001174581 -0.0058409812 -1.2114924e-07)
(0.0011493744 -0.0065905369 -1.0719726e-07)
(0.0011040199 -0.0074194782 -9.3843604e-08)
(0.0010442292 -0.0083076847 -8.1417976e-08)
(0.00097358789 -0.0090992428 -6.9793653e-08)
(0.00089670286 -0.0097652151 -5.9360637e-08)
(0.00081441683 -0.010304413 -5.0031561e-08)
(0.00073057362 -0.010727128 -4.1450058e-08)
(0.00064819309 -0.011040272 -3.3587554e-08)
(0.00056799058 -0.011251835 -2.649261e-08)
(0.00049066947 -0.011369189 -2.0306713e-08)
(0.00041657701 -0.011401778 -1.4989223e-08)
(0.00034683558 -0.011359654 -1.0460147e-08)
(0.00028186096 -0.011251384 -6.8101681e-09)
(0.00022166402 -0.011087323 -3.9774945e-09)
(0.00016598118 -0.010878717 -1.9099346e-09)
(0.00011433491 -0.010643767 -6.0073888e-10)
(6.5839062e-05 -0.010339221 8.9117302e-11)
(2.0077986e-05 -0.0098849506 1.6036524e-10)
(0.0039937287 -0.0012198213 -1.3207049e-07)
(0.0039525362 -0.005268564 -2.613143e-07)
(0.0038670152 -0.0068863341 -3.0890117e-07)
(0.0036612654 -0.010380394 -3.0510979e-07)
(0.0034253408 -0.013537384 -2.8220342e-07)
(0.0031493119 -0.016325652 -2.5632478e-07)
(0.0028520545 -0.018369062 -2.3119396e-07)
(0.0025556931 -0.019758028 -2.0929971e-07)
(0.0022709327 -0.020418397 -1.8838466e-07)
(0.0020037565 -0.020564492 -1.6879871e-07)
(0.001753025 -0.020371073 -1.49844e-07)
(0.0015284891 -0.019953996 -1.3270713e-07)
(0.0013234455 -0.019385799 -1.173992e-07)
(0.0011370241 -0.018727228 -1.0271438e-07)
(0.0009668422 -0.017992126 -8.8647372e-08)
(0.00081022949 -0.017214954 -7.5292566e-08)
(0.00067059959 -0.016431601 -6.2737197e-08)
(0.00054714448 -0.015662693 -5.106506e-08)
(0.00043865342 -0.014924661 -4.039099e-08)
(0.00034376138 -0.014226507 -3.0874186e-08)
(0.00026106807 -0.013577093 -2.2632812e-08)
(0.00018908786 -0.012977838 -1.5748975e-08)
(0.00012647168 -0.012453651 -1.0612917e-08)
(7.1566554e-05 -0.011907736 -6.4256101e-09)
(2.3640748e-05 -0.011319657 -3.3394129e-09)
(0.012315699 -0.0090404436 -3.1614117e-07)
(0.0098517282 -0.026547035 -5.2779626e-07)
(0.0085918129 -0.029341818 -5.6663843e-07)
(0.006785022 -0.033851211 -5.4237887e-07)
(0.0053155385 -0.031606028 -5.0003053e-07)
(0.0040465109 -0.028058386 -4.5487359e-07)
(0.0029997313 -0.023527351 -4.1202554e-07)
(0.0021668525 -0.018731645 -3.7162635e-07)
(0.0015203983 -0.014012596 -3.3741917e-07)
(0.0010241096 -0.0095418137 -3.068106e-07)
(0.0006518291 -0.0055086446 -2.7830578e-07)
(0.00037114645 -0.0019817879 -2.5122188e-07)
(0.00017002971 0.0010330785 -2.2862515e-07)
(2.8787697e-05 0.0035765443 -2.0631248e-07)
(-6.5256574e-05 0.0058997787 -1.84729e-07)
(-0.00011972818 0.007976268 -1.6394139e-07)
(-0.00014754983 0.0097197974 -1.4387188e-07)
(-0.00015597097 0.011107306 -1.24505e-07)
(-0.00015063327 0.012153346 -1.0588942e-07)
(-0.00013598882 0.012893538 -8.8134345e-08)
(-0.00011530261 0.0133505 -7.1353693e-08)
(-9.101561e-05 0.013588549 -5.5377839e-08)
(-6.4482844e-05 0.013569847 -4.2924599e-08)
(-3.7163558e-05 0.013499825 -3.0559716e-08)
(-7.1099831e-06 0.012945446 -2.1523773e-08)
(0.015458126 0.023340186 -7.2881951e-07)
(0.0042600312 -0.0018011907 -1.0060792e-06)
(0.0013644073 0.048423788 -9.9431525e-07)
(-0.00057365307 0.05152273 -9.1416738e-07)
(-0.0022245072 0.065987377 -8.3614302e-07)
(-0.0034368727 0.076671496 -7.5108685e-07)
(-0.0040960824 0.084000927 -6.7404813e-07)
(-0.0042915077 0.09000737 -6.0562056e-07)
(-0.0042007839 0.094499465 -5.4508809e-07)
(-0.0039641076 0.09731669 -4.9231131e-07)
(-0.003651573 0.098773114 -4.4614377e-07)
(-0.0032981759 0.099155146 -3.9849987e-07)
(-0.0029394739 0.098898607 -3.6739074e-07)
(-0.0025952022 0.097910332 -3.3331259e-07)
(-0.0022544604 0.096292937 -3.0039194e-07)
(-0.0019258386 0.094127112 -2.6999936e-07)
(-0.0016212831 0.09163484 -2.4129732e-07)
(-0.0013431436 0.088998866 -2.1394152e-07)
(-0.0010917568 0.086298348 -1.8777386e-07)
(-0.00086632204 0.083604981 -1.6271471e-07)
(-0.00066508803 0.08090872 -1.3871541e-07)
(-0.0004860669 0.078352046 -1.1568706e-07)
(-0.00032600638 0.075642507 -9.3919092e-08)
(-0.00018361692 0.07359564 -7.4011496e-08)
(-5.1591667e-05 0.069752269 -5.1742345e-08)
(-0.0012896405 1.1753525 -2.5256955e-06)
(-0.00057006108 0.96354553 -1.9998176e-06)
(-0.00095681396 0.86822654 -1.6121111e-06)
(-0.00069417183 0.77636802 -1.3135329e-06)
(-0.00060924212 0.68072815 -1.090199e-06)
(-0.0005288198 0.58982178 -9.2584169e-07)
(-0.00045476551 0.51188138 -8.0242037e-07)
(-0.00038556579 0.44856861 -7.0722358e-07)
(-0.00032345089 0.39647024 -6.2757089e-07)
(-0.00026834007 0.35215143 -5.6441094e-07)
(-0.00022617632 0.31396676 -5.1304799e-07)
(-0.00018687517 0.28119793 -4.6669248e-07)
(-0.00015265812 0.25330987 -4.2561908e-07)
(-0.00011962073 0.22955526 -3.8751855e-07)
(-9.3903424e-05 0.20925961 -3.5176225e-07)
(-7.61602e-05 0.19189259 -3.1806558e-07)
(-6.1217125e-05 0.1770243 -2.8605639e-07)
(-4.8546704e-05 0.16429567 -2.5547433e-07)
(-3.7860505e-05 0.15337152 -2.2620307e-07)
(-2.885812e-05 0.14402276 -1.9819201e-07)
(-2.1286492e-05 0.13592456 -1.7138108e-07)
(-1.4936985e-05 0.12913687 -1.4580011e-07)
(-9.6027586e-06 0.122862 -1.2088043e-07)
(-5.1886222e-06 0.1185845 -9.9229923e-08)
(-1.3172151e-06 0.11176644 -7.005199e-08)
(-0.013718053 0.090081027 -1.1592952e-06)
(-0.0030585201 0.098635135 -1.1824457e-06)
(-0.00053003738 0.10523435 -1.1238953e-06)
(0.00120848 0.10705516 -1.0266573e-06)
(0.0026975551 0.1095303 -9.2152367e-07)
(0.0037845561 0.11140274 -8.1987666e-07)
(0.0043631485 0.11308577 -7.2907509e-07)
(0.0044980925 0.11466062 -6.4788267e-07)
(0.0043336918 0.11539681 -5.645867e-07)
(0.0040519728 0.11534172 -5.202948e-07)
(0.0037445793 0.11454115 -4.7226654e-07)
(0.0033953625 0.11304445 -4.2380314e-07)
(0.0030201051 0.11106533 -3.8161527e-07)
(0.0026442526 0.10845317 -3.438393e-07)
(0.0022856257 0.10538226 -3.0935312e-07)
(0.0019504137 0.1021334 -2.7740926e-07)
(0.001641591 0.098828336 -2.4745861e-07)
(0.001360261 0.095534149 -2.1913328e-07)
(0.0011062454 0.092287419 -1.9220856e-07)
(0.00087845917 0.089140939 -1.665427e-07)
(0.00067498141 0.086068121 -1.4201106e-07)
(0.00049376812 0.083204032 -1.1856461e-07)
(0.00033147243 0.080227921 -9.6457609e-08)
(0.00018684043 0.078002662 -7.6270443e-08)
(5.2763091e-05 0.073894842 -5.3197216e-08)
(-0.010228864 -0.042663864 -6.5090497e-07)
(-0.0085610579 -0.04044974 -6.9759241e-07)
(-0.0070057749 -0.03855202 -6.7616687e-07)
(-0.0055311401 -0.035164674 -6.2897078e-07)
(-0.0042030075 -0.030290084 -5.7304632e-07)
(-0.0030762411 -0.024786488 -5.1484046e-07)
(-0.0021576415 -0.01913383 -4.6317539e-07)
(-0.0014414381 -0.013613021 -4.158725e-07)
(-0.00089803263 -0.008585625 -3.7307794e-07)
(-0.00049441515 -0.0041477492 -3.4077861e-07)
(-0.00019744049 -0.00034526562 -3.08905e-07)
(1.4560871e-05 0.0029066818 -2.7815563e-07)
(0.0001557295 0.0058717644 -2.4990683e-07)
(0.00024006173 0.0086019021 -2.238334e-07)
(0.00028633874 0.010987954 -1.9941798e-07)
(0.00030345314 0.01296896 -1.7633057e-07)
(0.00029889421 0.014547226 -1.5435454e-07)
(0.00027908599 0.015751284 -1.3337548e-07)
(0.0002491991 0.016614302 -1.133664e-07)
(0.00021322507 0.01717947 -9.4353216e-08)
(0.00017399161 0.017472783 -7.6339948e-08)
(0.00013349865 0.017548513 -5.9357792e-08)
(9.2869753e-05 0.017394893 -4.6303964e-08)
(5.3149049e-05 0.017192563 -3.2988874e-08)
(1.1822206e-05 0.016447785 -2.2859428e-08)
(-0.0053028698 -0.018221368 -3.1431287e-07)
(-0.0049202837 -0.020820138 -3.6158235e-07)
(-0.0045427324 -0.02350455 -3.6161824e-07)
(-0.0041491693 -0.025490879 -3.4150378e-07)
(-0.003732461 -0.026833873 -3.1403758e-07)
(-0.003308783 -0.027471667 -2.8908224e-07)
(-0.0029222086 -0.027464892 -2.5981541e-07)
(-0.0025667247 -0.026953239 -2.3132976e-07)
(-0.002243176 -0.026166121 -2.0674355e-07)
(-0.0019512424 -0.025202166 -1.8572969e-07)
(-0.0016912992 -0.024127106 -1.6566193e-07)
(-0.0014584579 -0.022992035 -1.4654567e-07)
(-0.0012476593 -0.021812854 -1.287106e-07)
(-0.0010545453 -0.020611464 -1.1210702e-07)
(-0.00088413699 -0.019429482 -9.6583818e-08)
(-0.00073477573 -0.018291488 -8.1986465e-08)
(-0.00060431624 -0.017215579 -6.8314021e-08)
(-0.00049068354 -0.016214055 -5.5631086e-08)
(-0.00039194981 -0.015293881 -4.4049036e-08)
(-0.0003061957 -0.014454993 -3.3692614e-08)
(-0.000231881 -0.013699514 -2.4672035e-08)
(-0.00016751871 -0.013025497 -1.7200652e-08)
(-0.00011176583 -0.012449841 -1.163756e-08)
(-6.3192988e-05 -0.011869778 -7.0484277e-09)
(-2.1362677e-05 -0.011269458 -3.6374922e-09)
(-0.0015687871 -0.0050548409 -1.5127013e-07)
(-0.0016019282 -0.0060347602 -1.8451484e-07)
(-0.0016351926 -0.0070076983 -1.8928014e-07)
(-0.0016556674 -0.0079089785 -1.8001541e-07)
(-0.0016486193 -0.0087752573 -1.649832e-07)
(-0.0016164548 -0.009650328 -1.4873139e-07)
(-0.0015558377 -0.010619299 -1.3105531e-07)
(-0.0014717343 -0.011585303 -1.1409388e-07)
(-0.0013713921 -0.012400264 -9.9245331e-08)
(-0.001262014 -0.013054298 -8.620472e-08)
(-0.0011497238 -0.013561785 -7.4152594e-08)
(-0.0010381454 -0.013938855 -6.2959044e-08)
(-0.00092884686 -0.01419898 -5.2700126e-08)
(-0.00082281135 -0.014353127 -4.3381701e-08)
(-0.00072143288 -0.014411909 -3.5114597e-08)
(-0.00062541873 -0.01438562 -2.7660808e-08)
(-0.00053525478 -0.014282312 -2.1050629e-08)
(-0.00045129195 -0.014109736 -1.5367211e-08)
(-0.00037367015 -0.013872772 -1.0602199e-08)
(-0.00030247334 -0.01357667 -6.7379943e-09)
(-0.00023718677 -0.013240204 -3.7379532e-09)
(-0.00017723089 -0.012885433 -1.584652e-09)
(-0.00012191077 -0.012531726 -2.8738285e-10)
(-7.016025e-05 -0.012119739 3.2281366e-10)
(-2.1513614e-05 -0.011568411 2.3825552e-10)
(-0.00022866883 -0.00076400664 -7.2392119e-08)
(-0.00021189289 -0.0010231488 -8.8902132e-08)
(-0.00022630376 -0.0013202936 -9.1296509e-08)
(-0.0002693391 -0.0016588705 -8.6113661e-08)
(-0.00032939148 -0.0020250351 -7.7665172e-08)
(-0.00039360441 -0.0023762518 -6.8295099e-08)
(-0.00043711557 -0.0027302731 -5.8656447e-08)
(-0.000460768 -0.0030814603 -4.952391e-08)
(-0.00046639216 -0.0033965629 -4.1469282e-08)
(-0.0004576742 -0.0036729711 -3.445086e-08)
(-0.00043790418 -0.0039108241 -2.8207586e-08)
(-0.00041196224 -0.0041110044 -2.2647195e-08)
(-0.00038331739 -0.0042754324 -1.7764791e-08)
(-0.0003523062 -0.0044068991 -1.355036e-08)
(-0.00031946529 -0.0045073253 -1.0002782e-08)
(-0.00028569855 -0.004579195 -7.0210704e-09)
(-0.00025176225 -0.0046251962 -4.5755711e-09)
(-0.00021816744 -0.0046494306 -2.6285111e-09)
(-0.0001852901 -0.0046589933 -1.1328945e-09)
(-0.00015351319 -0.0046595128 -3.3072442e-11)
(-0.00012294379 -0.0046433271 7.1244377e-10)
(-9.3558782e-05 -0.0046026204 1.1460641e-09)
(-6.5296004e-05 -0.0045413177 1.2604793e-09)
(-3.7843286e-05 -0.0044441545 1.0506197e-09)
(-1.1089434e-05 -0.0042530042 4.9108568e-10)
(-9.6373503e-05 0.000245884 -3.3376454e-08)
(-4.6352292e-05 0.00028715793 -3.9256233e-08)
(-1.6037264e-05 0.00030572563 -3.936419e-08)
(-2.6817295e-06 0.00029573717 -3.6288425e-08)
(-6.050806e-06 0.00024931593 -3.1898057e-08)
(-1.6329444e-05 0.00018764908 -2.7224084e-08)
(-3.4545774e-05 0.00011792768 -2.2668193e-08)
(-5.4242865e-05 4.3078246e-05 -1.8493542e-08)
(-7.299024e-05 -3.9552639e-05 -1.4877194e-08)
(-8.7459061e-05 -0.00012274042 -1.1808004e-08)
(-9.7280312e-05 -0.0002003149 -9.1917592e-09)
(-0.00010329749 -0.00027038887 -6.9682484e-09)
(-0.00010549305 -0.00033309986 -5.1052789e-09)
(-0.00010447277 -0.00038783632 -3.5747088e-09)
(-0.00010048375 -0.00043412988 -2.3479836e-09)
(-9.4196544e-05 -0.00047274194 -1.3789015e-09)
(-8.6212957e-05 -0.00050448205 -6.328332e-10)
(-7.7037414e-05 -0.00052992101 -7.7949449e-11)
(-6.7098071e-05 -0.00054931991 3.1543747e-10)
(-5.6513557e-05 -0.0005631635 5.7555707e-10)
(-4.5706233e-05 -0.00057130461 7.2360984e-10)
(-3.4974339e-05 -0.00057353735 7.714377e-10)
(-2.44757e-05 -0.00057136717 7.1598324e-10)