/*--------------------------------*- C++ -*----------------------------------*\
| =========                 |                                                 |
| \\      /  F ield         | OpenFOAM: The Open Source CFD Toolbox           |
|  \\    /   O peration     | Version:  4.0                                   |
|   \\  /    A nd           | Web:      www.OpenFOAM.org                      |
|    \\/     M anipulation  |                                                 |
\*---------------------------------------------------------------------------*/
FoamFile
{
    version     2.0;
    format      ascii;
    class       volScalarField;
    location    "0.5";
    object      nut;
}
// * * * * * * * * * * * * * * * * * * * * * * * * * * * * * * * * * * * * * //

dimensions      [0 2 -1 0 0 0 0];

internalField   nonuniform List<scalar> 
1740
(
2.41959e-05
1.3553674e-05
1.2405667e-06
1.4575677e-05
6.847817e-06
1.8247061e-06
1.4917139e-05
5.3227688e-06
2.2910218e-06
2.5736565e-05
4.6849139e-06
2.7217653e-06
1.5714511e-05
4.2900302e-06
3.0945288e-06
1.6736586e-05
4.0295951e-06
3.3761091e-06
1.4070398e-05
3.8446994e-06
3.6612396e-06
9.9789118e-06
3.7250353e-06
3.8941623e-06
1.0290765e-05
3.6531295e-06
4.0264878e-06
9.4601174e-06
3.586839e-06
4.1572511e-06
8.6333359e-06
3.5349655e-06
4.2808528e-06
7.9212434e-06
3.5023058e-06
4.3197134e-06
7.2907393e-06
3.4744538e-06
4.4010643e-06
6.8337264e-06
3.4795836e-06
4.5100052e-06
6.4169177e-06
3.5016766e-06
4.5818738e-06
6.0801534e-06
3.4986847e-06
4.5944891e-06
5.8251823e-06
3.4943906e-06
4.6435899e-06
5.5289076e-06
3.508221e-06
4.693378e-06
5.3341691e-06
3.5187057e-06
4.652655e-06
5.1653806e-06
3.5125764e-06
4.6513873e-06
4.9876635e-06
3.4953217e-06
4.6488148e-06
4.8402552e-06
3.4815211e-06
4.6835625e-06
4.6892707e-06
3.4922647e-06
4.7167643e-06
4.5579333e-06
3.509719e-06
4.6885859e-06
4.4540863e-06
3.5095674e-06
4.7088873e-06
4.3669058e-06
3.5214569e-06
4.7170175e-06
4.2782464e-06
3.5275109e-06
4.6756022e-06
4.1990179e-06
3.5473503e-06
4.6786687e-06
4.1529466e-06
3.5869092e-06
4.6550671e-06
2.7397834e-06
3.5634126e-06
4.3419227e-06
1.9295352e-06
2.1760347e-06
4.4409252e-06
7.1570454e-06
7.3461014e-06
6.696317e-06
6.5427767e-06
6.7506634e-06
6.3812157e-06
5.1750086e-06
5.1111752e-06
4.8663671e-06
4.332505e-06
4.2604473e-06
4.1270864e-06
3.7923363e-06
3.7497814e-06
3.6904992e-06
3.4255162e-06
3.4082631e-06
3.3935402e-06
3.1565967e-06
3.1548621e-06
3.1641863e-06
2.9349403e-06
2.9411667e-06
2.9617052e-06
2.7249305e-06
2.7344017e-06
2.7586368e-06
2.502155e-06
2.5122202e-06
2.5360048e-06
2.2524006e-06
2.2616909e-06
2.2829089e-06
1.9717539e-06
1.9796493e-06
1.9973837e-06
1.6666235e-06
1.672925e-06
1.6869585e-06
1.3524495e-06
1.3571982e-06
1.3677262e-06
1.0500834e-06
1.0534611e-06
1.0609301e-06
7.7999959e-07
7.8226157e-07
7.8725688e-07
5.5642595e-07
5.5785016e-07
5.6099493e-07
3.8429703e-07
3.8514024e-07
3.870057e-07
2.6018902e-07
2.6065993e-07
2.6170796e-07
1.7591994e-07
1.7617811e-07
1.7675037e-07
1.2163232e-07
1.2177181e-07
1.2207935e-07
8.8129081e-08
8.8205285e-08
8.8372947e-08
6.8369696e-08
6.8414228e-08
6.8512275e-08
5.7377282e-08
5.7406822e-08
5.7472139e-08
5.1805635e-08
5.1828295e-08
5.1878828e-08
4.9491642e-08
4.9511041e-08
4.9554788e-08
4.9080551e-08
4.9098178e-08
4.9138339e-08
4.9745557e-08
4.9761989e-08
4.9799667e-08
5.099339e-08
5.1008838e-08
5.1044323e-08
5.2536314e-08
5.2550844e-08
5.258416e-08
5.4210362e-08
5.422399e-08
5.4255111e-08
5.5924092e-08
5.5936822e-08
5.5965749e-08
5.7627089e-08
5.7638933e-08
5.7665714e-08
5.9291162e-08
5.9302145e-08
5.9326865e-08
6.0899531e-08
6.0909689e-08
6.093246e-08
6.244093e-08
6.2450308e-08
6.2471262e-08
6.3906615e-08
6.3915267e-08
6.3934544e-08
6.5289034e-08
6.5297018e-08
6.5314764e-08
6.6581378e-08
6.6588755e-08
6.6605119e-08
6.7777587e-08
6.778442e-08
6.7799554e-08
6.8872554e-08
6.8878908e-08
6.8892964e-08
6.9862414e-08
6.9868361e-08
6.9881493e-08
7.0744738e-08
7.0750372e-08
7.0762749e-08
7.1501367e-08
7.1506719e-08
7.1518447e-08
7.2121272e-08
7.2126381e-08
7.2137564e-08
7.2589881e-08
7.2594788e-08
7.2605528e-08
7.28805e-08
7.2885246e-08
7.2895634e-08
7.2937422e-08
7.2942037e-08
7.2952142e-08
7.2590499e-08
7.2594991e-08
7.2604834e-08
4.1964854e-06
4.5124534e-06
6.6658184e-06
8.369072e-06
5.9986676e-06
6.0410871e-06
4.7250808e-06
4.8310449e-06
4.0813987e-06
4.1910375e-06
3.6936921e-06
3.7956848e-06
3.4228424e-06
3.5162402e-06
3.2056851e-06
3.2902554e-06
3.0068514e-06
3.0822873e-06
2.802366e-06
2.8683816e-06
2.5754834e-06
2.6319228e-06
2.3167356e-06
2.3636776e-06
2.0250768e-06
2.0628912e-06
1.7086325e-06
1.7379714e-06
1.3838909e-06
1.4056674e-06
1.0723617e-06
1.0877186e-06
7.9488834e-07
8.0512303e-07
5.6579511e-07
5.7222645e-07
3.8985472e-07
3.9367078e-07
2.6331231e-07
2.6546185e-07
1.7762378e-07
1.787911e-07
1.2254705e-07
1.2317042e-07
8.8627547e-08
8.8966447e-08
6.8661292e-08
6.8859875e-08
5.7571794e-08
5.7705123e-08
5.195644e-08
5.2060881e-08
4.9622488e-08
4.9714102e-08
4.9200879e-08
4.9285843e-08
4.9858549e-08
4.9938682e-08
5.1099806e-08
5.1175294e-08
5.2636154e-08
5.2706771e-08
5.4303521e-08
5.4369097e-08
5.6010576e-08
5.6071115e-08
5.7707054e-08
5.7762718e-08
5.9364886e-08
5.9415941e-08
6.0967374e-08
6.1014142e-08
6.2503302e-08
6.2546129e-08
6.3963952e-08
6.4003191e-08
6.5341786e-08
6.5377786e-08
6.663e-08
6.6663104e-08
6.7822534e-08
6.7853076e-08
6.891428e-08
6.8942582e-08
6.9901378e-08
6.9927748e-08
7.0781431e-08
7.0806161e-08
7.1536116e-08
7.1559472e-08
7.2154397e-08
7.2176633e-08
7.262169e-08
7.2643036e-08
7.2911269e-08
7.2931935e-08
7.296737e-08
7.2987551e-08
7.2619717e-08
7.2639561e-08
2.6065649e-10
1.3188056e-08
1.9301584e-07
8.2633124e-07
1.6432482e-06
2.2297028e-06
2.5745814e-06
2.7829271e-06
2.9270277e-06
3.042458e-06
3.1463175e-06
3.2524627e-06
3.3578927e-06
3.4614854e-06
3.5624427e-06
3.6594095e-06
3.749933e-06
3.82988e-06
3.8925556e-06
3.9273797e-06
3.9177398e-06
3.8373891e-06
3.6438247e-06
3.2603414e-06
2.4480273e-06
2.0597799e-10
2.6876996e-08
3.5990443e-07
1.377196e-06
2.5701826e-06
3.3783544e-06
3.8512969e-06
4.157928e-06
4.3926217e-06
4.5980804e-06
4.794837e-06
4.9952216e-06
5.1972116e-06
5.3997458e-06
5.6011541e-06
5.7986914e-06
5.9876118e-06
6.1601467e-06
6.3035964e-06
6.3976686e-06
6.4100341e-06
6.2883431e-06
5.9448389e-06
5.2187093e-06
3.6813118e-06
6.5616067e-10
7.8797592e-08
8.5746592e-07
2.5076296e-06
3.7930761e-06
4.5295511e-06
4.9931207e-06
5.3387473e-06
5.6389896e-06
5.9262197e-06
6.2157325e-06
6.5142414e-06
6.8203213e-06
7.132811e-06
7.4502817e-06
7.7696622e-06
8.0847277e-06
8.3855162e-06
8.6543722e-06
8.8625777e-06
8.9634886e-06
8.8794929e-06
8.4751669e-06
7.4921343e-06
5.2871969e-06
3.1101791e-09
2.8534843e-07
2.0631868e-06
4.0037139e-06
5.0439796e-06
5.6314435e-06
6.0380366e-06
6.3804548e-06
6.7089003e-06
7.0419449e-06
7.3904054e-06
7.7573665e-06
8.1392822e-06
8.5348675e-06
8.9439749e-06
9.3652287e-06
9.7936395e-06
1.0219675e-05
1.0626676e-05
1.0986736e-05
1.1253621e-05
1.1348876e-05
1.1128809e-05
1.0284496e-05
7.8868715e-06
2.3280421e-08
1.1391113e-06
3.9913792e-06
5.5998204e-06
6.4511166e-06
6.9716423e-06
7.3547485e-06
7.7005002e-06
8.0498429e-06
8.4041256e-06
8.7769767e-06
9.1756273e-06
9.5891271e-06
1.0013405e-05
1.0450947e-05
1.0906391e-05
1.1379006e-05
1.1864149e-05
1.2351884e-05
1.2823968e-05
1.3249283e-05
1.3577636e-05
1.3732381e-05
1.3617778e-05
1.3205593e-05
1.9531469e-07
2.7545433e-06
5.9058152e-06
7.7112518e-06
8.6272217e-06
9.0446273e-06
9.2407138e-06
9.3772719e-06
9.5154653e-06
9.6736058e-06
9.8596202e-06
1.0079884e-05
1.0335038e-05
1.0625341e-05
1.0952077e-05
1.1316272e-05
1.171801e-05
1.2155234e-05
1.2622838e-05
1.3110945e-05
1.3601856e-05
1.4066731e-05
1.4462456e-05
1.4740441e-05
1.4843333e-05
4.3464565e-06
4.3152787e-06
4.3609496e-06
4.4759366e-06
4.6553553e-06
4.8874505e-06
5.1620451e-06
5.4767302e-06
5.8339695e-06
6.2356564e-06
6.6810495e-06
7.1666838e-06
7.6865215e-06
8.2334484e-06
8.800968e-06
9.3845491e-06
9.9817454e-06
1.0591018e-05
1.1210223e-05
1.1834614e-05
1.2453864e-05
1.3048929e-05
1.3589216e-05
1.4038076e-05
1.4328015e-05
9.1231067e-06
9.3804187e-06
9.7824845e-06
1.0199746e-05
1.037465e-05
1.033698e-05
1.0218861e-05
1.012111e-05
1.0083733e-05
1.0108069e-05
1.0189978e-05
1.0324883e-05
1.05108e-05
1.0747594e-05
1.1035248e-05
1.1373177e-05
1.1759353e-05
1.2189773e-05
1.2657345e-05
1.3149827e-05
1.3646708e-05
1.4116034e-05
1.4511582e-05
1.478338e-05
1.4877551e-05
6.4126688e-06
6.8222622e-06
7.2533552e-06
7.6529557e-06
7.9545275e-06
8.1714412e-06
8.3633837e-06
8.5709596e-06
8.8014787e-06
9.069902e-06
9.3729696e-06
9.7014891e-06
1.0050731e-05
1.0426901e-05
1.0833866e-05
1.1272206e-05
1.1738998e-05
1.2226983e-05
1.2722682e-05
1.3203403e-05
1.3632669e-05
1.3954325e-05
1.4086045e-05
1.3929152e-05
1.3462461e-05
5.1440258e-06
5.500788e-06
5.8515371e-06
6.1685209e-06
6.4349848e-06
6.6635628e-06
6.8844681e-06
7.1181028e-06
7.3755469e-06
7.6634097e-06
7.979661e-06
8.321591e-06
8.6890555e-06
9.0831676e-06
9.5034872e-06
9.9463806e-06
1.0403761e-05
1.0861391e-05
1.1296297e-05
1.1672627e-05
1.1934703e-05
1.1993814e-05
1.1696452e-05
1.0723492e-05
8.120414e-06
4.4347612e-06
4.725131e-06
5.0163108e-06
5.2879343e-06
5.5341784e-06
5.7631625e-06
5.9893288e-06
6.2254411e-06
6.4800352e-06
6.7572642e-06
7.0568261e-06
7.3775271e-06
7.7190436e-06
8.0803898e-06
8.4587348e-06
8.8471872e-06
9.2337138e-06
9.5992402e-06
9.9149313e-06
1.013808e-05
1.0205546e-05
1.0022221e-05
9.4376002e-06
8.1863147e-06
5.6327778e-06
3.9848154e-06
4.2152156e-06
4.4541364e-06
4.685905e-06
4.9068703e-06
5.1217394e-06
5.3386122e-06
5.5652395e-06
5.807316e-06
6.0676979e-06
6.3466264e-06
6.6432513e-06
6.9563611e-06
7.2833012e-06
7.6188048e-06
7.9538872e-06
8.2744639e-06
8.5597209e-06
8.7800126e-06
8.8940027e-06
8.8445785e-06
8.5523219e-06
7.9025487e-06
6.7076329e-06
4.4846052e-06
3.6674386e-06
3.852151e-06
4.049264e-06
4.2472028e-06
4.4426492e-06
4.6377928e-06
4.8372206e-06
5.045729e-06
5.2670537e-06
5.5031724e-06
5.7543587e-06
6.0197276e-06
6.2974018e-06
6.5838116e-06
6.8727412e-06
7.1544466e-06
7.4146864e-06
7.6335886e-06
7.7844036e-06
7.8321443e-06
7.7320728e-06
7.4275498e-06
6.844374e-06
5.8641342e-06
4.1161438e-06
3.4145207e-06
3.5653234e-06
3.7295779e-06
3.8990721e-06
4.070776e-06
4.2453377e-06
4.4252341e-06
4.6133426e-06
4.8119921e-06
5.0224089e-06
5.244593e-06
5.4774124e-06
5.7185182e-06
5.9638435e-06
6.2069357e-06
6.438301e-06
6.6447531e-06
6.8088059e-06
6.9082284e-06
6.9159726e-06
6.8008776e-06
6.5300193e-06
6.0753349e-06
5.4367624e-06
4.7536626e-06
3.1861171e-06
3.310991e-06
3.4488452e-06
3.5939732e-06
3.7437526e-06
3.8980074e-06
4.0579301e-06
4.2251257e-06
4.4009264e-06
4.5859217e-06
4.7797708e-06
4.9810925e-06
5.1872799e-06
5.3941342e-06
5.5954089e-06
5.7823695e-06
5.9434354e-06
6.0639811e-06
6.1264543e-06
6.111091e-06
5.9977958e-06
5.7704651e-06
5.4271891e-06
5.0065659e-06
4.6523527e-06
2.9555057e-06
3.0594592e-06
3.1752133e-06
3.2988223e-06
3.428113e-06
3.5624945e-06
3.7023746e-06
3.8485321e-06
4.001604e-06
4.1617134e-06
4.3282364e-06
4.499634e-06
4.6732542e-06
4.8450592e-06
5.0093245e-06
5.1583807e-06
5.2824653e-06
5.3697729e-06
5.4068322e-06
5.3794354e-06
5.2744992e-06
5.0836188e-06
4.8099797e-06
4.4832637e-06
4.1978106e-06
2.7045084e-06
2.7906395e-06
2.8871063e-06
2.9911535e-06
3.1010229e-06
3.2159579e-06
3.335905e-06
3.4611145e-06
3.5917642e-06
3.7276617e-06
3.8680213e-06
4.0112845e-06
4.1549461e-06
4.2953548e-06
4.4275278e-06
4.5450168e-06
4.6398845e-06
4.702854e-06
4.7237016e-06
4.6919703e-06
4.5980281e-06
4.434213e-06
4.1943574e-06
3.862064e-06
3.3089585e-06
2.4231403e-06
2.4934852e-06
2.5726046e-06
2.6585535e-06
2.7499304e-06
2.8459531e-06
2.946322e-06
3.0509691e-06
3.1597919e-06
3.2724223e-06
3.3880336e-06
3.505179e-06
3.6216493e-06
3.7343363e-06
3.8391233e-06
3.9308273e-06
4.0032305e-06
4.0492315e-06
4.0611246e-06
4.030959e-06
3.9507506e-06
3.8117703e-06
3.6001476e-06
3.2771362e-06
2.6689726e-06
2.1103849e-06
2.1664963e-06
2.2298234e-06
2.2989797e-06
2.3728637e-06
2.4507508e-06
2.5322349e-06
2.61708e-06
2.7050394e-06
2.7956813e-06
2.888235e-06
2.9814601e-06
3.0735397e-06
3.1619896e-06
3.2435981e-06
3.3144092e-06
3.3697651e-06
3.4044138e-06
3.4126465e-06
3.3883614e-06
3.3247636e-06
3.2129595e-06
3.0373341e-06
2.7594914e-06
2.2318328e-06
1.7746521e-06
1.8179769e-06
1.8670082e-06
1.9207653e-06
1.9784008e-06
2.0392886e-06
2.1030086e-06
2.1692606e-06
2.2377492e-06
2.3080578e-06
2.3795335e-06
2.4511939e-06
2.5216509e-06
2.5890529e-06
2.6510561e-06
2.704826e-06
2.7470707e-06
2.7740932e-06
2.7818171e-06
2.7656751e-06
2.7201222e-06
2.6372767e-06
2.5034919e-06
2.2894658e-06
1.9009976e-06
1.4328308e-06
1.4649224e-06
1.501316e-06
1.5413312e-06
1.5843371e-06
1.6298245e-06
1.6774134e-06
1.7268064e-06
1.7777186e-06
1.8297946e-06
1.8825283e-06
1.9352019e-06
1.9868359e-06
2.0361572e-06
2.081587e-06
2.1212475e-06
2.1529801e-06
2.1743567e-06
2.1826369e-06
2.1745906e-06
2.1460272e-06
2.0907626e-06
1.9984607e-06
1.8494325e-06
1.5912664e-06
1.1068521e-06
1.1294638e-06
1.1551429e-06
1.183425e-06
1.2138601e-06
1.2460579e-06
1.2797045e-06
1.3145414e-06
1.350327e-06
1.3867847e-06
1.4235549e-06
1.4601556e-06
1.4959538e-06
1.5301512e-06
1.5617802e-06
1.5897094e-06
1.6126495e-06
1.6291414e-06
1.6374925e-06
1.6356059e-06
1.6206214e-06
1.5882406e-06
1.5315002e-06
1.4382092e-06
1.2831575e-06
8.1786515e-07
8.3292495e-07
8.5003812e-07
8.6889722e-07
8.8919139e-07
9.1063913e-07
9.3299953e-07
9.5606859e-07
9.796594e-07
1.0035735e-06
1.0275745e-06
1.0513662e-06
1.0745783e-06
1.0967607e-06
1.1173819e-06
1.1358316e-06
1.1514178e-06
1.1633498e-06
1.1706835e-06
1.1721997e-06
1.1661747e-06
1.1499975e-06
1.1195304e-06
1.0677954e-06
9.8061913e-07
5.8022855e-07
5.8968374e-07
6.0042644e-07
6.1225864e-07
6.2497399e-07
6.3837825e-07
6.5229937e-07
6.6658814e-07
6.8111072e-07
6.9573475e-07
7.1031619e-07
7.2468932e-07
7.3866048e-07
7.5200623e-07
7.6447109e-07
7.7576527e-07
7.8555624e-07
7.9345525e-07
7.9898706e-07
8.0152283e-07
8.0015658e-07
7.9351259e-07
7.794284e-07
7.5423462e-07
7.0996175e-07
3.9841659e-07
4.0402186e-07
4.1038484e-07
4.1738251e-07
4.2488268e-07
4.3275753e-07
4.4089055e-07
4.4917981e-07
4.5753543e-07
4.6587506e-07
4.7411723e-07
4.8217821e-07
4.899705e-07
4.9740227e-07
5.0437352e-07
5.1076667e-07
5.1643559e-07
5.211972e-07
5.2482575e-07
5.2702965e-07
5.2739143e-07
5.2527432e-07
5.1966179e-07
5.0873325e-07
4.8816672e-07
2.6813354e-07
2.7128718e-07
2.7486196e-07
2.7878398e-07
2.829721e-07
2.8734612e-07
2.9183163e-07
2.9636299e-07
3.0088336e-07
3.05344e-07
3.0970235e-07
3.1392146e-07
3.1797095e-07
3.2182723e-07
3.2546832e-07
3.2885686e-07
3.3192932e-07
3.345886e-07
3.3671912e-07
3.3819449e-07
3.3884357e-07
3.3839888e-07
3.3641182e-07
3.3201256e-07
3.2291603e-07
1.8023795e-07
1.8194007e-07
1.8386172e-07
1.8595933e-07
1.8818494e-07
1.904905e-07
1.9283135e-07
1.951681e-07
1.9746768e-07
1.9970382e-07
2.0185733e-07
2.0391715e-07
2.0588279e-07
2.0776589e-07
2.095834e-07
2.1133438e-07
2.1297128e-07
2.14418e-07
2.1559769e-07
2.1645946e-07
2.1694364e-07
2.169451e-07
2.162689e-07
2.1451378e-07
2.1061059e-07
1.2394086e-07
1.2484397e-07
1.2585924e-07
1.2696127e-07
1.2812223e-07
1.2931389e-07
1.3050981e-07
1.3168676e-07
1.3282561e-07
1.3391188e-07
1.3493634e-07
1.3589574e-07
1.3679433e-07
1.3764556e-07
1.3847419e-07
1.3932373e-07
1.4021731e-07
1.4105231e-07
1.417244e-07
1.422165e-07
1.4251705e-07
1.4258802e-07
1.4234308e-07
1.415947e-07
1.3985917e-07
8.9384716e-08
8.9874178e-08
9.042325e-08
9.1017426e-08
9.1640725e-08
9.2276801e-08
9.2910218e-08
9.3527411e-08
9.4117374e-08
9.4672082e-08
9.5186923e-08
9.5661182e-08
9.6098794e-08
9.6509408e-08
9.6910111e-08
9.7329331e-08
9.7805862e-08
9.8338799e-08
9.8773815e-08
9.9090851e-08
9.9293818e-08
9.9370007e-08
9.9278248e-08
9.8924437e-08
9.8056497e-08
6.9105337e-08
6.9393144e-08
6.9716833e-08
7.006821e-08
7.0438069e-08
7.0816935e-08
7.1195727e-08
7.1566398e-08
7.1922381e-08
7.225892e-08
7.257328e-08
7.2865098e-08
7.3136783e-08
7.3394194e-08
7.3647863e-08
7.3915139e-08
7.4223198e-08
7.4606714e-08
7.4946629e-08
7.520193e-08
7.537691e-08
7.5466654e-08
7.5447398e-08
7.5263516e-08
7.4764101e-08
5.787075e-08
5.8066224e-08
5.828791e-08
5.8531106e-08
5.8790396e-08
5.9060084e-08
5.9334595e-08
5.9608841e-08
5.987851e-08
6.0140271e-08
6.0391954e-08
6.0632743e-08
6.0863511e-08
6.1087326e-08
6.1310389e-08
6.1543697e-08
6.1806362e-08
6.2127586e-08
6.2440709e-08
6.2686552e-08
6.2866981e-08
6.2979e-08
6.3005356e-08
6.2904435e-08
6.2566807e-08
5.2191495e-08
5.2346992e-08
5.2525254e-08
5.2723426e-08
5.2938104e-08
5.316558e-08
5.3402088e-08
5.3644019e-08
5.3888106e-08
5.4131569e-08
5.4372267e-08
5.4608877e-08
5.4841176e-08
5.5070453e-08
5.530022e-08
5.5537415e-08
5.5794925e-08
5.6096567e-08
5.6407962e-08
5.6660536e-08
5.6854644e-08
5.6987495e-08
5.7044556e-08
5.6990801e-08
5.6734446e-08
4.982935e-08
4.9967562e-08
5.0127397e-08
5.0306919e-08
5.0503723e-08
5.0715083e-08
5.0938107e-08
5.1169882e-08
5.1407612e-08
5.1648736e-08
5.1891079e-08
5.2133024e-08
5.2373751e-08
5.2613585e-08
5.2854508e-08
5.3101057e-08
5.3362269e-08
5.3656428e-08
5.3968772e-08
5.4227409e-08
5.4431759e-08
5.4578521e-08
5.4654093e-08
5.462636e-08
5.4409417e-08
4.9393123e-08
4.9522356e-08
4.9672563e-08
4.9842236e-08
5.0029432e-08
5.0231888e-08
5.0447136e-08
5.0672613e-08
5.0905788e-08
5.1144274e-08
5.138597e-08
5.162922e-08
5.187301e-08
5.2117236e-08
5.2363086e-08
5.2613702e-08
5.2875653e-08
5.3163007e-08
5.3471344e-08
5.3730304e-08
5.3938448e-08
5.4091441e-08
5.4175379e-08
5.4158627e-08
5.3955205e-08
5.0040006e-08
5.0162281e-08
5.0304676e-08
5.046587e-08
5.0644142e-08
5.083747e-08
5.1043633e-08
5.1260317e-08
5.1485228e-08
5.1716208e-08
5.1951359e-08
5.2189179e-08
5.2428713e-08
5.2669749e-08
5.2913091e-08
5.3161043e-08
5.3418493e-08
5.3696166e-08
5.399545e-08
5.4249373e-08
5.4455742e-08
5.4608876e-08
5.4693807e-08
5.4677919e-08
5.4472324e-08
5.1270703e-08
5.1385808e-08
5.1519831e-08
5.1671544e-08
5.1839362e-08
5.202144e-08
5.2215766e-08
5.2420267e-08
5.2632918e-08
5.2851848e-08
5.3075451e-08
5.3302489e-08
5.3532202e-08
5.3764436e-08
5.3999832e-08
5.4240179e-08
5.4489254e-08
5.4755564e-08
5.5041637e-08
5.5286846e-08
5.5487721e-08
5.5636992e-08
5.5718221e-08
5.5697051e-08
5.5481056e-08
5.2795872e-08
5.2903193e-08
5.3027976e-08
5.3169064e-08
5.3324994e-08
5.3494089e-08
5.3674555e-08
5.3864577e-08
5.4062424e-08
5.4266547e-08
5.4475667e-08
5.4688856e-08
5.4905605e-08
5.5125895e-08
5.5350314e-08
5.5580308e-08
5.5818842e-08
5.6072711e-08
5.6343945e-08
5.6578675e-08
5.6772074e-08
5.6915257e-08
5.6990177e-08
5.6960459e-08
5.6731512e-08
5.4451637e-08
5.4550825e-08
5.4665916e-08
5.4795826e-08
5.493922e-08
5.5094599e-08
5.526039e-08
5.5435046e-08
5.5617136e-08
5.5805436e-08
5.5998997e-08
5.6197203e-08
5.6399806e-08
5.6606949e-08
5.6819221e-08
5.7037817e-08
5.7265053e-08
5.7506304e-08
5.7762634e-08
5.7986459e-08
5.8171624e-08
5.8307744e-08
5.8375221e-08
5.8335789e-08
5.8091811e-08
5.6147109e-08
5.6238194e-08
5.6343648e-08
5.6462463e-08
5.6593436e-08
5.6735247e-08
5.6886544e-08
5.704604e-08
5.7212589e-08
5.7385275e-08
5.7563461e-08
5.7746824e-08
5.7935366e-08
5.8129391e-08
5.8329515e-08
5.8536736e-08
5.8752829e-08
5.8981954e-08
5.92242e-08
5.9437406e-08
5.9614287e-08
5.974311e-08
5.9802896e-08
5.9753741e-08
5.9496365e-08
5.7832404e-08
5.7915716e-08
5.8011958e-08
5.8120207e-08
5.8239389e-08
5.8368353e-08
5.8505957e-08
5.8651153e-08
5.880306e-08
5.8961039e-08
5.9124735e-08
5.9294093e-08
5.9469339e-08
5.9650935e-08
5.9839527e-08
6.0035959e-08
6.0241541e-08
6.0459376e-08
6.0688696e-08
6.0891928e-08
6.1060813e-08
6.1182432e-08
6.1234548e-08
6.11755e-08
6.0902773e-08
5.9479697e-08
5.9555741e-08
5.9643409e-08
5.9741862e-08
5.9850147e-08
5.9967272e-08
6.0092286e-08
6.0224352e-08
6.0362827e-08
6.0507318e-08
6.0657718e-08
6.0814211e-08
6.0977223e-08
6.1147357e-08
6.1325293e-08
6.1511746e-08
6.1707627e-08
6.1915124e-08
6.2132734e-08
6.232673e-08
6.2488e-08
6.2602561e-08
6.2646982e-08
6.2577836e-08
6.2288227e-08
6.1072417e-08
6.1141775e-08
6.1221596e-08
6.1311116e-08
6.1409496e-08
6.1515886e-08
6.1629502e-08
6.1749698e-08
6.1876035e-08
6.2008336e-08
6.2146713e-08
6.2291553e-08
6.2443462e-08
6.2603163e-08
6.2771372e-08
6.2948694e-08
6.3135701e-08
6.3333793e-08
6.3540804e-08
6.3726244e-08
6.3880245e-08
6.3987838e-08
6.4024417e-08
6.3944789e-08
6.3635898e-08
6.2599392e-08
6.266267e-08
6.2735384e-08
6.2816843e-08
6.2906308e-08
6.3003057e-08
6.3106451e-08
6.3216008e-08
6.3331468e-08
6.3452841e-08
6.3580424e-08
6.3714783e-08
6.3856676e-08
6.4006932e-08
6.4166295e-08
6.4335277e-08
6.4514169e-08
6.4703724e-08
6.490105e-08
6.5078488e-08
6.5225476e-08
6.5326137e-08
6.5354713e-08
6.5264113e-08
6.4933834e-08
6.4051912e-08
6.4109706e-08
6.4176033e-08
6.4250269e-08
6.4331765e-08
6.4419909e-08
6.4514189e-08
6.4614265e-08
6.4720029e-08
6.4831649e-08
6.4949582e-08
6.5074544e-08
6.5207422e-08
6.5349134e-08
6.5500446e-08
6.5661796e-08
6.583325e-08
6.6015073e-08
6.6203373e-08
6.6373184e-08
6.6513303e-08
6.6607023e-08
6.6627487e-08
6.652561e-08
6.6172904e-08
6.5422425e-08
6.5475307e-08
6.5535931e-08
6.5603736e-08
6.567815e-08
6.5758656e-08
6.5844851e-08
6.5936516e-08
6.6033671e-08
6.6136618e-08
6.6245949e-08
6.6362503e-08
6.6487274e-08
6.662125e-08
6.6765218e-08
6.691956e-08
6.7084196e-08
6.7259075e-08
6.7438682e-08
6.7601015e-08
6.7734264e-08
6.7820973e-08
6.7833249e-08
6.7719871e-08
6.7345977e-08
6.6704104e-08
6.6752621e-08
6.6808192e-08
6.6870308e-08
6.6938467e-08
6.7012231e-08
6.7091292e-08
6.7175531e-08
6.7265076e-08
6.736034e-08
6.7462025e-08
6.757107e-08
6.7688553e-08
6.781552e-08
6.7952772e-08
6.8100669e-08
6.8259068e-08
6.8427749e-08
6.859866e-08
6.8753397e-08
6.8879601e-08
6.8959156e-08
6.8963337e-08
6.8839373e-08
6.8448093e-08
6.7890864e-08
6.7935537e-08
6.7986665e-08
6.8043786e-08
6.8106456e-08
6.8174307e-08
6.8247108e-08
6.8324825e-08
6.8407675e-08
6.849616e-08
6.859107e-08
6.8693423e-08
6.8804361e-08
6.8924968e-08
6.9056063e-08
6.9198008e-08
6.9350648e-08
6.951355e-08
6.9675566e-08
6.9822378e-08
6.9941193e-08
7.0013347e-08
7.0009514e-08
6.9875902e-08
6.9470469e-08
6.8977564e-08
6.9018883e-08
6.9066136e-08
6.9118901e-08
6.9176786e-08
6.923948e-08
6.9306816e-08
6.9378829e-08
6.9455809e-08
6.953833e-08
6.9627249e-08
6.9723644e-08
6.9828698e-08
6.9943518e-08
7.0068931e-08
7.0205326e-08
7.035254e-08
7.0509088e-08
7.0661993e-08
7.0800481e-08
7.0911455e-08
7.0975875e-08
7.0964178e-08
7.0822762e-08
7.041398e-08
6.9960306e-08
6.9998721e-08
7.0042614e-08
7.0091598e-08
7.0145321e-08
7.0203522e-08
7.0266087e-08
7.0333109e-08
7.0404934e-08
7.0482195e-08
7.0565799e-08
7.0656866e-08
7.0756603e-08
7.0866111e-08
7.0986196e-08
7.1117411e-08
7.1260101e-08
7.1407239e-08
7.1550693e-08
7.1680473e-08
7.178311e-08
7.1839329e-08
7.1819591e-08
7.167081e-08
7.1259191e-08
7.0836646e-08
7.0872558e-08
7.0913536e-08
7.095922e-08
7.1009296e-08
7.1063542e-08
7.1121892e-08
7.1184485e-08
7.1251716e-08
7.1324262e-08
7.1403071e-08
7.1489293e-08
7.1584142e-08
7.1688675e-08
7.1803519e-08
7.1928532e-08
7.2062234e-08
7.2199854e-08
7.2334093e-08
7.2454964e-08
7.2548782e-08
7.2596183e-08
7.2567711e-08
7.2410376e-08
7.1989388e-08
7.1588229e-08
7.1622066e-08
7.1660635e-08
7.1703598e-08
7.1750664e-08
7.1801645e-08
7.1856504e-08
7.1915413e-08
7.1978792e-08
7.2047336e-08
7.2122e-08
7.2203919e-08
7.2294264e-08
7.2394e-08
7.2503575e-08
7.2622507e-08
7.2748823e-08
7.2878221e-08
7.3003808e-08
7.3115733e-08
7.3200331e-08
7.3238322e-08
7.3200451e-08
7.3033902e-08
7.2603011e-08
7.2203993e-08
7.2236164e-08
7.2272812e-08
7.2313608e-08
7.235828e-08
7.2406655e-08
7.2458723e-08
7.2514671e-08
7.2574935e-08
7.2640211e-08
7.2711441e-08
7.2789733e-08
7.2876197e-08
7.2971702e-08
7.3076552e-08
7.3190049e-08
7.3309974e-08
7.3432025e-08
7.3549424e-08
7.3652439e-08
7.3727541e-08
7.3755682e-08
7.3707995e-08
7.3532191e-08
7.3092956e-08
7.2669302e-08
7.2700184e-08
7.2735356e-08
7.277449e-08
7.2817309e-08
7.2863651e-08
7.2913531e-08
7.2967144e-08
7.302493e-08
7.3087579e-08
7.3156019e-08
7.3231325e-08
7.3314547e-08
7.340646e-08
7.3507269e-08
7.3616126e-08
7.3730572e-08
7.3846064e-08
7.3955778e-08
7.4050072e-08
7.4115629e-08
7.4133766e-08
7.4076201e-08
7.3891547e-08
7.3445499e-08
7.2957392e-08
7.2987335e-08
7.3021447e-08
7.3059377e-08
7.3100807e-08
7.3145558e-08
7.3193765e-08
7.3245566e-08
7.3301406e-08
7.3361979e-08
7.3428218e-08
7.3501158e-08
7.3581812e-08
7.3670884e-08
7.3768583e-08
7.3874045e-08
7.398447e-08
7.4094577e-08
7.4197426e-08
7.4283533e-08
7.4339915e-08
7.4348403e-08
7.4281583e-08
7.4089949e-08
7.3643751e-08
7.3012479e-08
7.3041809e-08
7.3075231e-08
7.3112336e-08
7.3152647e-08
7.3195829e-08
7.3242837e-08
7.3293239e-08
7.3347532e-08
7.3406485e-08
7.3471216e-08
7.354239e-08
7.3621171e-08
7.3708276e-08
7.3804256e-08
7.3908964e-08
7.401893e-08
7.4125907e-08
7.4223236e-08
7.4302289e-08
7.4350508e-08
7.4350488e-08
7.4276025e-08
7.408113e-08
7.3648595e-08
7.2664194e-08
7.2693125e-08
7.2726058e-08
7.2762421e-08
7.2801049e-08
7.2840652e-08
7.2887313e-08
7.2936647e-08
7.2989545e-08
7.3047417e-08
7.3113366e-08
7.3183424e-08
7.3260795e-08
7.3346664e-08
7.3443116e-08
7.3556952e-08
7.3681848e-08
7.3790593e-08
7.3881231e-08
7.395819e-08
7.4000096e-08
7.3993754e-08
7.3914625e-08
7.3722167e-08
7.3327994e-08
)
;

boundaryField
{
    Walls
    {
        type            nutUWallFunction;
        Cmu             0.09;
        kappa           0.41;
        E               9.8;
        value           uniform 0;
    }
    Inlet
    {
        type            calculated;
        value           nonuniform List<scalar> 3(1.7404413e-05 3.0243112e-05 7.5813105e-07);
    }
    Outlet
    {
        type            calculated;
        value           nonuniform List<scalar> 
86
(
0
0
0
0
0
0
0
0
0
0
0
0
0
0
0
0
0
0
0
0
0
0
0
0
0
0
0
0
0
0
1.4328015e-05
1.4877551e-05
1.3462461e-05
0
0
0
0
4.7536626e-06
4.6523527e-06
4.1978106e-06
0
0
0
0
1.5912664e-06
1.2831575e-06
9.8061913e-07
7.0996175e-07
4.8816672e-07
0
0
0
0
0
0
0
0
0
0
0
0
0
0
0
0
0
0
0
0
0
0
0
0
0
0
0
0
0
0
0
0
0
0
0
1.3205593e-05
1.4843333e-05
)
;
    }
    Front
    {
        type            wedge;
    }
    Back
    {
        type            wedge;
    }
    defaultFaces
    {
        type            empty;
    }
}


// ************************************************************************* //
