/*--------------------------------*- C++ -*----------------------------------*\
| =========                 |                                                 |
| \\      /  F ield         | OpenFOAM: The Open Source CFD Toolbox           |
|  \\    /   O peration     | Version:  4.0                                   |
|   \\  /    A nd           | Web:      www.OpenFOAM.org                      |
|    \\/     M anipulation  |                                                 |
\*---------------------------------------------------------------------------*/
FoamFile
{
    version     2.0;
    format      ascii;
    class       volScalarField;
    location    "0.5";
    object      p;
}
// * * * * * * * * * * * * * * * * * * * * * * * * * * * * * * * * * * * * * //

dimensions      [0 2 -2 0 0 0 0];

internalField   nonuniform List<scalar> 
1740
(
491.34831
491.31106
491.35773
474.38649
474.29146
474.17477
457.49375
457.47472
457.30324
440.48818
440.54322
440.56245
423.74588
423.6779
423.66624
407.17396
407.17643
406.88782
390.46695
390.56341
390.48091
373.99059
374.1489
374.3977
357.98406
358.08354
358.07463
341.79087
341.71412
341.66206
325.16973
325.24237
325.25708
308.5479
308.52714
308.66957
292.23398
292.01406
292.24053
275.98665
275.87752
275.60504
259.3679
259.31218
258.93691
242.85536
242.82282
242.88497
226.65726
226.66903
226.82377
210.35003
210.46186
210.53973
193.987
193.9618
194.08853
177.59641
177.41705
177.42769
160.82178
160.90817
160.78743
143.81938
143.88373
143.91686
127.25733
127.01567
127.00288
110.91784
110.79591
110.48709
94.410172
94.464196
94.285513
77.732955
77.81472
78.171169
61.28482
61.537657
61.914126
45.747713
45.853607
46.03282
30.831882
30.649365
30.672044
16.230041
16.03723
15.457804
4.0847611
3.5527979
1.4307812
-0.72358681
-0.67218986
-0.57674024
-0.28649066
-0.2817272
-0.27661801
-0.15891687
-0.16287116
-0.16539499
-0.12954979
-0.12973633
-0.12725737
-0.11052736
-0.10929254
-0.10481015
-0.097114894
-0.095516888
-0.09131107
-0.086529134
-0.084985813
-0.081328142
-0.077392915
-0.076031168
-0.072963079
-0.069299471
-0.068146126
-0.065617192
-0.062198968
-0.061241557
-0.059169167
-0.056070492
-0.05527962
-0.05357789
-0.050810176
-0.050156541
-0.04875343
-0.046277223
-0.045735216
-0.044572113
-0.042330333
-0.041878518
-0.0409081
-0.038849079
-0.038469878
-0.037654379
-0.03574468
-0.035424276
-0.034734251
-0.032954284
-0.032681873
-0.032094316
-0.030431116
-0.030198059
-0.029694627
-0.028138152
-0.027937487
-0.027503408
-0.026044968
-0.025871119
-0.025494555
-0.024126121
-0.023974628
-0.0236461
-0.022360247
-0.022227533
-0.021939424
-0.020729429
-0.020612612
-0.020358769
-0.019218655
-0.019115396
-0.018890823
-0.01781533
-0.017723718
-0.01752432
-0.016508816
-0.016427274
-0.016249671
-0.015290012
-0.015217232
-0.015058613
-0.014151022
-0.014085912
-0.013943929
-0.013084911
-0.013026553
-0.012899233
-0.012085503
-0.012033123
-0.011918796
-0.011147234
-0.011100174
-0.010997419
-0.01026503
-0.010222729
-0.010130332
-0.0094342214
-0.0093961956
-0.0093131117
-0.0086504636
-0.0086162974
-0.0085416266
-0.0079096949
-0.0078790297
-0.007811994
-0.0072080988
-0.0071806239
-0.0071205492
-0.0065420757
-0.0065175215
-0.0064638226
-0.0059082202
-0.005886353
-0.0058385225
-0.005303305
-0.0052839226
-0.0052415204
-0.0047242665
-0.0047071938
-0.0046698397
-0.0041681894
-0.0041532761
-0.0041206427
-0.0036322922
-0.0036194097
-0.0035912173
-0.0031139121
-0.0031029516
-0.0030789634
-0.0026104882
-0.0026013588
-0.0025813765
-0.0021195425
-0.0021121695
-0.0020960306
-0.0016386553
-0.0016329794
-0.0016205544
-0.0011654373
-0.0011614134
-0.0011526042
-0.00069770978
-0.00069530711
-0.00069004464
-0.0002324832
-0.00023168381
-0.00022993181
-1.4728233
-1.027123
-0.45076116
-0.33910238
-0.23621149
-0.19532382
-0.14803975
-0.12177223
-0.11450815
-0.096037433
-0.095164979
-0.082157123
-0.083796317
-0.074077276
-0.075434856
-0.067982702
-0.068289205
-0.062451557
-0.061876626
-0.057230296
-0.056143331
-0.052391871
-0.051107278
-0.048040258
-0.046719648
-0.044187188
-0.04288456
-0.040774483
-0.039496797
-0.037723674
-0.036465172
-0.034964068
-0.033725138
-0.032445751
-0.031232553
-0.030135183
-0.02895412
-0.02800714
-0.026863178
-0.026041247
-0.024937775
-0.024220462
-0.02315926
-0.022530065
-0.021511625
-0.020957185
-0.019981178
-0.01949059
-0.018556236
-0.018120542
-0.017226817
-0.016838624
-0.015984345
-0.015637514
-0.014821377
-0.014510771
-0.013731359
-0.013452656
-0.012708443
-0.012457978
-0.011747338
-0.011521994
-0.010843204
-0.010640316
-0.0099915709
-0.0098088471
-0.0091882642
-0.0090237281
-0.0084293629
-0.0082813029
-0.0077111624
-0.0075780924
-0.00703015
-0.0069107777
-0.0063829875
-0.0062761882
-0.0057664971
-0.0056712925
-0.0051776505
-0.0050931907
-0.004613559
-0.0045391075
-0.0040714633
-0.0040063851
-0.0035487222
-0.0034924736
-0.0030427991
-0.0029949186
-0.0025512471
-0.0025113484
-0.0020716932
-0.0020394591
-0.0016018157
-0.0015769934
-0.0011393176
-0.0011217156
-0.00068210668
-0.0006715898
-0.00022728891
-0.00022378726
-0.047546082
-0.045571484
-0.042301944
-0.038455641
-0.034503926
-0.03071056
-0.027204825
-0.024023523
-0.021165972
-0.018616254
-0.016352271
-0.01434594
-0.01256641
-0.010982365
-0.0095644665
-0.0082866201
-0.00712656
-0.0060656339
-0.0050880989
-0.0041809625
-0.0033339291
-0.0025372704
-0.0017819725
-0.0010592743
-0.00035434504
-0.048625519
-0.046353358
-0.042769744
-0.038719304
-0.03465847
-0.03082424
-0.027334812
-0.024206125
-0.021425854
-0.018967763
-0.016797143
-0.0148738
-0.013159139
-0.011619446
-0.010225968
-0.0089536637
-0.0077785057
-0.0066793363
-0.0056449958
-0.0046658673
-0.0037362532
-0.0028504258
-0.0020025354
-0.0011847305
-0.00038622687
-0.053866857
-0.051032488
-0.04677561
-0.042416855
-0.038476317
-0.03500526
-0.031939862
-0.029258886
-0.026842129
-0.024623667
-0.022562323
-0.020619383
-0.018766725
-0.016987759
-0.015268502
-0.013599523
-0.011977251
-0.010401242
-0.0088648207
-0.007363717
-0.0059058685
-0.0044934861
-0.0031286573
-0.0018144655
-0.00055982994
-0.069555412
-0.065820694
-0.061861504
-0.058216742
-0.05488613
-0.051739445
-0.048639199
-0.04553068
-0.042447215
-0.039402686
-0.036418391
-0.03348782
-0.030609409
-0.027782359
-0.025006391
-0.022284845
-0.019622458
-0.017022819
-0.014487502
-0.012010687
-0.0096262211
-0.0073241722
-0.0051008798
-0.0029616057
-0.00093046906
-0.12061166
-0.11601147
-0.10966865
-0.1019752
-0.094424209
-0.086964619
-0.079614754
-0.07254823
-0.065800975
-0.059391484
-0.053430201
-0.047844792
-0.042579759
-0.037514306
-0.032830323
-0.028516047
-0.024544418
-0.020886359
-0.017511096
-0.014393056
-0.011466891
-0.0087122949
-0.0061070162
-0.0036215188
-0.0012308686
-0.28981411
-0.23770397
-0.20653323
-0.16970728
-0.13983173
-0.11408327
-0.092453711
-0.074716613
-0.060274953
-0.048550711
-0.038977405
-0.031255799
-0.025049423
-0.02009789
-0.01602806
-0.012719716
-0.010034217
-0.0078559273
-0.0060927451
-0.0046689528
-0.0035102971
-0.0025581892
-0.0017646866
-0.0010805331
-0.00050086104
-0.39641569
-0.17315142
-0.11686301
-0.076299998
-0.039934226
-0.010805973
0.00838724
0.018804507
0.023686687
0.025555877
0.025759707
0.02491703
0.023397209
0.021495306
0.019415266
0.017283536
0.015170093
0.013115018
0.01113675
0.0092384682
0.0074148141
0.0056540774
0.0039354295
0.0022529771
0.00052534809
-0.26513795
-0.22075681
-0.18518782
-0.15375973
-0.12593792
-0.10190749
-0.0819946
-0.06579291
-0.052665358
-0.042174093
-0.033703931
-0.026889005
-0.021411065
-0.016972345
-0.013379798
-0.010470501
-0.008138636
-0.0062769268
-0.0047938893
-0.0036158695
-0.002681453
-0.0019371555
-0.0013379152
-0.00083587313
-0.00042978684
-0.16249953
-0.13993159
-0.12356516
-0.11058103
-0.099500573
-0.089911209
-0.081246058
-0.073349623
-0.06613264
-0.059391011
-0.053156941
-0.047292153
-0.041823889
-0.036792579
-0.032169791
-0.027882228
-0.023968594
-0.020376148
-0.01706275
-0.013994725
-0.011139559
-0.0084654947
-0.0059418592
-0.0035347215
-0.0012147191
-0.098948431
-0.08383753
-0.07374579
-0.066468024
-0.060818214
-0.056139073
-0.052075357
-0.048379565
-0.044908777
-0.041548894
-0.038296692
-0.035135754
-0.032043088
-0.029019365
-0.026073154
-0.023247499
-0.020473319
-0.017769788
-0.015142727
-0.012589125
-0.010106538
-0.0076954801
-0.005360197
-0.0031096033
-0.00097356795
-0.078076358
-0.063628993
-0.052958638
-0.0452589
-0.039633295
-0.035538607
-0.032410374
-0.029806467
-0.027526084
-0.025432366
-0.02345913
-0.021567371
-0.019730926
-0.017948653
-0.016212454
-0.014521336
-0.012848575
-0.011195761
-0.0095694476
-0.007971912
-0.0064055159
-0.0048754467
-0.0033893894
-0.0019561979
-0.00059579301
-0.069170617
-0.057601753
-0.048050023
-0.040534711
-0.034635262
-0.029850214
-0.025861185
-0.022677955
-0.020107223
-0.017961941
-0.016122042
-0.014499501
-0.013025034
-0.011674731
-0.01041486
-0.0092312292
-0.0081026498
-0.0070190111
-0.0059797732
-0.0049774518
-0.0040065276
-0.0030659698
-0.0021550505
-0.001270579
-0.00040660873
-0.063924911
-0.054481271
-0.046323166
-0.039545498
-0.03398435
-0.029422292
-0.025641173
-0.022428358
-0.019682294
-0.017334766
-0.015308951
-0.013543165
-0.011991678
-0.010593356
-0.0093267126
-0.0081660057
-0.0070890053
-0.0060823159
-0.0051327898
-0.0042372325
-0.0033919811
-0.0025899834
-0.0018239096
-0.0010856607
-0.00036133496
-0.060005178
-0.052325681
-0.045407459
-0.03940241
-0.034269213
-0.029915095
-0.026205355
-0.023008331
-0.020236947
-0.017826146
-0.015721653
-0.01387508
-0.012245787
-0.010789899
-0.0094773968
-0.0082820286
-0.0071816108
-0.0061575129
-0.0051962608
-0.0042898041
-0.0034318334
-0.002615968
-0.0018361332
-0.00108648
-0.00036009507
-0.056093458
-0.049792033
-0.043934949
-0.038683627
-0.034062571
-0.030022706
-0.026495531
-0.023408324
-0.020695187
-0.018300917
-0.016181012
-0.014298895
-0.012621364
-0.011113208
-0.009748638
-0.008504285
-0.0073600546
-0.0062987217
-0.0053068844
-0.0043746273
-0.0034940635
-0.0026583252
-0.0018613532
-0.0010979
-0.00036274319
-0.052101546
-0.046899066
-0.041924149
-0.037345658
-0.033219642
-0.029535538
-0.026256844
-0.023339534
-0.020739289
-0.018416469
-0.016337037
-0.014470287
-0.012788064
-0.011264558
-0.0098783097
-0.008610113
-0.0074426922
-0.0063612754
-0.0053532929
-0.0044082822
-0.0035175188
-0.0026735771
-0.0018700479
-0.0011014346
-0.00036272673
-0.048209037
-0.043887416
-0.039659938
-0.035676319
-0.032007034
-0.028671664
-0.025657609
-0.022938215
-0.02048431
-0.018267914
-0.016262858
-0.014444716
-0.012791265
-0.011282503
-0.0099012184
-0.0086318679
-0.007460406
-0.006374071
-0.005361479
-0.0044127351
-0.0035192469
-0.0026735459
-0.001869022
-0.0010994764
-0.00035990247
-0.044590839
-0.040974151
-0.037369451
-0.033904185
-0.030651954
-0.027645601
-0.024889316
-0.022371749
-0.020074956
-0.017979331
-0.016065647
-0.014315421
-0.012711221
-0.011236848
-0.0098783343
-0.0086231898
-0.0074598918
-0.0063777067
-0.0053667187
-0.0044180288
-0.0035237773
-0.0026769514
-0.0018713434
-0.0011010113
-0.00036069134
-0.041314479
-0.038262684
-0.035172646
-0.032151323
-0.029268731
-0.026563275
-0.024049537
-0.021726859
-0.019586453
-0.017615752
-0.015800972
-0.014128214
-0.012583797
-0.011154829
-0.0098298323
-0.0085986236
-0.0074513547
-0.0063791251
-0.0053737274
-0.0044274872
-0.0035334525
-0.0026853874
-0.0018776371
-0.0011048574
-0.00036210783
-0.038360854
-0.035766745
-0.033103779
-0.03046149
-0.02790349
-0.025469347
-0.023179392
-0.021040261
-0.019050038
-0.017201941
-0.015487006
-0.013894992
-0.012415539
-0.011038373
-0.0097536971
-0.0085523863
-0.0074264761
-0.0063686397
-0.0053723032
-0.0044312374
-0.0035395289
-0.0026917559
-0.0018828961
-0.00110806
-0.00036290995
-0.035679738
-0.033460691
-0.031155343
-0.028838071
-0.02656521
-0.024375004
-0.022290354
-0.020322504
-0.018474564
-0.016744527
-0.015127229
-0.013615784
-0.012202443
-0.0108792
-0.0096379934
-0.0084709546
-0.007371205
-0.0063328
-0.005350279
-0.0044185878
-0.0035329627
-0.0026888471
-0.0018819271
-0.0011078412
-0.00036273007
-0.033221927
-0.031313365
-0.029309376
-0.027271641
-0.02524919
-0.023277803
-0.021381027
-0.019572672
-0.017859237
-0.016242215
-0.014719541
-0.013287105
-0.011939448
-0.010670544
-0.0094742369
-0.0083444621
-0.0072753242
-0.0062616247
-0.0052985056
-0.0043817199
-0.003507363
-0.002671644
-0.0018709512
-0.001101845
-0.0003608911
-0.030951831
-0.029301918
-0.027552928
-0.025755949
-0.023953353
-0.022177728
-0.020452229
-0.018791881
-0.017205305
-0.015696342
-0.014265388
-0.012910526
-0.011628362
-0.010414643
-0.0092648047
-0.008174277
-0.0071385276
-0.0061530621
-0.0052137676
-0.0043169537
-0.00345918
-0.0026372083
-0.0018479776
-0.0010886739
-0.00035644604
-0.028846288
-0.027412518
-0.025879844
-0.024290508
-0.022680874
-0.021080155
-0.01951032
-0.017986726
-0.016519209
-0.015113237
-0.01377101
-0.012492374
-0.011275606
-0.010118004
-0.0090163553
-0.0079672545
-0.0069672473
-0.0060127595
-0.0051005142
-0.00422733
-0.0033902312
-0.0025864569
-0.0018133415
-0.0010685402
-0.00034966862
-0.026888725
-0.025636446
-0.024287768
-0.022877802
-0.021437588
-0.019992996
-0.018564359
-0.017166729
-0.015810495
-0.014502188
-0.013245319
-0.012041124
-0.010889235
-0.0097882244
-0.0087360194
-0.0077302048
-0.0067681816
-0.005847251
-0.0049647627
-0.0041181187
-0.0033048446
-0.002522647
-0.0017694057
-0.0010428197
-0.00034100474
-0.025065634
-0.023966744
-0.022775303
-0.021520675
-0.020229357
-0.018924065
-0.017623315
-0.016341429
-0.015088869
-0.013872773
-0.012697562
-0.011565541
-0.010477437
-0.0094328615
-0.0084306933
-0.0074693526
-0.0065469665
-0.0056615646
-0.0048110627
-0.0039933937
-0.0032065551
-0.0024486709
-0.0017181796
-0.0010126615
-0.00033078411
-0.023365218
-0.022396763
-0.021340431
-0.020220821
-0.01906059
-0.017879619
-0.016694587
-0.015518864
-0.014362654
-0.013233346
-0.012135944
-0.011073529
-0.010047677
-0.009058852
-0.0081067263
-0.0071904322
-0.0063087472
-0.0054602577
-0.0046434092
-0.0038566019
-0.003098254
-0.0023668425
-0.001660955
-0.00097897643
-0.00031973711
-0.021776901
-0.020919989
-0.019980312
-0.018978524
-0.017934002
-0.016864114
-0.015783786
-0.014705339
-0.01363852
-0.012590716
-0.011567247
-0.010571712
-0.0096063189
-0.008672205
-0.0077697001
-0.0068985469
-0.00605808
-0.0052473708
-0.0044653184
-0.0037107315
-0.0029823891
-0.0022790769
-0.0015995574
-0.00094286293
-0.00030791819
-0.020291137
-0.019530143
-0.018691654
-0.017793078
-0.016850991
-0.01588054
-0.014895024
-0.013905692
-0.012921727
-0.011950337
-0.010996958
-0.010065493
-0.009158607
-0.0082779434
-0.0074243547
-0.0065980907
-0.0057989601
-0.0050264631
-0.0042798904
-0.0035584047
-0.0028610999
-0.0021870471
-0.0015353364
-0.00090511652
-0.0002955602
-0.018899364
-0.018221312
-0.017471024
-0.016663213
-0.015812086
-0.01493084
-0.014031283
-0.013123626
-0.012216417
-0.011316572
-0.010429497
-0.0095592651
-0.0087088314
-0.0078801989
-0.0070746175
-0.0062927401
-0.0055347704
-0.0048005816
-0.0040898058
-0.003401914
-0.0027362794
-0.0020922319
-0.0014691131
-0.00086619957
-0.00028284249
-0.017593981
-0.016988058
-0.016315026
-0.015587364
-0.014817272
-0.014016243
-0.013194742
-0.012361994
-0.011525887
-0.01069297
-0.0098685195
-0.0090566754
-0.0082605407
-0.0074823669
-0.0067236913
-0.0059854836
-0.0052682651
-0.0045722189
-0.0038972668
-0.0032431479
-0.0026094793
-0.0019958155
-0.0014017044
-0.00082657772
-0.00026991581
-0.016368285
-0.015825432
-0.015220398
-0.014563803
-0.013866145
-0.013137442
-0.01238695
-0.011622976
-0.010852754
-0.010082423
-0.0093170605
-0.0085607592
-0.0078166909
-0.0070872586
-0.0063742093
-0.0056787539
-0.0050016649
-0.0043433661
-0.0037040206
-0.0030835958
-0.0024819203
-0.0018987407
-0.0013337811
-0.0007866358
-0.00025690428
-0.015216339
-0.014728925
-0.01418402
-0.013590694
-0.012957999
-0.012294676
-0.011608909
-0.010908148
-0.010199002
-0.0094871809
-0.0087775073
-0.0080739429
-0.0073796711
-0.0066971769
-0.0060283467
-0.0053745621
-0.0047367851
-0.0041156354
-0.0035114707
-0.0029244485
-0.0023545785
-0.0018017678
-0.0012658877
-0.0007466805
-0.00024387486
-0.014132826
-0.013694388
-0.013202894
-0.012666112
-0.012091869
-0.011487799
-0.010861134
-0.010218546
-0.0095660412
-0.0089088987
-0.0082516495
-0.0075980918
-0.006951355
-0.0063139489
-0.0056878386
-0.0050745195
-0.0044750934
-0.0038903352
-0.0033207598
-0.0027666793
-0.0022282509
-0.0017055176
-0.0011984719
-0.00070697781
-0.00023088341
-0.013112916
-0.012717951
-0.012274104
-0.01178805
-0.011266569
-0.010716333
-0.010143735
-0.0095547433
-0.0089547943
-0.0083487401
-0.0077408098
-0.0071346104
-0.0065331704
-0.005938976
-0.0053540232
-0.0047798772
-0.0042177366
-0.0036684927
-0.0031327826
-0.0026110421
-0.0021035484
-0.001610462
-0.0011318868
-0.00066777882
-0.00021806371
-0.01215217
-0.011795968
-0.011394803
-0.010954424
-0.010480714
-0.0099795142
-0.0094564723
-0.0089169182
-0.0083657649
-0.0078074492
-0.0072458949
-0.0066844981
-0.006126157
-0.0055732965
-0.005027905
-0.0044915804
-0.003965583
-0.0034508841
-0.0029482128
-0.0024581021
-0.0019809279
-0.0015169497
-0.0010663689
-0.00062921774
-0.00020549077
-0.011246462
-0.010924972
-0.010562191
-0.010163081
-0.0097327558
-0.0092763317
-0.0087988001
-0.0083049129
-0.0077990992
-0.007285402
-0.0067674403
-0.0062483964
-0.0057310154
-0.0052176326
-0.0047101977
-0.0042103108
-0.0037192636
-0.0032380784
-0.0027675497
-0.0023082842
-0.001860736
-0.0014252436
-0.0010020861
-0.00059136639
-0.00019315917
-0.01039192
-0.010101646
-0.0097735131
-0.0094118163
-0.0090210071
-0.0086055708
-0.0081699153
-0.0077182737
-0.0072546294
-0.006782654
-0.006305672
-0.0058266432
-0.0053481553
-0.0048724315
-0.0044013604
-0.0039365205
-0.0034792062
-0.0030304674
-0.0025911416
-0.0021618885
-0.0017432213
-0.0013355394
-0.00093917849
-0.00055430238
-0.00018103806
-0.009584879
-0.009322791
-0.0090260507
-0.0086983833
-0.0083436691
-0.007965843
-0.0075687958
-0.0071562956
-0.0067319161
-0.0062989829
-0.0058605372
-0.0054193146
-0.0049777349
-0.0045379061
-0.0041016377
-0.0036704624
-0.0032456591
-0.0028282844
-0.0024191985
-0.0020190954
-0.0016285301
-0.0012479464
-0.00087771822
-0.00051807069
-0.00016917966
-0.0088218441
-0.0085853059
-0.0083171124
-0.0080204985
-0.0076988502
-0.0073556193
-0.0069942419
-0.0066180674
-0.0062302957
-0.005833931
-0.0054317442
-0.0050262509
-0.0046196998
-0.0042140722
-0.003811088
-0.0034122209
-0.0030187197
-0.0026316283
-0.0022518126
-0.0018799843
-0.0015167251
-0.0011625098
-0.00081774251
-0.00048270262
-0.00015761241
-0.008099466
-0.0078861785
-0.0076440377
-0.0073758554
-0.0070845879
-0.0067732638
-0.0064449156
-0.0061025168
-0.0057489283
-0.0053868556
-0.0050188142
-0.0046471069
-0.0042738108
-0.0039007739
-0.0035296175
-0.0031617466
-0.0027983652
-0.002440493
-0.0020889869
-0.0017445628
-0.0014078157
-0.00107924
-0.00075927467
-0.00044821294
-0.00014633176
-0.0074145286
-0.0072224828
-0.007004206
-0.0067621437
-0.0064988774
-0.0062170634
-0.0059193753
-0.0056084495
-0.0052868383
-0.0049569713
-0.0046211235
-0.0042813931
-0.0039396883
-0.0035977211
-0.0032570082
-0.0029188769
-0.0025844762
-0.0022547912
-0.0019306592
-0.0016127889
-0.0013017782
-0.00099813173
-0.00070230913
-0.00041461195
-0.00013534118
-0.0067639405
-0.006591379
-0.0063950451
-0.0061770655
-0.0059396929
-0.0056852554
-0.0054161065
-0.0051345797
-0.0048429462
-0.0045433807
-0.0042379327
-0.0039285053
-0.003616842
-0.0033045189
-0.0029929442
-0.0026833611
-0.0023768563
-0.0020743708
-0.0017767134
-0.0014845767
-0.0011985517
-0.00091914418
-0.0006468167
-0.00038190331
-0.00012469572
-0.0061447287
-0.0059901147
-0.005814038
-0.0056183465
-0.0054050039
-0.0051760469
-0.0049335434
-0.0046795533
-0.0044160917
-0.0041450979
-0.0038684106
-0.0035877477
-0.003304693
-0.0030206885
-0.0027370319
-0.0024548786
-0.0021752466
-0.0018990256
-0.0016269878
-0.0013598008
-0.0010980411
-0.00084220742
-0.00059275201
-0.00035002938
-0.00011433188
-0.0055540348
-0.005416025
-0.0052587276
-0.0050837456
-0.0048927874
-0.0046876305
-0.0044700867
-0.0042419679
-0.0040050552
-0.0037610707
-0.0035116558
-0.0032583529
-0.0030025922
-0.0027456841
-0.002488816
-0.0022330519
-0.001979337
-0.0017285033
-0.0014812798
-0.0012383021
-0.0010001235
-0.00076722798
-0.0005400588
-0.00031895008
-0.0001041849
-0.0049891113
-0.0048665339
-0.0047267229
-0.0045710653
-0.0044010426
-0.0042182009
-0.0040241217
-0.0038203914
-0.0036085766
-0.0033901987
-0.0031667143
-0.0029394993
-0.0027098365
-0.002478908
-0.0022477909
-0.0020174567
-0.0017887738
-0.0015625125
-0.0013393523
-0.0011198902
-0.00090464998
-0.00069409334
-0.00048864654
-0.00028861594
-9.4276402e-05
-0.0044473184
-0.0043391546
-0.0042157034
-0.0040781593
-0.0039278017
-0.0037659691
-0.0035940341
-0.0034133792
-0.0032253728
-0.0030313503
-0.0028325951
-0.0026303249
-0.002425681
-0.0022197201
-0.0020134104
-0.0018076298
-0.0016031678
-0.0014007289
-0.0012009384
-0.0010043491
-0.00081144932
-0.00062267218
-0.00043841801
-0.00025897229
-8.4599015e-05
-0.0039261194
-0.0038314878
-0.0037234192
-0.0036029365
-0.003471137
-0.0033291715
-0.0031782234
-0.0030194876
-0.0028541516
-0.0026833764
-0.0025082831
-0.0023299391
-0.0021493492
-0.0019674482
-0.0017850963
-0.0016030777
-0.001422101
-0.0012428021
-0.0010657482
-0.00089144336
-0.00072033548
-0.00055282387
-0.00038927806
-0.00022996367
-7.5128657e-05
-0.0034230732
-0.0033412162
-0.0032476895
-0.0031433607
-0.0030291623
-0.0029060744
-0.0027751073
-0.0026372833
-0.0024936213
-0.002345121
-0.00219275
-0.0020374328
-0.0018800429
-0.0017213959
-0.0015622457
-0.0014032824
-0.0012451326
-0.001088361
-0.00093347373
-0.0007809228
-0.00063111163
-0.00048440155
-0.00034112731
-0.00020153267
-6.584506e-05
-0.0029358246
-0.002866098
-0.0027863968
-0.0026974475
-0.0026000321
-0.0024949741
-0.0023831237
-0.0022653437
-0.0021424957
-0.0020154273
-0.0018849614
-0.0017518868
-0.00161695
-0.0014808506
-0.0013442378
-0.0012077077
-0.0010718038
-0.00093701796
-0.00080379275
-0.00067252525
-0.00054357127
-0.00041725053
-0.00029385976
-0.0001736178
-5.6728429e-05
-0.0024620926
-0.0024039561
-0.0023374789
-0.0022632579
-0.0021819362
-0.0020941924
-0.0020007282
-0.0019022569
-0.001799492
-0.0016931377
-0.0015838791
-0.0014723744
-0.0013592484
-0.0012450879
-0.0011304385
-0.0010158033
-0.00090164208
-0.00078837235
-0.00067637127
-0.00056597846
-0.00045749933
-0.0003512091
-0.00024736382
-0.00014615415
-4.7757621e-05
-0.0019996568
-0.0019526661
-0.0018989178
-0.0018388882
-0.0017730915
-0.0017020706
-0.0016263877
-0.0015466153
-0.0014633269
-0.0013770897
-0.0012884566
-0.0011979599
-0.0011061062
-0.0010133726
-0.00092020305
-0.00082700825
-0.00073416415
-0.00064201319
-0.00055086557
-0.00046100141
-0.00037267335
-0.00028610974
-0.00020152332
-0.00011907382
-3.8910377e-05
-0.001546338
-0.0015101388
-0.001468724
-0.0014224569
-0.0013717302
-0.0013169585
-0.001258572
-0.0011970091
-0.0011327098
-0.0010661095
-0.00099763345
-0.00092769185
-0.00085667613
-0.00078495499
-0.00071287306
-0.00064074911
-0.00056887559
-0.00049751946
-0.00042692286
-0.000357305
-0.00028886396
-0.00022177914
-0.00015621788
-9.2306467e-05
-3.0163772e-05
-0.0010999745
-0.0010742978
-0.0010449164
-0.0010120861
-0.00097608347
-0.00093720084
-0.00089574171
-0.00085201572
-0.00080633393
-0.00075900444
-0.00071032848
-0.000660597
-0.0006100879
-0.0005590638
-0.00050777026
-0.00045643479
-0.00040526667
-0.00035445697
-0.00030417928
-0.00025459091
-0.00020583417
-0.00015803792
-0.00011132249
-6.5779069e-05
-2.1494633e-05
-0.00065859875
-0.00064325445
-0.00062569416
-0.00060606997
-0.00058454631
-0.00056129721
-0.00053650338
-0.0005103493
-0.00048302048
-0.00045470076
-0.00042556998
-0.000395802
-0.00036556294
-0.00033501002
-0.00030429049
-0.00027354098
-0.00024288734
-0.00021244453
-0.00018231724
-0.00015260019
-0.00012337912
-9.4731675e-05
-6.6730187e-05
-3.9429588e-05
-1.288404e-05
-0.00021946171
-0.00021435239
-0.00020850489
-0.00020196975
-0.0001948016
-0.00018705831
-0.00017879994
-0.00017008787
-0.00016098382
-0.00015154902
-0.00014184332
-0.00013192461
-0.0001218482
-0.00011166643
-0.00010142844
-9.1179843e-05
-8.0962673e-05
-7.0815427e-05
-6.0773127e-05
-5.0867476e-05
-4.1127087e-05
-3.1577837e-05
-2.224392e-05
-1.3143076e-05
-4.2945385e-06
)
;

boundaryField
{
    Walls
    {
        type            zeroGradient;
    }
    Inlet
    {
        type            fixedValue;
        value           uniform 500;
    }
    Outlet
    {
        type            fixedValue;
        value           uniform 0;
    }
    Front
    {
        type            wedge;
    }
    Back
    {
        type            wedge;
    }
    defaultFaces
    {
        type            empty;
    }
}


// ************************************************************************* //
