/*--------------------------------*- C++ -*----------------------------------*\
| =========                 |                                                 |
| \\      /  F ield         | OpenFOAM: The Open Source CFD Toolbox           |
|  \\    /   O peration     | Version:  4.0                                   |
|   \\  /    A nd           | Web:      www.OpenFOAM.org                      |
|    \\/     M anipulation  |                                                 |
\*---------------------------------------------------------------------------*/
FoamFile
{
    version     2.0;
    format      ascii;
    class       volVectorField;
    location    "0.5";
    object      U;
}
// * * * * * * * * * * * * * * * * * * * * * * * * * * * * * * * * * * * * * //

dimensions      [0 1 -1 0 0 0 0];

internalField   nonuniform List<vector> 
1740
(
(1.5196396 0.010193619 4.3710489e-06)
(1.5663385 -0.0092591863 7.3154828e-07)
(1.5693688 -0.0086466145 5.0835307e-08)
(1.5443253 0.0092352663 7.2568232e-06)
(1.6753376 -0.016131562 1.3484765e-06)
(1.5650361 -0.017524299 2.8018254e-07)
(1.5327749 -0.0055006673 9.8544333e-06)
(1.6700779 -0.010477764 2.2663862e-06)
(1.5446365 -0.0056176788 4.4705166e-07)
(1.550913 -0.00042118795 1.3091221e-05)
(1.553819 0.00079118171 3.3296222e-06)
(1.5479005 -0.0030159151 5.6857516e-07)
(1.5328712 0.012999158 1.4762062e-05)
(1.6513101 0.0095455477 4.0435716e-06)
(1.5565595 -0.0030784243 7.9556674e-07)
(1.5086038 -0.0053531531 1.6276906e-05)
(1.6460015 0.016599832 5.1745082e-06)
(1.5251451 0.010440419 9.8374115e-07)
(1.5096734 -0.019695223 1.7153019e-05)
(1.5147766 0.0056714961 5.7722981e-06)
(1.6011444 0.00021031163 1.1303761e-06)
(1.588366 -0.027090034 1.7960726e-05)
(1.5995644 -0.030971844 6.5520097e-06)
(1.5981634 -0.011614764 1.3702663e-06)
(1.7059154 -0.0090076428 1.8681219e-05)
(1.5998469 -0.01194784 7.1003509e-06)
(1.4990398 -0.0035476788 1.5488783e-06)
(1.6108264 0.01962591 1.8768922e-05)
(1.5777691 0.017970059 7.8741158e-06)
(1.573009 0.0032138141 1.6924677e-06)
(1.5840758 0.0071414554 1.8993326e-05)
(1.6033018 0.0073698527 8.3227983e-06)
(1.588286 0.0016656475 1.9394379e-06)
(1.5734476 -0.0066405664 1.963432e-05)
(1.5381274 -0.0067063573 8.8863763e-06)
(1.5256468 -0.0030390818 2.14349e-06)
(1.6052433 -0.011322563 2.0288114e-05)
(1.6182481 0.0014406312 9.4005036e-06)
(1.5535756 0.0078672005 2.2789254e-06)
(1.6172941 0.00073532115 2.046839e-05)
(1.6251131 0.030534468 9.7187356e-06)
(1.5639759 0.019420881 2.5202912e-06)
(1.5113856 -0.0037721001 2.0723352e-05)
(1.5215949 0.015890019 1.0346817e-05)
(1.6133854 0.0079469402 2.6609549e-06)
(1.6030947 -0.0077543555 2.0819509e-05)
(1.4941752 -0.014164025 1.0828465e-05)
(1.581281 -0.0062799481 2.8934645e-06)
(1.594293 0.0014467953 2.0984572e-05)
(1.5999827 -0.0067435667 1.1005629e-05)
(1.5963325 -0.0084573655 2.9687249e-06)
(1.6029681 -0.010811568 2.1209266e-05)
(1.6177461 -0.013717487 1.1775057e-05)
(1.6173969 -0.0074904906 3.2625032e-06)
(1.6348326 0.0065529889 2.1621708e-05)
(1.5094188 -0.014607679 1.213223e-05)
(1.5136382 -0.012566926 3.412193e-06)
(1.5306009 0.023522876 2.1504377e-05)
(1.6318582 -0.0024436594 1.2437199e-05)
(1.5226592 -0.0096838381 3.5714351e-06)
(1.5391788 -0.0049240331 2.1666306e-05)
(1.6581014 -0.0013484069 1.282822e-05)
(1.5367596 0.0044396437 3.7618859e-06)
(1.6159025 -0.005223074 2.204194e-05)
(1.5571726 0.005540454 1.315355e-05)
(1.5562144 0.0042830524 3.918563e-06)
(1.5858152 0.013463481 2.2523923e-05)
(1.6392425 0.013369567 1.346936e-05)
(1.5666979 0.0016034864 4.1199502e-06)
(1.4984796 0.0055660699 2.2740461e-05)
(1.6340635 0.018745007 1.3912884e-05)
(1.5269393 0.012471575 4.2554693e-06)
(1.5118433 -0.0047164676 2.2528902e-05)
(1.5278357 0.0060873407 1.4137043e-05)
(1.5959899 0.0078119747 4.3809617e-06)
(1.5126587 -0.003839407 2.2419397e-05)
(1.5437224 -0.02500579 1.4428352e-05)
(1.598024 -0.015283696 4.5751782e-06)
(1.5310372 -0.014160327 2.2404499e-05)
(1.6216481 -0.019386351 1.4576045e-05)
(1.4646816 -0.010666975 4.714748e-06)
(1.5782348 -0.0051207829 2.2728367e-05)
(1.5788143 0.0022553268 1.4953632e-05)
(1.5395494 0.0053461755 4.8555762e-06)
(1.4430463 0.008674851 2.2114996e-05)
(1.5257593 0.0051988201 1.5040823e-05)
(1.5095359 -0.0026309149 4.8486023e-06)
(1.261016 0.038386541 2.2946966e-05)
(1.3660127 0.10401152 1.5641029e-05)
(1.3479723 0.054987509 5.5043211e-06)
(0.84591996 0.36675951 1.1573992e-05)
(0.82320773 0.93601142 9.9763775e-06)
(0.75356378 1.2570802 5.3858469e-06)
(0.22914243 0.11514746 1.4656599e-06)
(0.20038451 0.37777244 3.1328644e-06)
(0.086798008 0.51805483 7.2749177e-07)
(-0.030008133 -0.013022427 1.2154352e-06)
(-0.027231638 -0.026056274 1.6785332e-06)
(-0.022185644 -0.030356743 5.7656957e-07)
(-0.0084097944 -0.0027971086 4.4537683e-07)
(-0.0082032922 -0.0073829619 7.2648459e-07)
(-0.0080977507 -0.010576109 3.2619511e-07)
(-0.0026292242 -0.00039422244 1.2283651e-07)
(-0.0029287221 -0.0012396143 2.3932148e-07)
(-0.0033154813 -0.0021922305 1.0045285e-07)
(-0.0017752307 -0.00014807782 2.5763876e-08)
(-0.0018824478 -0.00042196635 4.9582585e-08)
(-0.0019790524 -0.00075797621 -1.5510375e-08)
(-0.0013189857 -7.0678461e-05 -4.8256696e-09)
(-0.0013422413 -0.00018163973 -1.7918946e-08)
(-0.0012977869 -0.00032894847 -6.0693923e-08)
(-0.0010847476 -3.50064e-05 -1.4408615e-08)
(-0.0010766997 -8.2904943e-05 -3.8685888e-08)
(-0.0010145687 -0.00015889635 -7.1739389e-08)
(-0.00094669499 -3.3309713e-05 -1.4936324e-08)
(-0.00092951199 -7.8766584e-05 -3.9683115e-08)
(-0.000867774 -0.00012579373 -6.6430719e-08)
(-0.00083397825 -3.8803952e-05 -1.2140471e-08)
(-0.00081544934 -8.823129e-05 -3.3340099e-08)
(-0.00076097431 -0.00014259264 -5.4878403e-08)
(-0.00072571761 -4.1742786e-05 -8.8891071e-09)
(-0.00070896102 -9.5256731e-05 -2.5610776e-08)
(-0.00066370729 -0.00014825425 -4.2583907e-08)
(-0.00062466466 -3.7325796e-05 -6.3995282e-09)
(-0.00061063879 -8.570286e-05 -1.9040807e-08)
(-0.00057403198 -0.00013343761 -3.1988729e-08)
(-0.00053714201 -2.7488847e-05 -4.7568008e-09)
(-0.00052570705 -6.4863509e-05 -1.4084747e-08)
(-0.00049625564 -0.00010354932 -2.3648269e-08)
(-0.00046507929 -2.1380374e-05 -3.5430448e-09)
(-0.0004558801 -4.8823557e-05 -1.0370314e-08)
(-0.00043223118 -7.6461961e-05 -1.7256955e-08)
(-0.00040732525 -1.6052558e-05 -2.6471071e-09)
(-0.00039999127 -3.7187e-05 -7.5470448e-09)
(-0.00038100225 -5.7714054e-05 -1.2381442e-08)
(-0.00036101946 -1.2907301e-05 -1.9113445e-09)
(-0.0003551909 -2.9685621e-05 -5.3531481e-09)
(-0.00033988274 -4.6515929e-05 -8.6682971e-09)
(-0.00032303612 -1.1077929e-05 -1.3136716e-09)
(-0.00031838576 -2.5109777e-05 -3.6675929e-09)
(-0.0003059505 -4.0092003e-05 -5.8866454e-09)
(-0.00029108689 -9.7929547e-06 -8.5663349e-10)
(-0.00028736375 -2.2228302e-05 -2.4179773e-09)
(-0.00027719259 -3.5285814e-05 -3.8674889e-09)
(-0.00026375613 -8.6199626e-06 -5.3543001e-10)
(-0.00026077471 -1.9658388e-05 -1.5413772e-09)
(-0.00025241565 -3.1118164e-05 -2.4611361e-09)
(-0.00024014246 -7.5278282e-06 -3.2537475e-10)
(-0.00023775447 -1.7221828e-05 -9.594703e-10)
(-0.00023085076 -2.7345869e-05 -1.5243953e-09)
(-0.00021960532 -6.5305129e-06 -1.9631611e-10)
(-0.00021768913 -1.4959104e-05 -5.911736e-10)
(-0.00021195078 -2.3802938e-05 -9.2608654e-10)
(-0.00020164362 -5.6803551e-06 -1.189339e-10)
(-0.00020010161 -1.3010606e-05 -3.645515e-10)
(-0.00019529752 -2.074494e-05 -5.5581465e-10)
(-0.00018584181 -4.9934596e-06 -7.2132666e-11)
(-0.00018459693 -1.1441241e-05 -2.2655289e-10)
(-0.00018054501 -1.8288812e-05 -3.3149421e-10)
(-0.00017185009 -4.4223281e-06 -4.571081e-11)
(-0.00017084182 -1.0134521e-05 -1.45113e-10)
(-0.00016739873 -1.6252138e-05 -1.9901771e-10)
(-0.00015937594 -3.9524591e-06 -3.0468402e-11)
(-0.00015855687 -9.0616643e-06 -9.6808982e-11)
(-0.00015560999 -1.4551112e-05 -1.2181881e-10)
(-0.00014817913 -3.5622663e-06 -2.1538638e-11)
(-0.0001475122 -8.1745631e-06 -6.7909865e-11)
(-0.00014497303 -1.3131403e-05 -7.7134871e-11)
(-0.00013806773 -3.2308478e-06 -1.6608755e-11)
(-0.00013752372 -7.4182699e-06 -5.0947509e-11)
(-0.00013532204 -1.1928594e-05 -5.1818508e-11)
(-0.00012889097 -2.9413848e-06 -1.4261631e-11)
(-0.00012844663 -6.7553907e-06 -4.1248909e-11)
(-0.00012652594 -1.0874731e-05 -3.7894448e-11)
(-0.00012052979 -2.6850907e-06 -1.3292741e-11)
(-0.00012016644 -6.1691818e-06 -3.5523089e-11)
(-0.00011848097 -9.9408426e-06 -3.0221346e-11)
(-0.00011288944 -2.4566997e-06 -1.2956425e-11)
(-0.00011259209 -5.6467959e-06 -3.19026e-11)
(-0.0001111047 -9.1071052e-06 -2.5900441e-11)
(-0.00010589429 -2.2505446e-06 -1.302076e-11)
(-0.00010565092 -5.175122e-06 -2.9694391e-11)
(-0.00010433136 -8.3558169e-06 -2.3549008e-11)
(-9.9483497e-05 -2.0651016e-06 -1.2906949e-11)
(-9.9284452e-05 -4.7531316e-06 -2.7837361e-11)
(-9.8107891e-05 -7.6847165e-06 -2.195082e-11)
(-9.3607717e-05 -1.8945764e-06 -1.2864387e-11)
(-9.3445224e-05 -4.3652374e-06 -2.6617774e-11)
(-9.2391104e-05 -7.057921e-06 -2.1190652e-11)
(-8.8226571e-05 -1.7352098e-06 -1.3025781e-11)
(-8.8094304e-05 -3.9978872e-06 -2.60905e-11)
(-8.7145427e-05 -6.4587348e-06 -2.1129327e-11)
(-8.330626e-05 -1.5834079e-06 -1.3507929e-11)
(-8.3199006e-05 -3.6464679e-06 -2.5989167e-11)
(-8.2340851e-05 -5.8986337e-06 -2.1240063e-11)
(-7.8817637e-05 -1.4435295e-06 -1.3527066e-11)
(-7.8731126e-05 -3.3258275e-06 -2.549258e-11)
(-7.7951387e-05 -5.3836457e-06 -2.1136133e-11)
(-7.4735106e-05 -1.3116294e-06 -1.3337636e-11)
(-7.4665855e-05 -3.0242224e-06 -2.4849225e-11)
(-7.3954041e-05 -4.8965933e-06 -2.0946332e-11)
(-7.1035916e-05 -1.1859685e-06 -1.3149201e-11)
(-7.0981045e-05 -2.73626e-06 -2.4264703e-11)
(-7.0328107e-05 -4.4315202e-06 -2.0762835e-11)
(-6.7699488e-05 -1.0667815e-06 -1.2968672e-11)
(-6.7656591e-05 -2.4626271e-06 -2.3760536e-11)
(-6.7054654e-05 -3.989518e-06 -2.0607012e-11)
(-6.4706979e-05 -9.5415541e-07 -1.2790966e-11)
(-6.4674047e-05 -2.203866e-06 -2.3353611e-11)
(-6.4116218e-05 -3.5715525e-06 -2.0509138e-11)
(-6.2041186e-05 -8.4754617e-07 -1.2630092e-11)
(-6.2016533e-05 -1.9584068e-06 -2.3051335e-11)
(-6.149673e-05 -3.1746028e-06 -2.048566e-11)
(-5.9686587e-05 -7.4397571e-07 -1.2552811e-11)
(-5.9668777e-05 -1.7191329e-06 -2.2864566e-11)
(-5.9181565e-05 -2.7858257e-06 -2.0541506e-11)
(-5.762931e-05 -6.4572705e-07 -1.2492501e-11)
(-5.7617119e-05 -1.4923209e-06 -2.2749462e-11)
(-5.7157616e-05 -2.4192287e-06 -2.0630383e-11)
(-5.5857215e-05 -5.518272e-07 -1.2430579e-11)
(-5.5849606e-05 -1.2752081e-06 -2.2676615e-11)
(-5.5413433e-05 -2.0673574e-06 -2.0730133e-11)
(-5.4360161e-05 -4.6067451e-07 -1.2411138e-11)
(-5.4356248e-05 -1.0645283e-06 -2.2664536e-11)
(-5.3939407e-05 -1.7243688e-06 -2.0841613e-11)
(-5.3130374e-05 -3.7170259e-07 -1.255733e-11)
(-5.3129385e-05 -8.5872943e-07 -2.2784784e-11)
(-5.2728187e-05 -1.3927771e-06 -2.0929699e-11)
(-5.2162933e-05 -2.8507254e-07 -1.2679523e-11)
(-5.2164189e-05 -6.5713309e-07 -2.2779928e-11)
(-5.1775179e-05 -1.064727e-06 -2.075178e-11)
(-5.1444667e-05 -1.9903913e-07 -1.2686082e-11)
(-5.1447498e-05 -4.5722302e-07 -2.2215466e-11)
(-5.1067441e-05 -7.4034293e-07 -1.9750133e-11)
(-5.1008457e-05 -1.1261983e-07 -1.2147027e-11)
(-5.1012392e-05 -2.5856396e-07 -2.008398e-11)
(-5.0637982e-05 -4.2156715e-07 -1.6979686e-11)
(-5.076614e-05 -2.9923611e-08 -9.3639192e-12)
(-5.0770298e-05 -6.7595706e-08 -1.3982564e-11)
(-5.0398705e-05 -1.1234584e-07 -1.0871987e-11)
(-0.048942439 1.9680936 -3.622082e-07)
(-0.034304123 1.7151575 -3.4497814e-06)
(-0.065000135 0.3547611 -2.4583546e-07)
(-0.044464697 0.1602 -1.0171272e-06)
(-0.016289076 -0.039001195 -2.2054009e-07)
(-0.011679876 -0.042070399 -6.2862716e-07)
(-0.0065976813 -0.013602095 -1.1437789e-07)
(-0.00537035 -0.014963771 -4.114897e-07)
(-0.0028911335 -0.0032409081 -1.1581666e-07)
(-0.0021603275 -0.0040466112 -2.9909367e-07)
(-0.0016913853 -0.0010976694 -1.2703458e-07)
(-0.0012097865 -0.0013403302 -2.3671664e-07)
(-0.0010917961 -0.00045624656 -1.2583322e-07)
(-0.00078632792 -0.00049906256 -1.9383822e-07)
(-0.00085864757 -0.00020449572 -1.1424454e-07)
(-0.0006453336 -0.00019128328 -1.5881944e-07)
(-0.00074963025 -0.00015246227 -9.665329e-08)
(-0.00059547156 -0.00015462577 -1.275235e-07)
(-0.00067051776 -0.00017882256 -7.7407802e-08)
(-0.00055589772 -0.00019189151 -9.9703943e-08)
(-0.00059399942 -0.00019036913 -5.9642233e-08)
(-0.00050722834 -0.00021525637 -7.6117667e-08)
(-0.00051958837 -0.00017195949 -4.4791092e-08)
(-0.00045262691 -0.00019657348 -5.698141e-08)
(-0.00045329167 -0.00013514432 -3.3051075e-08)
(-0.00040073923 -0.00015645399 -4.194806e-08)
(-0.0003980871 -9.9631064e-05 -2.3993055e-08)
(-0.00035639576 -0.00011657437 -3.035305e-08)
(-0.00035367476 -7.4897475e-05 -1.7085341e-08)
(-0.00032024755 -8.8767871e-05 -2.1523763e-08)
(-0.00031783487 -6.0557161e-05 -1.1875955e-08)
(-0.00029074078 -7.1743357e-05 -1.4898242e-08)
(-0.00028800683 -5.2600301e-05 -8.0223398e-09)
(-0.00026585794 -6.2066107e-05 -1.0029933e-08)
(-0.00026247867 -4.6553431e-05 -5.2546963e-09)
(-0.00024424746 -5.5364504e-05 -6.5548343e-09)
(-0.0002402841 -4.1239509e-05 -3.3383243e-09)
(-0.00022518064 -4.9545166e-05 -4.1581812e-09)
(-0.00022079231 -3.6297444e-05 -2.0621931e-09)
(-0.00020820085 -4.384206e-05 -2.5646144e-09)
(-0.00020355542 -3.1784294e-05 -1.2442742e-09)
(-0.00019299009 -3.8583096e-05 -1.5422497e-09)
(-0.00018823989 -2.7826263e-05 -7.3691257e-10)
(-0.00017931275 -3.3914799e-05 -9.0717833e-10)
(-0.00017456868 -2.4548254e-05 -4.3009441e-10)
(-0.00016697262 -3.0018502e-05 -5.2323637e-10)
(-0.00016230116 -2.1877151e-05 -2.4882918e-10)
(-0.00015579435 -2.6852346e-05 -2.965501e-10)
(-0.00015123148 -1.9645669e-05 -1.4396637e-10)
(-0.00014562134 -2.4229044e-05 -1.6570799e-10)
(-0.0001411876 -1.7785622e-05 -8.4229763e-11)
(-0.00013631958 -2.2020448e-05 -9.178997e-11)
(-0.00013202918 -1.6197333e-05 -5.0948533e-11)
(-0.00012777943 -2.0111535e-05 -5.1096018e-11)
(-0.00012364436 -1.4796723e-05 -3.3022984e-11)
(-0.00011991326 -1.8418442e-05 -2.9467923e-11)
(-0.00011594479 -1.3551848e-05 -2.357646e-11)
(-0.00011265159 -1.690855e-05 -1.8337911e-11)
(-0.00010886052 -1.244183e-05 -1.8695014e-11)
(-0.00010593901 -1.5558908e-05 -1.2839433e-11)
(-0.00010233543 -1.1434581e-05 -1.63364e-11)
(-9.9730904e-05 -1.4332582e-05 -1.0379319e-11)
(-9.6324071e-05 -1.0518618e-05 -1.5195972e-11)
(-9.3991183e-05 -1.3188944e-05 -9.5152182e-12)
(-9.0789362e-05 -9.6588024e-06 -1.4887069e-11)
(-8.8690292e-05 -1.2127524e-05 -9.4711083e-12)
(-8.5700583e-05 -8.850514e-06 -1.5097457e-11)
(-8.3803555e-05 -1.1137346e-05 -9.845969e-12)
(-8.1031627e-05 -8.0998149e-06 -1.5433126e-11)
(-7.9309731e-05 -1.0207025e-05 -1.038404e-11)
(-7.6759694e-05 -7.3979499e-06 -1.5696139e-11)
(-7.5189941e-05 -9.3279885e-06 -1.092414e-11)
(-7.2864371e-05 -6.7307543e-06 -1.5900488e-11)
(-7.1426945e-05 -8.4910186e-06 -1.1412422e-11)
(-6.9327034e-05 -6.0939276e-06 -1.6073638e-11)
(-6.8004719e-05 -7.6923281e-06 -1.1845081e-11)
(-6.6130461e-05 -5.4882774e-06 -1.6232558e-11)
(-6.4908202e-05 -6.9312081e-06 -1.2235135e-11)
(-6.3258629e-05 -4.9154486e-06 -1.6406075e-11)
(-6.2123173e-05 -6.2067042e-06 -1.2610695e-11)
(-6.0696648e-05 -4.3727088e-06 -1.6619969e-11)
(-5.9636224e-05 -5.5169621e-06 -1.3001075e-11)
(-5.8430834e-05 -3.8341061e-06 -1.6886997e-11)
(-5.7434898e-05 -4.8588513e-06 -1.3401452e-11)
(-5.6448903e-05 -3.3336345e-06 -1.7141541e-11)
(-5.5507954e-05 -4.2223568e-06 -1.377327e-11)
(-5.4740131e-05 -2.8496495e-06 -1.7376695e-11)
(-5.3845546e-05 -3.6071834e-06 -1.4103334e-11)
(-5.3295475e-05 -2.3759082e-06 -1.7571213e-11)
(-5.2439366e-05 -3.0093348e-06 -1.4365445e-11)
(-5.2108031e-05 -1.9194391e-06 -1.7649649e-11)
(-5.1283087e-05 -2.4297442e-06 -1.4462679e-11)
(-5.1173554e-05 -1.4667601e-06 -1.7368576e-11)
(-5.0372906e-05 -1.8558143e-06 -1.4168905e-11)
(-5.0479443e-05 -1.0196962e-06 -1.6220292e-11)
(-4.9696671e-05 -1.2903306e-06 -1.3072956e-11)
(-5.0058546e-05 -5.815503e-07 -1.3480391e-11)
(-4.928699e-05 -7.3645674e-07 -1.0646445e-11)
(-4.9823617e-05 -1.5561363e-07 -8.222462e-12)
(-4.905778e-05 -1.9746207e-07 -6.3224885e-12)
(0.005251902 -4.9907685e-05 -1.1065767e-07)
(0.0050535226 -0.00015166995 -2.6213478e-07)
(0.00467889 -0.00017739665 -3.7054222e-07)
(0.0042483547 -0.00020489293 -4.3871626e-07)
(0.0038114945 -0.00019956148 -4.7525546e-07)
(0.0033945263 -0.00019615897 -4.8992034e-07)
(0.003011089 -0.0001905658 -4.9008552e-07)
(0.0026645591 -0.00019269442 -4.8094237e-07)
(0.0023545451 -0.00020183455 -4.6610736e-07)
(0.0020788919 -0.00021941773 -4.4808063e-07)
(0.0018345634 -0.00024667576 -4.2859345e-07)
(0.0016178648 -0.00028275622 -4.0868609e-07)
(0.0014250082 -0.0003253931 -3.8885125e-07)
(0.0012524441 -0.00037251925 -3.6917317e-07)
(0.0010970023 -0.00042175281 -3.4950428e-07)
(0.00095589149 -0.00047069366 -3.2956262e-07)
(0.00082658411 -0.00051873634 -3.0895491e-07)
(0.00070690517 -0.00056384157 -2.8712334e-07)
(0.00059537895 -0.0006024075 -2.6345475e-07)
(0.00049076607 -0.00063352316 -2.3723842e-07)
(0.00039219019 -0.00065618202 -2.0770859e-07)
(0.00029880643 -0.00066996023 -1.7372811e-07)
(0.0002098094 -0.00067478274 -1.3431733e-07)
(0.00012431172 -0.00067541822 -8.8910831e-08)
(4.0649894e-05 -0.00064000883 -3.6904736e-08)
(0.00034285691 -0.00015536839 -1.2661833e-07)
(0.00029688359 -0.00061984824 -2.9600857e-07)
(0.00024256333 -0.00084534942 -4.1071416e-07)
(0.00021407677 -0.0011428136 -4.7655846e-07)
(0.0002141526 -0.0013614965 -5.0719221e-07)
(0.00023124605 -0.0015892352 -5.1585631e-07)
(0.00025479538 -0.0018117689 -5.1097668e-07)
(0.0002816128 -0.00205689 -4.979686e-07)
(0.00030524937 -0.0023249679 -4.802331e-07)
(0.00032300917 -0.0025942355 -4.5999091e-07)
(0.00033386491 -0.0028630489 -4.3893273e-07)
(0.00033723925 -0.003128767 -4.1796571e-07)
(0.00033327448 -0.0033859248 -3.974638e-07)
(0.00032276255 -0.0036307666 -3.7735813e-07)
(0.00030653068 -0.003860278 -3.5741418e-07)
(0.00028547697 -0.0040750258 -3.3732388e-07)
(0.00026060917 -0.0042842544 -3.1674498e-07)
(0.00023290886 -0.0044780504 -2.949896e-07)
(0.00020286502 -0.004632182 -2.7149194e-07)
(0.00017093745 -0.0047393807 -2.4547627e-07)
(0.00013813122 -0.0047966131 -2.1647063e-07)
(0.00010507999 -0.0048062415 -1.8265698e-07)
(7.2361341e-05 -0.0047714159 -1.4275903e-07)
(4.0595748e-05 -0.0046780118 -9.5125241e-08)
(1.1058072e-05 -0.0044667837 -4.116364e-08)
(0.0011312436 -0.00036649034 -1.6504447e-07)
(0.0010535219 -0.0016426411 -3.7185122e-07)
(0.0010313886 -0.002158022 -4.9529467e-07)
(0.0010512944 -0.0029713935 -5.5162815e-07)
(0.0010891406 -0.0036141434 -5.6859003e-07)
(0.0011252617 -0.0042949881 -5.6491813e-07)
(0.0011456276 -0.004980828 -5.5007673e-07)
(0.0011463068 -0.0058427219 -5.2984276e-07)
(0.0011297023 -0.0068574114 -5.0683346e-07)
(0.001097914 -0.0078128961 -4.8240466e-07)
(0.0010539478 -0.0086574502 -4.5848309e-07)
(0.00099961202 -0.0093806588 -4.3563514e-07)
(0.00093689149 -0.0099760944 -4.1406285e-07)
(0.00086756172 -0.0104507 -3.9332336e-07)
(0.00079315628 -0.010811142 -3.7301737e-07)
(0.00071515958 -0.011058354 -3.5277775e-07)
(0.00063521774 -0.011184791 -3.3264615e-07)
(0.00055461552 -0.011210786 -3.1130284e-07)
(0.00047403447 -0.011165236 -2.8858719e-07)
(0.00039366793 -0.011062391 -2.6375082e-07)
(0.00031566422 -0.010912027 -2.3589321e-07)
(0.00023978367 -0.010723077 -2.0355023e-07)
(0.00016612483 -0.010502106 -1.6470321e-07)
(9.5304344e-05 -0.010220533 -1.1590344e-07)
(2.9243506e-05 -0.0098349866 -5.6959835e-08)
(0.003601808 -0.001127668 -2.4754063e-07)
(0.003511178 -0.0048238499 -5.1244248e-07)
(0.003392572 -0.0060305233 -6.3442116e-07)
(0.0032071051 -0.0090537994 -6.6533436e-07)
(0.0030095645 -0.011738351 -6.5775858e-07)
(0.0027932027 -0.014188867 -6.3477618e-07)
(0.0025609195 -0.01597044 -6.0519106e-07)
(0.0023223236 -0.016931943 -5.7587213e-07)
(0.0020900772 -0.017229191 -5.4697538e-07)
(0.0018659592 -0.017116445 -5.1665728e-07)
(0.0016561667 -0.0166951 -4.8907674e-07)
(0.0014602911 -0.016077995 -4.6374147e-07)
(0.0012768435 -0.015279224 -4.4108372e-07)
(0.001100251 -0.014353935 -4.1970953e-07)
(0.0009410043 -0.013357465 -3.9906198e-07)
(0.00079896742 -0.012334978 -3.7887332e-07)
(0.00067287453 -0.011325015 -3.5881553e-07)
(0.0005611574 -0.010360769 -3.3839597e-07)
(0.00046258705 -0.0094652622 -3.1711912e-07)
(0.00037599239 -0.0086601517 -2.9433122e-07)
(0.00029740038 -0.0079605509 -2.6919226e-07)
(0.00022560878 -0.0073709797 -2.4047756e-07)
(0.00015930838 -0.0068909599 -2.0634644e-07)
(9.6699014e-05 -0.0064793645 -1.6371604e-07)
(3.599467e-05 -0.0061888653 -1.0288254e-07)
(0.011861096 -0.0087495222 -4.3532434e-07)
(0.0092686227 -0.025610659 -7.5042157e-07)
(0.0077755291 -0.027728692 -8.3504895e-07)
(0.0059843263 -0.031709584 -8.2265699e-07)
(0.0045631581 -0.029014195 -7.8310564e-07)
(0.0033472927 -0.025224112 -7.3505327e-07)
(0.002351495 -0.020618873 -6.8753689e-07)
(0.0015654529 -0.015733914 -6.4331001e-07)
(0.000955781 -0.010831631 -6.0399808e-07)
(0.00049012869 -0.0063143459 -5.679208e-07)
(0.00013675792 -0.0022355836 -5.3547289e-07)
(-0.00012005213 0.0012795098 -5.0535981e-07)
(-0.00029829433 0.0045508945 -4.8126105e-07)
(-0.00041196115 0.0076794035 -4.5847548e-07)
(-0.00048107017 0.010563228 -4.3652131e-07)
(-0.00051227864 0.013067008 -4.1555734e-07)
(-0.00051329437 0.015158355 -3.9526572e-07)
(-0.0004905288 0.016853266 -3.7524366e-07)
(-0.00044901731 0.018178862 -3.5504245e-07)
(-0.0003925068 0.019164946 -3.3414616e-07)
(-0.00032684446 0.01983869 -3.1190671e-07)
(-0.00025463107 0.020225583 -2.874092e-07)
(-0.00017803217 0.020322436 -2.5917635e-07)
(-0.00010034437 0.020186792 -2.3159532e-07)
(-2.3046355e-05 0.019474345 -2.0410116e-07)
(0.014851633 0.024762908 -7.9725221e-07)
(0.0030846594 0.00040137177 -1.1272057e-06)
(0.00039516789 0.049883001 -1.1297984e-06)
(-0.0013694083 0.052965428 -1.0566044e-06)
(-0.0029134264 0.066921621 -9.7944892e-07)
(-0.004080014 0.076967162 -8.9291444e-07)
(-0.0047148341 0.083963542 -8.1529549e-07)
(-0.0048944918 0.089781575 -7.4798658e-07)
(-0.0047943688 0.094038847 -6.8964586e-07)
(-0.0045506501 0.096675581 -6.3984547e-07)
(-0.0042416962 0.098166179 -5.9789462e-07)
(-0.0038761205 0.098572604 -5.5429543e-07)
(-0.003508007 0.09824857 -5.2963167e-07)
(-0.0031529084 0.096901096 -5.0286395e-07)
(-0.0027961215 0.094703573 -4.7643735e-07)
(-0.0024504297 0.092246564 -4.5274798e-07)
(-0.0021241719 0.089591969 -4.3072473e-07)
(-0.0018179528 0.08682282 -4.0976495e-07)
(-0.0015311327 0.084015301 -3.893946e-07)
(-0.0012625451 0.081226509 -3.6915826e-07)
(-0.0010083882 0.07849294 -3.4855276e-07)
(-0.00076696571 0.075856803 -3.269494e-07)
(-0.00053596913 0.07328979 -3.0369016e-07)
(-0.00031346665 0.070979477 -2.7963493e-07)
(-9.3872514e-05 0.067484015 -2.5605308e-07)
(-0.001280692 1.1863751 -2.5157779e-06)
(-0.00089538541 0.96895764 -2.0031203e-06)
(-0.0011372035 0.87117848 -1.6265539e-06)
(-0.00085151933 0.77708199 -1.3370517e-06)
(-0.00074355894 0.68004402 -1.1216577e-06)
(-0.00065271196 0.58813457 -9.6411582e-07)
(-0.00056138145 0.50939948 -8.463749e-07)
(-0.00047942123 0.445443 -7.5835372e-07)
(-0.00040917962 0.39272849 -6.8764051e-07)
(-0.00034306539 0.34776191 -6.3393168e-07)
(-0.0002838177 0.30894622 -5.9265235e-07)
(-0.00023508322 0.27553844 -5.568386e-07)
(-0.00019590603 0.24697469 -5.2723307e-07)
(-0.00016828708 0.22252189 -5.0138177e-07)
(-0.00014259035 0.20152288 -4.7791947e-07)
(-0.00012111341 0.18349499 -4.5621281e-07)
(-0.0001020706 0.16800615 -4.356977e-07)
(-8.5014129e-05 0.15469201 -4.1597231e-07)
(-6.9919279e-05 0.14324905 -3.967333e-07)
(-5.6680269e-05 0.13342717 -3.7768892e-07)
(-4.4601989e-05 0.12500958 -3.5849283e-07)
(-3.3412372e-05 0.11785391 -3.3864135e-07)
(-2.2957205e-05 0.11171788 -3.1781757e-07)
(-1.3160203e-05 0.10688457 -2.9577569e-07)
(-3.8254254e-06 0.10085698 -2.7192505e-07)
(-0.012442368 0.096118142 -1.2335086e-06)
(-0.0017620315 0.10289189 -1.272327e-06)
(0.0003615906 0.10788495 -1.226401e-06)
(0.001836134 0.10890292 -1.1356936e-06)
(0.0031883219 0.11026419 -1.0328919e-06)
(0.0042340214 0.11141727 -9.3265126e-07)
(0.0047978169 0.11272312 -8.4292618e-07)
(0.0049329609 0.11397635 -7.6585165e-07)
(0.0047775224 0.114567 -6.8343265e-07)
(0.0045053838 0.11446771 -6.4164975e-07)
(0.0042107866 0.11364349 -5.9992049e-07)
(0.003864369 0.11188334 -5.5711919e-07)
(0.0034900864 0.10929354 -5.2141444e-07)
(0.0031184649 0.10621054 -4.9079433e-07)
(0.0027591902 0.10288439 -4.6389136e-07)
(0.0024150826 0.099438992 -4.3973553e-07)
(0.0020921028 0.095956472 -4.176056e-07)
(0.001789575 0.092502635 -3.9692379e-07)
(0.0015062312 0.089128056 -3.7718986e-07)
(0.0012404568 0.085870082 -3.5791624e-07)
(0.00099024464 0.082749772 -3.3854351e-07)
(0.00075327833 0.079796493 -3.1832474e-07)
(0.00052679458 0.076972299 -2.9757286e-07)
(0.00030862568 0.074468665 -2.7507558e-07)
(9.2934149e-05 0.07075935 -2.5244909e-07)
(-0.0089310161 -0.039681203 -8.570863e-07)
(-0.0073503864 -0.036976044 -9.2164033e-07)
(-0.0059803833 -0.035100889 -9.0869402e-07)
(-0.0046838747 -0.031688806 -8.6257597e-07)
(-0.0034943253 -0.026889067 -8.0417895e-07)
(-0.0024555209 -0.021505056 -7.4280688e-07)
(-0.0016056486 -0.0159872 -6.8580773e-07)
(-0.00093499518 -0.010555755 -6.3381917e-07)
(-0.00041709339 -0.0056962589 -5.8552818e-07)
(-3.4844037e-05 -0.0014032804 -5.4939948e-07)
(0.00024476702 0.0023168862 -5.1625173e-07)
(0.00044049546 0.0059777564 -4.8538042e-07)
(0.0005681747 0.0094680838 -4.576521e-07)
(0.0006438381 0.012593958 -4.327277e-07)
(0.00067832607 0.015280656 -4.1003492e-07)
(0.00068276412 0.017533497 -3.8905935e-07)
(0.00065899116 0.019390775 -3.6939375e-07)
(0.00061382296 0.020884443 -3.5057173e-07)
(0.00055252488 0.02203381 -3.3211125e-07)
(0.00047890906 0.022859895 -3.1345572e-07)
(0.00039615216 0.023383791 -2.938232e-07)
(0.0003067962 0.023625823 -2.7178336e-07)
(0.00021414693 0.02359612 -2.503671e-07)
(0.00012115442 0.023338084 -2.2425129e-07)
(2.9117978e-05 0.022473851 -1.9870137e-07)
(-0.0045526312 -0.015868937 -5.8486766e-07)
(-0.0041075071 -0.01775565 -6.6052735e-07)
(-0.0037976486 -0.020172646 -6.7528239e-07)
(-0.0035109995 -0.022005078 -6.584201e-07)
(-0.0032130597 -0.023189007 -6.2859256e-07)
(-0.0029179862 -0.023612003 -5.9644966e-07)
(-0.0026233821 -0.023423534 -5.5691272e-07)
(-0.002338812 -0.022823289 -5.200997e-07)
(-0.0020734391 -0.021960978 -4.8669012e-07)
(-0.0018234876 -0.020892734 -4.5816321e-07)
(-0.0015943881 -0.019692258 -4.3227079e-07)
(-0.0013808343 -0.018343866 -4.0842708e-07)
(-0.0011856598 -0.016919834 -3.8658472e-07)
(-0.001011076 -0.015472717 -3.6655714e-07)
(-0.00085597431 -0.014038566 -3.4782161e-07)
(-0.00071636901 -0.012660722 -3.2996859e-07)
(-0.00059600113 -0.011380241 -3.1288907e-07)
(-0.00049188227 -0.010221014 -2.9601935e-07)
(-0.00040136875 -0.0091888233 -2.7883774e-07)
(-0.00032252146 -0.0082859804 -2.6071785e-07)
(-0.00025346357 -0.0075136221 -2.4079758e-07)
(-0.00019220783 -0.006871824 -2.178925e-07)
(-0.00013668817 -0.0063575614 -1.9078487e-07)
(-8.4570894e-05 -0.0059311261 -1.5410662e-07)
(-3.3226012e-05 -0.005646561 -9.8937647e-08)
(-0.0016167488 -0.0046757811 -4.2421057e-07)
(-0.0014188003 -0.0052109991 -4.9354488e-07)
(-0.0013862653 -0.0058006541 -5.2057149e-07)
(-0.0013970787 -0.0063975742 -5.2119038e-07)
(-0.001409381 -0.0070813613 -5.0716113e-07)
(-0.0014144241 -0.0080203964 -4.8566346e-07)
(-0.0014100663 -0.0091412623 -4.5937671e-07)
(-0.0013822011 -0.010169772 -4.3280164e-07)
(-0.0013334951 -0.011063749 -4.0778319e-07)
(-0.0012678582 -0.011803369 -3.8501504e-07)
(-0.0011916133 -0.012397724 -3.6405739e-07)
(-0.0011086379 -0.012845554 -3.446122e-07)
(-0.001021309 -0.013151084 -3.2650121e-07)
(-0.00093115803 -0.013303507 -3.0994468e-07)
(-0.00084045564 -0.013335736 -2.9395722e-07)
(-0.00075208538 -0.013284142 -2.7869532e-07)
(-0.00066359435 -0.013170749 -2.6346258e-07)
(-0.00057652782 -0.013008311 -2.4796856e-07)
(-0.00049124825 -0.012806759 -2.3172382e-07)
(-0.00040800293 -0.012573869 -2.1410711e-07)
(-0.00032695551 -0.012315586 -1.9417445e-07)
(-0.00024817569 -0.012037563 -1.705408e-07)
(-0.00017190302 -0.011743367 -1.4116631e-07)
(-9.8681613e-05 -0.011395836 -1.0180395e-07)
(-3.0474742e-05 -0.010956758 -5.1654848e-08)
(-0.0007796713 -0.0015430623 -3.2184935e-07)
(-0.00050357297 -0.0017304089 -3.7689689e-07)
(-0.00036417818 -0.0019191229 -4.0517684e-07)
(-0.00031205266 -0.0021345935 -4.13853e-07)
(-0.00030708409 -0.0023918833 -4.096462e-07)
(-0.00033132265 -0.0027017916 -3.9755126e-07)
(-0.00036588342 -0.0030406691 -3.8081504e-07)
(-0.00039823249 -0.0033769647 -3.622862e-07)
(-0.00042296511 -0.0037205643 -3.4367896e-07)
(-0.00043633477 -0.0040613627 -3.2582712e-07)
(-0.00043890808 -0.0043915403 -3.0891374e-07)
(-0.00043188329 -0.0047065745 -2.9293397e-07)
(-0.000416297 -0.00501702 -2.7783369e-07)
(-0.00039545159 -0.0053380492 -2.6355684e-07)
(-0.00037004302 -0.0056508586 -2.49774e-07)
(-0.00034141541 -0.0059213868 -2.3627493e-07)
(-0.00030930798 -0.0061419804 -2.226757e-07)
(-0.00027452877 -0.0063096575 -2.0860791e-07)
(-0.00023812769 -0.0064243244 -1.9359345e-07)
(-0.00020043303 -0.0064859863 -1.7724223e-07)
(-0.00016175048 -0.0064959265 -1.5863488e-07)
(-0.00012270304 -0.0064568116 -1.3652136e-07)
(-8.4095312e-05 -0.0063735612 -1.0954732e-07)
(-4.679907e-05 -0.0062289449 -7.5438977e-08)
(-1.2621814e-05 -0.0059518826 -3.4681084e-08)
(-0.00051052251 -0.00047227187 -2.5128139e-07)
(-0.00029628037 -0.0004323505 -2.9255634e-07)
(-0.00015102167 -0.00039292114 -3.1742349e-07)
(-6.7431685e-05 -0.00036617138 -3.2865284e-07)
(-2.4606307e-05 -0.00037057093 -3.2976425e-07)
(-2.9961708e-07 -0.00040812883 -3.2394146e-07)
(1.5590541e-05 -0.00047366693 -3.1371094e-07)
(1.5432728e-05 -0.00055619812 -3.0111905e-07)
(5.0312573e-06 -0.00064957447 -2.8757788e-07)
(-8.9619942e-06 -0.00075090953 -2.7392285e-07)
(-2.2946785e-05 -0.00085853697 -2.6054996e-07)
(-3.4759643e-05 -0.00096885964 -2.4762149e-07)
(-4.2840366e-05 -0.0010765221 -2.3517497e-07)
(-4.8341808e-05 -0.0011798316 -2.2316069e-07)
(-5.1022227e-05 -0.0012759455 -2.1141233e-07)
(-5.1531466e-05 -0.0013603852 -1.9972631e-07)
(-4.9918823e-05 -0.0014329831 -1.8782838e-07)
(-4.6634455e-05 -0.0014930902 -1.7540583e-07)
(-4.2376468e-05 -0.0015392639 -1.6208784e-07)
(-3.7170027e-05 -0.0015702141 -1.4746225e-07)
(-3.1053099e-05 -0.0015857966 -1.3104856e-07)