/*--------------------------------*- C++ -*----------------------------------*\
| =========                 |                                                 |
| \\      /  F ield         | OpenFOAM: The Open Source CFD Toolbox           |
|  \\    /   O peration     | Version:  4.0                                   |
|   \\  /    A nd           | Web:      www.OpenFOAM.org                      |
|    \\/     M anipulation  |                                                 |
\*---------------------------------------------------------------------------*/
FoamFile
{
    version     2.0;
    format      ascii;
    class       volScalarField;
    location    "0.55";
    object      k;
}
// * * * * * * * * * * * * * * * * * * * * * * * * * * * * * * * * * * * * * //

dimensions      [0 2 -2 0 0 0 0];

internalField   nonuniform List<scalar> 
1740
(
0.0087635004
0.0091317434
0.018171257
0.0091649218
0.0098400683
0.027074426
0.0096051784
0.010423803
0.034411587
0.0098667922
0.010629084
0.041445974
0.010053339
0.010850124
0.047472498
0.010109784
0.011205101
0.05159129
0.010123883
0.011487289
0.055877158
0.01020439
0.012038766
0.059785515
0.010239151
0.012597494
0.062486061
0.010197045
0.012965131
0.064629128
0.010137137
0.012989537
0.065743471
0.010026044
0.013020559
0.067449491
0.0099179109
0.013409029
0.068974938
0.0098462706
0.013748023
0.069344099
0.0097798947
0.01387984
0.070402009
0.0096941913
0.013882823
0.071328469
0.0095643458
0.014030837
0.070830825
0.009431967
0.014037695
0.071695179
0.009330795
0.014229754
0.072699076
0.009233768
0.014522151
0.072070293
0.0090386161
0.014517461
0.072532119
0.0089140426
0.014650781
0.07297348
0.0087758932
0.014673595
0.072144345
0.008633756
0.014481449
0.072361168
0.0085033909
0.014509629
0.072696215
0.0084178462
0.014771446
0.072593473
0.0083828482
0.015018302
0.072908615
0.0083947471
0.015558998
0.072395803
0.0083631786
0.015466558
0.071582618
0.0089863364
0.016392245
0.066545663
0.012637613
0.018218941
0.047218533
0.023725522
0.031082956
0.039713181
0.010259246
0.012523971
0.013703964
0.0042725516
0.0046111414
0.0046710534
0.0020794159
0.0021234468
0.0020976222
0.0011434542
0.0011445751
0.0011264103
0.00069149561
0.00068901053
0.00068094354
0.00044991427
0.00044858915
0.00044586981
0.00030923171
0.00030889091
0.00030852014
0.00022107592
0.00022120396
0.00022172023
0.00016222072
0.00016250861
0.0001632621
0.00012077257
0.00012107713
0.00012180386
9.0339859e-05
9.0605069e-05
9.1214319e-05
6.7349732e-05
6.7560132e-05
6.8034433e-05
4.9722341e-05
4.9879543e-05
5.0230225e-05
3.6179057e-05
3.6291008e-05
3.6539228e-05
2.5867954e-05
2.5944287e-05
2.6112889e-05
1.8158096e-05
1.8208008e-05
1.8317967e-05
1.2532495e-05
1.2563828e-05
1.2632719e-05
8.5422103e-06
8.561109e-06
8.6026088e-06
5.795597e-06
5.8065616e-06
5.8306432e-06
3.964063e-06
3.9702475e-06
3.983823e-06
2.782312e-06
2.7857556e-06
2.793297e-06
2.0450124e-06
2.0469405e-06
2.0511557e-06
1.6019893e-06
1.6031151e-06
1.6055739e-06
1.3483805e-06
1.3490988e-06
1.3506674e-06
1.2134866e-06
1.2140044e-06
1.2151361e-06
1.1510981e-06
1.1515178e-06
1.152436e-06
1.1318426e-06
1.1322113e-06
1.1330187e-06
1.1375093e-06
1.1378469e-06
1.1385866e-06
1.157046e-06
1.15736e-06
1.1580481e-06
1.1838464e-06
1.1841392e-06
1.1847808e-06
1.2139714e-06
1.2142437e-06
1.2148402e-06
1.2450102e-06
1.2452624e-06
1.2458147e-06
1.275364e-06
1.2755967e-06
1.2761061e-06
1.3037935e-06
1.3040076e-06
1.3044758e-06
1.3291268e-06
1.3293231e-06
1.3297525e-06
1.3500572e-06
1.350237e-06
1.35063e-06
1.3649923e-06
1.3651566e-06
1.3655158e-06
1.371929e-06
1.3720791e-06
1.3724068e-06
1.368352e-06
1.3684888e-06
1.3687874e-06
1.3511595e-06
1.3512839e-06
1.3515553e-06
1.31664e-06
1.3167527e-06
1.3169986e-06
1.2605384e-06
1.2606399e-06
1.2608613e-06
1.1782602e-06
1.1783506e-06
1.178548e-06
1.0653107e-06
1.0653899e-06
1.0655633e-06
9.1804653e-07
9.18114e-07
9.1826202e-07
7.3480339e-07
7.3485776e-07
7.3497755e-07
5.1718191e-07
5.1722097e-07
5.1730734e-07
2.6995359e-07
2.6997442e-07
2.7002034e-07
0.056113704
0.060744033
0.0461007
0.046633473
0.012479838
0.011360704
0.0043590294
0.0041262798
0.0020042468
0.0019432353
0.0010963558
0.0010807638
0.0006718102
0.00066975635
0.00044404414
0.00044601263
0.00030920163
0.00031207478
0.00022311413
0.00022586183
0.00016469439
0.00016700883
0.00012304125
0.00012487582
9.2200589e-05
9.3599876e-05
6.8781826e-05
6.9816551e-05
5.0774342e-05
5.1516772e-05
3.6920851e-05
3.7436782e-05
2.6370659e-05
2.6716988e-05
1.8485443e-05
1.8709461e-05
1.2737328e-05
1.2876798e-05
8.6654737e-06
8.7490775e-06
5.8670748e-06
5.9154198e-06
4.0043309e-06
4.0314759e-06
2.8046626e-06
2.8196621e-06
2.0574947e-06
2.0658389e-06
1.609266e-06
1.6141175e-06
1.3530219e-06
1.3561144e-06
1.2168359e-06
1.2190711e-06
1.1538169e-06
1.1556361e-06
1.1342343e-06
1.1358383e-06
1.1397011e-06
1.1411729e-06
1.1590849e-06
1.1604544e-06
1.1857473e-06
1.1870233e-06
1.2157383e-06
1.2169233e-06
1.2466457e-06
1.2477413e-06
1.276872e-06
1.2778806e-06
1.3051794e-06
1.3061049e-06
1.3303971e-06
1.3312442e-06
1.3512195e-06
1.3519932e-06
1.366054e-06
1.3667596e-06
1.3728976e-06
1.37354e-06
1.3692341e-06
1.3698181e-06
1.3519611e-06
1.3524908e-06
1.3173658e-06
1.3178446e-06
1.2611919e-06
1.2616226e-06
1.1788431e-06
1.1792277e-06
1.0658229e-06
1.0661622e-06
9.184848e-07
9.1877706e-07
7.3515888e-07
7.3539744e-07
5.1743808e-07
5.1760384e-07
2.7008604e-07
2.7015032e-07
5.1730628e-06
2.710314e-05
0.00013460956
0.00030534696
0.00046271341
0.00057372838
0.00064401762
0.00068761554
0.00071631683
0.0007372574
0.00075447677
0.00077098396
0.00078645934
0.00080065796
0.00081326642
0.00082373403
0.0008310762
0.00083362604
0.00082866319
0.00081189983
0.00077676895
0.00071355672
0.00060874427
0.00044533237
0.00020257042
2.5849819e-06
5.485224e-05
0.00025145865
0.00051670556
0.00072884513
0.00086040324
0.00093629664
0.00098074237
0.0010092
0.0010297034
0.0010465003
0.0010621217
0.0010764513
0.0010892154
0.0011000177
0.0011082349
0.0011127349
0.0011116018
0.0011016332
0.0010776967
0.0010317786
0.00095159495
0.00081885812
0.00060805542
0.0002879585
7.9805037e-06
0.00016029212
0.00061714956
0.0010815044
0.0013646649
0.0015073619
0.0015747166
0.0016061667
0.0016217282
0.0016298592
0.0016349478
0.0016379312
0.0016399955
0.0016404951
0.0016389411
0.0016348621
0.0016271993
0.001614155
0.0015923099
0.0015560579
0.0014963614
0.0013984887
0.0012377187
0.00097110329
0.00052298335
3.7734014e-05
0.00058073506
0.0016890587
0.0024409497
0.0027778142
0.002891476
0.0029005126
0.0028699665
0.0028296793
0.0027845739
0.0027397249
0.0026970254
0.0026569664
0.0026163588
0.0025746811
0.0025323447
0.0024888503
0.0024427707
0.0023913522
0.002329812
0.0022502287
0.002139303
0.0019726855
0.0016973774
0.0011562397
0.00028164062
0.0024521402
0.0049237615
0.0060457831
0.0063919878
0.006329883
0.0060999584
0.0058361795
0.005585864
0.0053346945
0.0050939719
0.0048692293
0.0046653141
0.0044676771
0.0042757994
0.0040943811
0.0039243431
0.0037651176
0.0036148781
0.0034701223
0.0033251752
0.0031717714
0.0029988743
0.0027981115
0.0025878487
0.0023593324
0.010533153
0.016592419
0.018548325
0.018090124
0.016532936
0.014715716
0.013025518
0.011541931
0.010263616
0.0091702979
0.0082394128
0.0074454787
0.0067646368
0.006179213
0.0056758997
0.0052433146
0.0048711389
0.0045499664
0.00427095
0.0040252157
0.0038037596
0.0035979545
0.0034070844
0.0032465944
0.044878188
0.034049347
0.026582533
0.02143728
0.017784701
0.015076011
0.012983154
0.011325132
0.0099939709
0.0089127003
0.0080225017
0.0072789926
0.0066490468
0.006108302
0.0056389658
0.0052286088
0.0048686133
0.0045524906
0.0042747591
0.0040301843
0.0038131673
0.0036177081
0.0034380519
0.0032755327
0.0031453287
0.037278116
0.031001274
0.027796896
0.025168088
0.022295509
0.01931788
0.016596826
0.014295532
0.012412028
0.010869087
0.0095968957
0.0085386275
0.0076508263
0.0069036356
0.0062732599
0.0057402126
0.005288156
0.0049033633
0.0045740807
0.0042897592
0.0040403004
0.0038158811
0.0036073083
0.0034137216
0.0032509933
0.010226579
0.0095537962
0.009214357
0.0088947391
0.0084326253
0.0078677012
0.0073103358
0.006813508
0.0063624754
0.0059641531
0.0056155067
0.0053107729
0.0050246264
0.004760148
0.0045188192
0.0042998981
0.0041012552
0.0039199942
0.0037522158
0.0035928558
0.0034351597
0.0032701484
0.0030863226
0.0028751073
0.0026550995
0.0039697496
0.0038973649
0.0038755509
0.0038350666
0.0037407479
0.0036058026
0.0034662843
0.003336984
0.0032204816
0.003118897
0.0030312602
0.0029544518
0.0028828864
0.0028159952
0.0027536028
0.0026948604
0.0026380782
0.0025806439
0.0025187605
0.0024469093
0.0023567595
0.0022348792
0.0020568924
0.001769045
0.0012088291
0.0019255464
0.0019395683
0.0019651893
0.0019804237
0.0019742427
0.0019502638
0.0019195497
0.0018890987
0.0018619533
0.0018394339
0.0018213353
0.0018064033
0.0017929645
0.0017803427
0.0017681715
0.0017552137
0.0017395733
0.0017184414
0.0016877404
0.0016414903
0.0015706334
0.001460784
0.0012877359
0.0010085505
0.00054583265
0.0010850963
0.0011037485
0.0011276439
0.0011479953
0.0011602755
0.001165236
0.0011664613
0.0011669585
0.0011684661
0.0011717315
0.0011767122
0.0011828295
0.0011892861
0.0011953854
0.0012003546
0.001202959
0.0012013577
0.0011929085
0.0011738792
0.0011389851
0.0010806399
0.00098776882
0.00084406993
0.00062611469
0.00030303283
0.0006771054
0.00069156664
0.0007090694
0.00072577238
0.00073954572
0.00075034316
0.00075938532
0.00076797271
0.00077699979
0.00078688752
0.00079763577
0.00080893094
0.00082027345
0.00083104961
0.00084044489
0.00084728805
0.00084993884
0.00084614852
0.00083288595
0.00080611102
0.0007604956
0.00068913972
0.00058338819
0.00043254971
0.00021889973
0.0004527361
0.00046324928
0.0004757127
0.00048834587
0.00050006823
0.00051067667
0.00052057129
0.000530305
0.00054031157
0.00055080579
0.00056177181
0.00057299437
0.00058409826
0.00059455595
0.00060364268
0.00061035808
0.00061335348
0.00061085723
0.00060060767
0.0005798174
0.00054524659
0.00049359294
0.00042276154
0.00033562202
0.00024993044
0.00031754135
0.00032517459
0.00033411769
0.0003435075
0.00035277109
0.00036172226
0.00037046973
0.00037923494
0.00038821133
0.00039748775
0.00040702225
0.00041663961
0.00042603555
0.00043476678
0.00044222369
0.00044758854
0.00044979805
0.00044751672
0.00043913847
0.00042285495
0.00039687719
0.00036000695
0.00031298322
0.00026141696
0.00022095534
0.00023012819
0.00023571561
0.00024220945
0.00024917382
0.00025629391
0.00026343126
0.00027059318
0.00027785536
0.00028528928
0.00029291345
0.00030066674
0.00030839581
0.00031584714
0.00032265445
0.00032832067
0.00033219688
0.00033346688
0.00033114715
0.00032411748
0.00031121085
0.000291417
0.00026430039
0.00023080647
0.00019460026
0.00016087539
0.00017027134
0.00017438244
0.00017913384
0.00018429629
0.00018969087
0.00019522051
0.00020086029
0.0002066232
0.00021252214
0.00021853924
0.00022460506
0.00023058502
0.00023626872
0.000241359
0.00024546018
0.00024806776
0.00024856477
0.00024623123
0.00024027535
0.00022989762
0.00021439757
0.00019331223
0.00016646489
0.00013327178
8.6988557e-05
0.00012733147
0.00013035401
0.00013383351
0.00013764491
0.00014168313
0.00014588077
0.00015020645
0.0001546475
0.00015919068
0.00016380288
0.00016841559
0.00017291377
0.00017712601
0.00018081596
0.00018367495
0.00018531708
0.00018527992
0.00018303414
0.00017800456
0.000169602
0.00015725425
0.00014039383
0.000118267
8.9153169e-05
4.8050107e-05
9.5418443e-05
9.7624364e-05
0.00010015691
0.00010294502
0.0001059249
0.00010905016
0.00011229131
0.00011562758
0.00011903633
0.00012248084
0.00012589963
0.00012919775
0.00013223914
0.00013484018
0.00013676478
0.00013772209
0.00013736793
0.00013531161
0.00013112744
0.00012436708
0.00011456066
0.00010118173
8.3526207e-05
6.0405894e-05
2.9637518e-05
7.1137696e-05
7.2725597e-05
7.4544924e-05
7.6553831e-05
7.871257e-05
8.0988926e-05
8.3358363e-05
8.5799711e-05
8.8289201e-05
9.0792781e-05
9.325906e-05
9.5612704e-05
9.7748838e-05
9.9528454e-05
0.00010077496
0.00010127284
0.00010076874
9.897553e-05
9.5578394e-05
9.0240076e-05
8.2600019e-05
7.2262158e-05
5.8774673e-05
4.1627258e-05
2.0311709e-05
5.2454447e-05
5.3574569e-05
5.4855904e-05
5.627295e-05
5.7800343e-05
5.9415666e-05
6.1099733e-05
6.2834226e-05
6.4598075e-05
6.636279e-05
6.8087728e-05
6.9715531e-05
7.1168059e-05
7.234315e-05
7.3112104e-05
7.3318654e-05
7.277957e-05
7.128694e-05
6.8611955e-05
6.450929e-05
5.8722073e-05
5.0991482e-05
4.1086592e-05
2.8893572e-05
1.4613739e-05
3.8083893e-05
3.8853585e-05
3.9732654e-05
4.0705278e-05
4.1754966e-05
4.2866243e-05
4.4024664e-05
4.5215716e-05
4.6422441e-05
4.7622695e-05
4.8785959e-05
4.9870346e-05
5.0819744e-05
5.1561489e-05
5.2004585e-05
5.2038794e-05
5.1534814e-05
5.0345642e-05
4.8309429e-05
4.5254349e-05
4.1007566e-05
3.5413564e-05
2.8372286e-05
1.9916033e-05
1.0391356e-05
2.7149222e-05
2.766167e-05
2.8245955e-05
2.8892013e-05
2.9589171e-05
3.0326764e-05
3.1094372e-05
3.1881118e-05
3.2674271e-05
3.345758e-05
3.4209221e-05
3.4899881e-05
3.5490787e-05
3.59321e-05
3.6161614e-05
3.6103969e-05
3.5670596e-05
3.4760569e-05
3.3262926e-05
3.1061439e-05
2.8044036e-05
2.4120477e-05
1.9252022e-05
1.3495633e-05
7.0863588e-06
1.8987963e-05
1.9317241e-05
1.9691913e-05
2.0105562e-05
2.0551214e-05
2.1021735e-05
2.1509812e-05
2.2007662e-05
2.2506238e-05
2.2994194e-05
2.3456614e-05
2.3873787e-05
2.4219957e-05
2.4462175e-05
2.4559358e-05
2.4461682e-05
2.4110388e-05
2.3438324e-05
2.2371756e-05
2.0834377e-05
1.8755122e-05
1.6081671e-05
1.2799765e-05
8.9545392e-06
4.6957607e-06
1.3049622e-05
1.3253385e-05
1.348467e-05
1.3739377e-05
1.4013007e-05
1.4300822e-05
1.4597901e-05
1.4898901e-05
1.5197658e-05
1.5486568e-05
1.5755844e-05
1.5992728e-05
1.6180687e-05
1.629867e-05
1.6320421e-05
1.6213998e-05
1.5941574e-05
1.5459755e-05
1.4720894e-05
1.3676094e-05
1.2280892e-05
1.0504456e-05
8.3412923e-06
5.8215762e-06
3.0366494e-06
8.8523794e-06
8.9738177e-06
9.1112654e-06
9.2621138e-06
9.4235016e-06
9.59235e-06
9.7654162e-06
9.9391762e-06
1.0109578e-05
1.0271697e-05
1.0419309e-05
1.0544401e-05
1.0636661e-05
1.0682983e-05
1.0666997e-05
1.0568726e-05
1.0364407e-05
1.0026616e-05
9.5251896e-06
8.8293123e-06
7.9113733e-06
6.7529149e-06
5.3516554e-06
3.726066e-06
1.9277853e-06
5.9750056e-06
6.0448449e-06
6.1236212e-06
6.2097237e-06
6.301354e-06
6.3965651e-06
6.493277e-06
6.5892249e-06
6.6818174e-06
6.7679529e-06
6.8437507e-06
6.9042671e-06
6.9431627e-06
6.9523598e-06
6.9217302e-06
6.8389065e-06
6.6891768e-06
6.4554282e-06
6.118717e-06
5.659732e-06
5.0613215e-06
4.312277e-06
3.4116823e-06
2.3711997e-06
1.2206441e-06
4.0648371e-06
4.1038009e-06
4.1475591e-06
4.1951338e-06
4.2454136e-06
4.2971909e-06
4.3491635e-06
4.3999051e-06
4.4477889e-06
4.4908831e-06
4.5267962e-06
4.5525019e-06
4.5641315e-06
4.5567461e-06
4.524081e-06
4.4582864e-06
4.3499171e-06
4.1882871e-06
3.9614548e-06
3.6572056e-06
3.2647432e-06
2.7770915e-06
2.1938364e-06
1.5225237e-06
7.8549179e-07
2.8380331e-06
2.8593986e-06
2.8832659e-06
2.9090403e-06
2.9360463e-06
2.963535e-06
2.9906959e-06
3.0166321e-06
3.0403187e-06
3.0605372e-06
3.0757836e-06
3.0841577e-06
3.0832328e-06
3.0699054e-06
3.0402131e-06
2.9891255e-06
2.9103853e-06
2.7968062e-06
2.6406237e-06
2.4338735e-06
2.1695234e-06
1.8430356e-06
1.4541888e-06
1.0081992e-06
5.2078515e-07
2.0760236e-06
2.08782e-06
2.1009295e-06
2.1149894e-06
2.1295837e-06
2.144249e-06
2.1584692e-06
2.1716674e-06
2.1831747e-06
2.1921859e-06
2.1976992e-06
2.1984388e-06
2.1927629e-06
2.1785582e-06
2.1531256e-06
2.1130709e-06
2.0541613e-06
1.9712403e-06
1.8588211e-06
1.711365e-06
1.52399e-06
1.2935408e-06
1.0199132e-06
7.0707393e-07
3.664273e-07
1.6200248e-06
1.6268471e-06
1.6344012e-06
1.6424625e-06
1.6507686e-06
1.6590212e-06
1.6668811e-06
1.6739559e-06
1.6797795e-06
1.683778e-06
1.6852239e-06
1.6831781e-06
1.6764187e-06
1.6633609e-06
1.6419699e-06
1.6096797e-06
1.5633375e-06
1.499108e-06
1.4127355e-06
1.299999e-06
1.1571907e-06
9.8190692e-07
7.7408644e-07
5.3694449e-07
2.7946261e-07
1.3598789e-06
1.3642252e-06
1.3690366e-06
1.3741681e-06
1.3794459e-06
1.384666e-06
1.3895886e-06
1.3939258e-06
1.397322e-06
1.3993269e-06
1.3993561e-06
1.3966428e-06
1.3901788e-06
1.3786475e-06
1.3603532e-06
1.3331561e-06
1.2944283e-06
1.2410499e-06
1.1694679e-06
1.0761551e-06
9.5801417e-07
8.1302033e-07
6.4107792e-07
4.4486083e-07
2.3220024e-07
1.221797e-06
1.2249527e-06
1.2284585e-06
1.2322137e-06
1.2360942e-06
1.2399487e-06
1.2435917e-06
1.2467911e-06
1.2492498e-06
1.2505799e-06
1.2502671e-06
1.2476272e-06
1.2417529e-06
1.2314536e-06
1.2151939e-06
1.1910371e-06
1.1566096e-06
1.10912e-06
1.045397e-06
9.6226073e-07
8.5691054e-07
7.2749237e-07
5.7384209e-07
3.9818503e-07
2.0721981e-07
1.1578609e-06
1.1604465e-06
1.1633336e-06
1.1664457e-06
1.1696856e-06
1.1729307e-06
1.1760243e-06
1.1787632e-06
1.1808795e-06
1.1820144e-06
1.1816851e-06
1.1792424e-06
1.17382e-06
1.1642783e-06
1.1491462e-06
1.1265697e-06
1.094282e-06
1.0496248e-06
9.8960585e-07
9.112001e-07
8.1173272e-07
6.8941034e-07
5.4400993e-07
3.775665e-07
1.9718359e-07
1.1378044e-06
1.1400966e-06
1.1426667e-06
1.1454511e-06
1.1483671e-06
1.1513073e-06
1.1541299e-06
1.1566462e-06
1.1586015e-06
1.1596494e-06
1.1593183e-06
1.1569697e-06
1.1517479e-06
1.142525e-06
1.1278444e-06
1.1058715e-06
1.0743667e-06
1.0307079e-06
9.7196403e-07
8.951593e-07
7.9765284e-07
6.7765456e-07
5.348912e-07
3.713237e-07
1.9247269e-07
1.1429791e-06
1.1450886e-06
1.1474591e-06
1.1500341e-06
1.1527387e-06
1.1554733e-06
1.158104e-06
1.1604489e-06
1.1622586e-06
1.1631904e-06
1.162774e-06
1.1603693e-06
1.1551162e-06
1.1458791e-06
1.1311902e-06
1.1092018e-06
1.0776603e-06
1.0339304e-06
9.7507853e-07
8.981213e-07
8.0040375e-07
6.801094e-07
5.3690413e-07
3.7258953e-07
1.9225317e-07
1.1621356e-06
1.1640999e-06
1.1663084e-06
1.1687085e-06
1.1712299e-06
1.1737772e-06
1.1762204e-06
1.1783807e-06
1.1800102e-06
1.1807654e-06
1.1801725e-06
1.1775842e-06
1.1721286e-06
1.1626526e-06
1.1476653e-06
1.1252893e-06
1.0932364e-06
1.048833e-06
9.8911047e-07
9.1104805e-07
8.1195247e-07
6.8996913e-07
5.4471957e-07
3.7795434e-07
1.94801e-07
1.1885893e-06
1.190418e-06
1.1924726e-06
1.194703e-06
1.1970415e-06
1.1993953e-06
1.2016365e-06
1.2035872e-06
1.2049992e-06
1.2055265e-06
1.2046891e-06
1.2018298e-06
1.1960615e-06
1.1862096e-06
1.1707538e-06
1.14778e-06
1.1149553e-06
1.0695559e-06
1.0085623e-06
9.2890224e-07
8.2783304e-07
7.0345736e-07
5.5535909e-07
3.8526302e-07
1.9841373e-07
1.2183763e-06
1.2200711e-06
1.2219725e-06
1.224032e-06
1.2261836e-06
1.2283362e-06
1.2303629e-06
1.2320861e-06
1.2332562e-06
1.2335233e-06
1.2324006e-06
1.2292198e-06
1.223077e-06
1.212774e-06
1.1967596e-06
1.1730796e-06
1.1393527e-06
1.0928e-06
1.0303453e-06
9.4885929e-07
8.455464e-07
7.1846502e-07
5.6715729e-07
3.9330471e-07
2.0229981e-07
1.249083e-06
1.2506458e-06
1.2523952e-06
1.2542843e-06
1.2562484e-06
1.2581974e-06
1.2600051e-06
1.2614936e-06
1.2624111e-06
1.2624036e-06
1.2609771e-06
1.2574513e-06
1.2509055e-06
1.2401178e-06
1.2235051e-06
1.199073e-06
1.1643919e-06
1.1166271e-06
1.0526448e-06
9.6925858e-07
8.6362166e-07
7.3375351e-07
5.7917293e-07
4.0157858e-07
2.0727612e-07
1.2791143e-06
1.2805486e-06
1.2821501e-06
1.283873e-06
1.2856535e-06
1.2874024e-06
1.2889939e-06
1.2902492e-06
1.2909143e-06
1.2906308e-06
1.2888971e-06
1.2850213e-06
1.2780657e-06
1.2667853e-06
1.2495663e-06
1.2243756e-06
1.1887367e-06
1.139762e-06
1.0742627e-06
9.8899848e-07
8.8107557e-07
7.4848227e-07
5.9073443e-07
4.0957168e-07
2.1132743e-07
1.3072353e-06
1.3085468e-06
1.3100069e-06
1.3115706e-06
1.3131751e-06
1.3147319e-06
1.3161149e-06
1.3171447e-06
1.3175647e-06
1.3170119e-06
1.3149773e-06
1.3107577e-06
1.3033993e-06
1.2916349e-06
1.2738222e-06
1.2478919e-06
1.211325e-06
1.1611858e-06
1.094236e-06
1.0071879e-06
8.9710832e-07
7.61968e-07
6.0131128e-07
4.1696899e-07
2.1533262e-07
1.3322771e-06
1.3334728e-06
1.3347995e-06
1.336213e-06
1.3376513e-06
1.3390263e-06
1.3402119e-06
1.3410272e-06
1.3412135e-06
1.3404031e-06
1.3380799e-06
1.33353e-06
1.3257847e-06
1.3135568e-06
1.2951782e-06
1.2685482e-06
1.2311109e-06
1.1798901e-06
1.111607e-06
1.0229365e-06
9.1091691e-07
7.7351518e-07
6.1032773e-07
4.2332022e-07
2.1893619e-07
1.352935e-06
1.3540225e-06
1.3552246e-06
1.3564979e-06
1.3577809e-06
1.3589857e-06
1.3599861e-06
1.3606001e-06
1.3605663e-06
1.3595131e-06
1.3569175e-06
1.3520562e-06
1.3439474e-06
1.3312867e-06
1.3123847e-06
1.2851154e-06
1.2468944e-06
1.1947159e-06
1.1252733e-06
1.0352187e-06
9.2157795e-07
7.8232859e-07
6.1712299e-07
4.2802991e-07
2.2152104e-07
1.3676168e-06
1.3686038e-06
1.3696903e-06
1.3708334e-06
1.3719722e-06
1.373019e-06
1.3738472e-06
1.3742738e-06
1.3740353e-06
1.3727561e-06
1.3699079e-06
1.3647594e-06
1.3563184e-06
1.3432675e-06
1.323902e-06
1.296079e-06
1.2571973e-06
1.204236e-06
1.1338786e-06
1.0427745e-06
9.2795787e-07
7.8743121e-07
6.2089604e-07
4.3049107e-07
2.2281136e-07
1.3743189e-06
1.3752131e-06
1.3761927e-06
1.3772155e-06
1.378221e-06
1.3791218e-06
1.3797911e-06
1.380045e-06
1.3796184e-06
1.3781329e-06
1.3750561e-06
1.3696515e-06
1.3609202e-06
1.3475376e-06
1.3277921e-06
1.2995351e-06
1.2601639e-06
1.2066624e-06
1.1357278e-06
1.0440337e-06
9.2864918e-07
7.8762201e-07
6.2070507e-07
4.3014915e-07
2.225389e-07
1.3705246e-06
1.3713329e-06
1.3722139e-06
1.3731257e-06
1.3740084e-06
1.3747751e-06
1.375299e-06
1.3753959e-06
1.3747999e-06
1.3731315e-06
1.3698566e-06
1.364237e-06
1.3552728e-06
1.34164e-06
1.3216309e-06
1.2931069e-06
1.2534838e-06
1.1997755e-06
1.1287237e-06
1.0370603e-06
9.2192254e-07
7.8142841e-07
6.1538841e-07
4.2609222e-07
2.2025124e-07
1.3531301e-06
1.353859e-06
1.3546487e-06
1.3554584e-06
1.3562285e-06
1.3568728e-06
1.3572653e-06
1.3572226e-06
1.3564795e-06
1.3546575e-06
1.3512247e-06
1.3454463e-06
1.3363289e-06
1.32256e-06
1.3024505e-06
1.2738917e-06
1.2343439e-06
1.1808831e-06
1.1103334e-06
1.0195283e-06
9.0571399e-07
7.6711056e-07
6.0360223e-07
4.1750766e-07
2.1552073e-07
1.3184214e-06
1.3190765e-06
1.3197819e-06
1.3204975e-06
1.3211648e-06
1.3216988e-06
1.3219754e-06
1.3218132e-06
1.3209505e-06
1.3190134e-06
1.315477e-06
1.3096177e-06
1.3004589e-06
1.2867138e-06
1.2667316e-06
1.2384586e-06
1.1994317e-06
1.1468286e-06
1.0776042e-06
9.8874352e-07
8.7765169e-07
7.4269169e-07
5.8383932e-07
4.0340614e-07
2.0792948e-07
1.2621405e-06
1.2627268e-06
1.2633543e-06
1.2639834e-06
1.2645575e-06
1.2649939e-06
1.2651717e-06
1.2649146e-06
1.2639675e-06
1.2619664e-06
1.258401e-06
1.2525686e-06
1.2435236e-06
1.2300234e-06
1.2104801e-06
1.1829267e-06
1.1450169e-06
1.0940793e-06
1.0272531e-06
9.4173255e-07
8.3513683e-07
7.0601447e-07
5.5444245e-07
3.8266548e-07
1.9690939e-07
1.1796899e-06
1.1802116e-06
1.1807664e-06
1.1813161e-06
1.1818062e-06
1.1821583e-06
1.1822574e-06
1.1819354e-06
1.1809492e-06
1.1789517e-06
1.1754571e-06
1.1697979e-06
1.1610772e-06
1.1481205e-06
1.129433e-06
1.1031739e-06
1.0671616e-06
1.0189309e-06
9.5586614e-07
8.7543195e-07
7.7551724e-07
6.5489393e-07
5.1374866e-07
3.5422991e-07
1.8209732e-07
1.0665702e-06
1.0670299e-06
1.0675156e-06
1.0679907e-06
1.0684046e-06
1.0686858e-06
1.0687287e-06
1.0683777e-06
1.0674079e-06
1.065499e-06
1.0622026e-06
1.0569057e-06
1.0487833e-06
1.0367576e-06
1.0194636e-06
9.9523216e-07
9.6210119e-07
9.1787377e-07
8.6024479e-07
7.8701068e-07
6.9637908e-07
5.8737117e-07
4.6027296e-07
3.1708008e-07
1.6291685e-07
9.191292e-07
9.1952549e-07
9.1994119e-07
9.2034244e-07
9.2068495e-07
9.2090786e-07
9.2091838e-07
9.205782e-07
9.1968738e-07
9.1796322e-07
9.1501162e-07
9.1030326e-07
9.0311395e-07
8.9249483e-07
8.7725029e-07
8.5593399e-07
8.2686429e-07
7.8817794e-07
7.3794941e-07
6.7436217e-07
5.9597901e-07
5.020805e-07
3.9302878e-07
2.7060433e-07
1.391129e-07
7.3568279e-07
7.3600696e-07
7.3634478e-07
7.3666677e-07
7.3693872e-07
7.3711299e-07
7.3710611e-07
7.3681875e-07
7.3606871e-07
7.3462712e-07
7.3216181e-07
7.2828193e-07
7.2239838e-07
7.1372326e-07
7.0127037e-07
6.8386933e-07
6.6018508e-07
6.2874124e-07
5.8807352e-07
5.3679331e-07
4.7383347e-07
3.9872396e-07
3.1187298e-07
2.1481744e-07
1.1090748e-07
5.1778819e-07
5.1801784e-07
5.1826178e-07
5.1849315e-07
5.1868874e-07
5.1880107e-07
5.1872749e-07
5.1853533e-07
5.1799749e-07
5.1700174e-07
5.1515032e-07
5.1232072e-07
5.0810614e-07
5.0191169e-07
4.9300233e-07
4.8054133e-07
4.6365349e-07
4.4115995e-07
4.1221111e-07
3.758714e-07
3.3142889e-07
2.7862377e-07
2.1784958e-07
1.503593e-07
7.862517e-08
2.7044431e-07
2.7054743e-07
2.7067546e-07
2.7079927e-07
2.708969e-07
2.7088367e-07
2.7058511e-07
2.7050633e-07
2.7032084e-07
2.7030345e-07
2.6929885e-07
2.6774513e-07
2.6550723e-07
2.6224166e-07
2.5753086e-07
2.5096731e-07
2.4253516e-07
2.305785e-07
2.1524011e-07
1.9609556e-07
1.7276677e-07
1.4514312e-07
1.1349581e-07
7.8654101e-08
4.2458708e-08
)
;

boundaryField
{
    Walls
    {
        type            kqRWallFunction;
        value           nonuniform List<scalar> 
38
(
5.1730628e-06
2.5849819e-06
7.9805037e-06
3.7734014e-05
0.00028164062
0.0023593324
0.056113704
0.060744033
0.018171257
0.027074426
0.034411587
0.041445974
0.047472498
0.05159129
0.055877158
0.059785515
0.062486061
0.064629128
0.065743471
0.067449491
0.068974938
0.069344099
0.070402009
0.071328469
0.070830825
0.071695179
0.072699076
0.072070293
0.072532119
0.07297348
0.072144345
0.072361168
0.072696215
0.072593473
0.072908615
0.072395803
0.071582618
0.066545663
)
;
    }
    Inlet
    {
        type            turbulentIntensityKineticEnergyInlet;
        intensity       0.05;
        value           nonuniform List<scalar> 3(0.0079607213 0.0081263298 0.0097892769);
    }
    Outlet
    {
        type            inletOutlet;
        inletValue      uniform 0;
        value           nonuniform List<scalar> 
86
(
0
0
0
0
0
0
0
0
0
0
0
0
0
0
0
0
0
0
0
0
0
0
0
0
0
0
0
0
0
0
0.0031453287
0.0032509933
0.0026550995
0
0
0
0
0.00024993044
0.00022095534
0.00016087539
0
0
0
0
1.4613739e-05
1.0391356e-05
7.0863588e-06
4.6957607e-06
3.0366494e-06
1.9277853e-06
1.2206441e-06
7.8549179e-07
5.2078515e-07
3.664273e-07
2.7946261e-07
2.3220024e-07
2.0721981e-07
1.9718359e-07
0
0
0
0
0
0
0
0
0
0
0
0
0
0
0
0
0
0
0
0
0
0
0
0
0
0
0.0025878487
0.0032465944
)
;
    }
    Front
    {
        type            wedge;
    }
    Back
    {
        type            wedge;
    }
    defaultFaces
    {
        type            empty;
    }
}


// ************************************************************************* //
