/*--------------------------------*- C++ -*----------------------------------*\
| =========                 |                                                 |
| \\      /  F ield         | OpenFOAM: The Open Source CFD Toolbox           |
|  \\    /   O peration     | Version:  4.0                                   |
|   \\  /    A nd           | Web:      www.OpenFOAM.org                      |
|    \\/     M anipulation  |                                                 |
\*---------------------------------------------------------------------------*/
FoamFile
{
    version     2.0;
    format      ascii;
    class       volScalarField;
    location    "0.55";
    object      nut;
}
// * * * * * * * * * * * * * * * * * * * * * * * * * * * * * * * * * * * * * //

dimensions      [0 2 -1 0 0 0 0];

internalField   nonuniform List<scalar> 
1740
(
4.5819274e-05
1.4419424e-05
1.2181582e-06
1.5547468e-05
7.2513527e-06
1.8018347e-06
8.4470076e-06
5.4302206e-06
2.2766097e-06
2.3321279e-05
4.7786539e-06
2.7265579e-06
1.5809863e-05
4.3480237e-06
3.1082367e-06
1.7187001e-05
4.0400768e-06
3.367356e-06
1.4325903e-05
3.8499181e-06
3.6342892e-06
1.0247197e-05
3.7228594e-06
3.8771952e-06
1.0267596e-05
3.6383037e-06
4.0443221e-06
9.0423699e-06
3.5832799e-06
4.1757083e-06
8.3854488e-06
3.52955e-06
4.2443816e-06
7.9174546e-06
3.4957911e-06
4.3492338e-06
7.4752762e-06
3.5034348e-06
4.4423334e-06
7.0140598e-06
3.5117475e-06
4.4647616e-06
6.6126376e-06
3.5065323e-06
4.5291469e-06
6.2601333e-06
3.5000761e-06
4.5854577e-06
5.9893125e-06
3.5055537e-06
4.5550936e-06
5.723584e-06
3.5005373e-06
4.6079642e-06
5.4506649e-06
3.5116622e-06
4.6692439e-06
5.224022e-06
3.5307389e-06
4.6310015e-06
5.073234e-06
3.5308072e-06
4.6586416e-06
4.9204547e-06
3.5457216e-06
4.6853027e-06
4.7689999e-06
3.5440244e-06
4.6350883e-06
4.6301444e-06
3.5253924e-06
4.648614e-06
4.5140419e-06
3.5256899e-06
4.6685125e-06
4.3897278e-06
3.5449048e-06
4.6621703e-06
4.2802827e-06
3.5636369e-06
4.6818983e-06
4.1887026e-06
3.6044027e-06
4.6502941e-06
4.1408519e-06
3.605048e-06
4.6007006e-06
2.4384845e-06
3.6075051e-06
4.2931578e-06
1.8543128e-06
2.1654394e-06
4.4036758e-06
7.1504357e-06
7.3483892e-06
6.7093848e-06
6.5315182e-06
6.7392916e-06
6.3716935e-06
5.1820522e-06
5.1233229e-06
4.8764541e-06
4.3419158e-06
4.2708323e-06
4.135528e-06
3.7990591e-06
3.7564446e-06
3.6964226e-06
3.4332915e-06
3.4159972e-06
3.4011839e-06
3.170194e-06
3.1685735e-06
3.1782217e-06
2.9600627e-06
2.9665885e-06
2.9878342e-06
2.7680712e-06
2.7780327e-06
2.8033575e-06
2.569763e-06
2.580494e-06
2.6057287e-06
2.3495238e-06
2.359632e-06
2.382619e-06
2.1003262e-06
2.1091549e-06
2.1289118e-06
1.8237776e-06
1.8310825e-06
1.8472967e-06
1.5296777e-06
1.5354425e-06
1.5481832e-06
1.2341802e-06
1.2385192e-06
1.2480866e-06
9.5607813e-07
9.5918506e-07
9.6602723e-07
7.1190977e-07
7.1402122e-07
7.1866841e-07
5.1184177e-07
5.1320281e-07
5.161989e-07
3.5820489e-07
3.5903775e-07
3.6087476e-07
2.469407e-07
2.4742735e-07
2.4850525e-07
1.7064865e-07
1.7092876e-07
1.7154631e-07
1.2071386e-07
1.2087258e-07
1.2122112e-07
8.9290322e-08
8.938071e-08
8.9578879e-08
7.0334648e-08
7.0388361e-08
7.0506167e-08
5.9503473e-08
5.9538242e-08
5.9614723e-08
5.3815661e-08
5.384083e-08
5.3896562e-08
5.1298498e-08
5.131871e-08
5.1363915e-08
5.0684584e-08
5.0702036e-08
5.0741496e-08
5.1178881e-08
5.119459e-08
5.1230417e-08
5.2292587e-08
5.2307028e-08
5.2340112e-08
5.3730807e-08
5.3744202e-08
5.3774907e-08
5.5319001e-08
5.5331456e-08
5.5359945e-08
5.6955707e-08
5.6967281e-08
5.6993652e-08
5.8582614e-08
5.8593348e-08
5.8617698e-08
6.0166046e-08
6.0175982e-08
6.0198425e-08
6.1685893e-08
6.1695076e-08
6.1715741e-08
6.3129282e-08
6.3137767e-08
6.3156793e-08
6.4487203e-08
6.4495046e-08
6.4512582e-08
6.5752862e-08
6.5760122e-08
6.5776319e-08
6.6921024e-08
6.6927765e-08
6.6942773e-08
6.7987875e-08
6.7994161e-08
6.8008131e-08
6.8951178e-08
6.8957083e-08
6.8970172e-08
6.9810397e-08
6.981603e-08
6.9828418e-08
7.0539748e-08
7.0545114e-08
7.0556883e-08
7.1132095e-08
7.1137229e-08
7.1148478e-08
7.1574948e-08
7.1579891e-08
7.1590718e-08
7.184442e-08
7.1849211e-08
7.1859703e-08
7.1890055e-08
7.1894722e-08
7.1904942e-08
7.1558396e-08
7.1562945e-08
7.1572903e-08
4.1631116e-06
4.4885248e-06
6.7314087e-06
8.4522611e-06
5.9936284e-06
6.0398243e-06
4.7284143e-06
4.8331136e-06
4.0867674e-06
4.1947052e-06
3.6987751e-06
3.8003806e-06
3.4305457e-06
3.5242516e-06
3.2203364e-06
3.3058121e-06
3.0341177e-06
3.111073e-06
2.8487407e-06
2.9169124e-06
2.647369e-06
2.7066058e-06
2.4190741e-06
2.4694225e-06
2.159615e-06
2.2013442e-06
1.8722241e-06
1.9058141e-06
1.5676562e-06
1.5937768e-06
1.2626637e-06
1.2821678e-06
9.764355e-07
9.9034042e-07
7.2573195e-07
7.3515923e-07
5.2075118e-07
5.2682371e-07
3.636672e-07
3.673919e-07
2.5014576e-07
2.5233321e-07
1.7248329e-07
1.7372933e-07
1.2174845e-07
1.2244795e-07
8.9878293e-08
9.0274966e-08
7.0684232e-08
7.0920279e-08
5.9730664e-08
5.9884835e-08
5.3981543e-08
5.4095165e-08
5.1433383e-08
5.1526859e-08
5.08026e-08
5.0885278e-08
5.1286207e-08
5.1361968e-08
5.2391768e-08
5.2462016e-08
5.3822848e-08
5.3888018e-08
5.5404337e-08
5.5464582e-08
5.7034621e-08
5.709009e-08
5.8655401e-08
5.8706314e-08
6.0233058e-08
6.0279704e-08
6.1747531e-08
6.1790246e-08
6.3185984e-08
6.3225124e-08
6.4539424e-08
6.457535e-08
6.5801062e-08
6.5834128e-08
6.6965662e-08
6.6996208e-08
6.8029403e-08
6.8057753e-08
6.8990059e-08
6.901652e-08
6.9847153e-08
6.9872014e-08
7.0574642e-08
7.059817e-08
7.1165434e-08
7.1187879e-08
7.1607032e-08
7.1628615e-08
7.187551e-08
7.1896416e-08
7.1920338e-08
7.1940685e-08
7.1587889e-08
7.1607661e-08
4.2900831e-10
1.3263477e-08
1.9323178e-07
8.2715753e-07
1.6447396e-06
2.2314574e-06
2.5763106e-06
2.7845568e-06
2.9285596e-06
3.0439183e-06
3.1477297e-06
3.2537943e-06
3.35919e-06
3.4627735e-06
3.5637367e-06
3.6607218e-06
3.7512706e-06
3.831244e-06
3.8939384e-06
3.9287599e-06
3.9190754e-06
3.8386118e-06
3.6448549e-06
3.2612042e-06
2.4496762e-06
2.1437663e-10
2.6924079e-08
3.6039036e-07
1.3789323e-06
2.5728846e-06
3.3813267e-06
3.8542304e-06
4.1607126e-06
4.3952655e-06
4.6006123e-06
4.7972726e-06
4.9976092e-06
5.1996059e-06
5.4021755e-06
5.6036453e-06
5.8012707e-06
5.9903038e-06
6.162962e-06
6.306524e-06
6.4006687e-06
6.413031e-06
6.2912241e-06
5.9474494e-06
5.2208097e-06
3.6827773e-06
6.6183323e-10
7.8940235e-08
8.5876642e-07
2.5104454e-06
3.7961464e-06
4.5325212e-06
4.9959679e-06
5.3414902e-06
5.6416595e-06
5.9288395e-06
6.2183268e-06
6.5168408e-06
6.8229683e-06
7.1355511e-06
7.4531675e-06
7.7727508e-06
8.0880748e-06
8.3891664e-06
8.6583399e-06
8.8668337e-06
8.9679442e-06
8.8839798e-06
8.4794e-06
7.4956212e-06
5.2895178e-06
3.1292389e-09
2.8582034e-07
2.0655316e-06
4.0072722e-06
5.0479061e-06
5.6354978e-06
6.0421165e-06
6.3845229e-06
6.7129468e-06
7.0459514e-06
7.3943563e-06
7.7612421e-06
8.1430927e-06
8.5386232e-06
8.9477246e-06
9.3690518e-06
9.7976433e-06
1.0223974e-05
1.0631369e-05
1.0991882e-05
1.125921e-05
1.1354792e-05
1.1134772e-05
1.0289873e-05
7.8908822e-06
2.3350318e-08
1.139937e-06
3.9935025e-06
5.6029176e-06
6.454905e-06
6.9759889e-06
7.3594658e-06
7.7055052e-06
8.0548587e-06
8.4094576e-06
8.7825449e-06
9.1810561e-06
9.594709e-06
1.0018795e-05
1.0456097e-05
1.0911301e-05
1.1383755e-05
1.1868901e-05
1.2356834e-05
1.2829318e-05
1.3255182e-05
1.3584145e-05
1.3739434e-05
1.3625146e-05
1.321293e-05
1.9519177e-07
2.757537e-06
5.9099536e-06
7.7158394e-06
8.6314112e-06
9.048846e-06
9.2451453e-06
9.3818189e-06
9.5201493e-06
9.6783687e-06
9.8646156e-06
1.0085256e-05
1.0340798e-05
1.063135e-05
1.09581e-05
1.1322071e-05
1.1723442e-05
1.216031e-05
1.2627725e-05
1.3115917e-05
1.3607217e-05
1.4072728e-05
1.4469221e-05
1.4747933e-05
1.4851337e-05
4.3322863e-06
4.3116532e-06
4.3631775e-06
4.4798219e-06
4.6585179e-06
4.8891055e-06
5.1627258e-06
5.477521e-06
5.8355288e-06
6.237908e-06
6.6836381e-06
7.1695728e-06
7.6900986e-06
8.2381206e-06
8.8067667e-06
9.3911033e-06
9.9885476e-06
1.0597701e-05
1.1216685e-05
1.1840999e-05
1.2460459e-05
1.3056036e-05
1.3597044e-05
1.4046663e-05
1.4337183e-05
9.1240637e-06
9.3838566e-06
9.7823976e-06
1.0201259e-05
1.0377528e-05
1.0341023e-05
1.022372e-05
1.0126427e-05
1.0089113e-05
1.0113701e-05
1.0195973e-05
1.0331279e-05
1.0517688e-05
1.0754885e-05
1.1042701e-05
1.138057e-05
1.1766587e-05
1.2196879e-05
1.2664477e-05
1.3157225e-05
1.3654612e-05
1.4124601e-05
1.4520826e-05
1.4793143e-05
1.4887576e-05
6.4136622e-06
6.824064e-06
7.2558103e-06
7.6566406e-06
7.9592893e-06
8.1769766e-06
8.3695188e-06
8.5771371e-06
8.8080945e-06
9.0767222e-06
9.380146e-06
9.7089322e-06
1.0058333e-05
1.0434629e-05
1.0841731e-05
1.1280264e-05
1.1747317e-05
1.2235699e-05
1.2731945e-05
1.3213314e-05
1.3643221e-05
1.3965359e-05
1.4097222e-05
1.3939972e-05
1.347251e-05
5.1468758e-06
5.5044605e-06
5.8558687e-06
6.1733827e-06
6.4402047e-06
6.6690302e-06
6.8901684e-06
7.124048e-06
7.3817801e-06
7.6699588e-06
7.9865829e-06
8.3289291e-06
8.696873e-06
9.0915527e-06
9.5125474e-06
9.9562014e-06
1.0414403e-05
1.0872883e-05
1.1308593e-05
1.168556e-05
1.1947956e-05
1.2006874e-05
1.1708552e-05
1.073343e-05
8.1267986e-06
4.4381303e-06
4.7291279e-06
5.0208113e-06
5.2928633e-06
5.5394767e-06
5.7688225e-06
5.9954107e-06
6.2320523e-06
6.4872852e-06
6.7652689e-06
7.0657125e-06
7.3874121e-06
7.7300433e-06
8.0925882e-06
8.4721922e-06
8.8619047e-06
9.2496198e-06
9.6161718e-06
9.9326084e-06
1.0156083e-05
1.0223294e-05
1.0038943e-05
9.4522861e-06
8.1976137e-06
5.6391894e-06
3.989484e-06
4.2202618e-06
4.4597457e-06
4.6921633e-06
4.9138709e-06
5.1296243e-06
5.3475216e-06
5.5753276e-06
5.8187559e-06
6.0806588e-06
6.3612722e-06
6.6597189e-06
6.9747437e-06
7.303641e-06
7.6410634e-06
7.9779281e-06
8.3000374e-06
8.5864539e-06
8.8074016e-06
8.9214109e-06
8.871237e-06
8.577328e-06
7.9248463e-06
6.7258497e-06
4.49632e-06
3.6759863e-06
3.86146e-06
4.0595055e-06
4.2585507e-06
4.4553138e-06
4.651993e-06
4.8531972e-06
5.0637355e-06
5.2873292e-06
5.5259344e-06
5.7797837e-06
6.0479406e-06
6.3284599e-06
6.6176717e-06
6.9092402e-06
7.1932842e-06
7.4554168e-06
7.6756202e-06
7.8270114e-06
7.8744966e-06
7.7732753e-06
7.4667406e-06
6.8809388e-06
5.8978629e-06
4.1445611e-06
3.4312379e-06
3.5834039e-06
3.7492208e-06
3.9205176e-06
4.0943075e-06
4.2712703e-06
4.4539097e-06
4.6450997e-06
4.8471368e-06
5.0612036e-06
5.2872294e-06
5.5239939e-06
5.7690327e-06
6.0181314e-06
6.2646697e-06
6.4989721e-06
6.7076697e-06
6.8731075e-06
6.9729188e-06
6.9799762e-06
6.8631454e-06
6.5898018e-06
6.1330129e-06
5.4953939e-06
4.7984573e-06
3.2167505e-06
3.3437319e-06
3.4839633e-06
3.631796e-06
3.7846642e-06
3.9424216e-06
4.1062765e-06
4.2778202e-06
4.4583382e-06
4.6483474e-06
4.8474011e-06
5.0539847e-06
5.2653259e-06
5.477024e-06
5.6826074e-06
5.8731053e-06
6.0367059e-06
6.1585771e-06
6.2210036e-06
6.2041289e-06
6.0878833e-06
5.8564883e-06
5.5092699e-06
5.088022e-06
4.7373118e-06
3.0066176e-06
3.1135304e-06
3.2326251e-06
3.3600047e-06
3.4935496e-06
3.6327032e-06
3.7778805e-06
3.9298276e-06
4.089112e-06
4.2557525e-06
4.4289809e-06
4.6070778e-06
4.7871694e-06
4.9649544e-06
5.1344187e-06
5.2875905e-06
5.4144091e-06
5.5027934e-06
5.5390385e-06
5.5087539e-06
5.398752e-06
5.200757e-06
4.9190034e-06
4.5856034e-06
4.2567346e-06
2.782544e-06
2.8725416e-06
2.9733866e-06
3.0823575e-06
3.1977361e-06
3.3187934e-06
3.4454719e-06
3.5779737e-06
3.7163871e-06
3.860384e-06
4.0089969e-06
4.1604387e-06
4.3119252e-06
4.4594816e-06
4.5977641e-06
4.7199412e-06
4.8176873e-06
4.8813474e-06
4.9003394e-06
4.8638582e-06
4.761907e-06
4.5864497e-06
4.3312633e-06
3.9821413e-06
3.4214236e-06
2.5329888e-06
2.6080865e-06
2.6926012e-06
2.7846056e-06
2.8827202e-06
2.9861748e-06
3.0946553e-06
3.2080314e-06
3.3260957e-06
3.4483232e-06
3.5736736e-06
3.7004325e-06
3.8260631e-06
3.9470736e-06
4.0589141e-06
4.1559312e-06
4.2314134e-06
4.2777535e-06
4.2867301e-06
4.2498482e-06
4.1584991e-06
4.0031647e-06
3.7689378e-06
3.4158539e-06
2.7721785e-06
2.2535837e-06
2.3152173e-06
2.3848211e-06
2.4610123e-06
2.5426958e-06
2.6291447e-06
2.719925e-06
2.8147298e-06
2.9131986e-06
3.0147305e-06
3.1183239e-06
3.2224466e-06
3.3249201e-06
3.422831e-06
3.512473e-06
3.5893397e-06
3.6481763e-06
3.6830956e-06
3.6877191e-06
3.6552261e-06
3.5780109e-06
3.4461985e-06
3.2428446e-06
2.9271387e-06
2.3458903e-06
1.9476748e-06
1.9970569e-06
2.0529856e-06
2.1144672e-06
2.1806487e-06
2.2508895e-06
2.3247324e-06
2.401803e-06
2.4816896e-06
2.5638058e-06
2.6472708e-06
2.730805e-06
2.812647e-06
2.8904964e-06
2.9614815e-06
3.022166e-06
3.0685879e-06
3.0963202e-06
3.1005021e-06
3.0757238e-06
3.0155206e-06
2.9109706e-06
2.7471378e-06
2.4924921e-06
2.0441585e-06
1.6262583e-06
1.6645923e-06
1.7081131e-06
1.7561116e-06
1.8079398e-06
1.8630649e-06
1.9210655e-06
1.9815734e-06
2.0441945e-06
2.1084163e-06
2.1735217e-06
2.2385139e-06
2.3020589e-06
2.3624501e-06
2.4175898e-06
2.4649975e-06
2.5018314e-06
2.5249044e-06
2.5306494e-06
2.5149428e-06
2.4726297e-06
2.3964747e-06
2.2749216e-06
2.0863195e-06
1.7699153e-06
1.3063995e-06
1.3350141e-06
1.3675599e-06
1.4035425e-06
1.4424827e-06
1.4839622e-06
1.5276245e-06
1.5731496e-06
1.6202005e-06
1.6683683e-06
1.7171113e-06
1.7657077e-06
1.8132173e-06
1.8584599e-06
1.9000065e-06
1.9361831e-06
1.9650773e-06
1.9845286e-06
1.9920671e-06
1.9847407e-06
1.9587476e-06
1.9087413e-06
1.8265142e-06
1.6978092e-06
1.4880672e-06
1.0076068e-06
1.0280072e-06
1.0512396e-06
1.0769644e-06
1.1048425e-06
1.1345587e-06
1.1658338e-06
1.1984116e-06
1.232029e-06
1.2663835e-06
1.3010956e-06
1.3356816e-06
1.369529e-06
1.4018849e-06
1.4318505e-06
1.4583805e-06
1.4802814e-06
1.4961937e-06
1.5045328e-06
1.5033551e-06
1.490106e-06
1.4611941e-06
1.4112231e-06
1.3310254e-06
1.1980472e-06
7.4686008e-07
7.6068889e-07
7.7644659e-07
7.9390612e-07
8.1283298e-07
8.3300347e-07
8.5421029e-07
8.7626158e-07
8.9896618e-07
9.2211579e-07
9.4546355e-07
9.6870962e-07
9.9148864e-07
1.0133616e-06
1.0338105e-06
1.0522356e-06
1.0679487e-06
1.0801587e-06
1.087933e-06
1.0901115e-06
1.085153e-06
1.070887e-06
1.0440606e-06
9.9905003e-07
9.2149732e-07
5.3435704e-07
5.4325931e-07
5.5340308e-07
5.6463947e-07
5.7681186e-07
5.8976603e-07
6.0335757e-07
6.1745094e-07
6.3191509e-07
6.4661474e-07
6.6140082e-07
6.7610275e-07
6.9052211e-07
7.0442844e-07
7.1755189e-07
7.2957523e-07
7.4012661e-07
7.4877309e-07
7.5500636e-07
7.5819911e-07
7.575203e-07
7.5179653e-07
7.3924366e-07
7.1666296e-07
6.755103e-07
3.7201056e-07
3.7746612e-07
3.8367957e-07
3.9055508e-07
3.9799135e-07
4.058861e-07
4.1414237e-07
4.2266985e-07
4.313832e-07
4.401992e-07
4.4903357e-07
4.5779783e-07
4.6639684e-07
4.7472565e-07
4.8266099e-07
4.9004778e-07
4.9668913e-07
5.023488e-07
5.0675922e-07
5.0960738e-07
5.104892e-07
5.0883222e-07
5.0373951e-07
4.9351445e-07
4.7345856e-07
2.5504369e-07
2.5824233e-07
2.6188073e-07
2.6589998e-07
2.7023654e-07
2.7482592e-07
2.7960617e-07
2.8451994e-07
2.895143e-07
2.94541e-07
2.9955525e-07
3.0451626e-07
3.0938701e-07
3.1413192e-07
3.1870717e-07
3.2304238e-07
3.2702419e-07
3.3050956e-07
3.3335135e-07
3.3540163e-07
3.3648135e-07
3.3633503e-07
3.3454725e-07
3.3029051e-07
3.2116228e-07
1.7526946e-07
1.7708145e-07
1.7913554e-07
1.813961e-07
1.8382413e-07
1.8638016e-07
1.8902632e-07
1.9172786e-07
1.9445386e-07
1.971781e-07
1.998796e-07
2.0254448e-07
2.0516864e-07
2.0775909e-07
2.1032245e-07
2.1282918e-07
2.1518425e-07
2.1727496e-07
2.1901054e-07
2.2032686e-07
2.2115421e-07
2.2138783e-07
2.2084801e-07
2.1915865e-07
2.1518427e-07
1.2331035e-07
1.2432197e-07
1.2546477e-07
1.2671729e-07
1.2805619e-07
1.2945743e-07
1.3089813e-07
1.3235742e-07
1.3381723e-07
1.3526296e-07
1.3668416e-07
1.3807568e-07
1.3943938e-07
1.4078628e-07
1.4213894e-07
1.4353193e-07
1.4494487e-07
1.462241e-07
1.472807e-07
1.4809274e-07
1.4864066e-07
1.4888484e-07
1.4874659e-07
1.4804276e-07
1.4618501e-07
9.0763238e-08
9.133501e-08
9.1979611e-08
9.2684297e-08
9.3435116e-08
9.4217834e-08
9.501865e-08
9.5825156e-08
9.6626803e-08
9.7415416e-08
9.8185703e-08
9.8935907e-08
9.9668746e-08
1.003928e-07
1.0112452e-07
1.0189146e-07
1.0273066e-07
1.0355609e-07
1.0423354e-07
1.047536e-07
1.0511582e-07
1.0530546e-07
1.0528288e-07
1.0494445e-07
1.0394841e-07
7.1210982e-08
7.1551649e-08
7.1936057e-08
7.2356705e-08
7.2805292e-08
7.3273285e-08
7.3752444e-08
7.4235251e-08
7.4715409e-08
7.5188117e-08
7.5650427e-08
7.6101633e-08
7.6543845e-08
7.6982904e-08
7.7429836e-08
7.7903265e-08
7.8433413e-08
7.9013743e-08
7.9495091e-08
7.9866842e-08
8.0133039e-08
8.0287271e-08
8.0306283e-08
8.0128958e-08
7.9556328e-08
6.0075387e-08
6.0299628e-08
6.0553945e-08
6.0833885e-08
6.1134437e-08
6.145036e-08
6.1776529e-08
6.2108222e-08
6.2441365e-08
6.2772795e-08
6.3100449e-08
6.3423644e-08
6.3743503e-08
6.4063652e-08
6.4391385e-08
6.4739462e-08
6.5128354e-08
6.5583141e-08
6.5969844e-08
6.627443e-08
6.6500174e-08
6.6642669e-08
6.6685474e-08
6.6588386e-08
6.6228727e-08
5.4236455e-08
5.4403914e-08
5.4595395e-08
5.4808155e-08
5.5039021e-08
5.5284581e-08
5.5541398e-08
5.5806196e-08
5.6076028e-08
5.6348423e-08
5.6621557e-08
5.6894471e-08
5.7167421e-08
5.744248e-08
5.772456e-08
5.8023055e-08
5.8354322e-08
5.8743832e-08
5.9086187e-08
5.9362628e-08
5.9574375e-08
5.9716776e-08
5.9775421e-08
5.971691e-08
5.9443385e-08
5.1643871e-08
5.1783614e-08
5.1944739e-08
5.2125423e-08
5.2323461e-08
5.2536402e-08
5.2761679e-08
5.2996735e-08
5.3239144e-08
5.3486733e-08
5.3737715e-08
5.399089e-08
5.424595e-08
5.4503993e-08
5.4768419e-08
5.5046434e-08
5.5351474e-08
5.5705914e-08
5.6025422e-08
5.6288923e-08
5.649576e-08
5.6640328e-08
5.670823e-08
5.6667341e-08
5.6426762e-08
5.0989328e-08
5.1114325e-08
5.1259339e-08
5.1423006e-08
5.1603612e-08
5.1799185e-08
5.2007595e-08
5.2226654e-08
5.2454211e-08
5.2688267e-08
5.2927093e-08
5.3169409e-08
5.3414639e-08
5.3663341e-08
5.3917971e-08
5.4184213e-08
5.4473211e-08
5.4804216e-08
5.5108036e-08
5.5362482e-08
5.5565418e-08
5.5710066e-08
5.5781247e-08
5.5746426e-08
5.5513201e-08
5.1457619e-08
5.1572923e-08
5.1707153e-08
5.1859167e-08
5.2027495e-08
5.2210418e-08
5.2406056e-08
5.2612455e-08
5.2827682e-08
5.3049922e-08
5.3277593e-08
5.3509491e-08
5.3744996e-08
5.3984417e-08
5.4229626e-08
5.4485216e-08
5.4760511e-08
5.5072092e-08
5.5361122e-08
5.5606106e-08
5.5803459e-08
5.5945118e-08
5.6014723e-08
5.5978267e-08
5.5739716e-08
5.2550808e-08
5.2657976e-08
5.2782878e-08
5.2924492e-08
5.3081489e-08
5.3252321e-08
5.34353e-08
5.3628685e-08
5.3830768e-08
5.4039971e-08
5.4254937e-08
5.4474646e-08
5.4698572e-08
5.4926949e-08
5.5161283e-08
5.5405343e-08
5.5666932e-08
5.596019e-08
5.6234089e-08
5.6468458e-08
5.6658411e-08
5.6794593e-08
5.6859323e-08
5.6816827e-08
5.6567341e-08
5.397035e-08
5.4069677e-08
5.41854e-08
5.4316569e-08
5.4461974e-08
5.462022e-08
5.4789807e-08
5.4969219e-08
5.5157002e-08
5.5351846e-08
5.5552666e-08
5.5758683e-08
5.5969533e-08
5.6185467e-08
5.6407752e-08
5.6639502e-08
5.6887203e-08
5.7162748e-08
5.7421415e-08
5.7644492e-08
5.7825914e-08
5.7955096e-08
5.8012986e-08
5.7961791e-08
5.7697038e-08
5.5540573e-08
5.5632116e-08
5.5738632e-08
5.5859242e-08
5.599285e-08
5.6138217e-08
5.6294044e-08
5.6459048e-08
5.6632038e-08
5.6811989e-08
5.6998101e-08
5.7189849e-08
5.738706e-08
5.759004e-08
5.7799889e-08
5.8019179e-08
5.8253248e-08
5.8511945e-08
5.8755859e-08
5.8967585e-08
5.914004e-08
5.9261489e-08
5.9311528e-08
5.9250298e-08
5.8968329e-08
5.7159908e-08
5.7243843e-08
5.7341338e-08
5.7451587e-08
5.7573611e-08
5.7706331e-08
5.7848647e-08
5.7999508e-08
5.8157986e-08
5.832333e-08
5.8495013e-08
5.867276e-08
5.8856582e-08
5.904686e-08
5.9244568e-08
5.9451819e-08
5.9672948e-08
5.9915982e-08
6.0146033e-08
6.034681e-08
6.0510326e-08
6.0623785e-08
6.0665527e-08
6.0593881e-08
6.0297166e-08
5.8770247e-08
5.8846938e-08
5.8935856e-08
5.9036267e-08
5.914731e-08
5.9268061e-08
5.939761e-08
5.953513e-08
5.9679932e-08
5.9831521e-08
5.9989621e-08
6.0154183e-08
6.0325393e-08
6.0503703e-08
6.0689989e-08
6.0885976e-08
6.1095124e-08
6.1323861e-08
6.1541133e-08
6.1731584e-08
6.1886419e-08
6.199187e-08
6.2025121e-08
6.1942845e-08
6.1628739e-08
6.0338144e-08
6.0408098e-08
6.0489061e-08
6.0580373e-08
6.0681284e-08
6.0791017e-08
6.0908837e-08
6.1034114e-08
6.1166382e-08
6.1305369e-08
6.1451022e-08
6.1603494e-08
6.1763124e-08
6.1930431e-08
6.2106214e-08
6.2291865e-08
6.2490093e-08
6.2705937e-08
6.2911521e-08
6.3092307e-08
6.3238792e-08
6.3336329e-08
6.3361053e-08
6.3268148e-08
6.2937417e-08
6.1843648e-08
6.1907445e-08
6.1981167e-08
6.2064223e-08
6.2155965e-08
6.2255747e-08
6.236299e-08
6.2477242e-08
6.2598225e-08
6.2725867e-08
6.2860305e-08
6.3001867e-08
6.3151024e-08
6.3308357e-08
6.3474599e-08
6.3650863e-08
6.3839221e-08
6.4043516e-08
6.4238385e-08
6.4410091e-08
6.4548524e-08
6.4638256e-08
6.4654442e-08
6.4550745e-08
6.4203006e-08
6.3273966e-08
6.3332215e-08
6.3399435e-08
6.34751e-08
6.3558652e-08
6.3649563e-08
6.374739e-08
6.3851832e-08
6.3962774e-08
6.4080312e-08
6.4204748e-08
6.4336555e-08
6.4476317e-08
6.4624669e-08
6.4782291e-08
6.4950066e-08
6.5129526e-08
6.53235e-08
6.5508428e-08
6.5671493e-08
6.5802084e-08
6.5884086e-08
6.5891721e-08
6.5776997e-08
6.5411269e-08
6.4620109e-08
6.4673411e-08
6.4734852e-08
6.4803965e-08
6.4880273e-08
6.4963349e-08
6.5052864e-08
6.5148649e-08
6.5250724e-08
6.5359328e-08
6.5474896e-08
6.5598024e-08
6.572939e-08
6.5869674e-08
6.6019521e-08
6.6179619e-08
6.635104e-08
6.6535747e-08
6.6711261e-08
6.6865938e-08
6.6988767e-08
6.7063043e-08
6.7062121e-08
6.6936376e-08
6.6553259e-08
6.5875267e-08
6.5924196e-08
6.5980545e-08
6.6043897e-08
6.6113846e-08
6.6190048e-08
6.6272275e-08
6.6360463e-08
6.6454749e-08
6.6555485e-08
6.6663218e-08
6.6778643e-08
6.6902515e-08
6.703556e-08
6.7178398e-08
6.7331552e-08
6.7495667e-08
6.7671839e-08
6.7838173e-08
6.7984505e-08
6.8099517e-08
6.8166005e-08
6.8156602e-08
6.8020438e-08
6.762124e-08
6.7034166e-08
6.7079263e-08
6.7131156e-08
6.7189475e-08
6.7253872e-08
6.7324075e-08
6.7399938e-08
6.7481487e-08
6.7568951e-08
6.7662774e-08
6.7763593e-08
6.7872181e-08
6.7989362e-08
6.8115922e-08
6.8252507e-08
6.8399467e-08
6.8557033e-08
6.8724553e-08
6.8881541e-08
6.9019354e-08
6.9126358e-08
6.918494e-08
6.9167242e-08
6.9021649e-08
6.8609762e-08
6.8092942e-08
6.8134703e-08
6.818272e-08
6.8236659e-08
6.8296223e-08
6.8361201e-08
6.8431513e-08
6.8507259e-08
6.8588743e-08
6.8676483e-08
6.8771186e-08
6.8873685e-08
6.8984875e-08
6.9105686e-08
6.9236949e-08
6.9378696e-08
6.9531614e-08
6.9687499e-08
6.9834432e-08
6.9963364e-08
7.0062065e-08
7.0112569e-08
7.0086874e-08
6.9934015e-08
6.9523474e-08
6.9049316e-08
6.9088188e-08
6.9132835e-08
6.9182958e-08
6.9238301e-08
6.9298702e-08
6.9364139e-08
6.9434773e-08
6.9510969e-08
6.9593305e-08
6.9682538e-08
6.9779548e-08
6.9885311e-08
7.0001257e-08
7.0128702e-08
7.0265569e-08
7.0408924e-08
7.0553135e-08
7.0689916e-08
7.0809718e-08
7.0899788e-08
7.0941897e-08
7.0907984e-08
7.0747388e-08
7.0332109e-08
6.9902761e-08
6.9939126e-08
6.9980822e-08
7.0027575e-08
7.0079167e-08
7.0135478e-08
7.0196539e-08
7.026256e-08
7.0333964e-08
7.0411375e-08
7.0495592e-08
7.0587508e-08
7.0688011e-08
7.0797893e-08
7.0917542e-08
7.1045703e-08
7.1179391e-08
7.131354e-08
7.1440768e-08
7.1551454e-08
7.1632624e-08
7.1665927e-08
7.1623257e-08
7.1453735e-08
7.1027821e-08
7.0627226e-08
7.0661543e-08
7.0700843e-08
7.0744872e-08
7.0793435e-08
7.0846446e-08
7.0903968e-08
7.0966247e-08
7.1033732e-08
7.1107072e-08
7.1187068e-08
7.1274588e-08
7.1370425e-08
7.1475102e-08
7.1588559e-08
7.1709555e-08
7.1835211e-08
7.1960731e-08
7.2079113e-08
7.2180832e-08
7.2252912e-08
7.227703e-08
7.2225135e-08
7.2046193e-08
7.160922e-08
7.1215571e-08
7.1248248e-08
7.1285639e-08
7.13275e-08
7.1373654e-08
7.142404e-08
7.1478742e-08
7.1538025e-08
7.160235e-08
7.1672369e-08
7.1748873e-08
7.1832693e-08
7.192454e-08
7.2024777e-08
7.213311e-08
7.2248156e-08
7.2367001e-08
7.2484915e-08
7.2595057e-08
7.2688021e-08
7.2750938e-08
7.2765645e-08
7.2704294e-08
7.2515942e-08
7.2068819e-08
7.165523e-08
7.1686616e-08
7.1722505e-08
7.176266e-08
7.1806918e-08
7.1855236e-08
7.1907711e-08
7.1964612e-08
7.2026401e-08
7.2093718e-08
7.2167336e-08
7.2248067e-08
7.2336561e-08
7.2433079e-08
7.2537193e-08
7.264736e-08
7.2760455e-08
7.2871643e-08
7.2974145e-08
7.3058682e-08
7.3112573e-08
7.3117936e-08
7.3047338e-08
7.2850407e-08
7.2395904e-08
7.1922183e-08
7.195256e-08
7.1987275e-08
7.2026094e-08
7.2068869e-08
7.2115568e-08
7.2166283e-08
7.2221307e-08
7.2281055e-08
7.2346161e-08
7.2417361e-08
7.2495516e-08
7.2581258e-08
7.2674823e-08
7.2775783e-08
7.2882515e-08
7.2991227e-08
7.309672e-08
7.3192349e-08
7.326904e-08
7.3314388e-08
7.331093e-08
7.3231948e-08
7.3028529e-08
7.2573113e-08
7.1965749e-08
7.1995306e-08
7.2029079e-08
7.2066828e-08
7.2108418e-08
7.2153796e-08
7.2202976e-08
7.2256517e-08
7.2314613e-08
7.2378008e-08
7.2447068e-08
7.2523e-08
7.2606517e-08
7.2698002e-08
7.279752e-08
7.2904176e-08
7.3011357e-08
7.3112688e-08
7.3202513e-08
7.3272314e-08
7.3310111e-08
7.3299008e-08
7.3213341e-08
7.3006946e-08
7.2562665e-08
7.163319e-08
7.1661938e-08
7.1694812e-08
7.1731557e-08
7.1772008e-08
7.1815886e-08
7.1862812e-08
7.1915053e-08
7.1972017e-08
7.2035796e-08
7.2102862e-08
7.2176532e-08
7.2258005e-08
7.2348207e-08
7.2449712e-08
7.2571366e-08
7.2688413e-08
7.2788409e-08
7.2873716e-08
7.2937941e-08
7.2969804e-08
7.2953131e-08
7.2863711e-08
7.2660059e-08
7.2251525e-08
)
;

boundaryField
{
    Walls
    {
        type            nutUWallFunction;
        Cmu             0.09;
        kappa           0.41;
        E               9.8;
        value           uniform 0;
    }
    Inlet
    {
        type            calculated;
        value           nonuniform List<scalar> 3(3.8306805e-05 1.8393199e-05 8.091444e-07);
    }
    Outlet
    {
        type            calculated;
        value           nonuniform List<scalar> 
86
(
0
0
0
0
0
0
0
0
0
0
0
0
0
0
0
0
0
0
0
0
0
0
0
0
0
0
0
0
0
0
1.4337183e-05
1.4887576e-05
1.347251e-05
0
0
0
0
4.7984573e-06
4.7373118e-06
4.2567346e-06
0
0
0
0
1.7699153e-06
1.4880672e-06
1.1980472e-06
9.2149732e-07
6.755103e-07
4.7345856e-07
3.2116228e-07
2.1518427e-07
1.4618501e-07
1.0394841e-07
7.9556328e-08
6.6228727e-08
5.9443385e-08
5.6426762e-08
0
0
0
0
0
0
0
0
0
0
0
0
0
0
0
0
0
0
0
0
0
0
0
0
0
0
1.321293e-05
1.4851337e-05
)
;
    }
    Front
    {
        type            wedge;
    }
    Back
    {
        type            wedge;
    }
    defaultFaces
    {
        type            empty;
    }
}


// ************************************************************************* //
