/*--------------------------------*- C++ -*----------------------------------*\
| =========                 |                                                 |
| \\      /  F ield         | OpenFOAM: The Open Source CFD Toolbox           |
|  \\    /   O peration     | Version:  4.0                                   |
|   \\  /    A nd           | Web:      www.OpenFOAM.org                      |
|    \\/     M anipulation  |                                                 |
\*---------------------------------------------------------------------------*/
FoamFile
{
    version     2.0;
    format      ascii;
    class       volScalarField;
    location    "0.55";
    object      p;
}
// * * * * * * * * * * * * * * * * * * * * * * * * * * * * * * * * * * * * * //

dimensions      [0 2 -2 0 0 0 0];

internalField   nonuniform List<scalar> 
1740
(
491.71156
491.65487
491.69113
474.93172
474.98514
475.36822
458.16005
458.52752
459.1069
441.86997
442.18479
442.3531
425.23509
425.285
425.30115
408.43017
408.5371
408.72595
392.30786
392.30102
392.26255
376.29134
375.95787
375.80342
360.15213
359.98176
359.94125
343.73413
343.79107
343.57042
326.90197
326.88684
326.69312
310.4185
310.38021
310.37657
294.20854
294.2777
294.33307
277.57418
277.79031
277.90042
260.68607
260.74303
260.92597
244.1612
243.91806
243.86548
227.76622
227.64521
227.26701
211.15287
211.13727
210.89905
194.31102
194.35341
194.43956
177.33826
177.57423
177.86466
160.66865
160.70173
160.96607
144.23308
144.03959
143.99929
127.70434
127.57668
127.43664
111.36869
111.21787
111.30472
95.54971
95.418646
95.295215
79.719319
79.793008
79.413526
63.177394
63.47832
63.53259
46.462067
46.781118
47.263854
30.757233
30.738134
30.967317
16.39359
16.005632
15.423219
4.2950293
3.5779697
1.4691971
-0.54991477
-0.5568075
-0.47250928
-0.15056597
-0.1658581
-0.17616837
-0.049424283
-0.062443314
-0.074312182
-0.044548728
-0.048746518
-0.051957376
-0.041470052
-0.042465728
-0.042323913
-0.038894127
-0.038816855
-0.037771449
-0.03631122
-0.035916951
-0.034661853
-0.03349182
-0.033001957
-0.031773143
-0.030526311
-0.030039633
-0.028922987
-0.027686231
-0.027244712
-0.026268645
-0.025159061
-0.024775724
-0.023941988
-0.022992115
-0.022665764
-0.021961563
-0.021154462
-0.020878727
-0.020285754
-0.019581185
-0.019348439
-0.018848145
-0.018203545
-0.018006425
-0.017582427
-0.016971251
-0.016803516
-0.016442318
-0.0158537
-0.015710225
-0.015400921
-0.014831731
-0.014708361
-0.014442076
-0.013891445
-0.013784787
-0.013554248
-0.013021171
-0.012928417
-0.012727652
-0.012210403
-0.01212926
-0.011953416
-0.011450061
-0.011378681
-0.01122383
-0.01073283
-0.01066972
-0.010532667
-0.010053122
-0.0099970676
-0.0098752167
-0.0094067879
-0.0093568026
-0.0092480507
-0.0087907745
-0.0087460527
-0.0086486783
-0.008202812
-0.0081626897
-0.0080752711
-0.0076411767
-0.0076051023
-0.0075264568
-0.0071045225
-0.0070720353
-0.007001172
-0.0065917623
-0.0065624735
-0.0064985565
-0.0061019741
-0.006075554
-0.0060178734
-0.0056343278
-0.0056104953
-0.005558445
-0.0051880299
-0.0051665431
-0.0051196013
-0.0047622808
-0.0047429303
-0.0047006442
-0.0043562441
-0.004338847
-0.0043008209
-0.0039690259
-0.0039534221
-0.0039193086
-0.0035996675
-0.0035857159
-0.0035552091
-0.0032471444
-0.0032347207
-0.0032075506
-0.0029103647
-0.0028993589
-0.0028752869
-0.0025881669
-0.0025784824
-0.0025572976
-0.0022793266
-0.002270878
-0.002252395
-0.0019825678
-0.0019752806
-0.0019593373
-0.0016965735
-0.0016903833
-0.001676839
-0.0014199897
-0.0014148414
-0.001403576
-0.0011514191
-0.0011472666
-0.0011381797
-0.0008893982
-0.00088620433
-0.00087921509
-0.00063236438
-0.00063010119
-0.00062514792
-0.00037874686
-0.00037739565
-0.00037443589
-0.00012636712
-0.00012591758
-0.00012493113
-1.3996069
-0.97384741
-0.37792894
-0.29045845
-0.1607037
-0.14009081
-0.072091944
-0.061942052
-0.048493155
-0.040343575
-0.038973191
-0.033354955
-0.034821861
-0.030375594
-0.032184043
-0.028713397
-0.029696997
-0.02693052
-0.027182872
-0.024940148
-0.024807207
-0.022961475
-0.022715876
-0.021180134
-0.020934334
-0.019650317
-0.01942333
-0.018344002
-0.018120116
-0.017206155
-0.016964214
-0.016185066
-0.015914475
-0.015246494
-0.014947798
-0.014372036
-0.014050956
-0.013551963
-0.013214748
-0.012779919
-0.012431262
-0.012050274
-0.011693209
-0.011357624
-0.010994196
-0.010697121
-0.010329028
-0.01006485
-0.009693852
-0.0094579969
-0.0090859325
-0.0088746502
-0.0085033208
-0.0083135166
-0.0079446149
-0.007773713
-0.007408784
-0.0072546274
-0.0068950397
-0.0067558117
-0.0064027448
-0.006276904
-0.0059313443
-0.0058175748
-0.0054803097
-0.0053774806
-0.0050490931
-0.0049562248
-0.0046370958
-0.0045533333
-0.0042436482
-0.0041682406
-0.0038679976
-0.0038002825
-0.0035093065
-0.0034486982
-0.0031666555
-0.0031126353
-0.0028390448
-0.0027911523
-0.0025253948
-0.0024832221
-0.0022245551
-0.0021877421
-0.0019353182
-0.0019035493
-0.0016564308
-0.0016294319
-0.0013865994
-0.0013641359
-0.0011244846
-0.0011063603
-0.00086868021
-0.00085473653
-0.00061768116
-0.00060779733
-0.00036997363
-0.0003640662
-0.00012344361
-0.00012147387
-0.017773309
-0.016745761
-0.015092167
-0.013191576
-0.011356905
-0.0096601005
-0.0081730804
-0.0069002541
-0.0058316456
-0.0049451085
-0.004225087
-0.0036514891
-0.0031931094
-0.0028151623
-0.0024885205
-0.0021949788
-0.0019264152
-0.0016765613
-0.0014393686
-0.0012100849
-0.00098593121
-0.00076577794
-0.0005490158
-0.00033417787
-0.00011517773
-0.018639067
-0.017434824
-0.015611748
-0.013611931
-0.011752301
-0.010112226
-0.008710534
-0.0075384364
-0.0065772391
-0.005801853
-0.0051706775
-0.0046430261
-0.0041894017
-0.0037910422
-0.0034324021
-0.0030979752
-0.0027708321
-0.0024428638
-0.0021144803
-0.0017848169
-0.0014537253
-0.0011249109
-0.00080018033
-0.00047745057
-0.00015256647
-0.023484525
-0.021984141
-0.020082946
-0.01829354
-0.016806376
-0.015630891
-0.014729132
-0.014032327
-0.013385714
-0.012740152
-0.012072618
-0.011369152
-0.010626683
-0.0098517593
-0.0090463923
-0.0082126203
-0.0073553872
-0.0064798342
-0.0055876117
-0.0046834418
-0.0037742596
-0.0028773006
-0.0020004711
-0.0011504667
-0.00033972014
-0.039909769
-0.038467954
-0.03711072
-0.036191981
-0.035454804
-0.034637484
-0.033583587
-0.032255518
-0.030737789
-0.029066938
-0.027287293
-0.025426898
-0.023506915
-0.021539912
-0.019542816
-0.017532926
-0.0155245
-0.01352786
-0.011552243
-0.0096074017
-0.0076984338
-0.0058568667
-0.0040747442
-0.0023593539
-0.00072967805
-0.09284582
-0.090968901
-0.088122224
-0.083504538
-0.07849641
-0.072960575
-0.067270057
-0.061599764
-0.056038001
-0.050649953
-0.045621696
-0.040907692
-0.03645819
-0.032078439
-0.028019925
-0.024289032
-0.020866474
-0.01772798
-0.01484431
-0.012182293
-0.0097125622
-0.0073802327
-0.0051733461
-0.0030660184
-0.0010458029
-0.26160769
-0.21470722
-0.18979112
-0.1558492
-0.12803811
-0.10378575
-0.083167651
-0.066224058
-0.05246662
-0.041363793
-0.032339277
-0.02510682
-0.019363963
-0.014933252
-0.011380042
-0.0085818389
-0.0063938421
-0.0046989952
-0.0034036959
-0.002430736
-0.0017141944
-0.001187054
-0.00080136359
-0.00050966479
-0.00031113279
-0.37209993
-0.16010503
-0.10543567
-0.064975877
-0.028854753
-0.0001616969
0.018492241
0.028284871
0.032509154
0.033746701
0.033320388
0.03184564
0.029702722
0.02718688
0.024504367
0.021786933
0.019113685
0.016522821
0.014031572
0.011641345
0.0093432308
0.0071261958
0.0049689261
0.0028639079
0.00072736567
-0.23408051
-0.2000725
-0.16991539
-0.14149274
-0.11549037
-0.092812253
-0.073770232
-0.058233027
-0.045679053
-0.035646201
-0.02763535
-0.021274896
-0.016267398
-0.012302403
-0.0091818009
-0.0067459539
-0.0048589786
-0.0034277911
-0.0023618945
-0.0015886847
-0.0010480271
-0.00068630273
-0.00045742795
-0.00031391859
-0.00025571966
-0.12268888
-0.11085667
-0.1015842
-0.093414383
-0.085669629
-0.078236562
-0.071201812
-0.064553912
-0.058300027
-0.052430321
-0.046970115
-0.041775787
-0.036897144
-0.032407718
-0.028295062
-0.024524976
-0.021038255
-0.017850524
-0.014919637
-0.012215998
-0.0097101634
-0.0073718305
-0.0051724179
-0.003078548
-0.0010609417
-0.053925333
-0.049374683
-0.046496913
-0.044513265
-0.042904381
-0.041316284
-0.039617259
-0.03774487
-0.035711754
-0.033535001
-0.031280183
-0.028986652
-0.026655925
-0.024301866
-0.02194438
-0.019606797
-0.017331282
-0.015083028
-0.012879002
-0.010721512
-0.0086127808
-0.0065569526
-0.004560998
-0.002635866
-0.0008147583
-0.032115248
-0.02585262
-0.021916212
-0.019608398
-0.018522491
-0.017982671
-0.017561277
-0.017103641
-0.016558362
-0.015908516
-0.015166921
-0.014348198
-0.013458369
-0.012502374
-0.011489774
-0.010430088
-0.0093374412
-0.0082119747
-0.0070680808
-0.0059166394
-0.0047673407
-0.0036305833
-0.0025179225
-0.0014410512
-0.00042372075
-0.027057059
-0.021442996
-0.017141778
-0.013940662
-0.011433077
-0.0097418066
-0.0086263557
-0.0078722597
-0.0073174469
-0.0068708222
-0.0064760151
-0.0061181568
-0.0057777973
-0.005412614
-0.0050139121
-0.0045870257
-0.0041375992
-0.0036652075
-0.0031769979
-0.002679698
-0.0021789625
-0.0016798635
-0.0011863848
-0.00069910986
-0.00021685676
-0.025408523
-0.02079679
-0.016962766
-0.013934559
-0.011528066
-0.0095870674
-0.0080823358
-0.006945081
-0.0060783966
-0.0053799557
-0.004795518
-0.0042922937
-0.0038469869
-0.003452301
-0.0030941669
-0.0027613719
-0.0024465097
-0.0021418019
-0.0018436863
-0.0015511378
-0.0012637829
-0.00098126415
-0.00070290935
-0.00042605841
-0.00014372708
-0.024825618
-0.021043429
-0.017680259
-0.01482694
-0.012445171
-0.010462114
-0.0088360566
-0.0075281768
-0.0064894954
-0.0056630154
-0.0049939412
-0.0044187248
-0.0039059208
-0.003454594
-0.0030543804
-0.0026936711
-0.002363284
-0.0020533875
-0.0017564257
-0.0014689976
-0.0011891373
-0.00091595485
-0.00064981177
-0.00038964763
-0.00013264178
-0.023823811
-0.020723374
-0.017852729
-0.015305531
-0.013090525
-0.011184776
-0.0095657622
-0.0082041965
-0.0070715027
-0.0061297453
-0.005337481
-0.0046564438
-0.0040647737
-0.0035506594
-0.0031011817
-0.0027040879
-0.0023477428
-0.0020230662
-0.0017175424
-0.00142767
-0.0011500999
-0.0008826289
-0.00062275721
-0.00037019378
-0.00012458605
-0.022416677
-0.019849586
-0.017405173
-0.015169758
-0.013171966
-0.011412649
-0.0098786042
-0.0085498649
-0.0074055479
-0.0064214831
-0.0055721401
-0.0048342502
-0.0041901818
-0.0036270334
-0.0031338558
-0.0026990619
-0.0023104845
-0.0019593783
-0.0016437475
-0.0013541752
-0.0010816748
-0.00082432861
-0.00057924246
-0.00034330986
-0.00011510402
-0.020885621
-0.018740702
-0.016652947
-0.01469903
-0.012918144
-0.011319616
-0.0098991131
-0.0086442626
-0.0075359254
-0.0065589394
-0.0056999613
-0.0049448754
-0.0042798448
-0.0036929965
-0.0031743741
-0.0027146686
-0.0023051919
-0.0019381424
-0.0016073048
-0.0013068946
-0.0010339692
-0.00078163718
-0.00054560761
-0.0003220603
-0.00010717651
-0.019447942
-0.017637846
-0.015847075
-0.014142039
-0.012561001
-0.011117998
-0.0098128627
-0.008639665
-0.0075874406
-0.006645211
-0.0058040732
-0.0050541571
-0.0043862267
-0.0037908457
-0.0032601628
-0.0027864805
-0.0023630108
-0.0019833315
-0.0016414312
-0.0013319826
-0.0010504634
-0.00079181644
-0.00055163394
-0.0003253915
-0.00010836761
-0.018194015
-0.016653976
-0.015108351
-0.013613459
-0.012204916
-0.010899946
-0.009702997
-0.0086119278
-0.0076211378
-0.0067240161
-0.0059141271
-0.0051836807
-0.0045249232
-0.003930463
-0.003393932
-0.0029102999
-0.0024741681
-0.0020802585
-0.0017235104
-0.0013994294
-0.0011036294
-0.00083164716
-0.00057923588
-0.00034148869
-0.00011319139
-0.017111909
-0.015794208
-0.014452195
-0.01313419
-0.011874206
-0.010691566
-0.0095941862
-0.0085828532
-0.0076543704
-0.0068048159
-0.0060292174
-0.0053217098
-0.004676001
-0.0040866689
-0.0035489132
-0.0030589538
-0.0026124395
-0.0022051208
-0.0018330661
-0.0014925127
-0.001179534
-0.00089003796
-0.000620353
-0.00036508488
-0.00011932878
-0.016155843
-0.015021149
-0.013850922
-0.012686212
-0.011557738
-0.010485191
-0.0094789469
-0.0085420953
-0.0076736748
-0.0068701257
-0.0061274761
-0.0054424323
-0.0048112082
-0.0042299807
-0.0036950445
-0.0032025552
-0.0027490811
-0.0023313828
-0.0019462707
-0.0015904983
-0.0012606254
-0.00095312062
-0.0006644857
-0.00039026991
-0.00012758181
-0.015283869
-0.01430158
-0.013277508
-0.012246238
-0.011234474
-0.010261258
-0.0093378973
-0.0084693712
-0.0076567045
-0.0068974859
-0.0061884082
-0.0055275032
-0.0049134857
-0.0043436144
-0.0038145025
-0.0033229387
-0.0028662652
-0.0024418438
-0.0020469771
-0.0016787666
-0.0013343673
-0.0010109009
-0.00070544435
-0.00041465085
-0.00013582044
-0.014469142
-0.013615118
-0.012716117
-0.011800751
-0.010892422
-0.010008371
-0.0091601162
-0.008354239
-0.0075931265
-0.0068766132
-0.0062027692
-0.0055691738
-0.0049748588
-0.0044186887
-0.0038983633
-0.0034112545
-0.0029550961
-0.0025276607
-0.0021266403
-0.0017496515
-0.0013943439
-0.0010583645
-0.00073946781
-0.00043496379
-0.00014263993
-0.013698151
-0.012952425
-0.012160512
-0.011346045
-0.010529143
-0.0097254203
-0.0089459892
-0.0081980466
-0.007485301
-0.0068093409
-0.0061699423
-0.005565371
-0.0049935738
-0.0044535382
-0.0039445062
-0.0034648189
-0.0030125321
-0.0025855963
-0.0021820929
-0.0018001536
-0.0014378761
-0.0010933958
-0.00076487468
-0.00045022704
-0.00014764207
-0.012964782
-0.012310568
-0.011610303
-0.010883584
-0.010147557
-0.0094161938
-0.0087000011
-0.0080062687
-0.0073395798
-0.0067024499
-0.0060957515
-0.0055192
-0.0049711474
-0.0044500431
-0.0039549117
-0.0034851117
-0.0030392826
-0.0026158616
-0.0022133378
-0.0018301146
-0.0014646679
-0.0011155335
-0.00078128521
-0.00046018124
-0.00015079152
-0.012265586
-0.011688834
-0.011067061
-0.010416598
-0.009752063
-0.0090857822
-0.0084275166
-0.0077844565
-0.0071615551
-0.0065618656
-0.0059869995
-0.0054373791
-0.0049125202
-0.0044113032
-0.0039324769
-0.0034750279
-0.0030380902
-0.0026208654
-0.0022222176
-0.0018408455
-0.0014755796
-0.0011252881
-0.00078885658
-0.00046483401
-0.00015216853
-0.011597417
-0.011086605
-0.010532245
-0.0099481276
-0.0093467487
-0.0087389385
-0.0081336069
-0.0075376531
-0.0069561199
-0.0063924116
-0.0058485881
-0.0053255928
-0.0048235569
-0.0043419927
-0.0038801083
-0.0034368414
-0.0030114279
-0.0026030798
-0.0022109467
-0.0018342709
-0.0014722063
-0.0011238692
-0.00078839817
-0.00046464472
-0.00015182431
-0.010956983
-0.010502709
-0.010006623
-0.0094804282
-0.0089349081
-0.0083796163
-0.0078225906
-0.0072703102
-0.0067277324
-0.006198415
-0.0056847178
-0.0051879802
-0.0047087587
-0.0042470009
-0.0038022873
-0.003374064
-0.0029616444
-0.0025642436
-0.0021812139
-0.001812009
-0.0014559708
-0.0011124268
-0.00078079656
-0.00046029676
-0.00015038302
-0.010341091
-0.0099355314
-0.009490235
-0.0090149895
-0.0085191418
-0.008011122
-0.0074981832
-0.0069863582
-0.0064804026
-0.0059838966
-0.0054993785
-0.0050284653
-0.0045720338
-0.0041304011
-0.0037034946
-0.0032910115
-0.0028924858
-0.0025074286
-0.0021353427
-0.0017757061
-0.0014280191
-0.0010918191
-0.0007667298
-0.00045211323
-0.00014766037
-0.0097471501
-0.0093837598
-0.0089829074
-0.0085528163
-0.0081014821
-0.0076362639
-0.0071637181
-0.0066894127
-0.0062178768
-0.005752663
-0.0052963729
-0.0048508097
-0.0044171029
-0.0039958621
-0.0035872904
-0.0031913288
-0.0028077379
-0.0024362108
-0.002076392
-0.0017278991
-0.0013903936
-0.0010635719
-0.00074716984
-0.00044062018
-0.00014377677
-0.0091734726
-0.0088468201
-0.0084849875
-0.0080950012
-0.007683685
-0.0072574519
-0.0068221319
-0.0063827934
-0.0059437189
-0.0055083635
-0.0050793528
-0.0046586252
-0.0042475173
-0.0038468387
-0.0034570214
-0.0030782256
-0.002710416
-0.002353447
-0.0020071016
-0.00167113
-0.001345296
-0.0010293904
-0.00072326287
-0.00042654035
-0.00013909437
-0.0086190631
-0.008324654
-0.0079973003
-0.0076430212
-0.0072677188
-0.0068770142
-0.0064760559
-0.0060694288
-0.0056610906
-0.0052543045
-0.00485171
-0.0044553237
-0.0040666165
-0.0036865642
-0.0033157905
-0.0029546465
-0.0026032836
-0.0022616951
-0.0019297855
-0.0016074122
-0.0012944159
-0.00099064642
-0.00069602818
-0.00041048106
-0.00013379875
-0.0080833446
-0.0078174248
-0.0075207441
-0.007198458
-0.0068556947
-0.0064973874
-0.0061281192
-0.0057520377
-0.0053727601
-0.0049933561
-0.0046163871
-0.0042438715
-0.0038773354
-0.0035179144
-0.0031663894
-0.0028232632
-0.0024888338
-0.0021632271
-0.0018464656
-0.0015385076
-0.0012392679
-0.00094863799
-0.00066660391
-0.00039305563
-0.00012788282
-0.007566008
-0.0073254125
-0.0070561757
-0.0067627288
-0.0064495249
-0.0061208911
-0.005780912
-0.0054333293
-0.0050814691
-0.004728222
-0.0043760089
-0.0040268072
-0.0036821772
-0.003343339
-0.0030111823
-0.0026863229
-0.0023691602
-0.0020599517
-0.0017588387
-0.001465879
-0.0011810752
-0.00090438811
-0.00063583292
-0.0003746718
-0.00012116701
-0.0070669067
-0.0068489522
-0.0066044021
-0.0063370767
-0.0060508463
-0.0057495138
-0.0054367083
-0.0051157992
-0.004789837
-0.0044615119
-0.0041331174
-0.003806578
-0.0034834676
-0.0031650233
-0.0028521958
-0.0025456853
-0.0022459849
-0.0019534478
-0.0016683061
-0.0013907001
-0.0011207045
-0.00085833811
-0.00060357692
-0.00035548332
-0.00011462684
-0.0065859751
-0.006388376
-0.0061661452
-0.0059225842
-0.0056610643
-0.0053849296
-0.0050974058
-0.0048015234
-0.0045000612
-0.0041955034
-0.0038900184
-0.0035854583
-0.0032833676
-0.0029849886
-0.0026913058
-0.0024030801
-0.0021208839
-0.0018451293
-0.0015761056
-0.0013140072
-0.0010589492
-0.00081097525
-0.0005700693
-0.00033588731
-0.00010870714
-0.0061231631
-0.0059439651
-0.0057420083
-0.0055201555
-0.0052813508
-0.0050285379
-0.0047645827
-0.0044922065
-0.004213933
-0.0039320493
-0.0036485849
-0.0033652994
-0.0030836837
-0.0028049727
-0.0025301667
-0.0022600605
-0.0019952709
-0.0017362553
-0.0014833459
-0.0012367751
-0.00099669248
-0.00076318512
-0.00053635103
-0.00031618327
-0.00010263132
-0.0056783957
-0.0055159114
-0.0053324504
-0.0051305027
-0.0049126443
-0.0046814689
-0.0044395224
-0.0041892444
-0.003932921
-0.0036726495
-0.0034103143
-0.0031475726
-0.0028858514
-0.0026263558
-0.0023700818
-0.0021178359
-0.0018702555
-0.0016278308
-0.0013909282
-0.0011598141
-0.00093467667
-0.00071565845
-0.00050296305
-0.00029657523
-9.6410413e-05
-0.005251537
-0.005104296
-0.0049377743
-0.0047541403
-0.0045556513
-0.0043445938
-0.0041232283
-0.0038937393
-0.0036581922
-0.0034185015
-0.0031764071
-0.0029334579
-0.002691007
-0.0024502137
-0.002212052
-0.0019773236
-0.001746674
-0.0015206115
-0.0012995274
-0.001083717
-0.00087340179
-0.0006687593
-0.00047002649
-0.00027719453
-9.0204311e-05
-0.0048423618
-0.0047090767
-0.0045581216
-0.0043913877
-0.0042108539
-0.004018536
-0.0038164401
-0.0036065188
-0.0033906339
-0.0031705256
-0.0029477913
-0.0027238691
-0.00250003
-0.0022773767
-0.0020568483
-0.0018392292
-0.0016251616
-0.0014151611
-0.0012096345
-0.001008899
-0.0008132035
-0.00062275016
-0.00043776877
-0.00025819441
-8.3983139e-05
-0.0044505392
-0.0043300771
-0.0041934712
-0.0040423736
-0.0038785198
-0.003703686
-0.0035196508
-0.0033281566
-0.0031308763
-0.0029293864
-0.0027251451
-0.0025194783
-0.0023135701
-0.0021084592
-0.0019050411
-0.001704073
-0.0015061841
-0.0013118874
-0.0011215958
-0.00093563876
-0.00075428134
-0.00057774158
-0.00040624357
-0.00023961668
-7.7837353e-05
-0.0040756237
-0.0039669814
-0.0038436406
-0.0037070448
-0.0035587158
-0.0034002181
-0.0032331262
-0.0030589912
-0.0028793126
-0.002695512
-0.0025089145
-0.0023207345
-0.0021320664
-0.0019438807
-0.0017570219
-0.0015722126
-0.00139006
-0.001211066
-0.0010356398
-0.00086411212
-0.00069675036
-0.00053377253
-0.00037539957
-0.00022142379
-7.1870584e-05
-0.0037170535
-0.003619339
-0.0035082941
-0.0033851788
-0.0032513263
-0.0031081131
-0.0029569304
-0.0027991559
-0.0026361285
-0.0024691259
-0.0022993463
-0.0021278959
-0.0019557793
-0.0017838942
-0.0016130289
-0.0014438647
-0.0012769799
-0.0011128581
-0.00095189696
-0.00079441905
-0.0006406835
-0.00049089715
-0.00034527947
-0.00020365388
-6.6050882e-05
-0.0033741567
-0.0032865749
-0.0031869575
-0.0030764022
-0.0029560755
-0.0028271859
-0.0026909596
-0.0025486162
-0.0024013468
-0.0022502945
-0.0020965384
-0.00194108
-0.0017848346
-0.001628625
-0.0014731797
-0.0013191336
-0.0011670311
-0.0010173314
-0.00087041507
-0.00072659175
-0.00058610797
-0.00044915357
-0.0003159364
-0.00018631986
-6.035336e-05
-0.0030461589
-0.0029680004
-0.0028790317
-0.0027802078
-0.0026725463
-0.0025571051
-0.0024349614
-0.0023071906
-0.0021748472
-0.0020389487
-0.0019004602
-0.0017602824
-0.0016192428
-0.0014780897
-0.0013374905
-0.0011980307
-0.0010602165
-0.00092447811
-0.0007911748
-0.00066060065
-0.0005329889
-0.00040851191
-0.00028736722
-0.00016943077
-5.4807984e-05
-0.0027321873
-0.002662819
-0.0025838016
-0.0024959632
-0.0024001887
-0.0022974005
-0.00218854
-0.0020745507
-0.0019563616
-0.0018348717
-0.0017109378
-0.0015853631
-0.0014588899
-0.0013321936
-0.0012058796
-0.0010804827
-0.00095646751
-0.00083423194
-0.00071411056
-0.00059637944
-0.00048125974
-0.00036891708
-0.00025955616
-0.00015304543
-4.9484856e-05
-0.0024312767
-0.0023701342
-0.0023004446
-0.0022229223
-0.0021383329
-0.0020474759
-0.0019511694
-0.0018502359
-0.0017454876
-0.0016377133
-0.0015276674
-0.00141606
-0.0013035509
-0.0011907432
-0.0010781807
-0.00096634572
-0.00085565995
-0.00074648658
-0.00063913334
-0.00053385692
-0.0004308681
-0.0003303369
-0.00023247285
-0.00013714317
-4.4365745e-05
-0.0021423812
-0.0020889643
-0.0020280477
-0.001960244
-0.0018862103
-0.0018066346
-0.0017222223
-0.0016336844
-0.0015417249
-0.0014470298
-0.001350257
-0.0012520286
-0.0011529242
-0.0010534762
-0.00095416639
-0.00085542477
-0.0007576292
-0.00066110716
-0.00056613862
-0.00047296045
-0.00038177248
-0.00029274486
-0.00020608141
-0.00012162596
-3.9372203e-05
-0.0018643905
-0.0018182588
-0.0017656259
-0.0017070119
-0.001642975
-0.0015741014
-0.0015009932
-0.0014242584
-0.0013445005
-0.0012623089
-0.0011782511
-0.0010928648
-0.0010066529
-0.0009200787
-0.00083356348
-0.0007474849
-0.00066217681
-0.00057793047
-0.00049499743
-0.00041359367
-0.00033390524
-0.00025609367
-0.00018034583
-0.00010646554
-3.4455467e-05
-0.0015961431
-0.0015569131
-0.0015121367
-0.0014622494
-0.0014077192
-0.0013490386
-0.001286714
-0.001221258
-0.0011531802
-0.0010829797
-0.0010111379
-0.00093811252
-0.00086433248
-0.00079019458
-0.00071606074
-0.00064225689
-0.00056907272
-0.00049676281
-0.00042554903
-0.00035562398
-0.00028715512
-0.00022028724
-0.00015518307
-9.1627205e-05
-2.9636392e-05
-0.0013364325
-0.0013037753
-0.0012664882
-0.0012249289
-0.0011794826
-0.0011305545
-0.0010785624
-0.0010239296
-0.00096707781
-0.00090842065
-0.00084835802
-0.00078727099
-0.00072551775
-0.00066343044
-0.00060131301
-0.00053944026
-0.0004780577
-0.00041738242
-0.00035760485
-0.00029889122
-0.00024138608
-0.00018521291
-0.00013050924
-7.7069107e-05
-2.4916897e-05
-0.0010840039
-0.0010576434
-0.0010275371
-0.00099397064
-0.00095725169
-0.00091770428
-0.00087566313
-0.0008314675
-0.00078545598
-0.00073796126
-0.00068930546
-0.00063979618
-0.00058972316
-0.00053935571
-0.0004889411
-0.00043870358
-0.00038884436
-0.00033954213
-0.00029095427
-0.00024321829
-0.0001964533
-0.00015075991
-0.00010625053
-6.2749338e-05
-2.0283552e-05
-0.00083753419
-0.00081724683
-0.00079407143
-0.00076822578
-0.00073994468
-0.00070947574
-0.00067707481
-0.0006430016
-0.00060751556
-0.00057087198
-0.00053331828
-0.00049509113
-0.00045641386
-0.00041749455
-0.00037852468
-0.00033967845
-0.00030111258
-0.00026296668
-0.00022536392
-0.00018841179
-0.00015220283
-0.0001168144
-8.2332366e-05
-4.8625736e-05
-1.5719597e-05
-0.00059560207
-0.00058121757
-0.00056478251
-0.00054645029
-0.00052638636
-0.00050476527
-0.00048176752
-0.0004575765
-0.00043237554
-0.0004063452
-0.00037966065
-0.00035248969
-0.00032499084
-0.00029731208
-0.00026958982
-0.00024194843
-0.00021450006
-0.00018734477
-0.00016057087
-0.00013425531
-0.00010846385
-8.3250602e-05
-5.8673372e-05
-3.4651333e-05
-1.120669e-05
-0.00035677641
-0.00034817703
-0.00033835068
-0.00032738866
-0.00031538946
-0.00030245699
-0.00028869882
-0.00027422422
-0.00025914255
-0.00024356141
-0.00022758557
-0.00021131533
-0.00019484556
-0.00017826487
-0.00016165508
-0.00014509087
-0.00012863969
-0.00011236181
-9.631041e-05
-8.0531759e-05
-6.5065091e-05
-4.9942078e-05
-3.5192864e-05
-2.0781279e-05
-6.7273234e-06
-0.00011904331
-0.00011617575
-0.00011289895
-0.00010924332
-0.00010524164
-0.00010092849
-9.6339712e-05
-9.1511713e-05
-8.6480893e-05
-8.1283076e-05
-7.5953243e-05
-7.0524872e-05
-6.502962e-05
-5.9497055e-05
-5.3954496e-05
-4.8426892e-05
-4.2936785e-05
-3.7504342e-05
-3.2147377e-05
-2.6881369e-05
-2.1719383e-05
-1.6671714e-05
-1.1747739e-05
-6.9355951e-06
-2.2462052e-06
)
;

boundaryField
{
    Walls
    {
        type            zeroGradient;
    }
    Inlet
    {
        type            fixedValue;
        value           uniform 500;
    }
    Outlet
    {
        type            fixedValue;
        value           uniform 0;
    }
    Front
    {
        type            wedge;
    }
    Back
    {
        type            wedge;
    }
    defaultFaces
    {
        type            empty;
    }
}


// ************************************************************************* //
