/*--------------------------------*- C++ -*----------------------------------*\
| =========                 |                                                 |
| \\      /  F ield         | OpenFOAM: The Open Source CFD Toolbox           |
|  \\    /   O peration     | Version:  4.0                                   |
|   \\  /    A nd           | Web:      www.OpenFOAM.org                      |
|    \\/     M anipulation  |                                                 |
\*---------------------------------------------------------------------------*/
FoamFile
{
    version     2.0;
    format      ascii;
    class       volScalarField;
    location    "0.71";
    object      k;
}
// * * * * * * * * * * * * * * * * * * * * * * * * * * * * * * * * * * * * * //

dimensions      [0 2 -2 0 0 0 0];

internalField   nonuniform List<scalar> 
1740
(
0.0089717918
0.0092319825
0.018001442
0.0093343101
0.0097523401
0.026879593
0.0096979645
0.010268825
0.034953947
0.0099152283
0.010848497
0.041729013
0.010085283
0.011154816
0.047478481
0.010054056
0.01132264
0.052622884
0.010090503
0.011942479
0.056450488
0.01006565
0.012145172
0.05931745
0.009990171
0.012359849
0.062222489
0.0099824642
0.01304542
0.064490489
0.0099291413
0.013052151
0.066198081
0.0098772785
0.012919825
0.067812743
0.0098197965
0.013157166
0.068932652
0.0097591
0.0135089
0.069829332
0.0096794525
0.013665618
0.070287188
0.0095869716
0.013903877
0.071214328
0.009517199
0.014188867
0.072023591
0.0094587215
0.014637694
0.072215539
0.0093377677
0.014765699
0.072339301
0.0092032612
0.014728819
0.072152396
0.0090850753
0.014817346
0.072612613
0.0089309322
0.014757521
0.072613097
0.0087776948
0.014870578
0.072563202
0.0087069173
0.014858549
0.072765747
0.008656675
0.014622516
0.073048911
0.0085054585
0.014591342
0.072839137
0.0084046429
0.014551909
0.072296274
0.0083668835
0.014791894
0.072303871
0.008350119
0.015033995
0.071494286
0.0089514852
0.016014132
0.066402048
0.012649331
0.017980065
0.047029733
0.023814707
0.03107594
0.039704893
0.010263241
0.012514952
0.013693485
0.0042690708
0.004599337
0.0046678518
0.0020739123
0.00211652
0.0020925471
0.0011420874
0.0011429062
0.0011251714
0.00069227159
0.00068972092
0.00068174049
0.0004520757
0.00045077425
0.00044814364
0.00031281069
0.00031252388
0.00031227438
0.00022618911
0.00022637735
0.00022702389
0.00016885736
0.00016920671
0.00017009244
0.00012879028
0.00012915658
0.00013001717
9.9479214e-05
9.9806212e-05
0.0001005499
7.7250597e-05
7.752177e-05
7.8128577e-05
5.995075e-05
6.0166227e-05
6.064427e-05
4.6270206e-05
4.6436337e-05
4.6803173e-05
3.537992e-05
3.550478e-05
3.5779733e-05
2.6726265e-05
2.6817846e-05
2.7019143e-05
1.9911657e-05
1.9977169e-05
2.0120978e-05
1.4624587e-05
1.4670242e-05
1.477039e-05
1.0600825e-05
1.0631812e-05
1.0699747e-05
7.6053468e-06
7.625835e-06
7.670724e-06
5.4271767e-06
5.440371e-06
5.4692826e-06
3.8818474e-06
3.8901487e-06
3.9083427e-06
2.8137538e-06
2.8188884e-06
2.8301317e-06
2.0947774e-06
2.0979161e-06
2.1047809e-06
1.6237795e-06
1.6256914e-06
1.6298691e-06
1.3246483e-06
1.3258249e-06
1.3283939e-06
1.1419333e-06
1.1426787e-06
1.1443051e-06
1.0363142e-06
1.0368108e-06
1.0378938e-06
9.8056379e-07
9.8091776e-07
9.8168958e-07
9.5620814e-07
9.5647958e-07
9.5707141e-07
9.5091057e-07
9.5113253e-07
9.5161646e-07
9.5650682e-07
9.5669705e-07
9.5711171e-07
9.6757772e-07
9.6774561e-07
9.6811138e-07
9.8043935e-07
9.8058986e-07
9.8091754e-07
9.9244274e-07
9.9257863e-07
9.928742e-07
1.0014957e-06
1.0016187e-06
1.0018858e-06
1.0057408e-06
1.005852e-06
1.0060932e-06
1.0033429e-06
1.0034432e-06
1.0036605e-06
9.9235793e-07
9.9244816e-07
9.9264327e-07
9.7066845e-07
9.7074926e-07
9.7092366e-07
9.3598802e-07
9.3605991e-07
9.3621475e-07
8.8592774e-07
8.8599097e-07
8.8612689e-07
8.1816606e-07
8.1822055e-07
8.1833753e-07
7.3071502e-07
7.3076053e-07
7.3085838e-07
6.2228021e-07
6.2231723e-07
6.2239769e-07
4.927238e-07
4.9275544e-07
4.9282667e-07
3.4353842e-07
3.4357018e-07
3.4364555e-07
1.7790874e-07
1.7793702e-07
1.7800631e-07
0.056043394
0.060794884
0.046054752
0.046554905
0.012460725
0.011334735
0.0043560268
0.0041210746
0.002001349
0.0019420755
0.0010958678
0.0010807936
0.00067287241
0.00067107684
0.00044650271
0.00044869968
0.00031314269
0.00031624956
0.00022860921
0.00023159532
0.0001717183
0.00017427882
0.00013145153
0.00013354091
0.00010173561
0.00010339543
7.9074121e-05
8.036904e-05
6.137983e-05
6.2374606e-05
4.7363502e-05
4.811576e-05
3.6197904e-05
3.6756834e-05
2.7324495e-05
2.7731495e-05
2.0338743e-05
2.0628454e-05
1.4921826e-05
1.5123017e-05
1.0802357e-05
1.093852e-05
7.7384735e-06
7.8282738e-06
5.5128975e-06
5.5706554e-06
3.9357745e-06
3.9720654e-06
2.8470644e-06
2.8694324e-06
2.1151052e-06
2.12872e-06
1.6361437e-06
1.6444027e-06
1.3322471e-06
1.3373088e-06
1.1467413e-06
1.1499352e-06
1.0395142e-06
1.0416345e-06
9.8284339e-07
9.843507e-07
9.5795557e-07
9.59109e-07
9.5233896e-07
9.5328019e-07
9.5773028e-07
9.5853482e-07
9.6865639e-07
9.693638e-07
9.8140505e-07
9.8203616e-07
9.9331306e-07
9.938794e-07
1.0022814e-06
1.0027901e-06
1.0064494e-06
1.0069055e-06
1.0039805e-06
1.004388e-06
9.9292963e-07
9.9329226e-07
9.7117868e-07
9.7149959e-07
9.3644026e-07
9.3672213e-07
8.8632405e-07
8.8656884e-07
8.1850673e-07
8.187156e-07
7.3099989e-07
7.3117378e-07
6.2251476e-07
6.2265689e-07
4.9293139e-07
4.9305159e-07
3.4375636e-07
3.4386918e-07
1.7810737e-07
1.7820504e-07
5.5919942e-06
2.6998734e-05
0.0001344221
0.00030498009
0.00046221536
0.00057318112
0.00064347826
0.00068709577
0.00071581277
0.00073676648
0.00075400495
0.00077056212
0.00078607782
0.00080031451
0.00081296301
0.00082347422
0.00083086398
0.00083346524
0.00082855775
0.00081185664
0.00077680256
0.00071369498
0.00060903502
0.00044583586
0.00020309657
2.5798544e-06
5.4734057e-05
0.00025099009
0.00051581895
0.00072773036
0.00085922333
0.00093513393
0.00097961582
0.0010081096
0.0010286524
0.0010454985
0.0010611888
0.0010755838
0.0010884176
0.0010992951
0.001107593
0.0011121781
0.0011111334
0.001101255
0.0010774131
0.0010315994
0.00095153746
0.00081894399
0.00060829391
0.0002882277
7.9647597e-06
0.00015988875
0.00061582267
0.0010795003
0.0013623899
0.0015050217
0.0015723897
0.0016038831
0.0016194988
0.0016277071
0.0016328878
0.0016359579
0.0016381325
0.0016387626
0.0016373507
0.0016334207
0.0016259102
0.0016130176
0.0015913221
0.0015552175
0.0014956689
0.0013979485
0.00123734
0.00097090131
0.00052294326
3.7591148e-05
0.00057907136
0.0016852282
0.0024359453
0.0027724622
0.0028861515
0.0028953699
0.0028650176
0.0028248824
0.0027799443
0.0027352679
0.0026927499
0.0026529012
0.0026125623
0.0025711742
0.002529137
0.0024859449
0.0024401607
0.0023890259
0.0023277527
0.0022484177
0.0021377222
0.0019713259
0.0016962693
0.0011555482
0.00028092286
0.0024434988
0.0049096122
0.0060302441
0.0063765272
0.0063152643
0.0060864577
0.0058239308
0.0055746642
0.0053239058
0.0050837466
0.0048595514
0.0046562447
0.004459285
0.0042681494
0.0040874837
0.0039181886
0.0037596662
0.0036100813
0.0034659188
0.0033214974
0.0031685459
0.0029960308
0.0027955848
0.0025855769
0.002356645
0.01050527
0.016542884
0.018493403
0.018035547
0.01648239
0.014672159
0.012988644
0.011510735
0.010237394
0.0091480669
0.0082202776
0.0074288313
0.0067501045
0.0061665571
0.0056649338
0.0052338833
0.0048630885
0.0045431373
0.0042651785
0.0040203402
0.0037996248
0.0035944164
0.0034040046
0.0032438442
0.044943801
0.034086594
0.026571823
0.021392393
0.017728265
0.015022825
0.012938488
0.011288843
0.0099644451
0.0088886252
0.0080029018
0.0072628983
0.0066354746
0.0060964661
0.0056284243
0.0052192042
0.0048603153
0.0045452828
0.0042685948
0.0040249803
0.0038088115
0.00361407
0.0034349963
0.0032729235
0.0031430281
0.037215648
0.030923462
0.027724995
0.025100531
0.022232121
0.01926148
0.016548403
0.014255201
0.012378828
0.010841469
0.0095736279
0.0085187505
0.0076336875
0.0068888235
0.0062604925
0.0057292775
0.005278867
0.0048955429
0.0045675468
0.004284324
0.0040357752
0.0038120824
0.0036040682
0.0034108897
0.003248451
0.010201973
0.0095314835
0.0091940179
0.008875962
0.0084151677
0.0078517208
0.0072966313
0.0068008912
0.0063503919
0.0059526751
0.0056049038
0.0053009064
0.0050155356
0.0047519275
0.0045114896
0.0042934586
0.0040956907
0.0039152395
0.0037481787
0.003589428
0.0034322251
0.0032675917
0.0030840427
0.0028730292
0.0026531863
0.0039638593
0.0038914642
0.0038694834
0.003829078
0.0037350442
0.0036004701
0.0034612651
0.0033322398
0.0032160157
0.0031147268
0.0030274284
0.0029509931
0.0028798411
0.0028133828
0.0027514123
0.0026930804
0.0026366811
0.0025795817
0.0025179712
0.002446323
0.0023563045
0.0022344902
0.0020565296
0.0017687381
0.00120873
0.0019244857
0.0019380397
0.0019633604
0.0019784049
0.0019722744
0.0019484832
0.0019179729
0.0018877394
0.001860866
0.0018386418
0.0018208545
0.0018062439
0.0017931298
0.0017808244
0.0017689364
0.0017562255
0.0017407837
0.0017197907
0.0016891624
0.0016429162
0.0015719958
0.0014620211
0.0012887966
0.0010093979
0.00054636704
0.0010853341
0.0011040027
0.0011278969
0.0011482934
0.00116065
0.0011657499
0.0011671839
0.0011679307
0.0011697192
0.0011732831
0.0011785674
0.0011849841
0.0011917272
0.0011980877
0.0012032737
0.0012060414
0.001204539
0.0011961147
0.0011770312
0.0011420023
0.001083442
0.00099027103
0.00084616882
0.00062766726
0.00030382059
0.00067862611
0.00069324468
0.00071088898
0.00072775431
0.00074171913
0.00075274912
0.00076205821
0.00077094578
0.00078029396
0.00079051259
0.00080158942
0.00081319825
0.00082482637
0.00083584628
0.00084542704
0.00085238338
0.00085506296
0.00085120837
0.00083778419
0.00081074872
0.00076477147
0.00069293409
0.0005865189
0.00043472157
0.00021982793
0.00045564351
0.00046637597
0.00047907011
0.00049194924
0.00050393965
0.00051485124
0.00052508105
0.00053517672
0.00054556122
0.00055643667
0.00056777382
0.00057934205
0.00059074966
0.00060145302
0.00061070987
0.00061750419
0.00062047376
0.00061783736
0.00060732791
0.00058615614
0.00055107717
0.00049875609
0.00042698289
0.0003384291
0.00025043161
0.00032196335
0.00032985987
0.00033908858
0.0003487872
0.00035838671
0.00036770653
0.00037685266
0.00038604022
0.00039545172
0.00040516249
0.0004151138
0.00042511299
0.00043483604
0.00044382023
0.00045143625
0.00045684852
0.00045897846
0.00045647888
0.0004477365
0.00043093959
0.00040429319
0.00036656782
0.0003183977
0.00026523294
0.00022312081
0.00023613153
0.00024201813
0.00024884297
0.00025617064
0.00026368698
0.00027125437
0.00027887607
0.00028661979
0.00029454499
0.00030265469
0.000310869
0.00031901433
0.00032681485
0.00033388166
0.00033969541
0.00034358631
0.00034471995
0.0003420981
0.0003345898
0.00032102032
0.00030036863
0.000272162
0.00023722843
0.00019909823
0.00016373912
0.00017783156
0.0001822728
0.00018739386
0.00019296594
0.00019880835
0.0002048218
0.00021097543
0.00021727282
0.00022371316
0.00023026147
0.000236828
0.00024325523
0.00024930788
0.00025466305
0.00025889944
0.00026148839
0.00026179121
0.00025906915
0.00025251487
0.0002413158
0.00022475692
0.00020234415
0.00017381338
0.00013840299
8.9585467e-05
0.0001363035
0.00013968092
0.00014356146
0.00014781863
0.0001523451
0.00015706869
0.00016195092
0.00016696841
0.0001720934
0.00017727402
0.00018241978
0.00018739064
0.00019198784
0.00019594646
0.00019892897
0.00020052161
0.00020023605
0.00019751974
0.00019177702
0.00018240055
0.00016879978
0.0001503799
0.00012633142
9.4856411e-05
5.1147839e-05
0.00010553136
0.00010810805
0.000111062
0.00011431955
0.00011781381
0.00012149257
0.0001253183
0.00012925868
0.00013327587
0.00013731372
0.00014128754
0.00014507586
0.00014851328
0.000151385
0.00015342302
0.000154305
0.00015365692
0.00015106063
0.00014606594
0.00013820288
0.00012698163
0.00011185164
9.2066203e-05
6.6380821e-05
3.2788102e-05
8.2009456e-05
8.3972535e-05
8.6220051e-05
8.8706854e-05
9.1389314e-05
9.4229105e-05
9.7193139e-05
0.0001002485
0.00010335596
0.00010646198
0.0001094915
0.00011234191
0.00011487779
0.00011692709
0.00011827883
0.00011868298
0.00011785294
0.00011547077
0.00011119436
0.00010466355
9.5499402e-05
8.3289964e-05
6.7564381e-05
4.7807759e-05
2.3756987e-05
6.3623126e-05
6.5110019e-05
6.6811145e-05
6.8697429e-05
7.0739246e-05
7.2908101e-05
7.5176222e-05
7.7513981e-05
7.9885199e-05
8.2242395e-05
8.4521772e-05
8.6638871e-05
8.8484758e-05
8.9923491e-05
9.0790647e-05
9.0893572e-05
9.0013487e-05
8.7909493e-05
8.4324034e-05
7.8989094e-05
7.1632701e-05
6.1989328e-05
4.9830002e-05
3.5064268e-05
1.7921815e-05
4.9054662e-05
5.0169507e-05
5.1444379e-05
5.2859976e-05
5.4395565e-05
5.6029818e-05
5.7740349e-05
5.9501873e-05
6.1283487e-05
6.3045274e-05
6.4734872e-05
6.6284487e-05
6.7608264e-05
6.8600444e-05
6.9134471e-05
6.9063412e-05
6.8221732e-05
6.6428686e-05
6.3493426e-05
5.9222442e-05
5.343124e-05
4.5965715e-05
3.6745315e-05
2.5851838e-05
1.3631388e-05
3.7452056e-05
3.8275963e-05
3.9217826e-05
4.0264444e-05
4.1401166e-05
4.2612068e-05
4.3879551e-05
4.5183137e-05
4.649761e-05
4.7790777e-05
4.9021152e-05
5.0135761e-05
5.1068378e-05
5.1738222e-05
5.2049437e-05
5.1891509e-05
5.1140799e-05
4.9663526e-05
4.7320634e-05
4.397552e-05
3.9506803e-05
3.3829743e-05
2.6930588e-05
1.8917166e-05
1.0034489e-05
2.8236598e-05
2.8834401e-05
2.9517532e-05
3.0276867e-05
3.1101991e-05
3.1981148e-05
3.2900879e-05
3.3845209e-05
3.4794407e-05
3.5723465e-05
3.6600526e-05
3.7385349e-05
3.802807e-05
3.8468304e-05
3.8634821e-05
3.8445931e-05
3.781078e-05
3.6631911e-05
3.4809584e-05
3.2248768e-05
2.8870425e-05
2.462881e-05
1.9534501e-05
1.367961e-05
7.2623309e-06
2.0987433e-05
2.1411829e-05
2.189654e-05
2.2435273e-05
2.3020612e-05
2.3644015e-05
2.4295478e-05
2.4962953e-05
2.5631549e-05
2.6282504e-05
2.6892109e-05
2.7430649e-05
2.7861548e-05
2.8140728e-05
2.82164e-05
2.8029379e-05
2.7514144e-05
2.6600924e-05
2.521923e-05
2.3303595e-05
2.0802464e-05
1.7690922e-05
1.3985238e-05
9.7531602e-06
5.1281388e-06
1.5372e-05
1.5666052e-05
1.6001641e-05
1.6374414e-05
1.6779166e-05
1.7209788e-05
1.765903e-05
1.8118102e-05
1.8576118e-05
1.901945e-05
1.9430978e-05
1.9789379e-05
2.006852e-05
2.0237016e-05
2.0258077e-05
2.0089751e-05
1.9685725e-05
1.8996935e-05
1.7974292e-05
1.6573058e-05
1.475942e-05
1.2519476e-05
9.8682608e-06
6.8509503e-06
3.5447431e-06
1.1106831e-05
1.1305391e-05
1.1531765e-05
1.1782949e-05
1.2055343e-05
1.2344658e-05
1.2645761e-05
1.2952417e-05
1.3256908e-05
1.354961e-05
1.3818508e-05
1.4048698e-05
1.4221982e-05
1.4316544e-05
1.4306847e-05
1.4163786e-05
1.3855274e-05
1.3347414e-05
1.2606505e-05
1.1602224e-05
1.0312318e-05
8.7288731e-06
6.8643444e-06
4.7511582e-06
2.4418175e-06
7.9391498e-06
8.0697894e-06
8.2185343e-06
8.3833267e-06
8.5616961e-06
8.750698e-06
8.9467714e-06
9.1455908e-06
9.3418301e-06
9.5288594e-06
9.6984428e-06
9.8404014e-06
9.9423356e-06
9.9894043e-06
9.9642412e-06
9.8470493e-06
9.6159922e-06
9.248011e-06
8.720261e-06
8.0123523e-06
7.1096184e-06
6.0074671e-06
4.7156682e-06
3.2587641e-06
1.6831084e-06
5.6418872e-06
5.7257091e-06
5.820997e-06
5.9263659e-06
6.0401423e-06
6.1603229e-06
6.284496e-06
6.409714e-06
6.5323653e-06
6.6479745e-06
6.7509938e-06
6.8345837e-06
6.8904171e-06
6.9085464e-06
6.8773424e-06
6.7835535e-06
6.6125225e-06
6.348736e-06
5.97684e-06
5.4832001e-06
4.858135e-06
4.098882e-06
3.2126059e-06
2.2172198e-06
1.1460706e-06
4.0167596e-06
4.0692693e-06
4.1288424e-06
4.194556e-06
4.265295e-06
4.3397191e-06
4.416214e-06
4.4928174e-06
4.5671211e-06
4.6361527e-06
4.6962397e-06
4.7428485e-06
4.7704305e-06
4.7722909e-06
4.7405773e-06
4.6664766e-06
4.5402707e-06
4.351571e-06
4.0900794e-06
3.7466831e-06
3.314962e-06
2.7931816e-06
2.1863675e-06
1.507229e-06
7.7945527e-07
2.8969286e-06
2.929159e-06
2.9656248e-06
3.0057119e-06
3.0486805e-06
3.0936409e-06
3.139518e-06
3.1850093e-06
3.2285189e-06
3.2680817e-06
3.3012715e-06
3.3250992e-06
3.3359045e-06
3.3292472e-06
3.2998198e-06
3.2414861e-06
3.1476928e-06
3.0114879e-06
2.825929e-06
2.5848792e-06
2.2840321e-06
1.9222568e-06
1.5030285e-06
1.0352674e-06
5.3758245e-07
2.1454189e-06
2.1649378e-06
2.1869443e-06
2.2110297e-06
2.2366986e-06
2.2633549e-06
2.2902768e-06
2.3165864e-06
2.3412074e-06
2.3628142e-06
2.3797716e-06
2.3900633e-06
2.3912303e-06
2.3803052e-06
2.3537209e-06
2.3072114e-06
2.2360638e-06
2.1354773e-06
2.0006706e-06
1.8274188e-06
1.612759e-06
1.355914e-06
1.0592525e-06
7.2879815e-07
3.7880631e-07
1.6545069e-06
1.666279e-06
1.679495e-06
1.6938792e-06
1.7090952e-06
1.7247352e-06
1.7403028e-06
1.7551899e-06
1.7686476e-06
1.7797487e-06
1.7873459e-06
1.79002e-06
1.7860335e-06
1.7732814e-06
1.7492542e-06
1.7110001e-06
1.6550587e-06
1.5778854e-06
1.4760253e-06
1.3464367e-06
1.1869831e-06
9.9708989e-07
7.7841192e-07
5.3510255e-07
2.7802816e-07
1.3434844e-06
1.3506521e-06
1.3586582e-06
1.3673111e-06
1.3763751e-06
1.3855607e-06
1.3945118e-06
1.402787e-06
1.4098376e-06
1.4149792e-06
1.4173586e-06
1.4159153e-06
1.4093446e-06
1.3960597e-06
1.3741637e-06
1.3414414e-06
1.2953137e-06
1.2330148e-06
1.1518801e-06
1.0495726e-06
9.2444438e-07
7.7602968e-07
6.0555463e-07
4.1617213e-07
2.1538347e-07
1.1538205e-06
1.1583112e-06
1.1632971e-06
1.1686394e-06
1.1741645e-06
1.1796554e-06
1.1848408e-06
1.1893795e-06
1.1928419e-06
1.1946864e-06
1.1942319e-06
1.1906272e-06
1.182819e-06
1.1695222e-06
1.1491965e-06
1.1200398e-06
1.079989e-06
1.0267777e-06
9.5820752e-07
8.7234975e-07
7.6783462e-07
6.4424879e-07
5.0255979e-07
3.4538569e-07
1.7931683e-07
1.0442064e-06
1.0471657e-06
1.0504295e-06
1.0538909e-06
1.0574135e-06
1.0608238e-06
1.0639003e-06
1.0663602e-06
1.067842e-06
1.0678853e-06
1.065906e-06
1.0611698e-06
1.0527641e-06
1.0395722e-06
1.0202533e-06
9.932364e-07
9.5673977e-07
9.0879574e-07
8.4747541e-07
7.7107924e-07
6.7838985e-07
5.690157e-07
4.4377163e-07
3.0495258e-07
1.5841822e-07
9.8617395e-07
9.8826267e-07
9.9054994e-07
9.9294799e-07
9.9534246e-07
9.9758471e-07
9.9948172e-07
1.0007831e-06
1.0011651e-06
1.0002109e-06
9.9738832e-07
9.9202464e-07
9.8328143e-07
9.7013061e-07
9.5133678e-07
9.254515e-07
8.9083908e-07
8.4569818e-07
7.8824767e-07
7.1691069e-07
6.3054892e-07
5.2877842e-07
4.1233143e-07
2.8335414e-07
1.4745374e-07
9.6050067e-07
9.6208813e-07
9.6381398e-07
9.656015e-07
9.6734879e-07
9.6892117e-07
9.7014111e-07
9.7077542e-07
9.7051957e-07
9.6897865e-07
9.6564562e-07
9.5987746e-07
9.5087079e-07
9.3763947e-07
9.1899815e-07
8.9355761e-07
8.5975117e-07
8.15863e-07
7.6018639e-07
6.9120449e-07
6.0781575e-07
5.0963632e-07
3.9735893e-07
2.7308418e-07
1.4238497e-07
9.5441298e-07
9.5569954e-07
9.5708794e-07
9.5850765e-07
9.5986366e-07
9.6102868e-07
9.6183305e-07
9.6205194e-07
9.6138954e-07
9.594603e-07
9.5576733e-07
9.4967889e-07
9.4040461e-07
9.2697374e-07
9.0821957e-07
8.8277574e-07
8.4910253e-07
8.0552234e-07
7.5036063e-07
6.8212541e-07
5.9972905e-07
5.0278458e-07
3.9196117e-07
2.6930507e-07
1.4024326e-07
9.5950036e-07
9.6059178e-07
9.6176019e-07
9.6293846e-07
9.6403516e-07
9.6492666e-07
9.6544686e-07
9.6537425e-07
9.6441596e-07
9.6218887e-07
9.5819793e-07
9.5181279e-07
9.4224406e-07
9.2852199e-07
9.094815e-07
8.8375935e-07
8.4982084e-07
8.060006e-07
7.5063388e-07
6.8223582e-07
5.9972344e-07
5.0271197e-07
3.9187611e-07
2.6928098e-07
1.4034286e-07
9.7020989e-07
9.7116101e-07
9.7216996e-07
9.7317135e-07
9.740755e-07
9.7476035e-07
9.7506099e-07
9.7475654e-07
9.7355398e-07
9.7106898e-07
9.6680414e-07
9.6012543e-07
9.5023847e-07
9.3616744e-07
9.167406e-07
8.9058832e-07
8.5617051e-07
8.1182162e-07
7.5587658e-07
6.868507e-07
6.0366369e-07
5.0593863e-07
3.9436746e-07
2.7104132e-07
1.4136942e-07
9.8278789e-07
9.8362737e-07
9.8450828e-07
9.8536611e-07
9.8611192e-07
9.8662409e-07
9.867377e-07
9.8623114e-07
9.8480971e-07
9.8208627e-07
9.775592e-07
9.7058871e-07
9.603731e-07
9.4592785e-07
9.2607165e-07
8.9942534e-07
8.6444028e-07
8.1944673e-07
7.6277705e-07
6.9294643e-07
6.0887985e-07
5.1021407e-07
3.9765908e-07
2.7329896e-07
1.4252421e-07
9.9455061e-07
9.9529428e-07
9.9606453e-07
9.9679726e-07
9.9740374e-07
9.9776227e-07
9.9770736e-07
9.9701611e-07
9.9539167e-07
9.9244358e-07
9.8766564e-07
9.804121e-07
9.6987393e-07
9.5505819e-07
9.3477457e-07
9.0763547e-07
8.7208533e-07
8.2645195e-07
7.6906815e-07
6.9845336e-07
6.1354351e-07
5.1399867e-07
4.0057372e-07
2.7543442e-07
1.4408569e-07
1.0033894e-06
1.0040471e-06
1.0047177e-06
1.0053372e-06
1.0058169e-06
1.0060349e-06
1.0058249e-06
1.0049627e-06
1.0031495e-06
9.999918e-07
9.9497955e-07
9.874621e-07
9.7662476e-07
9.614685e-07
9.4079723e-07
9.1321902e-07
8.7717665e-07
8.3100148e-07
7.7303414e-07
7.0180646e-07
6.1627299e-07
5.1612231e-07
4.0215251e-07
2.7658002e-07
1.4485831e-07
1.007439e-06
1.0080182e-06
1.0085974e-06
1.009113e-06
1.0094762e-06
1.0095649e-06
1.0092123e-06
1.0081934e-06
1.0062077e-06
1.0028601e-06
9.9763805e-07
9.8988815e-07
9.7879314e-07
9.6335199e-07
9.4236819e-07
9.1445232e-07
8.780538e-07
8.3151708e-07
7.7320195e-07
7.0166439e-07
6.1588835e-07
5.1559787e-07
4.0163349e-07
2.7622879e-07
1.4448529e-07
1.004861e-06
1.0053677e-06
1.0058629e-06
1.006283e-06
1.0065395e-06
1.0065104e-06
1.0060288e-06
1.0048695e-06
1.0027321e-06
9.9922084e-07
9.938233e-07
9.8588675e-07
9.7459567e-07
9.5895289e-07
9.3776867e-07
9.0966632e-07
8.7311251e-07
8.2647684e-07
7.6815423e-07
6.9673925e-07
6.1125748e-07
5.1147208e-07
3.9824783e-07
2.7381228e-07
1.4318375e-07
9.9370934e-07
9.9414936e-07
9.9456743e-07
9.9490042e-07
9.9506037e-07
9.9492584e-07
9.9433093e-07
9.9305146e-07
9.9078835e-07
9.8714822e-07
9.8162187e-07
9.7356165e-07
9.6215976e-07
9.4643064e-07
9.2520118e-07
8.9711953e-07
8.6068267e-07
8.1430254e-07
7.5642676e-07
6.8570539e-07
6.012191e-07
5.0277312e-07
3.9123619e-07
2.6878775e-07
1.4041552e-07
9.7186492e-07
9.7224359e-07
9.7259131e-07
9.7284577e-07
9.7292009e-07
9.7269435e-07
9.7200469e-07
9.7062976e-07
9.6827442e-07
9.6455082e-07
9.5895753e-07
9.5085793e-07
9.3945994e-07
9.2379922e-07
9.0273172e-07
8.7494313e-07
8.3897886e-07
7.9331476e-07
7.3646937e-07
6.6716732e-07
5.8455924e-07
4.884984e-07
3.7985169e-07
2.6076071e-07
1.3628066e-07
9.3703942e-07
9.3736177e-07
9.3764589e-07
9.3783083e-07
9.3783164e-07
9.3753107e-07
9.3676901e-07
9.3532938e-07
9.3292431e-07
9.2917595e-07
9.2359653e-07
9.155681e-07
9.0432373e-07
8.8893223e-07
8.6829329e-07
8.411481e-07
8.0611306e-07
7.6174745e-07
7.0666235e-07
6.3967752e-07
5.6002966e-07
4.6762782e-07
3.633302e-07
2.4917682e-07
1.3004564e-07
8.8684121e-07
8.8711195e-07
8.8733937e-07
8.8746473e-07
8.8740605e-07
8.8705028e-07
8.8624325e-07
8.8477737e-07
8.8237648e-07
8.7867857e-07
8.7321696e-07
8.6540168e-07
8.5450256e-07
8.3963681e-07
8.1976592e-07
7.9370776e-07
7.6017124e-07
7.1782219e-07
6.6538746e-07
6.0180285e-07
5.2640628e-07
4.3916966e-07
3.4094418e-07
2.3366584e-07
1.2191683e-07
8.1894551e-07
8.1916904e-07
8.1934704e-07
8.1942422e-07
8.1932294e-07
8.1893603e-07
8.1811791e-07
8.1667348e-07
8.1434409e-07
8.1079103e-07
8.0557796e-07
7.9815441e-07
7.878414e-07
7.7382149e-07
7.5513825e-07
7.3070913e-07
6.9935988e-07
6.5988775e-07
6.1115873e-07
5.5224375e-07
4.8259356e-07
4.0224457e-07
3.1203571e-07
2.1380969e-07
1.118304e-07
7.3136349e-07
7.3154424e-07
7.3168087e-07
7.3172347e-07
7.3160051e-07
7.3121245e-07
7.3042504e-07
7.2906056e-07
7.2688514e-07
7.2359306e-07
7.1878901e-07
7.1197519e-07
7.025398e-07
6.8974929e-07
6.7275189e-07
6.5058988e-07
6.22232e-07
5.8663266e-07
5.4281859e-07
4.9001064e-07
4.277782e-07
3.5621549e-07
2.7612341e-07
1.8918051e-07
9.912694e-08
6.2281025e-07
6.2295399e-07
6.2305827e-07
6.2308207e-07
6.2296248e-07
6.2260939e-07
6.2190258e-07
6.2068692e-07
6.1876222e-07
6.1586936e-07
6.1166564e-07
6.0571929e-07
5.9750239e-07
5.8638254e-07
5.7163661e-07
5.5245923e-07
5.2799015e-07
4.9736747e-07
4.5979542e-07
4.1465135e-07
3.6162223e-07
3.0084592e-07
2.3305144e-07
1.5967974e-07
8.3814839e-08
4.9317775e-07
4.9329879e-07
4.9338094e-07
4.9340101e-07
4.9330953e-07
4.9302851e-07
4.9245437e-07
4.9145845e-07
4.898834e-07
4.8754145e-07
4.8415683e-07
4.7936743e-07
4.727486e-07
4.6378057e-07
4.518922e-07
4.3646032e-07
4.1682551e-07
3.9233669e-07
3.6238252e-07
3.2648882e-07
2.8445856e-07
2.3644919e-07
1.8308452e-07
1.2553496e-07
6.6203408e-08
3.4399078e-07
3.4415619e-07
3.4423377e-07
3.4425839e-07
3.4420836e-07
3.4402378e-07
3.4362107e-07
3.4289717e-07
3.4174394e-07
3.4009589e-07
3.3779327e-07
3.3445382e-07
3.2981211e-07
3.2347418e-07
3.1504035e-07
3.0410082e-07
2.9022328e-07
2.7300297e-07
2.5197227e-07
2.2679025e-07
1.9741912e-07
1.639861e-07
1.2697237e-07
8.7271521e-08
4.657713e-08
1.7836015e-07
1.7876031e-07
1.7886971e-07
1.7889616e-07
1.7888024e-07
1.7879224e-07
1.7857785e-07
1.7816357e-07
1.7749544e-07
1.7668144e-07
1.7587853e-07
1.7423101e-07
1.7184832e-07
1.6853249e-07
1.6406468e-07
1.582801e-07
1.5098814e-07
1.4222874e-07
1.3119185e-07
1.1786042e-07
1.0249533e-07
8.509606e-08
6.592321e-08
4.5540621e-08
2.4982844e-08
)
;

boundaryField
{
    Walls
    {
        type            kqRWallFunction;
        value           nonuniform List<scalar> 
38
(
5.5919942e-06
2.5798544e-06
7.9647597e-06
3.7591148e-05
0.00028092286
0.002356645
0.056043394
0.060794884
0.018001442
0.026879593
0.034953947
0.041729013
0.047478481
0.052622884
0.056450488
0.05931745
0.062222489
0.064490489
0.066198081
0.067812743
0.068932652
0.069829332
0.070287188
0.071214328
0.072023591
0.072215539
0.072339301
0.072152396
0.072612613
0.072613097
0.072563202
0.072765747
0.073048911
0.072839137
0.072296274
0.072303871
0.071494286
0.066402048
)
;
    }
    Inlet
    {
        type            turbulentIntensityKineticEnergyInlet;
        intensity       0.05;
        value           nonuniform List<scalar> 3(0.0088206839 0.0090145712 0.0093260112);
    }
    Outlet
    {
        type            inletOutlet;
        inletValue      uniform 0;
        value           nonuniform List<scalar> 
86
(
1.7790874e-07
1.7793702e-07
1.7800631e-07
1.7810737e-07
1.7820504e-07
1.7836015e-07
1.7876031e-07
1.7886971e-07
1.7889616e-07
1.7888024e-07
1.7879224e-07
1.7857785e-07
1.7816357e-07
1.7749544e-07
1.7668144e-07
1.7587853e-07
1.7423101e-07
1.7184832e-07
1.6853249e-07
1.6406468e-07
1.582801e-07
1.5098814e-07
1.4222874e-07
1.3119185e-07
1.1786042e-07
1.0249533e-07
8.509606e-08
6.592321e-08
4.5540621e-08
2.4982844e-08
0.0031430281
0.003248451
0.0026531863
0
0
0
0
0.00025043161
0.00022312081
0.00016373912
0
0
0
2.3756987e-05
1.7921815e-05
1.3631388e-05
1.0034489e-05
7.2623309e-06
5.1281388e-06
3.5447431e-06
2.4418175e-06
1.6831084e-06
1.1460706e-06
7.7945527e-07
5.3758245e-07
3.7880631e-07
2.7802816e-07
2.1538347e-07
1.7931683e-07
1.5841822e-07
1.4745374e-07
1.4238497e-07
1.4024326e-07
1.4034286e-07
1.4136942e-07
1.4252421e-07
1.4408569e-07
1.4485831e-07
1.4448529e-07
1.4318375e-07
1.4041552e-07
1.3628066e-07
1.3004564e-07
1.2191683e-07
1.118304e-07
9.912694e-08
8.3814839e-08
6.6203408e-08
4.657713e-08
2.4982844e-08
0
0
0
0
0.0025855769
0.0032438442
)
;
    }
    Front
    {
        type            wedge;
    }
    Back
    {
        type            wedge;
    }
    defaultFaces
    {
        type            empty;
    }
}


// ************************************************************************* //
