/*--------------------------------*- C++ -*----------------------------------*\
| =========                 |                                                 |
| \\      /  F ield         | OpenFOAM: The Open Source CFD Toolbox           |
|  \\    /   O peration     | Version:  4.0                                   |
|   \\  /    A nd           | Web:      www.OpenFOAM.org                      |
|    \\/     M anipulation  |                                                 |
\*---------------------------------------------------------------------------*/
FoamFile
{
    version     2.0;
    format      ascii;
    class       volScalarField;
    location    "0.71";
    object      nut;
}
// * * * * * * * * * * * * * * * * * * * * * * * * * * * * * * * * * * * * * //

dimensions      [0 2 -1 0 0 0 0];

internalField   nonuniform List<scalar> 
1740
(
5.3481298e-05
1.5193111e-05
1.2068724e-06
1.4660465e-05
8.1112723e-06
1.7890365e-06
1.0393569e-05
6.0696005e-06
2.3113342e-06
1.5251866e-05
4.9726258e-06
2.7445641e-06
1.003976e-05
4.4476143e-06
3.1089166e-06
1.6567613e-05
4.1200533e-06
3.432454e-06
1.3632109e-05
3.877555e-06
3.6708918e-06
1.179938e-05
3.7301773e-06
3.8483604e-06
1.0572018e-05
3.6305703e-06
4.0281432e-06
9.5047427e-06
3.5879452e-06
4.1677723e-06
8.7969481e-06
3.5364349e-06
4.2719641e-06
8.1461549e-06
3.4971987e-06
4.3705745e-06
7.5754281e-06
3.4913843e-06
4.439404e-06
7.0400957e-06
3.5014857e-06
4.4941775e-06
6.6143391e-06
3.5020182e-06
4.5215961e-06
6.2593467e-06
3.5120683e-06
4.5787311e-06
5.9214622e-06
3.5262581e-06
4.6283665e-06
5.6270611e-06
3.5541652e-06
4.6401605e-06
5.4065571e-06
3.5601536e-06
4.6480839e-06
5.2094956e-06
3.5565704e-06
4.6353694e-06
5.0195292e-06
3.5607514e-06
4.6634855e-06
4.8642196e-06
3.54806e-06
4.663469e-06
4.7299801e-06
3.5501978e-06
4.6604392e-06
4.5907607e-06
3.548186e-06
4.6730341e-06
4.472466e-06
3.5300739e-06
4.6906973e-06
4.38714e-06
3.5279355e-06
4.678094e-06
4.3045391e-06
3.5263775e-06
4.6448172e-06
4.2227452e-06
3.5459358e-06
4.6461302e-06
4.1657249e-06
3.5675893e-06
4.5963752e-06
2.5516488e-06
3.7469631e-06
4.2855596e-06
1.8288672e-06
2.1865309e-06
4.3890611e-06
7.1625849e-06
7.3489625e-06
6.7011367e-06
6.5373025e-06
6.7389337e-06
6.367467e-06
5.1816106e-06
5.1178534e-06
4.8736559e-06
4.339446e-06
4.2669958e-06
4.1326228e-06
3.8008403e-06
3.7578849e-06
3.6982249e-06
3.4418447e-06
3.4246167e-06
3.4102586e-06
3.1918008e-06
3.1905612e-06
3.2011525e-06
3.0048579e-06
3.0120737e-06
3.034874e-06
2.8489883e-06
2.8599557e-06
2.8874897e-06
2.7011198e-06
2.7131836e-06
2.7413146e-06
2.5449006e-06
2.556662e-06
2.5832342e-06
2.3696226e-06
2.3803987e-06
2.4043801e-06
2.1698161e-06
2.1793113e-06
2.200284e-06
1.9451582e-06
1.9532796e-06
1.9711514e-06
1.7003482e-06
1.707109e-06
1.7219607e-06
1.4445403e-06
1.4500126e-06
1.4620245e-06
1.1899702e-06
1.1942648e-06
1.2036877e-06
9.4972523e-07
9.5298214e-07
9.6012663e-07
7.3512369e-07
7.3750392e-07
7.4272611e-07
5.5357971e-07
5.5525451e-07
5.5893054e-07
4.077329e-07
4.0886825e-07
4.1136231e-07
2.9599645e-07
2.9673937e-07
2.9837486e-07
2.1409353e-07
2.1456804e-07
2.1561228e-07
1.5647512e-07
1.5677318e-07
1.5742732e-07
1.1726464e-07
1.1744932e-07
1.1785405e-07
9.1407056e-08
9.152124e-08
9.1771332e-08
7.4942133e-08
7.5013691e-08
7.5170427e-08
6.4912368e-08
6.4958705e-08
6.5060297e-08
5.9187596e-08
5.9219209e-08
5.9288698e-08
5.6278084e-08
5.6301099e-08
5.6351949e-08
5.516687e-08
5.5184769e-08
5.5224623e-08
5.5173132e-08
5.5187865e-08
5.5220967e-08
5.5848121e-08
5.586078e-08
5.5889456e-08
5.6899944e-08
5.6911149e-08
5.693668e-08
5.814124e-08
5.8151349e-08
5.8174455e-08
5.9453594e-08
5.9462825e-08
5.9483934e-08
6.0763658e-08
6.0772148e-08
6.0791543e-08
6.2027321e-08
6.2035169e-08
6.2053061e-08
6.3219491e-08
6.3226776e-08
6.3243347e-08
6.4327805e-08
6.4334605e-08
6.4350025e-08
6.53492e-08
6.5355609e-08
6.5370066e-08
6.6287843e-08
6.6294032e-08
6.6307767e-08
6.7094012e-08
6.7099923e-08
6.7112958e-08
6.7766149e-08
6.7771788e-08
6.7784194e-08
6.8302124e-08
6.8307524e-08
6.8319393e-08
6.8693768e-08
6.8698971e-08
6.8710402e-08
6.892235e-08
6.8927401e-08
6.8938504e-08
6.8944969e-08
6.8949925e-08
6.8960829e-08
6.8623585e-08
6.8628501e-08
6.863934e-08
4.1581277e-06
4.4920444e-06
6.6865916e-06
8.401291e-06
5.9867691e-06
6.0302749e-06
4.7261789e-06
4.829957e-06
4.0853276e-06
4.194085e-06
3.7012413e-06
3.8033678e-06
3.4404906e-06
3.5353136e-06
3.2448109e-06
3.3323e-06
3.0835272e-06
3.1635228e-06
2.9361628e-06
3.008531e-06
2.7872344e-06
2.8519485e-06
2.6249806e-06
2.6821393e-06
2.4413345e-06
2.4911554e-06
2.2322843e-06
2.2750767e-06
1.998285e-06
2.0344215e-06
1.7444542e-06
1.7743563e-06
1.4801974e-06
1.5043402e-06
1.2179389e-06
1.2368704e-06
9.7093143e-07
9.8528714e-07
7.5062359e-07
7.6111931e-07
5.6449059e-07
5.718817e-07
4.151369e-07
4.2015541e-07
3.0085239e-07
3.0414708e-07
2.1719306e-07
2.1929368e-07
1.584158e-07
1.597275e-07
1.1846491e-07
1.1927458e-07
9.2148556e-08
9.2648211e-08
7.5406844e-08
7.5719997e-08
6.5213698e-08
6.5417119e-08
5.9393907e-08
5.9533794e-08
5.64293e-08
5.6532593e-08
5.5285638e-08
5.5367559e-08
5.5271998e-08
5.5340891e-08
5.5933935e-08
5.5994252e-08
5.6976446e-08
5.7030533e-08
5.8210519e-08
5.8259641e-08
5.9516893e-08
5.9561793e-08
6.0821799e-08
6.0862989e-08
6.208093e-08
6.2118823e-08
6.3269105e-08
6.3304073e-08
6.4373934e-08
6.4406325e-08
6.5392383e-08
6.5422528e-08
6.6328768e-08
6.6356983e-08
6.713279e-08
6.715934e-08
6.7803022e-08
6.7828175e-08
6.8337384e-08
6.836139e-08
6.8727721e-08
6.8750808e-08
6.8955321e-08
6.8977708e-08
6.8977336e-08
6.8999237e-08
6.8655725e-08
6.8677335e-08
4.637506e-10
1.3212521e-08
1.9300246e-07
8.2636252e-07
1.6434204e-06
2.230048e-06
2.5750354e-06
2.7833959e-06
2.9274482e-06
3.0428143e-06
3.1466462e-06
3.252905e-06
3.3584286e-06
3.462114e-06
3.563174e-06
3.6602588e-06
3.750912e-06
3.8309934e-06
3.8937982e-06
3.928731e-06
3.9191609e-06
3.8388234e-06
3.6452487e-06
3.2619992e-06
2.451154e-06
2.139514e-10
2.6863778e-08
3.5972394e-07
1.3767672e-06
2.569716e-06
3.3780566e-06
3.8511584e-06
4.1577838e-06
4.3924084e-06
4.5977914e-06
4.7945351e-06
4.9951058e-06
5.1972892e-06
5.4000544e-06
5.6017374e-06
5.7995971e-06
5.9888805e-06
6.1617971e-06
6.3056138e-06
6.4000024e-06
6.4125838e-06
6.290951e-06
5.9473013e-06
5.2207999e-06
3.682962e-06
6.6052757e-10
7.8738943e-08
8.5690412e-07
2.5063329e-06
3.7915692e-06
4.5279681e-06
4.9914719e-06
5.3370064e-06
5.637166e-06
5.9243546e-06
6.2139028e-06
6.5125737e-06
6.8189173e-06
7.1317792e-06
7.449733e-06
7.7697092e-06
8.0854671e-06
8.3870118e-06
8.6566379e-06
8.8655661e-06
8.9670705e-06
8.8834408e-06
8.4791434e-06
7.4956312e-06
5.2893714e-06
3.1173915e-09
2.8498947e-07
2.0612714e-06
4.0015168e-06
5.041936e-06
5.6294608e-06
6.0360076e-06
6.3782926e-06
6.7065385e-06
7.0393689e-06
7.3876271e-06
7.7544483e-06
8.1363664e-06
8.5321267e-06
8.9415946e-06
9.363419e-06
9.7926209e-06
1.0219642e-05
1.0627761e-05
1.0988985e-05
1.1256963e-05
1.1353092e-05
1.113351e-05
1.0289027e-05
7.8900297e-06
2.3290823e-08
1.1359446e-06
3.9848589e-06
5.5938005e-06
6.4457321e-06
6.9669291e-06
7.3505292e-06
7.6966775e-06
8.0459689e-06
8.400162e-06
8.7728855e-06
9.1709918e-06
9.5842614e-06
1.0008282e-05
1.0445781e-05
1.0901448e-05
1.1374638e-05
1.1860747e-05
1.23498e-05
1.2823459e-05
1.3250453e-05
1.3580399e-05
1.373645e-05
1.3622675e-05
1.3210765e-05
1.9496998e-07
2.7463057e-06
5.8894563e-06
7.6946366e-06
8.6110077e-06
9.0298182e-06
9.2278004e-06
9.3660903e-06
9.5057789e-06
9.6650957e-06
9.852069e-06
1.0073027e-05
1.0328582e-05
1.0619035e-05
1.0945746e-05
1.1309924e-05
1.1711876e-05
1.2149739e-05
1.261851e-05
1.3108295e-05
1.3601262e-05
1.4068342e-05
1.4466155e-05
1.4745824e-05
1.4849799e-05
4.3362582e-06
4.3119942e-06
4.3571761e-06
4.4684484e-06
4.6448103e-06
4.8756575e-06
5.1506577e-06
5.4667761e-06
5.8257337e-06
6.228963e-06
6.6756703e-06
7.1625263e-06
7.6835159e-06
8.231346e-06
8.7993205e-06
9.3829132e-06
9.9799321e-06
1.058922e-05
1.1208967e-05
1.1834577e-05
1.2455658e-05
1.3052923e-05
1.359544e-05
1.4046193e-05
1.4337364e-05
9.1030724e-06
9.3532473e-06
9.7533382e-06
1.0175205e-05
1.0354377e-05
1.0320289e-05
1.020509e-05
1.0109749e-05
1.0074137e-05
1.0099948e-05
1.018305e-05
1.0318859e-05
1.0505497e-05
1.0742817e-05
1.1030858e-05
1.1369237e-05
1.1756164e-05
1.2187798e-05
1.2657101e-05
1.3151756e-05
1.3651043e-05
1.4122699e-05
1.4520172e-05
1.4793209e-05
1.4887924e-05
6.4033865e-06
6.813107e-06
7.2456328e-06
7.6469553e-06
7.9498808e-06
8.1678346e-06
8.3609071e-06
8.5685445e-06
8.7992859e-06
9.0679165e-06
9.3709921e-06
9.6996902e-06
1.0049242e-05
1.0425975e-05
1.0833836e-05
1.1273475e-05
1.1741947e-05
1.2231957e-05
1.2729901e-05
1.3212866e-05
1.3644081e-05
1.3967061e-05
1.4099177e-05
1.3941576e-05
1.3473399e-05
5.1428158e-06
5.4997898e-06
5.8508797e-06
6.1682353e-06
6.4350874e-06
6.6640562e-06
6.8853471e-06
7.1194048e-06
7.3773979e-06
7.6659832e-06
7.9831405e-06
8.3262618e-06
8.6952041e-06
9.091092e-06
9.5134842e-06
9.9586824e-06
1.0418484e-05
1.0878498e-05
1.1315537e-05
1.1693481e-05
1.1956343e-05
1.201508e-05
1.1715838e-05
1.0739029e-05
8.1289574e-06
4.4372594e-06
4.7277313e-06
5.019219e-06
5.2912776e-06
5.5381749e-06
5.7680454e-06
5.995346e-06
6.2328801e-06
6.4892262e-06
6.7685402e-06
7.0705162e-06
7.3939436e-06
7.738462e-06
8.1030011e-06
8.4846209e-06
8.8762779e-06
9.2657444e-06
9.6337193e-06
9.9511087e-06
1.0174922e-05
1.0241709e-05
1.005602e-05
9.4669382e-06
8.208495e-06
5.6439507e-06
3.9929489e-06
4.2241434e-06
4.4641338e-06
4.6973416e-06
4.9200496e-06
5.1370771e-06
5.3565671e-06
5.5862634e-06
5.8318513e-06
6.0961586e-06
6.3793791e-06
6.6805828e-06
6.9984478e-06
7.3301701e-06
7.6702724e-06
8.0095225e-06
8.3335598e-06
8.6212823e-06
8.8427569e-06
8.9563709e-06
8.9047375e-06
8.608119e-06
7.9513408e-06
6.7457839e-06
4.5058077e-06
3.6883449e-06
3.8752238e-06
4.0748078e-06
4.2756409e-06
4.474509e-06
4.6736706e-06
4.8777468e-06
5.0915151e-06
5.3186536e-06
5.561074e-06
5.8189474e-06
6.0912124e-06
6.3758059e-06
6.668902e-06
6.9639773e-06
7.2509411e-06
7.5151933e-06
7.7365174e-06
7.887862e-06
7.934003e-06
7.8300317e-06
7.5191491e-06
6.9268426e-06
5.9336777e-06
4.1635446e-06
3.4600446e-06
3.6147516e-06
3.7833504e-06
3.9577567e-06
4.135082e-06
4.3160819e-06
4.5032603e-06
4.6994511e-06
4.9068745e-06
5.1266079e-06
5.3584527e-06
5.6010205e-06
5.8516491e-06
6.1058954e-06
6.3568769e-06
6.5946424e-06
6.8055534e-06
6.9717148e-06
7.0705746e-06
7.074893e-06
6.9534747e-06
6.6735318e-06
6.2074328e-06
5.5563553e-06
4.8402603e-06
3.272716e-06
3.4036028e-06
3.5481443e-06
3.7007723e-06
3.8590174e-06
4.0227946e-06
4.193297e-06
4.3720504e-06
4.5602143e-06
4.7581422e-06
4.9651764e-06
5.1795575e-06
5.3982241e-06
5.6164552e-06
5.8274282e-06
6.0218159e-06
6.187465e-06
6.3092444e-06
6.3692114e-06
6.3473734e-06
6.2235921e-06
5.9819241e-06
5.6210196e-06
5.181559e-06
4.812765e-06
3.1031542e-06
3.2156054e-06
3.3408575e-06
3.4750775e-06
3.616222e-06
3.7637721e-06
3.9181028e-06
4.0798511e-06
4.2494038e-06
4.4265392e-06
4.610194e-06
4.7983049e-06
4.9876071e-06
5.1733703e-06
5.3491251e-06
5.5064391e-06
5.6348108e-06
5.7217634e-06
5.7532621e-06
5.7146589e-06
5.5925209e-06
5.3780862e-06
5.0742299e-06
4.7112434e-06
4.3534418e-06
2.9343781e-06
3.0317622e-06
3.1408625e-06
3.2589969e-06
3.3844884e-06
3.5166109e-06
3.655231e-06
3.8003934e-06
3.9519433e-06
4.1092361e-06
4.2709185e-06
4.4347548e-06
4.5974555e-06
4.7544945e-06
4.8999465e-06
5.0263898e-06
5.1249221e-06
5.1853445e-06
5.1965735e-06
5.1473312e-06
5.0270914e-06
4.8269486e-06
4.5386981e-06
4.1436252e-06
3.5207652e-06
2.7538489e-06
2.838288e-06
2.933288e-06
3.0369189e-06
3.1478057e-06
3.2651362e-06
3.3884808e-06
3.5175035e-06
3.6516973e-06
3.7901443e-06
3.93133e-06
4.0729877e-06
4.2119574e-06
4.344066e-06
4.4640394e-06
4.5654773e-06
4.6409179e-06
4.6820162e-06
4.6798284e-06
4.6251299e-06
4.5084897e-06
4.319226e-06
4.0403223e-06
3.6278283e-06
2.9072757e-06
2.5531424e-06
2.6260353e-06
2.7083227e-06
2.7985759e-06
2.8956604e-06
2.9987633e-06
3.1072948e-06
3.2206997e-06
3.3382691e-06
3.4589483e-06
3.5811836e-06
3.7027975e-06
3.820877e-06
3.9316973e-06
4.0306782e-06
4.1123938e-06
4.1706447e-06
4.1985884e-06
4.1888884e-06
4.1337547e-06
4.0245472e-06
3.8501e-06
3.5913546e-06
3.2033488e-06
2.5284267e-06
2.3280976e-06
2.390444e-06
2.4610294e-06
2.5387738e-06
2.6227415e-06
2.7121673e-06
2.8064033e-06
2.9047957e-06
3.0065492e-06
3.1105839e-06
3.2154104e-06
3.3190329e-06
3.4188659e-06
3.5116841e-06
3.5936045e-06
3.6601072e-06
3.7060949e-06
3.7259742e-06
3.7137078e-06
3.6627183e-06
3.565378e-06
3.4115035e-06
3.1843672e-06
2.8490742e-06
2.2965308e-06
2.0791161e-06
2.1317111e-06
2.1914115e-06
2.2573917e-06
2.3288864e-06
2.4052107e-06
2.4857279e-06
2.5697765e-06
2.6565636e-06
2.7450667e-06
2.8339376e-06
2.9214263e-06
3.0053214e-06
3.0829177e-06
3.1510083e-06
3.2059053e-06
3.2434818e-06
3.2592145e-06
3.2481825e-06
3.2049326e-06
3.1230375e-06
2.9940018e-06
2.8046862e-06
2.5304429e-06
2.0990168e-06
1.8113239e-06
1.8548765e-06
1.9044291e-06
1.9593543e-06
2.0190366e-06
2.0828899e-06
2.1503385e-06
2.2207666e-06
2.2934515e-06
2.3674875e-06
2.4417153e-06
2.5146672e-06
2.5845253e-06
2.6490979e-06
2.705816e-06
2.7517499e-06
2.7836326e-06
2.7978775e-06
2.790552e-06
2.7572529e-06
2.6927784e-06
2.5904061e-06
2.4402988e-06
2.2252875e-06
1.8985251e-06
1.5341958e-06
1.5694147e-06
1.6095713e-06
1.6541942e-06
1.7028033e-06
1.7549186e-06
1.8100504e-06
1.8676683e-06
1.9271548e-06
1.9877541e-06
2.0485221e-06
2.1082849e-06
2.1656107e-06
2.2187929e-06
2.265848e-06
2.3045252e-06
2.332317e-06
2.346461e-06
2.3439063e-06
2.3212105e-06
2.2743074e-06
2.1980226e-06
2.0849723e-06
1.9223612e-06
1.6736249e-06
1.2602941e-06
1.2879609e-06
1.3195654e-06
1.354762e-06
1.3931873e-06
1.4344658e-06
1.4782039e-06
1.5239722e-06
1.5712755e-06
1.6195185e-06
1.6679721e-06
1.7157445e-06
1.7617611e-06
1.8047522e-06
1.8432509e-06
1.875597e-06
1.8999405e-06
1.9142355e-06
1.916208e-06
1.9032741e-06
1.8723733e-06
1.8196219e-06
1.7394692e-06
1.6220483e-06
1.4395183e-06
1.0030604e-06
1.0240758e-06
1.0481189e-06
1.0749438e-06
1.1042832e-06
1.1358558e-06
1.1693617e-06
1.2044721e-06
1.2408123e-06
1.2779395e-06
1.3153212e-06
1.3523154e-06
1.3881572e-06
1.4219484e-06
1.4526549e-06
1.4791075e-06
1.5000024e-06
1.5138953e-06
1.5191737e-06
1.5139954e-06
1.4961648e-06
1.462873e-06
1.4100347e-06
1.3301163e-06
1.2013107e-06
7.7412076e-07
7.8950703e-07
8.0712992e-07
8.268183e-07
8.4838237e-07
8.7161879e-07
8.9630945e-07
9.2221563e-07
9.49068e-07
9.7655514e-07
1.0043095e-06
1.0318948e-06
1.0587959e-06
1.0844102e-06
1.1080439e-06
1.128911e-06
1.1461351e-06
1.1587468e-06
1.1656652e-06
1.1656541e-06
1.15723e-06
1.138468e-06
1.106494e-06
1.0557695e-06
9.6947195e-07
5.8104085e-07
5.9188645e-07
6.0431787e-07
6.1821763e-07
6.3345502e-07
6.4988781e-07
6.6736317e-07
6.857154e-07
7.0476044e-07
7.2429014e-07
7.4406505e-07
7.6380552e-07
7.8318438e-07
8.0181848e-07
8.1926312e-07
8.3501008e-07
8.4849205e-07
8.5908634e-07
8.661072e-07
8.687763e-07
8.661575e-07
8.5701878e-07
8.3947723e-07
8.0979559e-07
7.563863e-07
4.2637615e-07
4.3374468e-07
4.4219399e-07
4.5164464e-07
4.6200793e-07
4.7318784e-07
4.8508037e-07
4.975744e-07
5.1054995e-07
5.2387469e-07
5.3740122e-07
5.5096138e-07
5.6436014e-07
5.7736665e-07
5.8970634e-07
6.0105736e-07
6.1105757e-07
6.1931676e-07
6.2541809e-07
6.2889955e-07
6.2920978e-07
6.2561856e-07
6.169966e-07
6.0107761e-07
5.7103326e-07
3.0823124e-07
3.130697e-07
3.1861809e-07
3.2482407e-07
3.3162879e-07
3.3896847e-07
3.4677525e-07
3.5497689e-07
3.6349798e-07
3.7225875e-07
3.8117392e-07
3.901497e-07
3.9907807e-07
4.0782815e-07
4.1623508e-07
4.2409309e-07
4.3116454e-07
4.37203e-07
4.419612e-07
4.4517812e-07
4.4654851e-07
4.4566923e-07
4.4191749e-07
4.3404565e-07
4.1825777e-07
2.2189537e-07
2.2497498e-07
2.2850341e-07
2.3244676e-07
2.3676731e-07
2.4142431e-07
2.4637505e-07
2.5157551e-07
2.5698102e-07
2.6254709e-07
2.6822986e-07
2.739843e-07
2.7975918e-07
2.8548598e-07
2.9106368e-07
2.9635067e-07
3.0117818e-07
3.0538319e-07
3.0882153e-07
3.1135254e-07
3.1281594e-07
3.1300021e-07
3.1157934e-07
3.0790264e-07
2.9997055e-07
1.613498e-07
1.6326708e-07
1.6546024e-07
1.6790717e-07
1.7058346e-07
1.7346309e-07
1.7651891e-07
1.7972366e-07
1.8305057e-07
1.8647435e-07
1.8997229e-07
1.9352572e-07
1.9712207e-07
2.0075362e-07
2.0438703e-07
2.0790153e-07
2.1113866e-07
2.1398013e-07
2.1634551e-07
2.1816447e-07
2.1935708e-07
2.198152e-07
2.19371e-07
2.1769712e-07
2.1383305e-07
1.2027471e-07
1.2145499e-07
1.2280302e-07
1.2430455e-07
1.2594393e-07
1.2770458e-07
1.2956946e-07
1.3152165e-07
1.3354501e-07
1.3562489e-07
1.3774916e-07
1.3990917e-07
1.4210186e-07
1.4433184e-07
1.4660918e-07
1.4891088e-07
1.510744e-07
1.5297366e-07
1.5456284e-07
1.558109e-07
1.566803e-07
1.571162e-07
1.5703116e-07
1.5625975e-07
1.543576e-07
9.3264873e-08
9.3991914e-08
9.4821392e-08
9.5744249e-08
9.6750549e-08
9.7829855e-08
9.8971561e-08
1.001653e-07
1.0140143e-07
1.0267157e-07
1.0396935e-07
1.0529115e-07
1.0663751e-07
1.0801457e-07
1.0943589e-07
1.1091876e-07
1.1237422e-07
1.1365364e-07
1.1472373e-07
1.1557226e-07
1.1618247e-07
1.1652609e-07
1.1655479e-07
1.1617219e-07
1.1511828e-07
7.6106469e-08
7.6562055e-08
7.7081759e-08
7.7659863e-08
7.8290106e-08
7.8965946e-08
7.9680801e-08
8.0428327e-08
8.1202778e-08
8.1999401e-08
8.2814965e-08
8.3648356e-08
8.4501587e-08
8.5380973e-08
8.629892e-08
8.7275787e-08
8.8280704e-08
8.9168957e-08
8.9911368e-08
9.0503278e-08
9.0937153e-08
9.1197319e-08
9.1254187e-08
9.1042879e-08
9.0356819e-08
6.5668469e-08
6.5965151e-08
6.6304035e-08
6.6681534e-08
6.7093702e-08
6.7536405e-08
6.8005514e-08
6.8497088e-08
6.9007639e-08
6.9534423e-08
7.0075815e-08
7.0631837e-08
7.1204915e-08
7.1800922e-08
7.24307e-08
7.3112227e-08
7.3843765e-08
7.4494241e-08
7.5038358e-08
7.5474286e-08
7.5798218e-08
7.5999989e-08
7.6058684e-08
7.5926637e-08
7.5453029e-08
5.9707132e-08
5.9912364e-08
6.0147549e-08
6.0410417e-08
6.0698439e-08
6.1008944e-08
6.1339256e-08
6.1686817e-08
6.2049389e-08
6.2425268e-08
6.2813588e-08
6.3214766e-08
6.3631167e-08
6.4068035e-08
6.4534781e-08
6.5046799e-08
6.5616765e-08
6.6125679e-08
6.6552244e-08
6.6895849e-08
6.7153902e-08
6.7318294e-08
6.7371729e-08
6.7274981e-08
6.69096e-08
5.6661155e-08
5.6814097e-08
5.6990218e-08
5.7188048e-08
5.7405906e-08
5.7641978e-08
5.7894414e-08
5.8161428e-08
5.8441437e-08
5.8733239e-08
5.9036269e-08
5.9350999e-08
5.9679547e-08
6.0026555e-08
6.0400391e-08
6.0814585e-08
6.1287204e-08
6.1710716e-08
6.2066846e-08
6.2355311e-08
6.2573627e-08
6.2714164e-08
6.2760842e-08
6.267815e-08
6.2362708e-08
5.5470067e-08
5.5592695e-08
5.5734694e-08
5.5895067e-08
5.6072621e-08
5.626603e-08
5.6473905e-08
5.6694873e-08
5.6927686e-08
5.7171373e-08
5.7425467e-08
5.7690366e-08
5.7967896e-08
5.8262157e-08
5.8580705e-08
5.8936085e-08
5.9346343e-08
5.9715578e-08
6.0027265e-08
6.0280965e-08
6.0473806e-08
6.0597949e-08
6.0637457e-08
6.0558289e-08
6.0264832e-08
5.542754e-08
5.5531743e-08
5.5653015e-08
5.5790632e-08
5.5943681e-08
5.6111109e-08
5.6291787e-08
5.6484572e-08
5.6688404e-08
5.6902432e-08
5.7126222e-08
5.736008e-08
5.7605567e-08
5.7866296e-08
5.814907e-08
5.8465436e-08
5.8832523e-08
5.9164093e-08
5.9445078e-08
5.9674632e-08
5.9849276e-08
5.9960628e-08
5.9992351e-08
5.9910439e-08
5.9620811e-08
5.6070423e-08
5.61624e-08
5.6269848e-08
5.6392203e-08
5.6528714e-08
5.6678496e-08
5.6840583e-08
5.7013988e-08
5.7197783e-08
5.7391217e-08
5.7593888e-08
5.7806041e-08
5.8029022e-08
5.8266009e-08
5.8523082e-08
5.8810731e-08
5.9144838e-08
5.9447484e-08
5.9704906e-08
5.9915721e-08
6.0075738e-08
6.0175896e-08
6.0199214e-08
6.0111089e-08
5.9816665e-08
5.7099016e-08
5.7181924e-08
5.7279009e-08
5.7389803e-08
5.7513666e-08
5.7649833e-08
5.7797468e-08
5.7955717e-08
5.812378e-08
5.8301013e-08
5.8487076e-08
5.8682187e-08
5.8887528e-08
5.9105896e-08
5.9342681e-08
5.9607283e-08
5.991414e-08
6.0192665e-08
6.0430351e-08
6.0625229e-08
6.0772374e-08
6.0861991e-08
6.0876347e-08
6.0779855e-08
6.0475454e-08
5.8321914e-08
5.8397399e-08
5.8485899e-08
5.8587014e-08
5.870019e-08
5.882477e-08
5.8960042e-08
5.9105284e-08
5.9259834e-08
5.9423167e-08
5.9595031e-08
5.9775652e-08
5.9966092e-08
6.0168814e-08
6.0388559e-08
6.0633651e-08
6.0916994e-08
6.1174327e-08
6.1394517e-08
6.1575032e-08
6.1710227e-08
6.1789575e-08
6.1794543e-08
6.1688447e-08
6.1371607e-08
5.9618725e-08
5.9687752e-08
5.9768711e-08
5.9861256e-08
5.9964916e-08
6.0079139e-08
6.0203333e-08
6.0336914e-08
6.0479362e-08
6.0630287e-08
6.0789535e-08
6.095737e-08
6.1134766e-08
6.1323901e-08
6.152892e-08
6.1757105e-08
6.2019804e-08
6.2257951e-08
6.2462107e-08
6.2629244e-08
6.2753054e-08
6.2822301e-08
6.2817682e-08
6.2701628e-08
6.2373229e-08
6.0915187e-08
6.0978451e-08
6.1052638e-08
6.1137455e-08
6.123251e-08
6.133735e-08
6.1451505e-08
6.157453e-08
6.1706046e-08
6.1845796e-08
6.1993739e-08
6.2150192e-08
6.2316083e-08
6.2493352e-08
6.2685606e-08
6.289912e-08
6.3143446e-08
6.3363785e-08
6.3552889e-08
6.3707316e-08
6.3820141e-08
6.3879458e-08
6.3865186e-08
6.3738606e-08
6.3395705e-08
6.2166796e-08
6.2224894e-08
6.2292992e-08
6.2370848e-08
6.2458141e-08
6.2554517e-08
6.2659623e-08
6.2773143e-08
6.2894833e-08
6.3024571e-08
6.316243e-08
6.3308813e-08
6.3464661e-08
6.3631747e-08
6.381325e-08
6.4014599e-08
6.4241482e-08
6.4444597e-08
6.4619192e-08
6.4761329e-08
6.4863461e-08
6.4913048e-08
6.4889275e-08
6.475222e-08
6.4393458e-08
6.3348286e-08
6.3401775e-08
6.3464432e-08
6.3536058e-08
6.3616402e-08
6.3705201e-08
6.3802211e-08
6.3907236e-08
6.4020158e-08
6.4140983e-08
6.4269915e-08
6.440751e-08
6.4554859e-08
6.4713623e-08
6.4886889e-08
6.5081766e-08
6.5286891e-08
6.5472094e-08
6.5632252e-08
6.5762316e-08
6.5853955e-08
6.5893999e-08
6.5860968e-08
6.571392e-08
6.5342048e-08
6.4447211e-08
6.4496607e-08
6.455442e-08
6.462049e-08
6.4694631e-08
6.4776663e-08
6.4866441e-08
6.4963879e-08
6.5068978e-08
6.5181864e-08
6.5302906e-08
6.543299e-08
6.5573765e-08
6.5726232e-08
6.5892341e-08
6.6078767e-08
6.6261162e-08
6.6428163e-08
6.6573956e-08
6.6692123e-08
6.6773442e-08
6.6804144e-08
6.6762296e-08
6.6606792e-08
6.6229652e-08
6.5460483e-08
6.5506243e-08
6.5559724e-08
6.5620802e-08
6.5689351e-08
6.5765268e-08
6.5848502e-08
6.5939071e-08
6.6037082e-08
6.6142775e-08
6.6256708e-08
6.6380692e-08
6.6518242e-08
6.6667138e-08
6.6824834e-08
6.6988807e-08
6.7149879e-08
6.7299872e-08
6.7431979e-08
6.7538637e-08
6.7609865e-08
6.7631413e-08
6.7581074e-08
6.7417996e-08
6.7040361e-08
6.6392367e-08
6.6434866e-08
6.6484401e-08
6.6540883e-08
6.6604243e-08
6.6674458e-08
6.6751567e-08
6.6835691e-08
6.6927036e-08
6.7025912e-08
6.7132789e-08
6.7248476e-08
6.7374126e-08
6.7509254e-08
6.76517e-08
6.7797979e-08
6.7942182e-08
6.8077618e-08
6.8197288e-08
6.829307e-08
6.8354512e-08
6.8367047e-08
6.8308254e-08
6.8137007e-08
6.7750632e-08
6.7192539e-08
6.7232313e-08
6.7278583e-08
6.7331285e-08
6.7390386e-08
6.7455911e-08
6.7527958e-08
6.7606703e-08
6.7692396e-08
6.7785346e-08
6.7885906e-08
6.7994461e-08
6.8111276e-08
6.8235833e-08
6.8366299e-08
6.8499481e-08
6.863066e-08
6.8753985e-08
6.8862615e-08
6.8948268e-08
6.9000288e-08
6.9003955e-08
6.8936748e-08
6.8757387e-08
6.8362465e-08
6.7859568e-08
6.7897119e-08
6.7940753e-08
6.7990418e-08
6.8046108e-08
6.8107875e-08
6.8175848e-08
6.8250232e-08
6.8331296e-08
6.841933e-08
6.8514599e-08
6.8617258e-08
6.8727191e-08
6.8843669e-08
6.8964959e-08
6.9088138e-08
6.9209016e-08
6.9322203e-08
6.9421062e-08
6.9497338e-08
6.9540345e-08
6.9535358e-08
6.9459894e-08
6.9272846e-08
6.8871736e-08
6.8391317e-08
6.842708e-08
6.8468607e-08
6.851586e-08
6.8568842e-08
6.8627619e-08
6.8692331e-08
6.8763197e-08
6.8840488e-08
6.8924475e-08
6.9015358e-08
6.9113163e-08
6.9217584e-08
6.932774e-08
6.9441886e-08
6.9557201e-08
6.9669721e-08
6.9774307e-08
6.9864493e-08
6.9932122e-08
6.9966592e-08
6.9953294e-08
6.9869922e-08
6.9675642e-08
6.9268346e-08
6.8779569e-08
6.8813916e-08
6.8853783e-08
6.8899144e-08
6.8950006e-08
6.9006432e-08
6.9068559e-08
6.9136605e-08
6.9210842e-08
6.9291534e-08
6.9378836e-08
6.9472701e-08
6.9572736e-08
6.9677969e-08
6.9786602e-08
6.9895734e-08
7.0001434e-08
7.0098703e-08
7.0181224e-08
7.0240968e-08
7.0267495e-08
7.0246424e-08
7.0155789e-08
6.9955231e-08
6.9543291e-08
6.900557e-08
6.9038834e-08
6.9077413e-08
6.9121308e-08
6.9170533e-08
6.9225134e-08
6.9285228e-08
6.9351022e-08
6.9422793e-08
6.9500843e-08
6.9585307e-08
6.967609e-08
6.9772813e-08
6.9874524e-08
6.997941e-08
7.0084074e-08
7.0184425e-08
7.0275627e-08
7.0351534e-08
7.0404269e-08
7.0423649e-08
7.039563e-08
7.02988e-08
7.0093859e-08
6.9682446e-08
6.9026472e-08
6.9059079e-08
6.9096683e-08
6.9139434e-08
6.9187381e-08
6.9240547e-08
6.9299008e-08
6.9362936e-08
6.9432633e-08
6.950858e-08
6.9591038e-08
6.9679583e-08
6.9774164e-08
6.9874245e-08
6.9978653e-08
7.0081494e-08
7.0178288e-08
7.0264873e-08
7.0335358e-08
7.0382054e-08
7.0395378e-08
7.0361676e-08
7.0260413e-08
7.0054622e-08
6.9653856e-08
6.8704414e-08
6.8737795e-08
6.8774799e-08
6.8816532e-08
6.886331e-08
6.8915151e-08
6.8972056e-08
6.9034095e-08
6.9101639e-08
6.9175975e-08
6.9258756e-08
6.9345909e-08
6.9439476e-08
6.9541265e-08
6.9658742e-08
6.9767022e-08
6.9863055e-08
6.9948056e-08
7.0014277e-08
7.0055318e-08
7.0063895e-08
7.0026394e-08
6.9923475e-08
6.9722763e-08
6.9353032e-08
)
;

boundaryField
{
    Walls
    {
        type            nutUWallFunction;
        Cmu             0.09;
        kappa           0.41;
        E               9.8;
        value           uniform 0;
    }
    Inlet
    {
        type            calculated;
        value           nonuniform List<scalar> 3(8.632375e-05 2.3693244e-05 7.6810046e-07);
    }
    Outlet
    {
        type            calculated;
        value           nonuniform List<scalar> 
86
(
6.8623585e-08
6.8628501e-08
6.863934e-08
6.8655725e-08
6.8677335e-08
6.8704414e-08
6.8737795e-08
6.8774799e-08
6.8816532e-08
6.886331e-08
6.8915151e-08
6.8972056e-08
6.9034095e-08
6.9101639e-08
6.9175975e-08
6.9258756e-08
6.9345909e-08
6.9439476e-08
6.9541265e-08
6.9658742e-08
6.9767022e-08
6.9863055e-08
6.9948056e-08
7.0014277e-08
7.0055318e-08
7.0063895e-08
7.0026394e-08
6.9923475e-08
6.9722763e-08
6.9353032e-08
1.4337364e-05
1.4887924e-05
1.3473399e-05
0
0
0
0
4.8402603e-06
4.812765e-06
4.3534418e-06
0
0
0
2.2965308e-06
2.0990168e-06
1.8985251e-06
1.6736249e-06
1.4395183e-06
1.2013107e-06
9.6947195e-07
7.563863e-07
5.7103326e-07
4.1825777e-07
2.9997055e-07
2.1383305e-07
1.543576e-07
1.1511828e-07
9.0356819e-08
7.5453029e-08
6.69096e-08
6.2362708e-08
6.0264832e-08
5.9620811e-08
5.9816665e-08
6.0475454e-08
6.1371607e-08
6.2373229e-08
6.3395705e-08
6.4393458e-08
6.5342048e-08
6.6229652e-08
6.7040361e-08
6.7750632e-08
6.8362465e-08
6.8871736e-08
6.9268346e-08
6.9543291e-08
6.9682446e-08
6.9653856e-08
6.9353032e-08
0
0
0
0
1.3210765e-05
1.4849799e-05
)
;
    }
    Front
    {
        type            wedge;
    }
    Back
    {
        type            wedge;
    }
    defaultFaces
    {
        type            empty;
    }
}


// ************************************************************************* //
