/*--------------------------------*- C++ -*----------------------------------*\
| =========                 |                                                 |
| \\      /  F ield         | OpenFOAM: The Open Source CFD Toolbox           |
|  \\    /   O peration     | Version:  4.0                                   |
|   \\  /    A nd           | Web:      www.OpenFOAM.org                      |
|    \\/     M anipulation  |                                                 |
\*---------------------------------------------------------------------------*/
FoamFile
{
    version     2.0;
    format      ascii;
    class       volScalarField;
    location    "0.71";
    object      omega;
}
// * * * * * * * * * * * * * * * * * * * * * * * * * * * * * * * * * * * * * //

dimensions      [0 0 -1 0 0 0 0];

internalField   nonuniform List<scalar> 
1740
(
49.795045
607.64265
14915.779
142.1731
1202.3194
15024.62
259.28313
1691.8452
15122.845
372.54351
2181.6435
15204.241
493.41176
2508.0449
15271.713
606.85003
2748.178
15330.98
740.20115
3079.8993
15377.868
853.06603
3255.9234
15413.694
944.96352
3404.3821
15446.941
1050.2614
3635.9028
15473.611
1128.7029
3690.7651
15495.936
1212.5081
3694.3353
15515.75
1296.2695
3768.4669
15527.456
1386.2169
3858.048
15537.733
1463.4043
3902.2123
15544.774
1531.6249
3958.8857
15553.289
1607.238
4023.7743
15561.341
1680.9346
4118.4618
15563.155
1727.119
4147.4893
15563.252
1766.6319
4141.2985
15565.619
1809.9457
4161.2976
15570.46
1836.0463
4159.3211
15570.619
1855.7572
4188.6619
15570.035
1896.6176
4187.6465
15571.414
1935.5485
4142.269
15573.145
1938.7251
4135.9434
15570.26
1952.507
4126.5884
15564.934
1981.3849
4171.5064
15562.171
2004.4816
4214.0487
15554.493
2128.8066
4273.8964
15494.37
3191.9104
4552.2028
10715.215
3324.8761
4228.616
5925.0982
1569.9504
1857.1115
2150.5389
823.88876
898.68478
957.77215
477.92097
496.02111
506.34843
300.48288
304.13549
304.24635
201.13388
201.40091
199.90874
141.63657
141.28369
139.99447
104.10166
103.75705
102.89533
79.392785
79.154143
78.623274
62.513838
62.364637
62.047764
50.607196
50.517658
50.33116
41.981037
41.92836
41.81947
35.60237
35.571683
35.508406
30.8205
30.80267
30.765912
27.212195
27.20174
27.180163
24.492165
24.485842
24.472732
22.459609
22.455527
22.446971
20.965703
20.962795
20.956587
19.894049
19.891747
19.886725
19.149591
19.147637
19.14325
18.652767
18.651081
18.647124
18.335276
18.333836
18.33024
18.131549
18.130141
18.126717
17.982116
17.98068
17.977386
17.863675
17.86231
17.859215
17.764269
17.762996
17.760112
17.675615
17.674439
17.671762
17.591921
17.590847
17.588378
17.508976
17.508014
17.505761
17.423546
17.422711
17.420685
17.333014
17.332311
17.330519
17.23503
17.23445
17.232883
17.126929
17.126454
17.125085
17.004897
17.0045
17.003299
16.863062
16.862719
16.861654
16.692729
16.692423
16.691468
16.481821
16.481542
16.480677
16.214481
16.214222
16.213433
15.870784
15.870542
15.869819
15.426579
15.426351
15.425686
14.853563
14.853343
14.852726
14.120055
14.119822
14.119232
13.204274
13.204053
13.203514
12.073374
12.073173
12.07269
10.698277
10.698097
10.697671
9.0587578
9.0586107
9.0582747
7.1489698
7.148905
7.1487868
4.9827917
4.9828941
4.9831992
2.5925305
2.5927569
2.593357
13478.036
13533.901
5991.2793
5330.3143
2081.3772
1879.6382
921.68048
853.23215
489.88702
463.05106
296.08115
284.16751
195.57455
189.82102
137.60515
134.65165
101.55341
99.967529
77.859857
76.979536
61.608847
61.108685
50.077144
49.788952
41.67213
41.505011
35.422962
35.325859
30.716255
30.659627
27.1509
27.117305
24.454782
24.433857
22.435029
22.420696
20.947662
20.93649
19.879239
19.869443
19.13647
19.127244
18.640775
18.631853
18.324261
18.315663
18.121088
18.112995
17.972099
17.964548
17.854276
17.847222
17.755501
17.748888
17.667456
17.661237
17.584362
17.578505
17.502034
17.496525
17.417253
17.412092
17.327386
17.32258
17.230044
17.225603
17.122527
17.11845
17.000997
16.997278
16.859582
16.8562
16.689599
16.686526
16.478984
16.476189
16.211894
16.209346
15.868416
15.866088
15.424405
15.422278
14.851557
14.849619
14.118161
14.116406
13.20255
13.200976
12.071833
12.070435
10.696925
10.695713
9.0576954
9.0567211
7.148562
7.1479845
4.9836132
4.9836664
2.59421
2.594816
12058.193
2043.4203
696.47868
369.06332
281.25206
257.02636
249.89103
246.8552
244.51766
242.13324
239.62178
236.8843
234.0612
231.16354
228.15698
224.97705
221.50985
217.55852
212.78909
206.64602
198.20634
185.91503
167.0764
136.67565
82.857533
12058.133
2037.4668
697.72972
374.65953
283.19486
254.35433
242.81887
235.61009
229.51182
223.7275
218.06046
212.44572
206.95092
201.55679
196.24182
190.97757
185.70718
180.32619
174.64676
168.34574
160.8711
151.25495
137.7001
116.51355
78.259753
12058.179
2030.6184
718.65995
430.70907
359.32087
332.38346
315.01525
300.52111
287.28954
274.74843
262.77974
251.19991
240.23351
229.78314
219.78649
210.22933
201.09044
192.32328
183.8268
175.42225
166.79572
157.36566
145.92748
129.52896
98.866807
12058.526
2031.9044
817.56735
608.75548
549.88048
512.68703
479.68295
449.18253
421.21318
394.91385
370.24986
347.25229
326.05478
306.20294
287.55208
270.10828
253.85899
238.77164
224.79108
211.82599
199.73573
188.29428
177.06239
164.86198
146.45677
12061.526
2151.0722
1232.0668
1078.0227
989.26345
906.46311
828.02986
756.68116
692.85182
633.78609
579.48397
529.88286
485.82197
445.55947
408.60032
374.9487
344.4671
316.98392
292.31902
270.27955
250.67048
233.31758
218.10809
205.21555
195.71742
12087.22
3825.2371
2808.8983
2403.4147
2094.4758
1825.3291
1589.9953
1386.7733
1210.9197
1059.2129
928.54271
816.06827
719.24985
635.66085
563.37475
500.88167
446.88683
400.2628
360.03754
325.38011
295.58583
270.08335
248.47076
230.84532
218.44365
10364.65
7905.0649
6098.4047
4787.4321
3816.7899
3081.1896
2512.007
2064.9909
1710.4189
1426.9831
1198.8162
1014.0135
863.59874
740.64025
639.64307
556.2456
487.00885
429.23677
380.81963
340.10344
305.78966
276.87822
252.65798
233.01143
219.21939
4088.2514
3306.1738
2842.616
2466.833
2147.123
1866.3703
1621.5833
1410.045
1228.7731
1073.4184
940.15333
825.55159
726.63743
641.24926
567.54355
503.92807
449.02972
401.67575
360.86832
325.7606
295.6386
269.9259
248.21112
230.57132
218.19368
1593.2153
1398.9922
1268.9047
1160.7184
1058.5275
961.29773
872.7081
793.70437
721.69401
656.45456
598.1121
546.50266
499.0959
455.77776
416.42588
380.84608
348.80848
320.08284
294.43894
271.66158
251.55415
233.94983
218.7392
206.07635
196.92034
770.75661
707.566
661.35069
620.77365
580.41856
540.28208
502.70016
468.05034
435.92819
406.30493
379.22774
354.41993
331.19879
309.46589
289.21185
270.42537
253.07724
237.12665
222.52334
209.20401
197.07569
185.97381
175.53414
164.70186
148.69435
433.71043
409.93016
391.1685
373.89929
356.12354
337.8065
319.91029
302.86792
286.76239
271.64525
257.52781
244.28694
231.71657
219.77344
208.48738
197.85607
187.87305
178.51784
169.74615
161.46721
153.4896
145.38765
136.13658
122.96991
96.805777
271.81267
261.35539
252.6575
244.45602
235.9021
226.92863
217.89774
209.0719
200.57424
192.46269
184.74641
177.37735
170.28451
163.4461
156.87497
150.57594
144.54076
138.73977
133.10681
127.50726
121.67029
115.03919
106.41838
93.045859
67.428663
183.99204
178.89152
174.45951
170.20941
165.76548
161.06166
156.2316
151.41776
146.70893
142.15106
137.75506
133.50351
129.36817
125.33492
121.40003
117.55486
113.77791
110.02475
106.21182
102.18659
97.671568
92.155917
84.673341
73.263428
52.798264
131.68718
129.0202
126.62589
124.30002
121.86933
119.28672
116.6002
113.88069
111.18304
108.53896
105.95854
103.43509
100.95439
98.503656
96.07074
93.637252
91.171683
88.620573
85.895128
82.850176
79.252056
74.736453
68.785745
60.908469
51.739285
98.378029
96.914913
95.567869
94.247139
92.869938
91.405743
89.870253
88.297295
86.717792
85.151404
83.605046
82.075158
80.551683
79.021414
77.467491
75.865575
74.178757
72.350799
70.297007
67.892585
64.96139
61.279249
56.644118
51.187864
46.360212
76.094039
75.263627
74.484761
73.716528
72.917806
72.069819
71.176302
70.252512
69.314427
68.372757
67.430785
66.484798
65.525379
64.538519
63.504854
62.397187
61.176845
59.788928
58.156537
56.174887
53.708986
50.605734
46.751612
42.260229
37.611418
60.602811
60.121074
59.663186
59.210226
58.741034
58.244088
57.718768
57.171141
56.608394
56.035104
55.451304
54.852013
54.227361
53.562592
52.837196
52.023103
51.081987
49.961801
48.592571
46.881731
44.709137
41.919683
38.295867
33.401426
25.444886
49.495636
49.213091
48.942162
48.673881
48.397238
48.104789
47.794552
47.467874
47.126962
46.772366
46.401543
46.008151
45.581618
45.106695
44.562547
43.921281
43.145787
42.186897
40.979498
39.436849
37.440428
34.816399
31.267658
26.146885
17.593047
41.333911
41.167784
41.00767
40.849188
40.686336
40.514225
40.330355
40.133726
39.923646
39.698113
39.45275
39.180069
38.868898
38.503727
38.063824
37.521942
36.842486
35.97891
34.869858
33.432773
31.551781
29.051619
25.635509
20.722321
12.967789
35.225953
35.128425
35.034141
34.940826
34.844956
34.743102
34.632634
34.511378
34.376938
34.225723
34.052107
33.847785
33.601141
33.296585
32.913701
32.426093
31.799762
30.990759
29.941602
28.575376
26.785211
24.414445
21.217522
16.780103
10.344728
30.601045
30.543548
30.487722
30.432215
30.374709
30.312563
30.243142
30.163706
30.070878
29.960072
29.824853
29.656361
29.442694
29.168307
28.813205
28.35192
27.752117
26.972601
25.960375
24.646101
22.936869
20.704506
17.766694
13.856969
8.5381951
27.082214
27.047357
27.013019
26.978263
26.941346
26.900039
26.851749
26.793394
26.721074
26.629612
26.512047
26.359149
26.158871
25.895776
25.550322
25.097998
24.508166
23.742529
22.752998
21.478785
19.84242
17.744598
15.057711
11.617302
7.1799881
24.411524
24.388686
24.365386
24.34082
24.313534
24.281507
24.242171
24.192271
24.127594
24.0426
23.930009
23.780353
23.581513
23.318185
22.971284
22.517224
21.927036
21.16529
20.18879
18.94508
17.370916
15.390989
12.916521
9.8405886
5.995662
22.404768
22.387636
22.369131
22.348477
22.324343
22.294814
22.257334
22.208547
22.144052
22.058078
21.943128
21.789578
21.585259
21.315006
20.960153
20.49797
19.901034
19.136575
18.165869
16.943837
15.419161
13.535125
11.230151
8.4335402
5.0449729
20.9234
20.908441
20.891275
20.871113
20.846655
20.816037
20.776701
20.725223
20.657071
20.566313
20.44528
20.28421
20.070889
19.79026
19.424021
18.950198
18.342733
17.571178
16.600623
15.392117
13.903859
12.093272
9.9183644
7.3325621
4.2687863
19.857367
19.842828
19.82536
19.804126
19.777834
19.744627
19.701934
19.646275
19.573011
19.476064
19.347599
19.177709
18.954098
18.661772
18.28274
17.795691
17.175745
16.39438
15.419773
14.217818
12.754093
10.996775
8.9184943
6.4890585
3.6563648
19.115404
19.100608
19.082284
19.059549
19.031096
18.99506
18.948844
18.88891
18.810517
18.707434
18.57164
18.393031
18.159175
17.855094
17.463068
16.962413
16.329292
15.536755
14.555363
13.354674
11.905823
10.18516
8.1769274
5.8671079
3.2282678
18.620061
18.60493
18.585812
18.561776
18.531492
18.493075
18.443895
18.380348
18.297583
18.189196
18.046931
17.860419
17.617005
17.301665
16.896955
16.382878
15.736639
14.932602
13.94309
12.740273
11.299281
9.602444
7.6429402
5.4215364
2.9474787
18.304073
18.288928
18.269512
18.244849
18.213565
18.173734
18.122677
18.056708
17.970844
17.858478
17.711059
17.517849
17.265838
16.939847
16.522736
15.995435
15.336424
14.521254
13.52345
12.316868
10.879299
9.1971393
7.2696962
5.1082641
2.740106
18.102044
18.087653
18.069063
18.045233
18.014713
17.975485
17.924761
17.858723
17.772212
17.658366
17.508266
17.310658
17.051918
16.716376
16.28708
15.746469
15.075032
14.249543
13.244153
12.033572
10.597165
8.9238968
7.017049
4.895148
2.5984393
17.954336
17.940904
17.923488
17.901034
17.872076
17.834578
17.785732
17.721703
17.637306
17.525637
17.377648
17.181691
16.923039
16.583747
16.144957
15.591449
14.908179
14.07368
13.062111
11.848305
10.412393
8.744877
6.8515371
4.7555401
2.5140289
17.837655
17.825021
17.808556
17.787198
17.759479
17.723365
17.676055
17.613726
17.531223
17.421685
17.276124
17.082964
16.827579
16.491892
16.054389
15.493907
14.801077
13.959771
12.944059
11.72844
10.293311
8.6300077
6.7454927
4.664017
2.4540827
17.739872
17.727897
17.712196
17.691707
17.664966
17.629947
17.583867
17.522933
17.442037
17.334387
17.191086
17.000669
16.748642
16.417058
15.984283
15.425706
14.7281
13.883281
12.865911
11.650172
10.216542
8.5567954
6.6785066
4.6061159
2.4151521
17.652697
17.641273
17.626195
17.606407
17.580447
17.546307
17.501227
17.441454
17.361938
17.25597
17.114764
16.926995
16.678321
16.350947
15.923302
15.370144
14.67267
13.827849
12.811284
11.597067
10.16575
8.5093475
6.6359107
4.5711662
2.3836992
17.570388
17.559441
17.544891
17.525683
17.500369
17.466956
17.422717
17.363943
17.28565
17.181222
17.041998
16.856806
16.61148
16.288401
15.866152
15.31946
14.625324
13.783316
12.769569
11.558238
10.129982
8.476959
6.6075268
4.5489397
2.3765359
17.488804
17.478291
17.464211
17.445516
17.42077
17.388005
17.344527
17.286679
17.209549
17.106619
16.969354
16.786739
16.544786
16.226066
15.809356
15.269566
14.580721
13.743462
12.733987
11.526563
10.102017
8.4526162
6.5869117
4.532927
2.3676456
17.404762
17.394674
17.381052
17.362859
17.338677
17.306566
17.263871
17.20699
17.131083
17.029726
16.894501
16.71454
16.47602
16.161691
15.750507
15.217591
14.535482
13.704236
12.69998
11.497187
10.076912
8.4315628
6.5698837
4.5207802
2.3644538
17.315657
17.306017
17.292891
17.275254
17.251714
17.220358
17.178573
17.122808
17.048288
16.948669
16.815634
16.638436
16.403404
16.093456
15.687728
15.161469
14.487012
13.662482
12.664018
11.466381
10.050893
8.4101249
6.5530276
4.5094434
2.3626545
17.219111
17.209968
17.197414
17.180441
17.157678
17.127244
17.086561
17.032119
16.959192
16.861499
16.730799
16.556443
16.324891
16.019234
15.618815
15.099105
14.432536
13.615054
12.622755
11.430743
10.020657
8.3852453
6.5335191
4.4951276
2.3522534
17.112415
17.103824
17.091928
17.075738
17.053902
17.024564
16.985168
16.932235
16.861072
16.765438
16.637146
16.465628
16.237462
15.935912
15.540561
15.027178
14.36847
13.558195
12.572399
11.386591
9.9827893
8.3540422
6.5096549
4.4797223
2.3462167
16.99171
16.983707
16.972534
16.957217
16.936418
16.908294
16.870306
16.818989
16.749667
16.656125
16.530218
16.361446
16.136498
15.838816
15.44825
14.940931
14.289957
13.487052
12.508228
11.329453
9.9331925
8.3128833
6.4781722
4.459394
2.337633
16.851091
16.843684
16.833259
16.818849
16.799127
16.772256
16.735702
16.686006
16.618503
16.526993
16.403368
16.237191
16.015269
15.721232
15.335217
14.833765
14.190462
13.395272
12.424188
11.253692
9.8667577
8.2572841
6.4351812
4.4303102
2.3223151
16.68185
16.675017
16.665317
16.651793
16.633121
16.607466
16.572295
16.524148
16.458369
16.368776
16.247297
16.08357
15.864523
15.573996
15.192442
14.696859
14.061401
13.274641
12.312555
11.152192
9.7771099
8.1817868
6.3767669
4.3927794
2.3100566
16.471908
16.465606
16.456581
16.443884
16.426191
16.401669
16.367782
16.321078
16.256907
16.169115
16.049678
15.888319
15.672114
15.385132
15.008186
14.518789
13.891808
13.11477
12.163635
11.016105
9.6564029
8.0796289
6.2968973
4.3392857
2.2849862
16.20542
16.199597
16.191186
16.179241
16.162444
16.138961
16.106262
16.060903
15.998258
15.912209
15.794802
15.635866
15.422648
15.139487
14.767594
14.285059
13.668019
12.902821
11.965516
10.83462
9.495151
7.9429004
6.1895204
4.2659355
2.2437883
15.862481
15.857091
15.849239
15.837984
15.822013
15.7995
15.76793
15.723877
15.662755
15.578508
15.463274
15.307016
15.09717
14.818408
14.45236
13.977284
13.373474
12.623345
11.703914
10.59481
9.2820163
7.7620434
6.0467959
4.1667317
2.1912957
15.418966
15.413979
15.406651
15.396052
15.38088
15.359325
15.328896
15.286209
15.226739
15.144523
15.031825
14.878758
14.672937
14.399588
14.041103
13.576517
12.989248
12.258393
11.362202
10.281655
9.0038657
7.5260769
5.8601369
4.0354405
2.1201307
14.84659
14.841999
14.835195
14.825265
14.810926
14.790396
14.761227
14.720101
14.662586
14.58286
14.473365
14.324315
14.123343
13.85689
13.508926
13.061035
12.494123
11.78776
10.921663
9.8783058
8.6460644
7.2229512
5.6206815
3.8678206
2.0328151
14.113662
14.109485
14.103246
14.094054
14.080659
14.061323
14.033663
13.99446
13.939424
13.862936
13.757756
13.614704
13.422419
13.167561
12.834759
12.406684
11.864692
11.189396
10.36203
9.3666534
8.1930168
6.8399594
5.3189794
3.6569969
1.9194749
13.198507
13.194726
13.189032
13.18057
13.16814
13.150075
13.124094
13.087125
13.03509
12.962663
12.863008
12.727532
12.545684
12.304925
11.99079
11.587062
11.076263
10.440445
9.6625354
8.7283244
7.6290447
6.3644129
4.9457538
3.3984107
1.7833885
12.068239
12.064857
12.059729
12.052054
12.040702
12.024102
12.000114
11.965871
11.917586
11.850321
11.757756
11.631978
11.463314
11.240271
10.949593
10.576477
10.10504
9.51914
8.80365
7.9462576
6.9397636
5.7847486
4.4923148
3.0864863
1.6237488
10.693806
10.690859
10.68637
10.679622
10.669577
10.654784
10.633284
10.602482
10.558977
10.498347
10.414914
10.301586
10.14973
9.9491096
9.6879842
9.3533074
8.9311682
8.4075742
7.7695918
7.0069464
6.114035
5.0921904
3.9519639
2.7151599
1.4310568
9.0551636
9.0527328
9.0490056
9.0433936
9.0349881
9.0224835
9.0041342
8.9776888
8.9402499
8.8880895
8.8163146
8.7188101
8.5881687
8.415609
8.1912086
7.904048
7.542562
7.0952449
6.5515445
5.9032693
5.1463658
4.2827221
3.3219132
2.282599
1.2052182
7.1469266
7.1452364
7.1424351
7.1381898
7.1317873
7.1221026
7.1076387
7.0865351
7.056521
7.0148999
6.9577451
6.8799416
6.7755416
6.6373342
6.4575023
6.2276676
5.939003
5.5828273
5.1510251
4.6373441
4.0392477
3.3588617
2.6043762
1.7909552
0.95007296
4.9834617
4.9835039
4.9819146
4.9791902
4.9750165
4.9685307
4.958528
4.9435215
4.9219499
4.892862
4.8539766
4.7998825
4.7268515
4.6293764
4.5019493
4.3392457
4.1355138
3.8853406
3.582441
3.2222738
2.8044329
2.3306167
1.807168
1.2457639
0.66869422
2.5960508
2.6006117
2.6008031
2.5996102
2.5976132
2.5943822
2.5891334
2.5808055
2.5686141
2.5540867
2.5394411
2.5124915
2.4747929
2.4234889
2.3552634
2.2686951
2.1612015
2.033348
1.8737871
1.6823908
1.4628837
1.2151998
0.94279081
0.65316719
0.36022714
)
;

boundaryField
{
    Walls
    {
        Cmu             0.09;
        kappa           0.41;
        E               9.8;
        beta1           0.075;
        type            omegaWallFunction;
        value           nonuniform List<scalar> 
38
(
12058.193
12058.133
12058.179
12058.526
12061.526
12087.22
13478.036
13533.901
14915.779
15024.62
15122.845
15204.241
15271.713
15330.98
15377.868
15413.694
15446.941
15473.611
15495.936
15515.75
15527.456
15537.733
15544.774
15553.289
15561.341
15563.155
15563.252
15565.619
15570.46
15570.619
15570.035
15571.414
15573.145
15570.26
15564.934
15562.171
15554.493
15494.37
)
;
    }
    Inlet
    {
        type            turbulentMixingLengthDissipationRateInlet;
        mixingLength    0.03;
        phi             phi;
        k               k;
        value           nonuniform List<scalar> 3(0.0045447856 0.0048281145 0.0046888131);
    }
    Outlet
    {
        type            inletOutlet;
        inletValue      uniform 1e-05;
        value           nonuniform List<scalar> 
86
(
2.5925305
2.5927569
2.593357
2.59421
2.594816
2.5960508
2.6006117
2.6008031
2.5996102
2.5976132
2.5943822
2.5891334
2.5808055
2.5686141
2.5540867
2.5394411
2.5124915
2.4747929
2.4234889
2.3552634
2.2686951
2.1612015
2.033348
1.8737871
1.6823908
1.4628837
1.2151998
0.94279081
0.65316719
0.36022714
219.21939
218.19368
196.92034
1e-05
1e-05
1e-05
1e-05
51.739285
46.360212
37.611418
1e-05
1e-05
1e-05
10.344728
8.5381951
7.1799881
5.995662
5.0449729
4.2687863
3.6563648
3.2282678
2.9474787
2.740106
2.5984393
2.5140289
2.4540827
2.4151521
2.3836992
2.3765359
2.3676456
2.3644538
2.3626545
2.3522534
2.3462167
2.337633
2.3223151
2.3100566
2.2849862
2.2437883
2.1912957
2.1201307
2.0328151
1.9194749
1.7833885
1.6237488
1.4310568
1.2052182
0.95007296
0.66869422
0.36022714
1e-05
1e-05
1e-05
1e-05
195.71742
218.44365
)
;
    }
    Front
    {
        type            wedge;
    }
    Back
    {
        type            wedge;
    }
    defaultFaces
    {
        type            empty;
    }
}


// ************************************************************************* //
