/*--------------------------------*- C++ -*----------------------------------*\
| =========                 |                                                 |
| \\      /  F ield         | OpenFOAM: The Open Source CFD Toolbox           |
|  \\    /   O peration     | Version:  4.0                                   |
|   \\  /    A nd           | Web:      www.OpenFOAM.org                      |
|    \\/     M anipulation  |                                                 |
\*---------------------------------------------------------------------------*/
FoamFile
{
    version     2.0;
    format      ascii;
    class       surfaceScalarField;
    location    "0.71";
    object      phi;
}
// * * * * * * * * * * * * * * * * * * * * * * * * * * * * * * * * * * * * * //

dimensions      [0 3 -1 0 0 0 0];

internalField   nonuniform List<scalar> 
3364
(
1.1911313e-10
1.6608067e-08
-7.9015788e-10
5.1639403e-08
8.520823e-08
-3.5177497e-10
1.6959808e-08
-1.0551143e-09
5.2342704e-08
8.4153076e-08
-8.1609448e-10
1.7775866e-08
3.5793493e-10
5.1168623e-08
8.4510983e-08
1.6115668e-10
1.761468e-08
1.0387207e-09
5.029102e-08
8.5549664e-08
1.0022564e-09
1.6612391e-08
1.1521611e-09
5.0141073e-08
8.6701775e-08
4.4574357e-10
1.6166605e-08
-6.6250868e-11
5.0653023e-08
8.6635472e-08
-4.5053775e-10
1.6617118e-08
-1.5780522e-09
5.1780487e-08
8.5057385e-08
-7.0931267e-10
1.7326395e-08
-3.6715337e-10
5.1438294e-08
8.46902e-08
-1.2569204e-10
1.7452041e-08
1.4577726e-10
5.1166785e-08
8.4835943e-08
1.1857876e-10
1.7333419e-08
-1.5788308e-09
5.2864165e-08
8.3257099e-08
7.6115555e-11
1.7257263e-08
-1.0736177e-09
5.4013887e-08
8.2183483e-08
-3.7645408e-10
1.7633695e-08
7.8171945e-10
5.285568e-08
8.2965182e-08
3.4120928e-11
1.7599535e-08
4.576871e-10
5.2432049e-08
8.3422829e-08
7.249977e-10
1.6874499e-08
4.3986685e-10
5.2717114e-08
8.3862664e-08
3.2002548e-10
1.6554437e-08
1.6536876e-09
5.1383421e-08
8.5516316e-08
-1.881541e-10
1.6742545e-08
1.4908471e-09
4.9704373e-08
8.7007127e-08
-3.5895683e-10
1.7101444e-08
-2.1789487e-10
4.956326e-08
8.6789196e-08
-2.8832205e-10
1.7389737e-08
-6.457443e-10
4.9920646e-08
8.6143417e-08
-1.009114e-10
1.7490633e-08
-1.3643661e-09
5.1184063e-08
8.4779008e-08
1.0887129e-11
1.7479714e-08
-1.4710687e-09
5.2665974e-08
8.3307888e-08
9.6844928e-11
1.7382838e-08
-1.3886336e-10
5.2901646e-08
8.3168977e-08
2.1646551e-10
1.7166345e-08
1.1023832e-09
5.2015696e-08
8.4271318e-08
6.1961923e-11
1.7104345e-08
1.5111265e-09
5.0566502e-08
8.5782405e-08
-1.9740213e-10
1.7301693e-08
8.5099438e-10
4.9518089e-08
8.6633373e-08
-2.2400553e-10
1.7525667e-08
-4.6523021e-11
4.9340618e-08
8.6586829e-08
-1.0249617e-11
1.7535921e-08
3.870119e-10
4.8943346e-08
8.6973805e-08
-3.7312926e-10
1.7909036e-08
8.1869296e-10
4.7751485e-08
8.7792459e-08
-4.0079907e-10
1.830979e-08
-3.8116488e-10
4.7731806e-08
8.7411268e-08
2.4957444e-10
1.8060228e-08
-1.3488542e-09
4.9330289e-08
8.6062416e-08
2.0351525e-09
1.6025286e-08
3.786846e-09
4.7578715e-08
8.9849246e-08
1.1622003e-08
4.4026532e-09
4.8596115e-08
1.0602728e-08
1.094434e-08
1.2749843e-07
4.8642903e-09
-4.621028e-10
1.684338e-08
-1.3778453e-09
-1.3321527e-09
2.9118007e-08
-3.7904785e-10
-8.3020307e-11
-1.4874548e-09
-2.693668e-10
-3.2398872e-10
-2.4955154e-09
-9.3315982e-11
1.0310873e-11
-3.8101126e-10
1.8364885e-11
2.1859609e-11
-7.2681962e-10
-5.5895333e-12
1.5902335e-11
-3.1892133e-11
4.4672636e-11
6.8135876e-11
-7.8163044e-11
2.8841932e-12
1.3018352e-11
9.7920963e-12
3.7765181e-11
6.0241184e-11
1.7687654e-11
2.8613166e-12
1.015724e-11
1.1224392e-11
2.9402524e-11
4.7557117e-11
2.3909331e-11
2.8155746e-12
7.3418205e-12
1.0603214e-11
2.1615099e-11
3.4491592e-11
2.3668932e-11
2.2803704e-12
5.0615443e-12
8.8912222e-12
1.5004369e-11
2.5017629e-11
1.8365328e-11
1.3024916e-12
3.7591498e-12
5.046816e-12
1.1260219e-11
1.8963521e-11
1.1101176e-11
6.0120303e-13
3.1580436e-12
2.3733798e-12
9.4882387e-12
1.5899509e-11
5.4376907e-12
3.2399008e-13
2.8341331e-12
1.2771307e-12
8.5352671e-12
1.4271719e-11
2.9051857e-12
2.8170534e-13
2.5524852e-12
1.1003498e-12
7.7167449e-12
1.2907552e-11
2.4647102e-12
2.7500311e-13
2.2775219e-12
1.0993283e-12
6.8925025e-12
1.1428863e-11
2.5781484e-12
2.7534555e-13
2.0022031e-12
1.1307337e-12
6.0371682e-12
1.0050417e-11
2.5092639e-12
2.5351948e-13
1.748702e-12
1.0365199e-12
5.2542033e-12
8.8499468e-12
2.2370456e-12
2.1565271e-13
1.5330623e-12
8.6479015e-13
4.60509e-12
7.794325e-12
1.9204494e-12
1.8438705e-13
1.3486839e-12
7.2024481e-13
4.0692476e-12
6.8789315e-12
1.6356625e-12
1.585906e-13
1.1900992e-12
6.1693412e-13
3.610913e-12
6.0891535e-12
1.406726e-12
1.371129e-13
1.0529901e-12
5.5050358e-13
3.1975262e-12
5.3868428e-12
1.2528198e-12
1.2071826e-13
9.3227375e-13
4.9314144e-13
2.8251033e-12
4.7381403e-12
1.141843e-12
1.1014389e-13
8.2213028e-13
4.5577649e-13
2.4794677e-12
4.1776052e-12
1.0163057e-12
9.9235399e-14
7.2289441e-13
3.9476945e-13
2.1839286e-12
3.6586907e-12
9.1367473e-13
8.9935777e-14
6.3295752e-13
3.6217976e-13
1.9116783e-12
3.198709e-12
8.2215005e-13
8.232193e-14
5.5063402e-13
3.3148081e-13
1.6625122e-12
2.7842622e-12
7.4591488e-13
7.494755e-14
4.7568457e-13
3.0102291e-13
1.4364291e-12
2.4063445e-12
6.7892712e-13
6.7553906e-14
4.0812858e-13
2.7129044e-13
1.2326846e-12
2.0651276e-12
6.1249359e-13
6.0389823e-14
3.4773658e-13
2.4230464e-13
1.0507618e-12
1.7611113e-12
5.4630725e-13
5.3456818e-14
2.9427756e-13
2.1500804e-13
8.892028e-13
1.4903959e-12
4.8571007e-13
4.715157e-14
2.4712383e-13
1.8950093e-13
7.4684594e-13
1.2527725e-12
4.2711159e-13
4.1101919e-14
2.0601982e-13
1.6515244e-13
6.2278833e-13
1.045145e-12
3.72768e-13
3.5506414e-14
1.7051144e-13
1.4258467e-13
5.1570346e-13
8.6606816e-13
3.2165033e-13
3.0351333e-14
1.4015827e-13
1.2189515e-13
4.2415353e-13
7.1308744e-13
2.7486563e-13
2.5619054e-14
1.1453751e-13
1.0291101e-13
3.4685596e-13
5.8391708e-13
2.3207204e-13
2.1290177e-14
9.3245785e-14
8.5525675e-14
2.8261538e-13
4.7652451e-13
1.929098e-13
1.7897103e-14
7.5347285e-14
7.1961226e-14
2.2854668e-13
3.8579564e-13
1.6268253e-13
1.4742581e-14
6.0603454e-14
5.9215096e-14
1.8407009e-13
3.115652e-13
1.3343882e-13
1.1933302e-14
4.8669046e-14
4.7928572e-14
1.480712e-13
2.5145053e-13
1.0803731e-13
9.5583738e-15
3.9109693e-14
3.842863e-14
1.1919776e-13
2.0321309e-13
8.666086e-14
7.5818549e-15
3.1526979e-14
3.0527981e-14
9.6248842e-14
1.6482052e-13
6.8915983e-14
5.8423126e-15
2.5683912e-14
2.3486992e-14
7.8601723e-14
1.3509743e-13
5.3206092e-14
4.4613914e-15
2.1221861e-14
1.7923809e-14
6.5137172e-14
1.1235058e-13
4.0667188e-14
3.3784256e-15
1.7842853e-14
1.3562044e-14
5.4951682e-14
9.5180273e-14
3.0729301e-14
2.5297286e-15
1.5312607e-14
1.0164677e-14
4.731508e-14
8.2348459e-14
2.2993801e-14
1.8492937e-15
1.3462846e-14
7.4670897e-15
4.1695801e-14
7.2786308e-14
1.7026829e-14
1.3789285e-15
1.2083484e-14
5.62571e-15
3.7447661e-14
6.5529262e-14
1.2880552e-14
1.0539019e-15
1.1029173e-14
4.3897003e-15
3.4110602e-14
5.9834796e-14
1.0082125e-14
8.4930122e-16
1.0179493e-14
3.5721201e-15
3.138662e-14
5.5209092e-14
8.1959569e-15
7.5941755e-16
9.419738e-15
2.9429327e-15
2.9202067e-14
5.154386e-14
6.6065167e-15
5.3752775e-16
2.0219031e-15
4.4686108e-15
1.3687719e-07
-9.3840505e-09
-8.6304639e-09
1.4550138e-07
2.1169126e-08
-1.4363637e-09
-1.3255133e-09
1.3863646e-08
-3.4983347e-09
-4.3341463e-10
-5.3423344e-10
-4.2894701e-09
-1.1361785e-09
-2.400092e-11
-9.4717023e-11
-1.5756301e-09
-1.6898096e-10
6.6828454e-11
5.9663907e-11
-3.233456e-10
6.6007928e-12
7.7918162e-11
9.0673309e-11
-2.4404965e-11
3.8681073e-11
6.3146996e-11
7.6532158e-11
5.2822611e-11
4.1148455e-11
4.5667464e-11
5.5022699e-11
6.2657632e-11
3.0229651e-11
3.3803224e-11
4.0020093e-11
4.5232212e-11
1.8026908e-11
2.6877783e-11
3.2072099e-11
2.5975187e-11
9.4480609e-12
2.2867797e-11
2.7882971e-11
1.3637633e-11
5.4924661e-12
2.0280867e-11
2.5283039e-11
8.0928215e-12
4.6306276e-12
1.811521e-11
2.3112335e-11
6.8016541e-12
4.4444109e-12
1.6249122e-11
2.0801176e-11
6.7557877e-12
4.4260932e-12
1.4332406e-11
1.8400417e-11
6.8269933e-12
4.0304496e-12
1.2539076e-11
1.6184125e-11
6.2468328e-12
3.4470035e-12
1.1012572e-11
1.4218767e-11
5.4124223e-12
2.9337444e-12
9.7145222e-12
1.2532392e-11
4.6201602e-12
2.5308193e-12
8.5904474e-12
1.1068593e-11
3.9946403e-12
2.2619746e-12
7.5812997e-12
9.8303143e-12
3.5002624e-12
2.0169154e-12
6.7062253e-12
8.6937019e-12
3.1535249e-12
1.8132668e-12
5.9092555e-12
7.6474736e-12
2.8594839e-12
1.6467662e-12
5.1761508e-12
6.6980704e-12
2.596152e-12
1.4926635e-12
4.5056208e-12
5.8410591e-12
2.3496534e-12
1.3351696e-12
3.9163477e-12
5.0587731e-12
2.117432e-12
1.2076681e-12
3.3875874e-12
4.3779818e-12
1.8884346e-12
1.0931065e-12
2.906955e-12
3.759484e-12
1.7115791e-12
9.7438924e-13
2.4788537e-12
3.2048162e-12
1.5290321e-12
8.6552737e-13
2.0990175e-12
2.7153848e-12
1.3549345e-12
7.6062076e-13
1.7654903e-12
2.2864293e-12
1.1895533e-12
6.6343163e-13
1.4748099e-12
1.9136089e-12
1.0362305e-12
5.7267416e-13
1.2237705e-12
1.5899767e-12
8.9628662e-13
4.8963397e-13
1.008988e-12
1.313196e-12
7.6639672e-13
4.1421221e-13
8.2683492e-13
1.0774878e-12
6.4990407e-13
3.4547914e-13
6.7425393e-13
8.7668935e-13
5.4626297e-13
2.8840968e-13
5.4851638e-13
7.1904028e-13
4.4604566e-13
2.3685579e-13
4.4509019e-13
5.8656769e-13
3.6931679e-13
1.9239007e-13
3.6072929e-13
4.7757931e-13
3.0136822e-13
1.5433323e-13
2.9304977e-13
3.8950516e-13
2.4239839e-13
1.2214357e-13
2.3981593e-13
3.1936555e-13
1.9227531e-13
9.6087994e-14
1.9692856e-13
2.6484404e-13
1.5060263e-13
7.318119e-14
1.6440979e-13
2.2297454e-13
1.1504469e-13
5.5123829e-14
1.4001109e-13
1.9104907e-13
8.7044061e-14
4.1232162e-14
1.2176904e-13
1.6699954e-13
6.5277055e-14
3.0764487e-14
1.0802808e-13
1.4882368e-13
4.8936198e-14
2.3330949e-14
9.7574661e-14
1.3496349e-13
3.718734e-14
1.8238344e-14
8.9415649e-14
1.2415856e-13
2.9039762e-14
1.4756291e-14
8.2852769e-14
1.1551815e-13
2.3393509e-14
1.1838592e-14
7.761847e-14
1.0870869e-13
1.8645287e-14
7.8984389e-15
1.2304447e-14
2.7415084e-12
-2.7457806e-12
6.0702184e-12
-3.3357787e-12
7.9737164e-12
-1.9051397e-12
6.3720474e-12
1.6033825e-12
-1.5544677e-13
6.5310947e-12
-1.2338151e-11
1.2187454e-11
-3.0493267e-11
1.8160593e-11
-5.4675005e-11
2.4187615e-11
-8.4586319e-11
2.9917358e-11
-1.1941663e-10
3.4836305e-11
-1.5799764e-10
3.8586794e-11
-1.9908839e-10
4.1096168e-11
-2.4149163e-10
4.2408205e-11
-2.8424797e-10
4.276073e-11
-3.2659709e-10
4.2352911e-11
-3.6789964e-10
4.130566e-11
-4.0750091e-10
3.9603748e-11
-4.4467656e-10
3.7177485e-11
-4.7880006e-10
3.412478e-11
-5.0897834e-10
3.0179056e-11
-5.3449035e-10
2.5512401e-11
-5.5481708e-10
2.0326831e-11
-5.6953777e-10
1.4720633e-11
-5.7817464e-10
8.6367013e-12
2.2536648e-12
-3.4862138e-11
3.2121452e-11
-7.742187e-11
3.9231746e-11
-1.3127534e-10
5.1957316e-11
-1.9953415e-10
6.9871578e-11
-2.8383901e-10
9.0845369e-11
-3.8515728e-10
1.1351496e-10
-5.039002e-10
1.369124e-10
-6.3993885e-10
1.6023468e-10
-7.9078383e-10
1.8077017e-10
-9.5363213e-10
1.9769177e-10
-1.1259163e-09
2.1087745e-10
-1.3049362e-09
2.2012184e-10
-1.4882549e-09
2.2573194e-10
-1.6740403e-09
2.2855056e-10
-1.8605016e-09
2.2881795e-10
-2.0467251e-09
2.2753218e-10
-2.2426708e-09
2.3555184e-10
-2.429905e-09
2.2441341e-10
-2.6003292e-09
2.0455001e-10
-2.7490168e-09
1.7886716e-10
-2.8725985e-09
1.490941e-10
-2.9683423e-09
1.1607009e-10
-3.0337912e-09
8.0168592e-11
-3.0651948e-09
4.0039021e-11
1.0283877e-11
-1.1028e-10
1.4241149e-10
-2.4502755e-10
1.7399486e-10
-4.1127038e-10
2.1821815e-10
-6.1330498e-10
2.7192475e-10
-8.5271705e-10
3.3027564e-10
-1.1298341e-09
3.9064922e-10
-1.4473727e-09
4.5446699e-10
-1.8671742e-09
5.8005059e-10
-2.322584e-09
6.3619262e-10
-2.7871831e-09
6.6230186e-10
-3.2470178e-09
6.7072148e-10
-3.6936073e-09
6.6671905e-10
-4.1207719e-09
6.5290279e-10
-4.5226206e-09
6.3040417e-10
-4.8931294e-09
5.9933033e-10
-5.2267204e-09
5.6112567e-10
-5.5080639e-09
5.1689672e-10
-5.7508367e-09
4.6718659e-10
-5.9593021e-09
4.1301494e-10
-6.1358024e-09
3.5536612e-10
-6.2826269e-09
2.9591646e-10
-6.400404e-09
2.3384447e-10
-6.4891867e-09
1.6894806e-10
-6.5507495e-09
1.0159815e-10
3.373561e-11
-3.5164188e-10
4.9407175e-10
-7.6131886e-10
5.8369939e-10
-1.247614e-09
7.0454335e-10
-2.0389188e-09
1.0632573e-09
-2.8945127e-09
1.1858936e-09
-3.7084276e-09
1.2045844e-09
-4.4316199e-09
1.1776758e-09
-4.9717592e-09
1.1202034e-09
-5.3770443e-09
1.0414887e-09
-5.6630708e-09
9.4833721e-10
-5.8451506e-09
8.5280819e-10
-5.9347874e-09
7.563613e-10
-5.9419084e-09
6.6002797e-10
-5.8689726e-09
5.5747141e-10
-5.7317929e-09
4.6215272e-10
-5.547398e-09
3.7673203e-10
-5.3327326e-09
3.0223204e-10
-5.1046871e-09
2.3914125e-10
-4.8792007e-09
1.875282e-10
-4.67082e-09
1.469846e-10
-4.4922398e-09
1.1733507e-10
-4.3500105e-09
9.1613778e-11
-4.2495341e-09
6.8469877e-11
-4.1941828e-09
4.6244752e-11
2.4904483e-11
-2.1958745e-09
2.6899749e-09
-3.9352939e-09
2.3231508e-09
-5.428795e-09
2.1980755e-09
-6.1021859e-09
1.7366707e-09
-6.1662635e-09
1.2499897e-09
-5.6943916e-09
7.3272747e-10
-4.9295725e-09
4.1286909e-10
-3.9378098e-09
1.2845099e-10
-2.7841398e-09
-1.1217259e-10
-1.5350902e-09
-3.0070546e-10
-2.972831e-10
-3.8499456e-10
9.356576e-10
-4.7658058e-10
2.2374388e-09
-6.4175465e-10
3.6499022e-09
-8.5499216e-10
5.0304866e-09
-9.1843009e-10
6.3391695e-09
-9.3194753e-10
7.5533725e-09
-9.1196584e-10
8.6585019e-09
-8.659812e-10
9.6444502e-09
-7.9841143e-10
1.0503467e-08
-7.1202168e-10
1.1228847e-08
-6.0803294e-10
1.1810122e-08
-4.8964814e-10
1.2237418e-08
-3.5881105e-10
1.2501574e-08
-2.1789591e-10
-6.524294e-11
1.0724899e-09
1.6175719e-09
4.2698481e-09
-8.7415483e-10
7.9864139e-09
-1.5184197e-09
1.1679297e-08
-1.9561833e-09
1.5403949e-08
-2.474638e-09
1.90573e-08
-2.9205956e-09
2.2648971e-08
-3.1787711e-09
2.6019635e-08
-3.2421762e-09
2.9079994e-08
-3.1724901e-09
3.181354e-08
-3.0342056e-09
3.4283561e-08
-2.8549668e-09
3.6450629e-08
-2.6435978e-09
3.8235166e-08
-2.4262378e-09
3.9600028e-08
-2.2198e-09
4.0686744e-08
-2.0050916e-09
4.1545879e-08
-1.7910273e-09
4.2217327e-08
-1.5833585e-09
4.27345e-08
-1.383099e-09
4.3126435e-08
-1.1902918e-09
4.3418528e-08
-1.0040606e-09
4.3632905e-08
-8.2235509e-10
4.3786365e-08
-6.4305395e-10
4.389097e-08
-4.6336245e-10
4.395384e-08
-2.8071308e-10
-8.9172218e-11
1.4943955e-07
-2.3193775e-09
1.4800811e-07
5.5820929e-10
1.4538442e-07
1.1060501e-09
1.4185154e-07
1.5773947e-09
1.3724642e-07
2.1310943e-09
1.3172502e-07
2.6013264e-09
1.25658e-07
2.8886967e-09
1.1943571e-07
2.9804924e-09
1.133262e-07
2.9373551e-09
1.0747637e-07
2.8159082e-09
1.0195508e-07
2.6665775e-09
9.6812276e-08
2.4994265e-09
9.2077208e-08
2.3090281e-09
8.774985e-08
2.1077358e-09
8.3840739e-08
1.9041803e-09
8.0346987e-08
1.7028699e-09
7.725757e-08
1.5061916e-09
7.4558838e-08
1.3157551e-09
7.2236764e-08
1.1318955e-09
7.0278772e-08
9.5403699e-10
6.867555e-08
7.8096526e-10
6.7421867e-08
6.1072256e-10
6.6518219e-08
4.4037397e-10
6.597038e-08
2.6720956e-10
8.5419934e-11
1.3157986e-08
-1.6135947e-09
1.5487585e-08
-1.7712761e-09
1.8126164e-08
-1.5324152e-09
2.086477e-08
-1.1611004e-09
2.3685192e-08
-6.8922127e-10
2.661032e-08
-3.2370033e-10
2.9536777e-08
-3.7668067e-11
3.2305775e-08
2.1158342e-10
3.4882825e-08
3.6039333e-10
3.7229982e-08
4.6883819e-10
3.9306727e-08
5.8991856e-10
4.0924441e-08
8.8179801e-10
4.2209279e-08
1.0242729e-09
4.3229789e-08
1.0873066e-09
4.4028279e-08
1.1057689e-09
4.4640803e-08
1.0904231e-09
4.5101233e-08
1.0458354e-09
4.5439003e-08
9.7805797e-10
4.5680297e-08
8.9067089e-10
4.5847976e-08
7.8642558e-10
4.5961547e-08
6.674592e-10
4.6036951e-08
5.3538185e-10
4.6085546e-08
3.9184077e-10
4.6114459e-08
2.3835616e-10
7.2414238e-11
-5.125664e-09
-7.7741094e-10
-5.8504999e-09
-1.0464494e-09
-6.2196242e-09
-1.1633006e-09
-6.16489e-09
-1.2158438e-09
-5.6437843e-09
-1.2103345e-09
-4.8079076e-09
-1.1595824e-09
-3.7610176e-09
-1.0845609e-09
-2.5569624e-09
-9.924717e-10
-1.3061062e-09
-8.9046029e-10
-5.1342159e-11
-7.8592092e-10
1.2206526e-09
-6.8206906e-10
2.6765987e-09
-5.7413856e-10
4.1704189e-09
-4.695356e-10
5.6313405e-09
-3.7360124e-10
7.0248441e-09
-2.8771896e-10
8.3280405e-09
-2.1275607e-10
9.5404784e-09
-1.6658384e-10
1.0647075e-08
-1.2851918e-10
1.1635391e-08
-9.7624728e-11
1.2495411e-08
-7.3573293e-11
1.3218611e-08
-5.5718484e-11
1.3796977e-08
-4.2962706e-11
1.4222707e-08
-3.38683e-11
1.4487209e-08
-2.6124695e-11
-1.6403998e-11
-2.1991085e-09
-1.5393282e-10
-3.0035872e-09
-2.4197252e-10
-3.840046e-09
-3.2684609e-10
-4.6497108e-09
-4.0618572e-10
-5.3724478e-09
-4.8760615e-10
-5.9082634e-09
-6.2377661e-10
-6.314355e-09
-6.7847975e-10
-6.6002712e-09
-7.0656623e-10
-6.7729838e-09
-7.1775842e-10
-6.8433139e-09
-7.1560135e-10
-6.8213666e-09
-7.0402641e-10
-6.7101488e-09
-6.8536585e-10
-6.5207584e-09
-6.5893484e-10
-6.2688507e-09
-6.2551705e-10
-5.9703277e-09
-5.8624918e-10
-5.6408089e-09
-5.4228147e-10
-5.3109509e-09
-4.964476e-10
-4.9917424e-09
-4.4773282e-10
-4.6930779e-09
-3.9629376e-10
-4.4245019e-09
-3.4215322e-10
-4.1948817e-09
-2.8534225e-10
-4.0119804e-09
-2.2586719e-10
-3.8820937e-09
-1.6375804e-10
-3.8090023e-09
-9.9218998e-11
-3.3499168e-11
-5.1919878e-10
4.1923791e-11
-7.6486373e-10
3.6955284e-12
-1.0558283e-09
-3.5879166e-11
-1.3877749e-09
-7.423771e-11
-1.7595255e-09
-1.1585506e-10
-2.2258943e-09
-1.5740843e-10
-2.7113907e-09
-1.929853e-10
-3.1968287e-09
-2.2113129e-10
-3.6730682e-09
-2.4152303e-10
-4.1332632e-09
-2.5541148e-10
-4.5716599e-09
-2.6563545e-10
-4.9829665e-09
-2.7406577e-10
-5.3579064e-09
-2.84002e-10
-5.6735823e-09
-3.0984851e-10
-5.9512877e-09
-3.0855148e-10
-6.1953438e-09
-2.9823336e-10
-6.4101234e-09
-2.8167598e-10
-6.5980803e-09
-2.5978415e-10
-6.7611023e-09
-2.3327991e-10
-6.9006631e-09
-2.0260055e-10
-7.0178279e-09
-1.6818561e-10
-7.1131124e-09
-1.3059083e-10
-7.1863141e-09
-9.0564425e-11
-7.2373804e-09
-4.8160712e-11
-1.0964541e-11
-7.5576959e-11
9.3097782e-11
-1.5224266e-10
8.0363245e-11
-2.5701353e-10
6.8893565e-11
-3.8549686e-10
5.4247202e-11
-5.3764258e-10
3.6291898e-11
-7.1307664e-10
1.802645e-11
-9.0503509e-10
-1.026504e-12
-1.1070444e-09
-1.9122151e-11
-1.3149276e-09
-3.3640334e-11
-1.526535e-09
-4.3805136e-11
-1.7394602e-09
-5.2711783e-11
-1.9541645e-09
-5.9363237e-11
-2.1743521e-09
-6.3816674e-11
-2.4180345e-09
-6.6168829e-11
-2.6600512e-09
-6.6537881e-11
-2.8930266e-09
-6.5261362e-11
-3.1121791e-09
-6.2527146e-11
-3.3136014e-09
-5.8365931e-11
-3.4939197e-09
-5.2965828e-11
-3.6500505e-09
-4.6474152e-11
-3.7792055e-09
-3.9035169e-11
-3.8789775e-09
-3.082345e-11
-3.9475146e-09
-2.2031927e-11
-3.9828827e-09
-1.2797178e-11
-3.4729909e-12
6.1543377e-11
8.4377623e-11
5.6308199e-11
8.5598907e-11
4.3101445e-11
8.2100674e-11
1.8463569e-11
7.888531e-11
-1.7573858e-11
7.2329437e-11
-6.351007e-11
6.3962651e-11
-1.1675729e-10
5.2220581e-11
-1.7903756e-10
4.3157862e-11
-2.4675763e-10
3.4079358e-11
-3.1664585e-10
2.6082591e-11
-3.8828285e-10
1.8924606e-11
-4.6074627e-10
1.309948e-11
-5.329892e-10
8.4254472e-12
-6.0433129e-10
5.1723473e-12
-6.7370869e-10
2.8385048e-12
-7.4006759e-10
1.096432e-12
-8.0247948e-10
-1.1645665e-13
-8.5997577e-10
-8.7091318e-13
-9.1164199e-10
-1.3009392e-12
-9.5659464e-10
-1.5228783e-12
-9.9402219e-10
-1.6090025e-12
-1.0232573e-09
-1.589771e-12
-1.0438205e-09
-1.4700436e-12
-1.0555031e-09
-1.1159451e-12
-3.3284521e-13
8.410678e-11
6.2928755e-11
1.0362809e-10
6.6077779e-11
1.1862545e-10
6.7103424e-11
1.3074354e-10
6.6767278e-11
1.3860243e-10
6.4470579e-11
1.4275913e-10
5.9805952e-11
1.408436e-10
5.4136096e-11
1.3596975e-10
4.8031695e-11
1.2835375e-10
4.1695327e-11
1.1953929e-10
3.4897001e-11
1.1042954e-10
2.8034306e-11
1.0076721e-10
2.2761754e-11
9.1503481e-11
1.7689117e-11
8.298143e-11
1.3694341e-11
7.5701509e-11
1.0118373e-11
6.9904422e-11
6.8934736e-12
6.54715e-11
4.3164306e-12
6.2158736e-11
2.441828e-12
5.9712751e-11
1.1450352e-12
5.7935337e-11
2.5453893e-13
5.6553609e-11
-2.2725618e-13
5.541273e-11
-4.4885829e-13
5.4425042e-11
-4.8230642e-13
5.3755407e-11
-4.462443e-13
-2.4620423e-13
6.2834624e-11
4.5326614e-11
8.009767e-11
4.8814956e-11
9.6566099e-11
5.0635179e-11
1.1252363e-10
5.0809907e-11
1.272353e-10
4.9759065e-11
1.3989298e-10
4.7148414e-11
1.5042533e-10
4.3603899e-11
1.5890895e-10
3.9548236e-11
1.652936e-10
3.5310841e-11
1.6973326e-10
3.0457509e-11
1.7188616e-10
2.5881585e-11
1.7319909e-10
2.1449013e-11
1.7469576e-10
1.6192648e-11
1.7647298e-10
1.1917327e-11
1.7843843e-10
8.1531404e-12
1.804323e-10
4.8998307e-12
1.8250093e-10
2.2480456e-12
1.8471326e-10
2.2974407e-13
1.8702148e-10
-1.1629209e-12
1.8924111e-10
-1.9648197e-12
1.9128025e-10
-2.2661134e-12
1.9297269e-10
-2.1410193e-12
1.9416326e-10
-1.6725919e-12
1.9470722e-10
-9.8991727e-13
-1.1941363e-13
3.5399617e-11
3.5902453e-11
4.4943089e-11
3.9271729e-11
5.3743379e-11
4.1835113e-11
6.2760521e-11
4.1792975e-11
7.1523259e-11
4.0996528e-11
7.92062e-11
3.9465669e-11
8.5482218e-11
3.7328076e-11
9.0202916e-11
3.4827731e-11
9.3328588e-11
3.2185362e-11
9.4391038e-11
2.9395251e-11
9.4190001e-11
2.6082812e-11
9.258074e-11
2.3058461e-11
8.9592455e-11
1.9181116e-11
8.6638645e-11
1.4871316e-11
8.3422003e-11
1.1369957e-11
7.9979961e-11
8.342043e-12
7.6601835e-11
5.6263381e-12
7.3422239e-11
3.4095031e-12
7.0553327e-11
1.7061485e-12
6.8105016e-11
4.8364466e-13
6.6155697e-11
-3.1664538e-13
6.477122e-11
-7.5639668e-13
6.4002685e-11
-9.0391679e-13
6.380136e-11
-7.8845863e-13
-4.0563663e-13
1.7639224e-11
3.1901091e-11
2.1607801e-11
3.5303372e-11
2.5768516e-11
3.7674606e-11
2.8229067e-11
3.9332621e-11
3.0610768e-11
3.8615015e-11
3.2411451e-11
3.7665167e-11
3.336631e-11
3.6373388e-11
3.334878e-11
3.4845424e-11
3.2467432e-11
3.3066864e-11
3.0798141e-11
3.1064685e-11
2.7876568e-11
2.9004518e-11
2.3818863e-11
2.7116285e-11
1.8971918e-11
2.4028168e-11
1.2999907e-11
2.0843421e-11
6.4531732e-12
1.791677e-11
-3.1972155e-13
1.5115003e-11
-6.6930603e-12
1.199973e-11
-1.2815579e-11
9.5320629e-12
-1.8575672e-11
7.4662713e-12
-2.3803446e-11
5.7114394e-12
-2.8366553e-11
4.2464746e-12
-3.2171006e-11
3.0480625e-12
-3.5183141e-11
2.1082178e-12
-3.738837e-11
1.4167663e-12
6.1467426e-13
1.0301961e-11
2.9692123e-11
1.2232628e-11
3.3372872e-11
1.3974977e-11
3.5932417e-11
1.5651426e-11
3.7656324e-11
1.540683e-11
3.8859754e-11
1.5136861e-11
3.7935267e-11
1.4156341e-11
3.7354029e-11
1.263955e-11
3.6362326e-11
1.0529828e-11
3.5176685e-11
7.8268203e-12
3.376778e-11
4.5792393e-12
3.2252175e-11
1.1530971e-12
3.054249e-11
-3.1702007e-12
2.8351515e-11
-8.2577347e-12
2.5930991e-11
-1.3968896e-11
2.3627954e-11
-1.9917996e-11
2.1064112e-11
-2.597794e-11
1.805967e-11
-3.1790289e-11
1.5344398e-11
-3.7379254e-11
1.3055211e-11
-4.2437532e-11
1.0769683e-11
-4.6815788e-11
8.62469e-12
-5.0319248e-11
6.5514764e-12
-5.2871509e-11
4.6604273e-12
-5.4303183e-11
2.8483874e-12
9.6482723e-13
8.9609202e-12
2.7532982e-11
1.1043946e-11
3.128997e-11
1.2727885e-11
3.4248596e-11
1.4145763e-11
3.6238558e-11
1.5534961e-11
3.7470662e-11
1.5419169e-11
3.8051157e-11
1.5150478e-11
3.7622809e-11
1.4344745e-11
3.7168139e-11
1.317064e-11
3.6350861e-11
1.1559691e-11
3.537879e-11
9.6496309e-12
3.4162285e-11
7.4994815e-12
3.269268e-11
4.8691516e-12
3.0981876e-11
1.7477354e-12
2.9052427e-11
-1.5531555e-12
2.6928855e-11
-5.0716099e-12
2.4582566e-11
-9.0263468e-12
2.2014398e-11
-1.3065813e-11
1.9383845e-11
-1.6804015e-11
1.6793387e-11
-2.0227548e-11
1.4193184e-11
-2.3204254e-11
1.1601357e-11
-2.5672045e-11
9.0192249e-12
-2.7468571e-11
6.4569075e-12
-2.8484996e-11
3.8647654e-12
1.2476233e-12
9.3359743e-12
2.4952885e-11
1.2153382e-11
2.8472652e-11
1.4636425e-11
3.1765642e-11
1.6824628e-11
3.405044e-11
1.8750163e-11
3.5545207e-11
2.0369556e-11
3.6431839e-11
2.1547664e-11
3.6444771e-11
2.2213272e-11
3.6502594e-11
2.2542622e-11
3.6021568e-11
2.2614217e-11
3.5307244e-11
2.2461244e-11
3.4315302e-11
2.2004915e-11
3.3149045e-11
2.1240651e-11
3.174617e-11
2.0210473e-11
3.0082627e-11
1.8961047e-11
2.8178296e-11
1.7480719e-11
2.6062902e-11
1.5731267e-11
2.376385e-11
1.3816822e-11
2.1298285e-11
1.1896055e-11
1.8714142e-11
1.0059065e-11
1.6030159e-11
8.3965412e-12
1.3263861e-11
6.9875155e-12
1.0428228e-11
5.8928336e-12
7.5515636e-12
5.1818654e-12
4.5757072e-12
1.4615721e-12
9.5791532e-12
2.2200787e-11
1.244932e-11
2.5602549e-11
1.5455019e-11
2.8760007e-11
1.8327054e-11
3.1178467e-11
2.0995237e-11
3.2877083e-11
2.3503792e-11
3.3923341e-11
2.5470907e-11
3.447771e-11
2.7352159e-11
3.4621392e-11
2.9131039e-11
3.4242733e-11
3.0485063e-11
3.3953262e-11
3.1580039e-11
3.3220363e-11
3.2473241e-11
3.2255875e-11
3.3159441e-11
3.1059998e-11
3.3580793e-11
2.9661299e-11
3.3763334e-11
2.7995774e-11
3.3740091e-11
2.6086159e-11
3.3552616e-11
2.3951335e-11
3.3194397e-11
2.1656509e-11
3.2698375e-11
1.9210164e-11
3.2123139e-11
1.6605392e-11
3.1530227e-11
1.3856767e-11
3.0998625e-11
1.0959822e-11
3.0634867e-11
7.9153103e-12
3.0399282e-11
4.8112813e-12
1.5854413e-12
8.8957781e-12
1.9551879e-11
1.1678148e-11
2.2820218e-11
1.4681953e-11
2.5756244e-11
1.7749225e-11
2.8111236e-11
2.0731584e-11
2.9894765e-11
2.3533273e-11
3.1121691e-11
2.6164226e-11
3.1846794e-11
2.8626423e-11
3.215923e-11
3.0741377e-11
3.2127811e-11
3.2819552e-11
3.1875116e-11
3.4792387e-11
3.1247555e-11
3.6471532e-11
3.0576754e-11
3.7945843e-11
2.9585708e-11
3.9244142e-11
2.8363018e-11
4.0322855e-11
2.6917076e-11
4.1194999e-11
2.5214027e-11
4.1965964e-11
2.3180379e-11
4.2531136e-11
2.1091342e-11
4.289402e-11
1.8847283e-11
4.3115398e-11
1.6384014e-11
4.3219588e-11
1.3752575e-11
4.3230129e-11
1.0949277e-11
4.3155068e-11
7.990366e-12
4.3149447e-11
4.8168964e-12
1.5264754e-12
7.7298828e-12
1.7234433e-11
1.026649e-11
2.028363e-11
1.3075538e-11
2.2947216e-11
1.5997846e-11
2.5188949e-11
1.8922305e-11
2.6970327e-11
2.1769778e-11
2.8274239e-11
2.4484974e-11
2.9131618e-11
2.7061045e-11
2.9583178e-11
2.9477538e-11
2.9711334e-11
3.1810776e-11
2.9541894e-11
3.3927294e-11
2.9131052e-11
3.5975973e-11
2.8528087e-11
3.7875787e-11
2.7685905e-11
3.9604742e-11
2.6634071e-11
4.117048e-11
2.5351345e-11
4.2537688e-11
2.3846823e-11
4.3696829e-11
2.202124e-11
4.474121e-11
2.0046962e-11
4.5645674e-11
1.7942818e-11
4.6394163e-11
1.5635522e-11
4.6955726e-11
1.3191008e-11
4.7426667e-11
1.0478331e-11
4.7901518e-11
7.5155091e-12
4.8056461e-11
4.6619473e-12
1.7076279e-12
6.5435679e-12
1.5311021e-11
8.8305279e-12
1.7996669e-11
1.1351271e-11
2.0426474e-11
1.4013567e-11
2.2526657e-11
1.6719654e-11
2.4264244e-11
1.9392348e-11
2.560155e-11
2.2013705e-11
2.6510265e-11
2.4546909e-11
2.7049978e-11
2.6983032e-11
2.7275215e-11
2.9316967e-11
2.7207961e-11
3.1540642e-11
2.6907378e-11
3.3689824e-11
2.6378906e-11
3.5693972e-11
2.5681757e-11
3.7613064e-11
2.4714978e-11
3.9400329e-11
2.3564078e-11
4.1026393e-11
2.2220755e-11
4.2417201e-11
2.0630427e-11
4.3684075e-11
1.8780083e-11
4.4830047e-11
1.6796839e-11
4.5805386e-11
1.4660176e-11
4.6581363e-11
1.2415023e-11
4.7138142e-11
9.9215442e-12
4.7394605e-11
7.2590364e-12
4.761806e-11
4.438484e-12
1.4898086e-12
5.6925898e-12
1.3613053e-11
7.6944694e-12
1.5994774e-11
9.9234759e-12
1.8197455e-11
1.2305166e-11
2.0144956e-11
1.4790445e-11
2.1778956e-11
1.7301722e-11
2.3090264e-11
1.9745313e-11
2.4066666e-11
2.21576e-11
2.4637683e-11
2.4521339e-11
2.4911468e-11
2.6802238e-11
2.4927054e-11
2.9017242e-11
2.4692367e-11
3.1158337e-11
2.4237802e-11
3.3252323e-11
2.3587762e-11
3.523189e-11
2.2735402e-11
3.709734e-11
2.1698617e-11
3.8774641e-11
2.0543444e-11
4.036886e-11
1.9036197e-11
4.1743252e-11
1.7405681e-11
4.2967569e-11
1.557251e-11
4.4060479e-11
1.3567254e-11
4.4999999e-11
1.1475492e-11
4.5703656e-11
9.2178758e-12
4.6197984e-11
6.7646971e-12
4.6506121e-11
4.1303375e-12
1.3496598e-12
5.0550891e-12
1.2058195e-11
6.839364e-12
1.4210473e-11
8.8456301e-12
1.6191165e-11
1.1004129e-11
1.7986436e-11
1.3281202e-11
1.9501863e-11
1.562726e-11
2.0744187e-11
1.800556e-11
2.168835e-11
2.0285417e-11
2.2357809e-11
2.2548379e-11
2.2648489e-11
2.4778506e-11
2.2696911e-11
2.6954519e-11
2.2516338e-11
2.9090131e-11
2.2102175e-11
3.1145244e-11
2.1532635e-11
3.3103821e-11
2.077681e-11
3.4968204e-11
1.9834219e-11
3.6816287e-11
1.8695347e-11
3.8442046e-11
1.7410424e-11
3.9913169e-11
1.5934543e-11
4.1197089e-11
1.4288577e-11
4.2294363e-11
1.2469967e-11
4.3269567e-11
1.0500275e-11
4.408214e-11
8.4052904e-12
4.4612202e-11
6.234623e-12
4.494674e-11
3.7957892e-12
1.1415824e-12
4.5351221e-12
1.067656e-11
6.1846193e-12
1.2560941e-11
8.0076869e-12
1.4368066e-11
1.0006127e-11
1.5987967e-11
1.2117008e-11
1.7390955e-11
1.4307363e-11
1.8553807e-11
1.6541237e-11
1.9454452e-11
1.8811134e-11
2.008789e-11
2.0987851e-11
2.0471751e-11
2.31544e-11
2.0530342e-11
2.5307367e-11
2.036335e-11
2.7440634e-11
1.9968889e-11
2.9442212e-11
1.9531038e-11
3.1359683e-11
1.8859321e-11
3.320396e-11
1.7989925e-11
3.4946988e-11
1.6952302e-11
3.6586217e-11
1.5771179e-11
3.8091239e-11
1.4429506e-11
3.944871e-11
1.2931091e-11
4.0639089e-11
1.1279575e-11
4.1655715e-11
9.4836358e-12
4.2508073e-11
7.5529208e-12
4.3188091e-11
5.554594e-12
4.36271e-11
3.3567697e-12
1.1777469e-12
4.1478308e-12
9.3881698e-12
5.6333088e-12
1.1075423e-11
7.3250351e-12
1.2676303e-11
9.1586841e-12
1.4154284e-11
1.1118817e-11
1.5430791e-11
1.3174277e-11
1.6498316e-11
1.5281618e-11
1.7347084e-11
1.7420493e-11
1.794899e-11
1.9584555e-11
1.8307664e-11
2.1726868e-11
1.8388006e-11
2.3875157e-11
1.8215038e-11
2.5812113e-11
1.8031912e-11
2.7742219e-11
1.7600912e-11
2.9619868e-11
1.6981653e-11
3.1413174e-11
1.6196601e-11
3.311394e-11
1.5251519e-11
3.471695e-11
1.4168153e-11
3.6199824e-11
1.2946617e-11
3.7542248e-11
1.1588653e-11
3.8725862e-11
1.0095948e-11
3.973288e-11
8.4766065e-12
4.0555994e-11
6.7297953e-12
4.1307303e-11
4.803275e-12
4.1656169e-11
3.0078954e-12
1.1008913e-12
3.7669465e-12
8.2173295e-12
5.1230388e-12
9.719288e-12
6.6692719e-12
1.113003e-11
8.3811897e-12
1.2442329e-11
1.0196075e-11
1.3615872e-11
1.2106073e-11
1.4588286e-11
1.4089838e-11
1.536329e-11
1.6108281e-11
1.5930518e-11
1.8148877e-11
1.6267042e-11
2.0269532e-11
1.6267328e-11
2.2201792e-11
1.6282755e-11
2.4085525e-11
1.6148158e-11
2.5937616e-11
1.57488e-11
2.7739881e-11
1.5179369e-11
2.9470604e-11
1.4465859e-11
3.1109861e-11
1.3612246e-11
3.264822e-11
1.2629778e-11
3.4068383e-11
1.152644e-11
3.5358735e-11
1.0298287e-11
3.6485739e-11
8.9689314e-12
3.744452e-11
7.5178144e-12
3.8205463e-11
5.9688434e-12
3.8657483e-11
4.351246e-12