/*--------------------------------*- C++ -*----------------------------------*\
| =========                 |                                                 |
| \\      /  F ield         | OpenFOAM: The Open Source CFD Toolbox           |
|  \\    /   O peration     | Version:  4.0                                   |
|   \\  /    A nd           | Web:      www.OpenFOAM.org                      |
|    \\/     M anipulation  |                                                 |
\*---------------------------------------------------------------------------*/
FoamFile
{
    version     2.0;
    format      ascii;
    class       volVectorField;
    location    "0.71";
    object      U;
}
// * * * * * * * * * * * * * * * * * * * * * * * * * * * * * * * * * * * * * //

dimensions      [0 1 -1 0 0 0 0];

internalField   nonuniform List<vector> 
1740
(
(1.5333454 0.0032879567 5.4183556e-06)
(1.5300102 -0.008147243 7.596089e-07)
(1.5685081 -0.0081680095 1.0639467e-07)
(1.5054488 -0.010053464 9.6112685e-06)
(1.6264962 -0.02176543 1.8224574e-06)
(1.561359 -0.012407121 2.6915172e-07)
(1.6104008 -0.02585438 1.1776178e-05)
(1.6126605 -0.0033362986 2.7254843e-06)
(1.5426636 -0.00018377094 4.1016487e-07)
(1.6783037 0.0035235271 1.3530534e-05)
(1.5139271 0.019436518 3.472732e-06)
(1.5446861 0.0097500563 6.0727419e-07)
(1.5836955 0.026673193 1.5413463e-05)
(1.5672583 0.037340464 4.3196527e-06)
(1.594261 0.012380335 7.4459745e-07)
(1.4866036 0.013225498 1.6534158e-05)
(1.5373294 0.0080126848 5.2909759e-06)
(1.6499427 0.0029993284 9.5316825e-07)
(1.470071 -0.016459127 1.7284606e-05)
(1.5723394 -0.027266188 5.7399725e-06)
(1.5752748 -0.016847878 1.1592147e-06)
(1.5833776 -0.019654403 1.7983351e-05)
(1.6024603 -0.018945949 6.6173165e-06)
(1.5006721 -0.0041265532 1.3510058e-06)
(1.5839444 -0.0047041204 1.8453362e-05)
(1.5131099 -0.00064329755 7.2356713e-06)
(1.5704472 0.00071038173 1.5263973e-06)
(1.5940671 0.0037042363 1.8894509e-05)
(1.5848203 -0.022703365 7.6628331e-06)
(1.5620496 -0.020695961 1.7444784e-06)
(1.6052689 0.0013884189 1.9503275e-05)
(1.6773302 -0.016524814 8.4185797e-06)
(1.4943519 -0.016375273 1.9052942e-06)
(1.5577204 -0.012922855 1.9692987e-05)
(1.6377413 0.0045859267 9.0759749e-06)
(1.5123583 0.0016383359 2.1609011e-06)
(1.6560316 0.0039697829 2.0074719e-05)
(1.5700341 0.0095245476 9.6292034e-06)
(1.5303312 0.0035469086 2.3655646e-06)
(1.5979106 0.020116666 2.04662e-05)
(1.6285498 0.02618942 1.0188323e-05)
(1.536823 0.0012062895 2.5629747e-06)
(1.4999024 0.010501692 2.0543941e-05)
(1.6112867 0.028753478 1.066789e-05)
(1.5171514 0.018886071 2.7481164e-06)
(1.5097207 -0.0073094892 2.0618647e-05)
(1.5157047 0.018599888 1.1086298e-05)
(1.6068019 0.015571464 2.9077688e-06)
(1.5310962 -0.015441011 2.0926244e-05)
(1.5024167 -0.0083016161 1.1499543e-05)
(1.6001611 -0.0024051072 3.1473898e-06)
(1.6347844 -0.01340811 2.151792e-05)
(1.5389031 -0.016272262 1.1830586e-05)
(1.5827143 -0.010174857 3.2881652e-06)
(1.6020514 -0.0011163822 2.1832502e-05)
(1.5470162 -0.023803558 1.2282486e-05)
(1.615043 -0.01341506 3.5093635e-06)
(1.5678743 -0.00083842595 2.1851253e-05)
(1.5646411 -0.019882661 1.2562685e-05)
(1.4825508 -0.012580736 3.6774697e-06)
(1.620587 0.0041920238 2.190443e-05)
(1.6322317 0.0047380613 1.2936365e-05)
(1.5330422 -0.00020577317 3.8344393e-06)
(1.6068767 0.0097581611 2.2068133e-05)
(1.6290268 0.020918255 1.3314383e-05)
(1.5429474 0.011759947 3.9641097e-06)
(1.5491379 0.0073256353 2.2231311e-05)
(1.5529714 0.01886945 1.3571226e-05)
(1.5526002 0.013392862 4.1161219e-06)
(1.525988 -0.0041605203 2.2421806e-05)
(1.496041 0.0034866278 1.3808248e-05)
(1.57111 0.0039379139 4.2735257e-06)
(1.6410347 -0.011362006 2.2680051e-05)
(1.5201379 -0.0048155368 1.4215833e-05)
(1.5915116 0.00068552823 4.3972798e-06)
(1.5965579 -0.0033541593 2.2462361e-05)
(1.5021426 0.0040285426 1.4432572e-05)
(1.588534 0.0063061206 4.5598842e-06)
(1.5622179 -0.0086489448 2.2001793e-05)
(1.4486253 0.0038390621 1.4696301e-05)
(1.5529814 0.0065499009 4.665785e-06)
(1.624773 -0.0065095531 2.220511e-05)
(1.4053343 -0.013488176 1.4944022e-05)
(1.6263238 -0.0094101631 4.8292998e-06)
(1.5587876 0.011364998 2.2002153e-05)
(1.3714915 -0.017832151 1.5122863e-05)
(1.5338518 -0.013855366 4.8594681e-06)
(1.3507907 0.054520228 2.3470554e-05)
(1.2689366 0.090369296 1.5709205e-05)
(1.3839833 0.046245915 5.504785e-06)
(0.83883919 0.37387615 1.1837335e-05)
(0.80495371 0.93644464 9.9502352e-06)
(0.75950054 1.2573838 5.3782153e-06)
(0.2266558 0.1120134 1.5534731e-06)
(0.18539761 0.3654519 3.0573714e-06)
(0.092347902 0.49782757 6.85047e-07)
(-0.025226866 -0.013286721 1.2166243e-06)
(-0.025602017 -0.028185485 1.6651972e-06)
(-0.016177271 -0.032984185 5.6027393e-07)
(-0.0034403232 -0.0027223975 4.4468225e-07)
(-0.0040408438 -0.0075496913 7.1462391e-07)
(-0.0035141857 -0.010029665 3.0695573e-07)
(0.0010586116 -0.00010339992 1.1547153e-07)
(0.00081609572 -0.00056791289 2.2679399e-07)
(0.00069961279 -0.0008627201 8.1940241e-08)
(0.0011276247 8.9160606e-05 1.9526646e-08)
(0.0010569572 0.00018435646 3.8941925e-08)
(0.00097985103 0.00028095329 -3.2086231e-08)
(0.00098264442 8.0925903e-05 -9.5577044e-09)
(0.00095113545 0.00019159693 -2.7677237e-08)
(0.00088600097 0.0003085192 -7.653324e-08)
(0.0007729996 8.3358057e-05 -1.8693371e-08)
(0.00075636654 0.00019702071 -4.8217015e-08)
(0.00071887228 0.00030229069 -8.7173001e-08)
(0.00057751339 6.6138086e-05 -1.8817839e-08)
(0.00057019614 0.00016534378 -4.8979645e-08)
(0.00055082358 0.00024451393 -8.1500389e-08)
(0.00043344828 3.7983909e-05 -1.5722958e-08)
(0.00043107255 9.2041255e-05 -4.2337773e-08)
(0.00042220272 0.00014671155 -6.9488026e-08)
(0.00034121983 1.787351e-05 -1.2267152e-08)
(0.00034107481 4.3263625e-05 -3.4251279e-08)
(0.00033725971 7.2940729e-05 -5.6565651e-08)
(0.00028513236 9.8501572e-06 -9.5894453e-09)
(0.0002860234 2.3910464e-05 -2.7175264e-08)
(0.00028472698 4.0376332e-05 -4.5111037e-08)
(0.00024723076 8.4599172e-06 -7.6073213e-09)
(0.00024861693 2.0429958e-05 -2.1501501e-08)
(0.00024876085 3.3629365e-05 -3.5668154e-08)
(0.00021746355 8.0978904e-06 -6.0567127e-09)
(0.00021900938 1.9946591e-05 -1.6970228e-08)
(0.00021986671 3.3276991e-05 -2.8009056e-08)
(0.00019175619 8.0269995e-06 -4.7968133e-09)
(0.00019326615 2.019087e-05 -1.3289247e-08)
(0.0001943771 3.2653641e-05 -2.1787549e-08)
(0.00016885614 7.3848932e-06 -3.7320578e-09)
(0.00017023939 1.8447529e-05 -1.0250185e-08)
(0.00017138879 2.926677e-05 -1.6714472e-08)
(0.0001486687 6.2951635e-06 -2.8374888e-09)
(0.00014990829 1.5443798e-05 -7.7513906e-09)
(0.0001510183 2.4804417e-05 -1.2599394e-08)
(0.00013115646 5.4242469e-06 -2.1177759e-09)
(0.00013225756 1.2964172e-05 -5.7387141e-09)
(0.00013329605 2.0955576e-05 -9.3130888e-09)
(0.000115983 4.6485409e-06 -1.5347072e-09)
(0.00011694528 1.116549e-05 -4.1587004e-09)
(0.00011787563 1.7939605e-05 -6.7467548e-09)
(0.00010267675 4.0069118e-06 -1.095105e-09)
(0.00010349883 9.811974e-06 -2.9587577e-09)
(0.00010429261 1.5907089e-05 -4.7949969e-09)
(9.0837227e-05 3.5415757e-06 -7.7386911e-10)
(9.1529937e-05 8.691355e-06 -2.070234e-09)
(9.2183229e-05 1.4554111e-05 -3.3468137e-09)
(8.0180026e-05 3.2397062e-06 -5.4565366e-10)
(8.0765693e-05 8.1027189e-06 -1.4291699e-09)
(8.1294703e-05 1.3155383e-05 -2.2963912e-09)
(7.0526517e-05 2.918252e-06 -3.7779247e-10)
(7.1023384e-05 7.0920711e-06 -9.7316797e-10)
(7.1453709e-05 1.1675403e-05 -1.550317e-09)
(6.1765318e-05 2.6436744e-06 -2.6051086e-10)
(6.218413e-05 6.4701872e-06 -6.5448709e-10)
(6.2538071e-05 1.0577563e-05 -1.0311751e-09)
(5.3815806e-05 2.4243003e-06 -1.7991742e-10)
(5.4169872e-05 5.92267e-06 -4.3602745e-10)
(5.4462769e-05 9.6218088e-06 -6.7636024e-10)
(4.6624575e-05 2.208928e-06 -1.2604491e-10)
(4.6926731e-05 5.3866488e-06 -2.8993985e-10)
(4.7172734e-05 8.7463206e-06 -4.3924099e-10)
(4.0152236e-05 1.9923453e-06 -9.0198565e-11)
(4.0411619e-05 4.8557747e-06 -1.9377932e-10)
(4.0621145e-05 7.8829685e-06 -2.8366394e-10)
(3.4359771e-05 1.7803384e-06 -6.6938656e-11)
(3.4582665e-05 4.3399821e-06 -1.317782e-10)
(3.4762838e-05 7.0398677e-06 -1.8362366e-10)
(2.9208653e-05 1.5724841e-06 -5.1704522e-11)
(2.9400691e-05 3.8470239e-06 -9.2368388e-11)
(2.955822e-05 6.2591147e-06 -1.2056432e-10)
(2.4661821e-05 1.3872458e-06 -4.2606212e-11)
(2.4828264e-05 3.3951637e-06 -6.7744904e-11)
(2.4969239e-05 5.5089864e-06 -8.1284873e-11)
(2.0681403e-05 1.2063564e-06 -3.6246973e-11)
(2.0826609e-05 2.9577313e-06 -5.1812287e-11)
(2.0955398e-05 4.8053966e-06 -5.6999054e-11)
(1.722801e-05 1.0382418e-06 -3.2260058e-11)
(1.7355345e-05 2.5541063e-06 -4.1938057e-11)
(1.7474684e-05 4.1464768e-06 -4.2217785e-11)
(1.4260162e-05 8.8450307e-07 -2.9798523e-11)
(1.4372371e-05 2.1845323e-06 -3.5865321e-11)
(1.4484005e-05 3.5438928e-06 -3.3407277e-11)
(1.1732979e-05 7.4355461e-07 -2.8318393e-11)
(1.183244e-05 1.8452457e-06 -3.2162454e-11)
(1.1937696e-05 2.9919383e-06 -2.8264548e-11)
(9.5985719e-06 6.1468526e-07 -2.7395901e-11)
(9.687306e-06 1.5343773e-06 -2.9827271e-11)
(9.7872603e-06 2.4874179e-06 -2.531373e-11)
(7.8098597e-06 5.1422003e-07 -2.6759564e-11)
(7.8895611e-06 1.2912239e-06 -2.8192792e-11)
(7.9850035e-06 2.0954664e-06 -2.3543245e-11)
(6.3252586e-06 4.2095281e-07 -2.6348164e-11)
(6.3972465e-06 1.0635618e-06 -2.7100405e-11)
(6.4885001e-06 1.7206946e-06 -2.2522733e-11)
(5.1087454e-06 3.3803832e-07 -2.6078347e-11)
(5.1740297e-06 8.6173715e-07 -2.6340711e-11)
(5.2610513e-06 1.3933462e-06 -2.1934122e-11)
(4.1260658e-06 2.6820615e-07 -2.5930779e-11)
(4.1855518e-06 6.917361e-07 -2.5823052e-11)
(4.2683135e-06 1.1182922e-06 -2.1632147e-11)
(3.3431389e-06 2.1035866e-07 -2.5838847e-11)
(3.3976453e-06 5.5009536e-07 -2.5453131e-11)
(3.4762116e-06 8.8886115e-07 -2.1503874e-11)
(2.7276546e-06 1.5976598e-07 -2.5594555e-11)
(2.7778528e-06 4.237293e-07 -2.5032027e-11)
(2.8523098e-06 6.8482516e-07 -2.1389582e-11)
(2.2507959e-06 1.1997923e-07 -2.5478138e-11)
(2.2972619e-06 3.2410848e-07 -2.4766729e-11)
(2.367736e-06 5.2327229e-07 -2.1391757e-11)
(1.8877022e-06 8.9076345e-08 -2.5493547e-11)
(1.9309837e-06 2.4602541e-07 -2.4665208e-11)
(1.9976905e-06 3.9582844e-07 -2.1489903e-11)
(1.617173e-06 6.5186389e-08 -2.5554431e-11)
(1.6577674e-06 1.84913e-07 -2.4643822e-11)
(1.7209876e-06 2.9650314e-07 -2.1623818e-11)
(1.4207291e-06 4.6303165e-08 -2.5539494e-11)
(1.4590794e-06 1.3561349e-07 -2.4573217e-11)
(1.519148e-06 2.1872024e-07 -2.1715723e-11)
(1.2807846e-06 3.3668539e-08 -2.5703233e-11)
(1.3173068e-06 1.0197556e-07 -2.4679325e-11)
(1.3746382e-06 1.6520862e-07 -2.1794364e-11)
(1.1773934e-06 2.5375788e-08 -2.5860718e-11)
(1.2124939e-06 7.9176973e-08 -2.4675126e-11)
(1.2676127e-06 1.2926947e-07 -2.1574677e-11)
(1.0966034e-06 2.0747737e-08 -2.580298e-11)
(1.1307064e-06 6.4262354e-08 -2.4080998e-11)
(1.1842151e-06 1.0511723e-07 -2.0541944e-11)
(9.8341631e-07 1.9585535e-08 -2.5133226e-11)
(1.016742e-06 5.425283e-08 -2.1922578e-11)
(1.0695406e-06 8.5313997e-08 -1.7781839e-11)
(8.9168749e-07 1.466071e-08 -2.2241329e-11)
(9.2465713e-07 3.7562457e-08 -1.5882587e-11)
(9.7742466e-07 5.8126702e-08 -1.1694505e-11)
(-0.045004183 1.9553278 -3.7936019e-07)
(-0.032424472 1.698492 -3.4624786e-06)
(-0.058981039 0.34280563 -2.5282469e-07)
(-0.041978152 0.15298021 -1.0097008e-06)
(-0.013111054 -0.040127511 -2.2652526e-07)
(-0.01065738 -0.042364168 -6.5142577e-07)
(-0.0037373353 -0.01236171 -1.3788757e-07)
(-0.0039406599 -0.013982986 -4.3657134e-07)
(0.00028019978 -0.0014921292 -1.387083e-07)
(-0.00017887102 -0.0024391948 -3.2526833e-07)
(0.000860823 0.0002004809 -1.4887732e-07)
(0.00068723541 -4.0766016e-05 -2.6286876e-07)
(0.00079953835 0.0004152123 -1.4716681e-07)
(0.00073131126 0.0004743075 -2.1994035e-07)
(0.00067367441 0.00041581352 -1.3518888e-07)
(0.00062648266 0.00052615685 -1.8465582e-07)
(0.00052635295 0.00030809727 -1.1716062e-07)
(0.00049601059 0.00037593064 -1.5294808e-07)
(0.00040938955 0.00018895562 -9.731526e-08)
(0.00039103358 0.00022118721 -1.2444141e-07)
(0.00033076124 9.8459995e-05 -7.8685403e-08)
(0.00032019028 0.00011572678 -9.9802984e-08)
(0.00028170436 5.6713015e-05 -6.2656805e-08)
(0.00027587529 6.8941113e-05 -7.9223813e-08)
(0.00024783198 4.7506229e-05 -4.9446097e-08)
(0.00024470316 5.8131188e-05 -6.2397188e-08)
(0.00022003418 4.7495981e-05 -3.8705777e-08)
(0.00021847938 5.7946767e-05 -4.8746452e-08)
(0.00019504139 4.5241502e-05 -2.9994877e-08)
(0.00019451815 5.6830271e-05 -3.7697678e-08)
(0.0001723278 3.9885716e-05 -2.2937295e-08)
(0.00017249495 5.2154402e-05 -2.877586e-08)
(0.00015209204 3.4288549e-05 -1.7255588e-08)
(0.00015264809 4.4862294e-05 -2.1621792e-08)
(0.00013435904 2.9241152e-05 -1.2743376e-08)
(0.00013506423 3.8142282e-05 -1.5959744e-08)
(0.00011883804 2.5270609e-05 -9.2302812e-09)
(0.00011954648 3.3055653e-05 -1.1559635e-08)
(0.00010512694 2.2610735e-05 -6.5578574e-09)
(0.00010577557 2.9186422e-05 -8.2122383e-09)
(9.2885143e-05 2.0428972e-05 -4.5724625e-09)
(9.3455818e-05 2.6144859e-05 -5.7234533e-09)
(8.1869834e-05 1.8288117e-05 -3.1304935e-09)
(8.2359782e-05 2.3608248e-05 -3.9146104e-09)
(7.1919081e-05 1.6544592e-05 -2.1058473e-09)
(7.2328537e-05 2.144144e-05 -2.6287509e-09)
(6.2919159e-05 1.4964565e-05 -1.3930275e-09)
(6.3258598e-05 1.9416796e-05 -1.7340619e-09)
(5.4784592e-05 1.3452588e-05 -9.0702637e-10)
(5.5074277e-05 1.7444394e-05 -1.124634e-09)
(4.744808e-05 1.2197937e-05 -5.8261718e-10)
(4.7704805e-05 1.5645444e-05 -7.1798568e-10)
(4.085597e-05 1.0977498e-05 -3.6987447e-10)
(4.1084153e-05 1.4143708e-05 -4.518278e-10)
(3.4964833e-05 9.817142e-06 -2.3315731e-10)
(3.5166139e-05 1.2643811e-05 -2.8078817e-10)
(2.9736726e-05 8.7290268e-06 -1.471201e-10)
(2.9918379e-05 1.1213324e-05 -1.7310558e-10)
(2.5131952e-05 7.6742379e-06 -9.3819937e-11)
(2.5302371e-05 9.8498888e-06 -1.0657641e-10)
(2.1107259e-05 6.6967671e-06 -6.133829e-11)
(2.1271373e-05 8.5857379e-06 -6.6226906e-11)
(1.7618466e-05 5.7766881e-06 -4.1823765e-11)
(1.7778432e-05 7.4204573e-06 -4.223116e-11)
(1.4621267e-05 4.9374605e-06 -3.0395101e-11)
(1.4777918e-05 6.3427324e-06 -2.8267067e-11)
(1.2069506e-05 4.173904e-06 -2.3903651e-11)
(1.2223154e-05 5.3731905e-06 -2.0439528e-11)
(9.9145095e-06 3.4775677e-06 -2.0361782e-11)
(1.0065466e-05 4.5020742e-06 -1.6266135e-11)
(8.1082861e-06 2.9133402e-06 -1.8463838e-11)
(8.2566797e-06 3.7098832e-06 -1.4178082e-11)
(6.6078316e-06 2.3913747e-06 -1.7504044e-11)
(6.7532228e-06 3.0619429e-06 -1.3222088e-11)
(5.3759826e-06 1.9399994e-06 -1.7075912e-11)
(5.5174127e-06 2.4945197e-06 -1.2897409e-11)
(4.3783992e-06 1.5562276e-06 -1.6973891e-11)
(4.5148833e-06 2.0028555e-06 -1.2937195e-11)
(3.5812145e-06 1.2338275e-06 -1.7065484e-11)
(3.7121475e-06 1.5884549e-06 -1.3190803e-11)
(2.9521584e-06 9.6440267e-07 -1.7236601e-11)
(3.0772463e-06 1.2470579e-06 -1.3540256e-11)
(2.4624573e-06 7.3540422e-07 -1.7453035e-11)
(2.5815588e-06 9.5078017e-07 -1.3914435e-11)
(2.0874116e-06 5.5424882e-07 -1.7716553e-11)
(2.2005402e-06 7.1759268e-07 -1.4305005e-11)
(1.8059705e-06 4.1447699e-07 -1.7971336e-11)
(1.9133371e-06 5.3735208e-07 -1.4646765e-11)
(1.5997818e-06 3.0822118e-07 -1.8160195e-11)
(1.7017986e-06 4.0198747e-07 -1.4893353e-11)
(1.4514523e-06 2.3351613e-07 -1.8211342e-11)
(1.5487336e-06 3.0522118e-07 -1.4943567e-11)
(1.3413187e-06 1.8272016e-07 -1.7864841e-11)
(1.4347271e-06 2.3853099e-07 -1.457167e-11)
(1.2556552e-06 1.4819915e-07 -1.6674208e-11)
(1.346237e-06 1.92767e-07 -1.3418147e-11)
(1.1400869e-06 1.1916863e-07 -1.3948767e-11)
(1.229627e-06 1.5408436e-07 -1.0984518e-11)
(1.0480744e-06 7.9918502e-08 -8.7127572e-12)
(1.1378524e-06 1.0185787e-07 -6.6607393e-12)
(-0.0039494839 2.9741139e-05 -1.2127775e-07)
(-0.0039087868 2.0945852e-05 -2.8781651e-07)
(-0.0037994958 5.5013944e-05 -4.0768963e-07)
(-0.0036334079 3.5642277e-05 -4.8388858e-07)
(-0.0034254218 1.7478513e-05 -5.2571515e-07)
(-0.0031926244 -2.8092504e-05 -5.4374089e-07)
(-0.0029484047 -8.4543514e-05 -5.458689e-07)
(-0.0027014914 -0.00015511012 -5.3761317e-07)
(-0.0024572082 -0.00023589743 -5.2282545e-07)
(-0.0022194628 -0.000321619 -5.0418285e-07)
(-0.0019912663 -0.00040921212 -4.8355506e-07)
(-0.0017749396 -0.00049519241 -4.6208859e-07)
(-0.001572057 -0.00057631162 -4.4035903e-07)
(-0.0013832044 -0.00065088092 -4.1850171e-07)
(-0.001208346 -0.00071777248 -3.9639871e-07)
(-0.0010470412 -0.00077603636 -3.7377873e-07)
(-0.00089865248 -0.00082685039 -3.5024254e-07)
(-0.00076235933 -0.00086945277 -3.2521012e-07)
(-0.00063680527 -0.00090296227 -2.9803789e-07)
(-0.00052071819 -0.00092750687 -2.6797861e-07)
(-0.0004127219 -0.00094071147 -2.3422963e-07)
(-0.00031161509 -0.00094538249 -1.9557459e-07)
(-0.00021641899 -0.00093944634 -1.5097956e-07)
(-0.00012648746 -0.00093125588 -9.9866631e-08)
(-4.1200993e-05 -0.00088488612 -4.151235e-08)
(0.0001286704 -8.4805701e-05 -1.3717217e-07)
(0.00015114419 -0.0004177554 -3.2123241e-07)
(0.00019452703 -0.00059748698 -4.468231e-07)
(0.00024362714 -0.00089587793 -5.2001262e-07)
(0.00029358836 -0.0011590633 -5.5538295e-07)
(0.00034036226 -0.0014572688 -5.6700914e-07)
(0.00038155201 -0.0017595267 -5.6379635e-07)
(0.00041431506 -0.002085101 -5.5146447e-07)
(0.0004328473 -0.0024272903 -5.33648e-07)
(0.00043817982 -0.0027595436 -5.1273055e-07)
(0.00043261919 -0.0030784132 -4.90531e-07)
(0.00041836267 -0.0033811914 -4.6805709e-07)
(0.00039762655 -0.0036634379 -4.4575571e-07)
(0.00037242482 -0.0039233381 -4.2360594e-07)
(0.00034387735 -0.0041599828 -4.0139845e-07)
(0.00031285743 -0.0043749016 -3.7883036e-07)
(0.00028017781 -0.0045794607 -3.5555601e-07)
(0.00024659799 -0.0047671596 -3.3086196e-07)
(0.00021223134 -0.0049144896 -3.0414351e-07)
(0.00017708394 -0.0050136549 -2.7457861e-07)
(0.00014204425 -0.0050623775 -2.4171025e-07)
(0.00010753115 -0.0050634914 -2.0356967e-07)
(7.3850173e-05 -0.0050203205 -1.5877642e-07)
(4.1424031e-05 -0.004918511 -1.0560999e-07)
(1.1341809e-05 -0.0046952587 -4.5659834e-08)
(0.00084782429 -0.00027235764 -1.7534322e-07)
(0.00092638617 -0.0014015904 -3.9606987e-07)
(0.0010494601 -0.0018912919 -5.2915902e-07)
(0.0011778356 -0.0027848308 -5.9160759e-07)
(0.0012785042 -0.0035408039 -6.1242747e-07)
(0.0013400837 -0.0043411207 -6.1106302e-07)
(0.0013615775 -0.0051341314 -5.9738909e-07)
(0.0013481367 -0.006072676 -5.7748052e-07)
(0.0013097072 -0.0071274751 -5.5421989e-07)
(0.0012523241 -0.0080991647 -5.2907381e-07)
(0.0011824257 -0.0089466593 -5.0407792e-07)
(0.0011039811 -0.0096665224 -4.7988472e-07)
(0.0010201627 -0.010257596 -4.5675254e-07)
(0.00093251444 -0.010728195 -4.3427881e-07)
(0.00084288963 -0.011084813 -4.120798e-07)
(0.00075266212 -0.011329225 -3.8977631e-07)
(0.00066307996 -0.011453573 -3.6744972e-07)
(0.0005748923 -0.011475588 -3.4367938e-07)
(0.00048834801 -0.011424099 -3.1831316e-07)
(0.00040368746 -0.011314923 -2.9054935e-07)
(0.0003227122 -0.011158386 -2.5943676e-07)
(0.00024467739 -0.010963319 -2.2341148e-07)
(0.00016934967 -0.010736118 -1.8033055e-07)
(9.7148478e-05 -0.010447227 -1.2653049e-07)
(2.989951e-05 -0.010049923 -6.19997e-08)
(0.003233285 -0.00095911438 -2.5774722e-07)
(0.0033784801 -0.0045150587 -5.3511646e-07)
(0.0034755585 -0.0058200288 -6.6476853e-07)
(0.0034099762 -0.0090631084 -7.0010981e-07)
(0.0032668872 -0.011967325 -6.9527875e-07)
(0.0030478881 -0.014540521 -6.7370719e-07)
(0.002793829 -0.016362174 -6.4460103e-07)
(0.0025246741 -0.017327858 -6.1509499e-07)
(0.0022606596 -0.017616174 -5.856799e-07)
(0.0020054792 -0.017481966 -5.5467583e-07)
(0.0017715071 -0.017034063 -5.2621935e-07)
(0.0015564385 -0.016392976 -4.9988425e-07)
(0.0013580487 -0.015576319 -4.7611851e-07)
(0.0011656988 -0.014637339 -4.5355995e-07)
(0.00099290624 -0.013629102 -4.3165593e-07)
(0.00083974062 -0.012596776 -4.1012242e-07)
(0.0007047842 -0.011578922 -3.8861483e-07)
(0.00058616991 -0.010608874 -3.66589e-07)
(0.00048227353 -0.0097099385 -3.435073e-07)
(0.00039131459 -0.0089027099 -3.1868131e-07)
(0.00030892895 -0.0082005453 -2.912162e-07)
(0.00023385827 -0.0076071892 -2.598074e-07)
(0.0001647802 -0.0071222162 -2.225086e-07)
(9.9857173e-05 -0.0067039994 -1.7607821e-07)
(3.6887857e-05 -0.0064016273 -1.1031244e-07)
(0.01088907 -0.0086286411 -4.4572204e-07)
(0.0088369643 -0.025491195 -7.7008529e-07)
(0.00784464 -0.027969537 -8.5968147e-07)
(0.0062030301 -0.032257987 -8.4918835e-07)
(0.0048314835 -0.029696802 -8.1088846e-07)
(0.0036205299 -0.02590794 -7.6331165e-07)
(0.0026006722 -0.021213202 -7.1587365e-07)
(0.0017835285 -0.016260421 -6.71532e-07)
(0.0011429217 -0.011313886 -6.3181698e-07)
(0.00065018741 -0.006747313 -5.9525659e-07)
(0.00026990415 -0.0026225772 -5.6230147e-07)
(-1.2071653e-05 0.00091662894 -5.3170096e-07)
(-0.00021311963 0.0042169716 -5.070923e-07)
(-0.00034246646 0.0073687903 -4.838341e-07)
(-0.00042422025 0.010262037 -4.614405e-07)
(-0.00046569525 0.012772502 -4.4002119e-07)
(-0.00047519867 0.014868801 -4.1921639e-07)
(-0.00045941075 0.016568743 -3.9857504e-07)
(-0.00042366139 0.017900772 -3.776048e-07)
(-0.0003722059 0.018894543 -3.5574519e-07)
(-0.00031117775 0.019575973 -3.3229577e-07)
(-0.00024316092 0.019970059 -3.0627523e-07)
(-0.00017029849 0.020073977 -2.7611427e-07)
(-9.5872168e-05 0.019945268 -2.4655271e-07)
(-2.1790442e-05 0.01924441 -2.1708525e-07)
(0.013313712 0.023521785 -8.012159e-07)
(0.00312616 -0.0010561989 -1.1352241e-06)
(0.00064096442 0.048531705 -1.1392631e-06)
(-0.0011290646 0.051346696 -1.0676352e-06)
(-0.0027020857 0.06554614 -9.9164405e-07)
(-0.0038766781 0.075826292 -9.0632761e-07)
(-0.0045253467 0.082987578 -8.2980719e-07)
(-0.004719728 0.088957201 -7.6333936e-07)
(-0.0046343617 0.093343407 -7.055632e-07)
(-0.0044072622 0.0960638 -6.5607799e-07)
(-0.0041186061 0.097610134 -6.1419816e-07)
(-0.0037731035 0.098075668 -5.7070845e-07)
(-0.0034225511 0.09778979 -5.4592196e-07)
(-0.0030799103 0.096464697 -5.1930025e-07)
(-0.0027345956 0.094297033 -4.9324763e-07)
(-0.0023981668 0.091861725 -4.6998456e-07)
(-0.0020804016 0.089225141 -4.4838878e-07)
(-0.0017819786 0.08647146 -4.2778981e-07)
(-0.0015022061 0.083677462 -4.0765786e-07)
(-0.0012396534 0.080901044 -3.874874e-07)
(-0.00099060646 0.078179327 -3.6672432e-07)
(-0.00075367536 0.075554451 -3.4468464e-07)
(-0.00052678018 0.072998193 -3.2066018e-07)
(-0.00030812569 0.070697384 -2.9559316e-07)
(-9.2213251e-05 0.067216711 -2.7093609e-07)
(-0.0024487345 1.1767372 -2.5254042e-06)
(-0.0011060294 0.96265905 -2.0040348e-06)
(-0.001197214 0.86665592 -1.6214926e-06)
(-0.00080227544 0.77420491 -1.3298116e-06)
(-0.00066244728 0.67793774 -1.1144372e-06)
(-0.00055661333 0.58639868 -9.5880175e-07)
(-0.00046276562 0.50793835 -8.4499252e-07)
(-0.00038373916 0.44419886 -7.6120276e-07)
(-0.00031889604 0.39163571 -6.939134e-07)
(-0.00026377142 0.3467813 -6.4273819e-07)
(-0.00021124788 0.3080757 -6.029829e-07)
(-0.00016747068 0.27477142 -5.6774015e-07)
(-0.00013175891 0.24629346 -5.3824356e-07)
(-0.00011071162 0.22191354 -5.1259715e-07)
(-9.1378192e-05 0.20097464 -4.8966207e-07)
(-7.562835e-05 0.18299563 -4.6875456e-07)
(-6.2896236e-05 0.16754683 -4.4916306e-07)
(-5.2043281e-05 0.15426591 -4.3035235e-07)
(-4.2818948e-05 0.14285066 -4.1192884e-07)
(-3.4977327e-05 0.13305207 -3.9353603e-07)
(-2.7705345e-05 0.12465443 -3.7477152e-07)
(-2.0780373e-05 0.11751598 -3.5507495e-07)
(-1.4232343e-05 0.11139547 -3.3408765e-07)
(-8.0834891e-06 0.10657461 -3.1155228e-07)
(-2.1846624e-06 0.10056491 -2.869871e-07)
(-0.013012212 0.091148474 -1.234608e-06)
(-0.0027068282 0.098908111 -1.278411e-06)
(-0.00021263862 0.10451498 -1.2341696e-06)
(0.0015651264 0.10620692 -1.1440691e-06)
(0.0030916483 0.10825595 -1.0418954e-06)
(0.0042080818 0.10991188 -9.4260016e-07)
(0.0048069106 0.11153112 -8.5392444e-07)
(0.0049569592 0.11301233 -7.7750506e-07)
(0.0048351298 0.11376579 -6.9682575e-07)
(0.0045582312 0.11379525 -6.5348204e-07)
(0.0042427054 0.11305063 -6.1265849e-07)
(0.0039042884 0.1113437 -5.6993183e-07)
(0.0035308467 0.10879181 -5.3429241e-07)
(0.0031571896 0.10574845 -5.0397287e-07)
(0.0027952479 0.10245657 -4.7757005e-07)
(0.0024502208 0.099039455 -4.5402981e-07)
(0.0021228688 0.095580559 -4.325414e-07)
(0.0018159624 0.092147776 -4.1245725e-07)
(0.0015283348 0.088791774 -3.932213e-07)
(0.0012584528 0.085550091 -3.7429304e-07)
(0.0010043787 0.08244418 -3.5505602e-07)
(0.00076381121 0.079503558 -3.3469776e-07)
(0.00053404339 0.076690892 -3.135234e-07)
(0.00031283211 0.07419719 -2.9026851e-07)
(9.435662e-05 0.070502695 -2.6675042e-07)
(-0.0090395697 -0.040383493 -8.7697573e-07)
(-0.0078367112 -0.038564242 -9.42667e-07)
(-0.0064685257 -0.036992634 -9.2975231e-07)
(-0.0050597477 -0.033543271 -8.8348274e-07)
(-0.0037447711 -0.028565432 -8.2488796e-07)
(-0.0026187696 -0.022926241 -7.633787e-07)
(-0.0016987374 -0.017137644 -7.0610299e-07)
(-0.00098026049 -0.011515773 -6.5372019e-07)
(-0.00043242311 -0.0064974572 -6.0523044e-07)
(-2.7363883e-05 -0.0020692377 -5.6880361e-07)
(0.00026644051 0.0017421509 -5.3535633e-07)
(0.00047093364 0.0054737974 -5.0427461e-07)
(0.00060272193 0.0090287594 -4.7644496e-07)
(0.00067888986 0.012203682 -4.5150989e-07)
(0.00071114367 0.014933831 -4.2885639e-07)
(0.00070915487 0.017220338 -4.0792715e-07)
(0.00068253751 0.019099689 -3.8826517e-07)
(0.00063447382 0.020611511 -3.6936497e-07)
(0.0005702281 0.021776089 -3.50702e-07)
(0.00049362521 0.022615071 -3.3166835e-07)
(0.00040791405 0.023149975 -3.1141523e-07)
(0.0003159622 0.023401695 -2.884517e-07)
(0.00022054773 0.023380678 -2.657825e-07)
(0.000124851 0.023130291 -2.3808001e-07)
(3.0520222e-05 0.022277988 -2.1086746e-07)
(-0.0042051327 -0.015605679 -6.1177583e-07)
(-0.0042733848 -0.018208717 -6.8831896e-07)
(-0.0041326194 -0.021038148 -7.0364149e-07)
(-0.0038575599 -0.023063159 -6.8695321e-07)
(-0.0035068977 -0.024310315 -6.5714492e-07)
(-0.003130872 -0.024699415 -6.243783e-07)
(-0.0027731715 -0.024420211 -5.8463855e-07)
(-0.0024380221 -0.023702763 -5.4740482e-07)
(-0.0021305745 -0.022717304 -5.1357774e-07)
(-0.0018530736 -0.021534759 -4.8457279e-07)
(-0.0016059348 -0.020239438 -4.5819189e-07)
(-0.0013779042 -0.018814105 -4.338737e-07)
(-0.0011726816 -0.017327941 -4.115638e-07)
(-0.00099264958 -0.015833341 -3.910584e-07)
(-0.00083583726 -0.014365692 -3.7181634e-07)
(-0.00069960478 -0.012958316 -3.5340773e-07)
(-0.00057969268 -0.011648568 -3.3567413e-07)
(-0.00047658243 -0.010465376 -3.1802912e-07)
(-0.00038758442 -0.0094133165 -2.9991074e-07)
(-0.00031061885 -0.0084939554 -2.806392e-07)
(-0.00024363897 -0.0077078386 -2.592789e-07)
(-0.00018452197 -0.0070545727 -2.3455199e-07)
(-0.000131195 -0.0065307345 -2.0514368e-07)
(-8.1291364e-05 -0.0060959459 -1.6538365e-07)
(-3.2012093e-05 -0.0058017467 -1.0589056e-07)
(-0.00070921566 -0.0034767502 -4.5301121e-07)
(-0.0011199956 -0.0045123162 -5.2426012e-07)
(-0.0014003393 -0.0055882294 -5.5262205e-07)
(-0.0015745733 -0.0065988309 -5.5408151e-07)
(-0.001655425 -0.0075844786 -5.4049744e-07)
(-0.0016673266 -0.0086890832 -5.1916697e-07)
(-0.0016317983 -0.0098529093 -4.9284052e-07)
(-0.0015629284 -0.01085195 -4.6602776e-07)
(-0.0014728248 -0.011687693 -4.4061112e-07)
(-0.0013708694 -0.012363315 -4.173106e-07)
(-0.0012661083 -0.012898897 -3.9572464e-07)
(-0.0011613578 -0.013296387 -3.7557068e-07)
(-0.0010568691 -0.013563142 -3.5668075e-07)
(-0.00095381836 -0.01368084 -3.3924066e-07)
(-0.00085331994 -0.013675149 -3.2232128e-07)
(-0.00075569469 -0.013587159 -3.0598526e-07)
(-0.00066322636 -0.013441153 -2.8957391e-07)
(-0.00057375446 -0.01325154 -2.7274864e-07)
(-0.00048744565 -0.013027292 -2.5497821e-07)
(-0.00040400533 -0.012775324 -2.3558936e-07)
(-0.0003232331 -0.012501106 -2.1355961e-07)
(-0.00024506379 -0.012209929 -1.8738651e-07)
(-0.00016962864 -0.011905025 -1.5486795e-07)
(-9.7351845e-05 -0.011548703 -1.1144514e-07)
(-3.0073563e-05 -0.011099695 -5.6397627e-08)
(0.00051580309 -0.00038921768 -3.514992e-07)
(0.0002961252 -0.00079874345 -4.0924743e-07)
(6.7779989e-05 -0.0012557014 -4.39541e-07)
(-0.00013208944 -0.001733963 -4.4964526e-07)
(-0.00029157827 -0.0022150783 -4.46385e-07)
(-0.00040830543 -0.0027171936 -4.3484455e-07)
(-0.00048540068 -0.0032240065 -4.1833738e-07)
(-0.00052926246 -0.0036910774 -3.9975041e-07)
(-0.00055005869 -0.0041153119 -3.8083968e-07)
(-0.00055417837 -0.0044952113 -3.6247766e-07)
(-0.00054451286 -0.004833495 -3.4488214e-07)
(-0.000524594 -0.0051342378 -3.2807011e-07)
(-0.00049711708 -0.0054116934 -3.1200064e-07)
(-0.00046400611 -0.0056944749 -2.9662288e-07)
(-0.00042706971 -0.0059753009 -2.8160508e-07)
(-0.00038746839 -0.0062167793 -2.6672555e-07)
(-0.00034636044 -0.0064105322 -2.5159172e-07)
(-0.00030400524 -0.0065545212 -2.3580976e-07)
(-0.00026095594 -0.0066483803 -2.1887397e-07)
(-0.00021760292 -0.0066917997 -2.0031951e-07)
(-0.00017432788 -0.0066858532 -1.7926179e-07)
(-0.00013159763 -0.006633534 -1.5420666e-07)
(-8.999344e-05 -0.0065393627 -1.2373249e-07)
(-5.016485e-05 -0.006385379 -8.528529e-08)
(-1.3703154e-05 -0.0060980886 -3.9305257e-08)
(0.00065432882 0.00048815992 -2.8128758e-07)
(0.00055350173 0.00042650485 -3.2574908e-07)
(0.00044113333 0.00030745049 -3.531517e-07)
(0.00033888018 0.0001674389 -3.6626846e-07)
(0.00024542123 3.6514074e-06 -3.6872545e-07)
(0.00016658152 -0.00017545124 -3.6378e-07)
(0.00010093944 -0.00035934803 -3.5402288e-07)
(4.4040977e-05 -0.00054175276 -3.4155123e-07)
(-4.7214375e-06 -0.00072340085 -3.2782164e-07)
(-4.3456877e-05 -0.0008917834 -3.1371106e-07)
(-7.0535959e-05 -0.0010422904 -2.9965206e-07)
(-8.7262347e-05 -0.00117785 -2.8583402e-07)
(-9.633901e-05 -0.0012993639 -2.7231382e-07)
(-9.9058829e-05 -0.0014081442 -2.5905366e-07)
(-9.722922e-05 -0.0015037385 -2.4589146e-07)
(-9.2448481e-05 -0.0015834334 -2.3262109e-07)
(-8.5526813e-05 -0.0016479821 -2.1896108e-07)
(-7.6959922e-05 -0.0016977728 -2.0458345e-07)
(-6.7304204e-05 -0.0017329452 -1.8909592e-07)
(-5.6960381e-05 -0.0017535069 -1.7206513e-07)
(-4.6233686e-05 -0.0017596053 -1.5295262e-07)
(-3.538634e-05 -0.001751879 -1.3097429e-07)
(-2.4639938e-05 -0.0017329098 -1.0525517e-07)
(-1.4019016e-05 -0.0017017372 -7.4773468e-08)
(-3.6908144e-06 -0.0016159496 -3.765097e-08)
(0.00056819484 0.00061069776 -2.2823344e-07)
(0.00049744906 0.00066193037 -2.6201395e-07)
(0.00043058568 0.00068070509 -2.8509045e-07)
(0.00036607326 0.00067413153 -2.983525e-07)
(0.00030651431 0.00065051452 -3.0353432e-07)
(0.00025198025 0.00061427551 -3.0260488e-07)