/*--------------------------------*- C++ -*----------------------------------*\
| =========                 |                                                 |
| \\      /  F ield         | OpenFOAM: The Open Source CFD Toolbox           |
|  \\    /   O peration     | Version:  4.0                                   |
|   \\  /    A nd           | Web:      www.OpenFOAM.org                      |
|    \\/     M anipulation  |                                                 |
\*---------------------------------------------------------------------------*/
FoamFile
{
    version     2.0;
    format      ascii;
    class       volScalarField;
    location    "0.05";
    object      k;
}
// * * * * * * * * * * * * * * * * * * * * * * * * * * * * * * * * * * * * * //

dimensions      [0 2 -2 0 0 0 0];

internalField   nonuniform List<scalar> 
1740
(
0.0087043449
0.0090318167
0.017999258
0.0091392294
0.0097902024
0.026962516
0.0095498598
0.010400646
0.034836673
0.0098139176
0.010781987
0.041845819
0.0099641078
0.011156855
0.047578795
0.01003191
0.011514376
0.052069958
0.010091929
0.011931491
0.056092109
0.010173234
0.012318821
0.059509236
0.010156553
0.01249157
0.061579924
0.010123209
0.012642777
0.064214314
0.010068906
0.01300032
0.066398705
0.010032036
0.013309604
0.066885335
0.0099028563
0.013406659
0.068482917
0.0097803924
0.013590885
0.069636053
0.0096321964
0.013665366
0.069963336
0.0095089742
0.013901435
0.070868808
0.0094138433
0.014081578
0.071561003
0.0093665466
0.014138534
0.071812926
0.009235083
0.014354404
0.071578012
0.0090721517
0.014451173
0.072001127
0.0089550533
0.014547846
0.072611344
0.008860986
0.014578772
0.072143032
0.0087237608
0.014516626
0.072625283
0.0086374696
0.014702578
0.072984386
0.0086078122
0.014648287
0.072218133
0.0084529922
0.014385071
0.072226802
0.0083647739
0.014589288
0.072096505
0.0083525028
0.014724281
0.071837734
0.0083799923
0.014956159
0.071229243
0.0089883069
0.016104925
0.066323055
0.01283099
0.018130213
0.047094953
0.023967697
0.031133289
0.03966613
0.010074535
0.012311905
0.013512248
0.0039857209
0.0043268734
0.0043865718
0.0016413389
0.0016925088
0.0016662853
0.00062019667
0.00062613516
0.0006082032
0.00019642296
0.00019649105
0.0001893724
5.3763119e-05
5.3555007e-05
5.149425e-05
1.5573921e-05
1.5512253e-05
1.505674e-05
7.1882089e-06
7.1880721e-06
7.1286156e-06
5.8152459e-06
5.8298162e-06
5.8517037e-06
5.881272e-06
5.8979599e-06
5.9329752e-06
6.2135994e-06
6.2297879e-06
6.2650089e-06
6.5933115e-06
6.6085494e-06
6.6418498e-06
6.9837493e-06
6.998003e-06
7.0291586e-06
7.379429e-06
7.3927412e-06
7.421836e-06
7.779637e-06
7.7920644e-06
7.8192236e-06
8.1842799e-06
8.1958788e-06
8.2212271e-06
8.5932979e-06
8.6041213e-06
8.6277762e-06
9.0065881e-06
9.0166845e-06
9.0387531e-06
9.4239857e-06
9.4333997e-06
9.4539796e-06
9.8452535e-06
9.8540262e-06
9.8732062e-06
1.0270073e-05
1.0278242e-05
1.0296104e-05
1.0698034e-05
1.0705635e-05
1.0722254e-05
1.112863e-05
1.1135694e-05
1.1151142e-05
1.1561247e-05
1.1567805e-05
1.1582145e-05
1.1995158e-05
1.2001236e-05
1.201453e-05
1.2429518e-05
1.2435143e-05
1.2447446e-05
1.2863356e-05
1.2868554e-05
1.287992e-05
1.3295577e-05
1.3300369e-05
1.3310848e-05
1.3724952e-05
1.372936e-05
1.3739e-05
1.4150123e-05
1.4154169e-05
1.4163016e-05
1.4569604e-05
1.4573307e-05
1.4581405e-05
1.4981786e-05
1.4985166e-05
1.4992557e-05
1.5384945e-05
1.5388021e-05
1.5394747e-05
1.5777255e-05
1.5780045e-05
1.5786145e-05
1.6156799e-05
1.6159321e-05
1.6164836e-05
1.6521591e-05
1.6523864e-05
1.6528831e-05
1.6869596e-05
1.6871636e-05
1.6876095e-05
1.7198749e-05
1.7200574e-05
1.7204564e-05
1.7506971e-05
1.7508598e-05
1.7512155e-05
1.7792101e-05
1.7793548e-05
1.779671e-05
1.8051496e-05
1.8052779e-05
1.8055583e-05
1.8280187e-05
1.8281322e-05
1.8283805e-05
1.8463755e-05
1.8464759e-05
1.8466956e-05
1.8554404e-05
1.8555291e-05
1.8557236e-05
1.8402587e-05
1.8403369e-05
1.8405089e-05
1.7598535e-05
1.7599212e-05
1.7600712e-05
1.5210526e-05
1.521107e-05
1.5212294e-05
9.6534097e-06
9.6537415e-06
9.6545017e-06
0.05620511
0.06091426
0.045980866
0.046425846
0.012303699
0.011177379
0.0040652155
0.0038035235
0.0015542755
0.0014543042
0.00056411213
0.00051851757
0.00017402908
0.00015669721
4.72261e-05
4.2164214e-05
1.4109359e-05
1.2953679e-05
6.9862203e-06
6.8117011e-06
5.874964e-06
5.9072842e-06
5.9840431e-06
6.051504e-06
6.3177066e-06
6.3870988e-06
6.6918379e-06
6.7576235e-06
7.0759374e-06
7.1375028e-06
7.4655211e-06
7.523028e-06
7.8600085e-06
7.9137123e-06
8.2593008e-06
8.30945e-06
8.6633128e-06
8.710135e-06
9.071912e-06
9.115615e-06
9.4849063e-06
9.5256795e-06
9.9020342e-06
9.9400507e-06
1.0322956e-05
1.0358375e-05
1.0747242e-05
1.0780211e-05
1.117437e-05
1.1205024e-05
1.1603711e-05
1.1632177e-05
1.2034524e-05
1.2060921e-05
1.2465953e-05
1.2490392e-05
1.2897019e-05
1.2919604e-05
1.3326615e-05
1.3347445e-05
1.3753507e-05
1.3772677e-05
1.4176331e-05
1.419393e-05
1.4593594e-05
1.4609711e-05
1.5003684e-05
1.5018402e-05
1.5404874e-05
1.5418274e-05
1.5795333e-05
1.5807495e-05
1.6173143e-05
1.6184146e-05
1.6536317e-05
1.6546238e-05
1.6882817e-05
1.6891732e-05
1.7210579e-05
1.7218564e-05
1.7517521e-05
1.7524651e-05
1.7801483e-05
1.7807833e-05
1.8059819e-05
1.8065464e-05
1.828756e-05
1.8292574e-05
1.8470285e-05
1.8474745e-05
1.8560193e-05
1.8564178e-05
1.8407723e-05
1.8411307e-05
1.7603039e-05
1.7606258e-05
1.5214224e-05
1.5216959e-05
9.6557223e-06
9.6574956e-06
4.1024084e-06
6.7717705e-06
2.8613818e-05
5.2593436e-05
6.3766091e-05
6.2730601e-05
5.5682131e-05
4.6971887e-05
3.8598091e-05
3.1267505e-05
2.5146199e-05
2.0192373e-05
1.6291486e-05
1.3314399e-05
1.1123479e-05
9.5747462e-06
8.5276648e-06
7.854108e-06
7.4430459e-06
7.2016878e-06
7.0435069e-06
6.8633342e-06
6.5044255e-06
5.7711556e-06
4.5616118e-06
1.3256525e-06
2.6035318e-05
0.00010631887
0.00018714805
0.00022261556
0.0002195765
0.00019751132
0.00016918519
0.0001406609
0.00011438042
9.1233991e-05
7.1448529e-05
5.4990855e-05
4.1722565e-05
3.139094e-05
2.3633511e-05
1.8017719e-05
1.4093806e-05
1.143958e-05
9.6972554e-06
8.5585829e-06
7.7280098e-06
6.8530502e-06
5.426536e-06
2.6890356e-06
6.1533891e-06
0.00011973644
0.00042707727
0.00068495897
0.00078265516
0.00077364455
0.00071201979
0.00062986256
0.00054261977
0.0004571167
0.00037669434
0.00030309805
0.00023768827
0.00018150738
0.00013508279
9.8242817e-05
7.0127112e-05
4.9427138e-05
3.4685904e-05
2.4545489e-05
1.7774022e-05
1.3274509e-05
1.0021942e-05
6.9794244e-06
3.0674077e-06
3.6435402e-05
0.0005423367
0.0015220756
0.0021158557
0.0023047501
0.0022699443
0.0021270548
0.0019398525
0.0017366479
0.0015288985
0.001321755
0.0011177063
0.00092172468
0.0007390602
0.0005754362
0.00043490097
0.00031905893
0.00022714791
0.00015710959
0.00010599518
7.0224895e-05
4.6137978e-05
3.0238727e-05
1.9402778e-05
1.0049398e-05
0.00028521104
0.0024375997
0.0048809577
0.0059601964
0.0062378916
0.0060790673
0.0057174897
0.005287225
0.0048381468
0.004385693
0.0039260554
0.0034552271
0.0029832849
0.0025176438
0.0020738977
0.0016639872
0.0012967522
0.00097680415
0.00070983973
0.00049750142
0.00033662519
0.00022086333
0.00014132716
8.984908e-05
6.0315742e-05
0.0023607221
0.010445145
0.016705165
0.018837812
0.018481387
0.016955893
0.01510046
0.013321553
0.011722667
0.010286596
0.0089882592
0.0078120164
0.0067428834
0.0057661466
0.0048704623
0.0040497172
0.0033020595
0.0026294688
0.0020367185
0.0015289177
0.001108237
0.00077437387
0.00052063534
0.00033956857
0.00022383365
0.044968539
0.034129295
0.026625292
0.021461212
0.017821961
0.01514539
0.013085549
0.011447655
0.010113016
0.0089955909
0.0080286421
0.007162262
0.0063616285
0.0056044941
0.0048791373
0.0041829302
0.0035201023
0.0028991067
0.0023299545
0.0018223489
0.0013833649
0.0010170741
0.00072263476
0.00049718963
0.0003416371
0.037110995
0.031025444
0.027988353
0.02550817
0.022735046
0.019804854
0.017065796
0.014703104
0.012698013
0.010983049
0.0094972535
0.0081935084
0.0070366938
0.0059985157
0.005058121
0.0042027615
0.0034280282
0.0027342563
0.0021239678
0.0016006623
0.0011657034
0.00081864544
0.00055310511
0.00036213338
0.00023902475
0.010040086
0.00939496
0.0090706593
0.0087447718
0.0082460199
0.0076044154
0.0069162854
0.0062528961
0.0056356996
0.0050375855
0.0044496979
0.0038727175
0.0033210955
0.0027974624
0.002307557
0.0018532197
0.0014439347
0.0010883729
0.00079197995
0.00055601115
0.00037683223
0.00024753736
0.00015844477
0.00010061301
6.7247747e-05
0.0036045467
0.0034862875
0.0034066409
0.0032934348
0.0031074762
0.0028603558
0.0025837774
0.0023042663
0.0020350094
0.0017727202
0.0015172943
0.0012718518
0.0010426126
0.00083405855
0.00064999771
0.00049211599
0.00036120796
0.00025700086
0.00017758131
0.00011965778
7.9139678e-05
5.1858889e-05
3.3856005e-05
2.1621149e-05
1.1169595e-05
0.0013807809
0.0013298256
0.001283528
0.0012200814
0.0011286605
0.0010141407
0.0008887477
0.00076369043
0.0006458447
0.00053682146
0.00043725808
0.00034816189
0.00027076203
0.00020568995
0.00015280618
0.00011114962
7.9304448e-05
5.5784116e-05
3.9036288e-05
2.7529864e-05
1.9847957e-05
1.4731121e-05
1.1018986e-05
7.5773855e-06
3.2976801e-06
0.00047968714
0.00044774089
0.0004178637
0.00038398894
0.00034331564
0.00029770098
0.00025125939
0.00020761748
0.00016879165
0.0001351658
0.00010649877
8.2519553e-05
6.2974892e-05
4.7517972e-05
3.5674233e-05
2.6863814e-05
2.0485275e-05
1.6007924e-05
1.296899e-05
1.0966973e-05
9.6491604e-06
8.6767119e-06
7.6528764e-06
6.0270181e-06
2.9936181e-06
0.00014070728
0.00012684919
0.00011429874
0.00010169766
8.8398307e-05
7.4838042e-05
6.1956524e-05
5.051386e-05
4.0841179e-05
3.2889992e-05
2.6457904e-05
2.1344372e-05
1.7375716e-05
1.438534e-05
1.220563e-05
1.0670179e-05
9.6250593e-06
8.9420177e-06
8.5158902e-06
8.2576139e-06
8.0819471e-06
7.8843059e-06
7.5107035e-06
6.7647062e-06
5.3196318e-06
3.733826e-05
3.3138625e-05
2.9485294e-05
2.6107703e-05
2.2850597e-05
1.9765138e-05
1.6997874e-05
1.4658751e-05
1.2774799e-05
1.1306066e-05
1.0186939e-05
9.3561718e-06
8.7624566e-06
8.3603689e-06
8.1083804e-06
7.9687438e-06
7.9085679e-06
7.9011388e-06
7.9246661e-06
7.9589059e-06
7.9780624e-06
7.9378736e-06
7.7635706e-06
7.3780289e-06
6.8655178e-06
1.1844878e-05
1.0904827e-05
1.0137749e-05
9.4921759e-06
8.9285978e-06
8.4426974e-06
8.0481329e-06
7.7539855e-06
7.5564514e-06
7.4420247e-06
7.3939513e-06
7.3970998e-06
7.4388894e-06
7.5085221e-06
7.5965549e-06
7.694806e-06
7.796377e-06
7.8956206e-06
7.9874587e-06
8.06537e-06
8.116133e-06
8.1076905e-06
7.9669352e-06
7.5604859e-06
6.5937167e-06
6.6588549e-06
6.5565283e-06
6.507593e-06
6.5010538e-06
6.5258811e-06
6.5766835e-06
6.6515279e-06
6.748402e-06
6.8637902e-06
6.9930809e-06
7.1315194e-06
7.274845e-06
7.4194145e-06
7.5620733e-06
7.7000791e-06
7.8310734e-06
7.9530448e-06
8.064208e-06
8.1624799e-06
8.2436028e-06
8.2947404e-06
8.273873e-06
8.0484805e-06
7.2327147e-06
4.8027366e-06
5.9579461e-06
6.0318004e-06
6.128296e-06
6.2437165e-06
6.3739054e-06
6.5155556e-06
6.6660622e-06
6.8230173e-06
6.9839806e-06
7.1465169e-06
7.3083118e-06
7.4672654e-06
7.6214896e-06
7.7692915e-06
7.9091622e-06
8.0397714e-06
8.1599393e-06
8.2685121e-06
8.3638044e-06
8.4412838e-06
8.4846571e-06
8.4350168e-06
8.0990501e-06
6.9311384e-06
3.7610671e-06
6.1359866e-06
6.2372333e-06
6.3537824e-06
6.4833975e-06
6.6236159e-06
6.7720611e-06
6.9264981e-06
7.0847942e-06
7.2449012e-06
7.4048698e-06
7.5628662e-06
7.7171847e-06
7.866263e-06
8.008673e-06
8.1431223e-06
8.2684544e-06
8.3836224e-06
8.4875515e-06
8.5784813e-06
8.6511076e-06
8.685463e-06
8.609513e-06
8.1966149e-06
6.8650177e-06
3.5986071e-06
6.4723488e-06
6.5723373e-06
6.6855306e-06
6.8101305e-06
6.9441876e-06
7.0857047e-06
7.2327023e-06
7.3832406e-06
7.5354406e-06
7.6875046e-06
7.8377314e-06
7.9845188e-06
8.1263863e-06
8.261972e-06
8.3900367e-06
8.5094635e-06
8.6192319e-06
8.7182611e-06
8.8046506e-06
8.8724017e-06
8.8989997e-06
8.8057195e-06
8.358081e-06
7.0085172e-06
3.9362097e-06
6.8382057e-06
6.9324037e-06
7.0388032e-06
7.155808e-06
7.2817136e-06
7.4147364e-06
7.5530693e-06
7.6949194e-06
7.8385318e-06
7.9822088e-06
8.1243307e-06
8.2633648e-06
8.3978796e-06
8.5265564e-06
8.6481897e-06
8.7616886e-06
8.8660477e-06
8.9601728e-06
9.0420449e-06
9.1051997e-06
9.125896e-06
9.0241686e-06
8.5731906e-06
7.279582e-06
4.4528933e-06
7.2128979e-06
7.3010124e-06
7.4005575e-06
7.5100919e-06
7.628067e-06
7.7528616e-06
7.8828107e-06
8.0162465e-06
8.1515238e-06
8.2870416e-06
8.4212587e-06
8.5527092e-06
8.6800147e-06
8.8019e-06
8.9171963e-06
9.0248412e-06
9.123847e-06
9.2131123e-06
9.2905362e-06
9.3494035e-06
9.3657094e-06
9.2612928e-06
8.8211606e-06
7.5832153e-06
4.855201e-06
7.5934737e-06
7.6758358e-06
7.7689338e-06
7.8714525e-06
7.9819758e-06
8.0990102e-06
8.2210202e-06
8.3464522e-06
8.473763e-06
8.6014438e-06
8.7280325e-06
8.8521322e-06
8.9724242e-06
9.08768e-06
9.1967708e-06
9.2986666e-06
9.3924016e-06
9.4768751e-06
9.549933e-06
9.6047292e-06
9.6173451e-06
9.5116921e-06
9.0808761e-06
7.8716642e-06
5.1348623e-06
7.9795282e-06
8.0565137e-06
8.1435859e-06
8.2395387e-06
8.3430669e-06
8.4527944e-06
8.5672959e-06
8.6851254e-06
8.8048374e-06
8.92501e-06
9.0442601e-06
9.1612603e-06
9.2747527e-06
9.3835608e-06
9.4865983e-06
9.5828708e-06
9.6714387e-06
9.7512084e-06
9.8199929e-06
9.8708586e-06
9.8799216e-06
9.7720124e-06
9.342095e-06
8.1267201e-06
5.300437e-06
8.3709382e-06
8.4428939e-06
8.5243229e-06
8.6141146e-06
8.7110642e-06
8.8138973e-06
8.9212919e-06
9.0318987e-06
9.1443643e-06
9.2573514e-06
9.3695535e-06
9.4797123e-06
9.5866309e-06
9.6891864e-06
9.7863383e-06
9.8771301e-06
9.9606512e-06
1.0035821e-05
1.010043e-05
1.0147454e-05
1.0152788e-05
1.0040504e-05
9.6007214e-06
8.3441372e-06
5.3937739e-06
8.7675682e-06
8.8348096e-06
8.9109413e-06
8.9949385e-06
9.0856881e-06
9.1820064e-06
9.2826658e-06
9.3864078e-06
9.491965e-06
9.5980798e-06
9.7035211e-06
9.8070983e-06
9.9076749e-06
1.0004182e-05
1.0095627e-05
1.0181093e-05
1.02597e-05
1.0330385e-05
1.0390917e-05
1.0434134e-05
1.0435375e-05
1.0316388e-05
9.8582664e-06
8.5450393e-06
5.4869254e-06
9.1692415e-06
9.2320544e-06
9.303203e-06
9.3817411e-06
9.4666374e-06
9.5567932e-06
9.6510649e-06
9.7482795e-06
9.8472504e-06
9.9467967e-06
1.0045759e-05
1.0143013e-05
1.0237482e-05
1.0328151e-05
1.0414075e-05
1.0494378e-05
1.0568213e-05
1.0634534e-05
1.069109e-05
1.0730541e-05
1.0727409e-05
1.0600162e-05
1.0119127e-05
8.7447598e-06
5.596067e-06
9.5757276e-06
9.6343711e-06
9.7008255e-06
9.774212e-06
9.8535756e-06
9.9378961e-06
1.0026107e-05
1.0117114e-05
1.0209807e-05
1.0303077e-05
1.0395836e-05
1.0487021e-05
1.0575616e-05
1.0660659e-05
1.0741252e-05
1.081656e-05
1.0885769e-05
1.0947856e-05
1.1000545e-05
1.1036302e-05
1.1028723e-05
1.0892662e-05
1.0387363e-05
8.951549e-06
5.7203554e-06
9.9867299e-06
1.0041444e-05
1.0103468e-05
1.0171989e-05
1.0246117e-05
1.0324907e-05
1.0407364e-05
1.0492466e-05
1.0579176e-05
1.0666454e-05
1.0753275e-05
1.0838642e-05
1.0921595e-05
1.1001223e-05
1.1076676e-05
1.114716e-05
1.1211896e-05
1.126988e-05
1.1318814e-05
1.1350964e-05
1.1338985e-05
1.1194151e-05
1.0665037e-05
9.1694428e-06
5.8544055e-06
1.0401877e-05
1.0452884e-05
1.0510724e-05
1.0574642e-05
1.0643814e-05
1.0717359e-05
1.0794351e-05
1.0873836e-05
1.0954843e-05
1.10364e-05
1.1117545e-05
1.1197338e-05
1.1274875e-05
1.1349299e-05
1.1419803e-05
1.1485635e-05
1.154605e-05
1.1600065e-05
1.164536e-05
1.1674009e-05
1.1657807e-05
1.1504931e-05
1.0955092e-05
9.4080719e-06
5.9949277e-06
1.0820715e-05
1.0868219e-05
1.0922103e-05
1.0981666e-05
1.1046141e-05
1.1114711e-05
1.1186511e-05
1.1260651e-05
1.1336225e-05
1.1412322e-05
1.148804e-05
1.1562497e-05
1.1634843e-05
1.1704269e-05
1.1770014e-05
1.1831367e-05
1.1887615e-05
1.1937794e-05
1.1979565e-05
1.2004823e-05
1.1984613e-05
1.1824576e-05
1.1257406e-05
9.6679034e-06
6.1657375e-06
1.1242695e-05
1.1286888e-05
1.1337028e-05
1.1392466e-05
1.145249e-05
1.1516337e-05
1.1583204e-05
1.1652259e-05
1.1722657e-05
1.1793545e-05
1.1864079e-05
1.1933432e-05
1.2000804e-05
1.2065435e-05
1.212661e-05
1.2183653e-05
1.2235887e-05
1.2282365e-05
1.232072e-05
1.2342664e-05
1.2318544e-05
1.2151844e-05
1.156982e-05
9.9456846e-06
6.3638615e-06
1.1667167e-05
1.1708227e-05
1.1754823e-05
1.1806353e-05
1.1862155e-05
1.1921519e-05
1.1983698e-05
1.2047917e-05
1.2113385e-05
1.2179306e-05
1.224489e-05
1.2309363e-05
1.2371975e-05
1.2432012e-05
1.24888e-05
1.2541704e-05
1.2590075e-05
1.2632982e-05
1.2668022e-05
1.2686692e-05
1.2658598e-05
1.2485143e-05
1.1888574e-05
1.0229573e-05
6.5477731e-06
1.2093376e-05
1.2131469e-05
1.2174708e-05
1.2222534e-05
1.2274331e-05
1.2329439e-05
1.2387163e-05
1.2446781e-05
1.2507555e-05
1.2568742e-05
1.2629604e-05
1.2689415e-05
1.2747475e-05
1.2803113e-05
1.2855698e-05
1.2904629e-05
1.2949289e-05
1.2988757e-05
1.3020581e-05
1.3036009e-05
1.3003821e-05
1.2823214e-05
1.2211492e-05
1.0518386e-05
6.7537979e-06
1.2520446e-05
1.2555731e-05
1.2595789e-05
1.2640103e-05
1.26881e-05
1.2739169e-05
1.279266e-05
1.2847903e-05
1.2904209e-05
1.2960887e-05
1.3017246e-05
1.3072608e-05
1.3126319e-05
1.3177751e-05
1.3226311e-05
1.3271435e-05
1.3312534e-05
1.3348695e-05
1.3377411e-05
1.3389662e-05
1.3353333e-05
1.3165235e-05
1.2537142e-05
1.0805651e-05
6.9479159e-06
1.2947386e-05
1.298001e-05
1.3017054e-05
1.3058038e-05
1.3102433e-05
1.3149667e-05
1.3199138e-05
1.3250223e-05
1.330228e-05
1.3354664e-05
1.3406733e-05
1.3457853e-05
1.3507413e-05
1.3554827e-05
1.3599538e-05
1.3641019e-05
1.3678704e-05
1.3711692e-05
1.3737416e-05
1.3746573e-05
1.3706118e-05
1.3510338e-05
1.2865185e-05
1.1093256e-05
7.1328785e-06
1.3373076e-05
1.3403181e-05
1.343737e-05
1.3475199e-05
1.3516176e-05
1.3559773e-05
1.3605429e-05
1.3652563e-05
1.3700581e-05
1.3748883e-05
1.3796867e-05
1.3843946e-05
1.3889549e-05
1.3933128e-05
1.3974165e-05
1.4012162e-05
1.4046581e-05
1.4076527e-05
1.4099372e-05
1.4105514e-05
1.4060896e-05
1.3856994e-05
1.3193369e-05
1.1380838e-05
7.3620127e-06
1.3796271e-05
1.3823991e-05
1.3855478e-05
1.3890318e-05
1.3928058e-05
1.3968206e-05
1.4010243e-05
1.4053629e-05
1.4097811e-05
1.4142232e-05
1.4186334e-05
1.4229568e-05
1.4271402e-05
1.4311328e-05
1.4348859e-05
1.4383531e-05
1.441483e-05
1.4441865e-05
1.446194e-05
1.4465137e-05
1.4416266e-05
1.4203453e-05
1.3517863e-05
1.1653706e-05
7.503523e-06
1.4215599e-05
1.4241064e-05
1.4269992e-05
1.4302005e-05
1.433668e-05
1.4373562e-05
1.441217e-05
1.4452002e-05
1.4492547e-05
1.4533285e-05
1.4573699e-05
1.461328e-05
1.4651532e-05
1.468798e-05
1.4722174e-05
1.4753678e-05
1.4782e-05
1.4806253e-05
1.4823675e-05
1.4824018e-05
1.4770947e-05
1.4549207e-05
1.3841966e-05
1.1930403e-05
7.6943094e-06
1.462956e-05
1.4652894e-05
1.4679406e-05
1.4708746e-05
1.4740523e-05
1.4774316e-05
1.4809679e-05
1.4846148e-05
1.4883247e-05
1.4920496e-05
1.4957414e-05
1.4993529e-05
1.502838e-05
1.5061526e-05
1.5092549e-05
1.5121038e-05
1.5146526e-05
1.5168128e-05
1.5183009e-05
1.5180592e-05
1.5123382e-05
1.4892691e-05
1.4163481e-05
1.2202775e-05
7.8749482e-06
1.5036535e-05
1.5057858e-05
1.508209e-05
1.5108907e-05
1.5137949e-05
1.5168825e-05
1.5201123e-05
1.5234414e-05
1.5268257e-05
1.5302206e-05
1.5335816e-05
1.536865e-05
1.5400279e-05
1.5430296e-05
1.545831e-05
1.5483939e-05
1.5506735e-05
1.5525813e-05
1.5538266e-05
1.5533176e-05
1.5471828e-05
1.5231861e-05
1.4479128e-05
1.2464338e-05
8.0382373e-06
1.5434791e-05
1.5454221e-05
1.5476306e-05
1.5500747e-05
1.5527212e-05
1.555534e-05
1.5584749e-05
1.5615043e-05
1.5645814e-05
1.567665e-05
1.5707138e-05
1.5736872e-05
1.5765458e-05
1.5792516e-05
1.5817684e-05
1.5840605e-05
1.5860851e-05
1.5877534e-05
1.5887675e-05
1.5880009e-05
1.5814585e-05
1.5565305e-05
1.4788775e-05
1.2719279e-05
8.1948187e-06
1.5822495e-05
1.5840146e-05
1.5860213e-05
1.5882422e-05
1.5906466e-05
1.5932011e-05
1.5958705e-05
1.5986181e-05
1.6014063e-05
1.6041968e-05
1.6069517e-05
1.6096334e-05
1.6122052e-05
1.614632e-05
1.6168804e-05
1.6189169e-05
1.6207005e-05
1.6221425e-05
1.6229377e-05
1.6219268e-05
1.6149982e-05
1.5891959e-05
1.5093409e-05
1.2973082e-05
8.3506139e-06
1.6197724e-05
1.6213709e-05
1.6231888e-05
1.6252006e-05
1.6273781e-05
1.6296906e-05
1.6321055e-05
1.634589e-05
1.6371063e-05
1.6396221e-05
1.6421012e-05
1.6445089e-05
1.6468115e-05
1.6489763e-05
1.6509723e-05
1.6527685e-05
1.6543253e-05
1.6555543e-05
1.6561435e-05
1.6549038e-05
1.6476183e-05
1.6210198e-05
1.5391633e-05
1.3222728e-05
8.4900135e-06
1.6558489e-05
1.6572919e-05
1.6589335e-05
1.6607502e-05
1.662716e-05
1.6648026e-05
1.66698e-05
1.6692168e-05
1.6714811e-05
1.6737402e-05
1.6759617e-05
1.6781134e-05
1.6801642e-05
1.6820839e-05
1.6838437e-05
1.6854147e-05
1.6867591e-05
1.6877881e-05
1.6881843e-05
1.686731e-05
1.679114e-05
1.6517746e-05
1.5680354e-05
1.3466274e-05
8.6391652e-06
1.690275e-05
1.6915736e-05
1.6930513e-05
1.6946867e-05
1.6964559e-05
1.6983326e-05
1.7002893e-05
1.702297e-05
1.7043261e-05
1.7063466e-05
1.7083284e-05
1.710242e-05
1.7120584e-05
1.7137499e-05
1.7152897e-05
1.7166509e-05
1.7177971e-05
1.7186396e-05
1.7188551e-05
1.717201e-05
1.7092694e-05
1.681215e-05
1.5956145e-05
1.3695064e-05
8.7494419e-06
1.7228442e-05
1.7240093e-05
1.7253356e-05
1.7268036e-05
1.728391e-05
1.7300738e-05
1.7318265e-05
1.7336224e-05
1.7354342e-05
1.7372341e-05
1.7389943e-05
1.7406876e-05
1.7422872e-05
1.7437675e-05
1.7451036e-05
1.7462704e-05
1.7472328e-05
1.747902e-05
1.7479489e-05
1.7461047e-05
1.7378672e-05
1.7090981e-05
1.6215994e-05
1.3907971e-05
8.8689539e-06
1.7533482e-05
1.7543907e-05
1.755578e-05
1.7568922e-05
1.7583128e-05
1.7598176e-05
1.7613831e-05
1.7629846e-05
1.7645969e-05
1.7661943e-05
1.7677511e-05
1.7692421e-05
1.7706425e-05
1.7719286e-05
1.7730775e-05
1.7740654e-05
1.7748586e-05
1.7753678e-05
1.7752584e-05
1.7732355e-05
1.7647052e-05
1.7352501e-05
1.6459584e-05
1.4108525e-05
8.986663e-06
1.7815709e-05
1.7825017e-05
1.7835624e-05
1.7847365e-05
1.7860052e-05
1.787348e-05
1.788743e-05
1.7901676e-05
1.7915983e-05
1.7930113e-05
1.7943829e-05
1.7956896e-05
1.7969085e-05
1.7980177e-05
1.7989959e-05
1.7998207e-05
1.8004593e-05
1.8008224e-05
1.8005693e-05
1.798381e-05
1.7895795e-05
1.7594993e-05
1.6686106e-05
1.4297214e-05
9.1011351e-06
1.8072477e-05
1.8080777e-05
1.8090242e-05
1.8100721e-05
1.8112038e-05
1.8124005e-05
1.8136419e-05
1.8149069e-05
1.816174e-05
1.8174209e-05
1.8186256e-05
1.8197661e-05
1.8208212e-05
1.8217707e-05
1.8225948e-05
1.8232724e-05
1.8237715e-05
1.8240022e-05
1.8236188e-05
1.8212799e-05
1.8122328e-05
1.7815985e-05
1.6893224e-05
1.4471184e-05
9.2063608e-06
1.8298818e-05
1.8306221e-05
1.8314672e-05
1.8324027e-05
1.8334125e-05
1.8344787e-05
1.835583e-05
1.836706e-05
1.8378276e-05
1.8389271e-05
1.8399831e-05
1.8409751e-05
1.8418837e-05
1.8426903e-05
1.8433768e-05
1.8439231e-05
1.8442977e-05
1.8444104e-05
1.8439109e-05
1.8414385e-05
1.8321781e-05
1.8010802e-05
1.707667e-05
1.4625401e-05
9.2529532e-06
1.8480317e-05
1.8486942e-05
1.8494512e-05
1.8502888e-05
1.8511915e-05
1.8521425e-05
1.8531253e-05
1.854123e-05
1.8551177e-05
1.8560893e-05
1.8570154e-05
1.8578754e-05
1.8586526e-05
1.8593318e-05
1.8598964e-05
1.860327e-05
1.8605922e-05
1.8606014e-05
1.8600012e-05
1.8574152e-05
1.8479798e-05
1.8165322e-05
1.7223724e-05
1.4755735e-05
9.3409501e-06
1.8569185e-05
1.8575164e-05
1.8582005e-05
1.8589561e-05
1.8597673e-05
1.8606162e-05
1.8614901e-05
1.8623773e-05
1.8632637e-05
1.864131e-05
1.8649477e-05
1.8656896e-05
1.866346e-05
1.8669096e-05
1.8673651e-05
1.8676945e-05
1.8678647e-05
1.8677858e-05
1.8671043e-05
1.8644315e-05
1.8548642e-05
1.8231686e-05
1.728586e-05
1.4812072e-05
9.38679e-06
1.8415861e-05
1.8421344e-05
1.8427636e-05
1.8434584e-05
1.8442015e-05
1.8449599e-05
1.8457294e-05
1.846512e-05
1.8473067e-05
1.8481052e-05
1.8488419e-05
1.849477e-05
1.8500175e-05
1.8504735e-05
1.8508233e-05
1.8510604e-05
1.8511469e-05
1.8509974e-05
1.8502682e-05
1.8475661e-05
1.8379676e-05
1.806267e-05
1.7120746e-05
1.4670044e-05
9.3225849e-06
1.7610427e-05
1.7615529e-05
1.7621474e-05
1.7628227e-05
1.7635619e-05
1.7642502e-05
1.7649047e-05
1.7655626e-05
1.7662651e-05
1.7670541e-05
1.7677616e-05
1.7683071e-05
1.7687414e-05
1.7691022e-05
1.7693192e-05
1.7694478e-05
1.7694222e-05
1.7691957e-05
1.7684846e-05
1.7658976e-05
1.7565638e-05
1.7256264e-05
1.6343658e-05
1.399436e-05
8.9275532e-06
1.52206e-05
1.5225202e-05
1.5230893e-05
1.5238209e-05
1.524711e-05
1.52538e-05
1.5258891e-05
1.5263532e-05
1.5269099e-05
1.5277433e-05
1.5284777e-05
1.5289624e-05
1.5293259e-05
1.5296168e-05
1.5296046e-05
1.5295042e-05
1.5289718e-05
1.5283222e-05
1.527692e-05
1.5255187e-05
1.5172013e-05
1.4891013e-05
1.4078926e-05
1.2026673e-05
7.7049347e-06
9.6599345e-06
9.6631881e-06
9.6677568e-06
9.6750525e-06
9.6853124e-06
9.6914702e-06
9.694568e-06
9.6964999e-06
9.699469e-06
9.7067087e-06
9.7131383e-06
9.7169669e-06
9.7199037e-06
9.7219707e-06
9.7189151e-06
9.712465e-06
9.6850296e-06
9.6571803e-06
9.650053e-06
9.6366082e-06
9.5789538e-06
9.3742373e-06
8.8372466e-06
7.5293317e-06
4.9119345e-06
)
;

boundaryField
{
    Walls
    {
        type            kqRWallFunction;
        value           nonuniform List<scalar> 
38
(
4.1024084e-06
1.3256525e-06
6.1533891e-06
3.6435402e-05
0.00028521104
0.0023607221
0.05620511
0.06091426
0.017999258
0.026962516
0.034836673
0.041845819
0.047578795
0.052069958
0.056092109
0.059509236
0.061579924
0.064214314
0.066398705
0.066885335
0.068482917
0.069636053
0.069963336
0.070868808
0.071561003
0.071812926
0.071578012
0.072001127
0.072611344
0.072143032
0.072625283
0.072984386
0.072218133
0.072226802
0.072096505
0.071837734
0.071229243
0.066323055
)
;
    }
    Inlet
    {
        type            turbulentIntensityKineticEnergyInlet;
        intensity       0.05;
        value           nonuniform List<scalar> 3(0.0085345187 0.0091380186 0.0087768531);
    }
    Outlet
    {
        type            inletOutlet;
        inletValue      uniform 0;
        value           nonuniform List<scalar> 
86
(
9.6534097e-06
9.6537415e-06
9.6545017e-06
9.6557223e-06
9.6574956e-06
9.6599345e-06
9.6631881e-06
9.6677568e-06
9.6750525e-06
9.6853124e-06
9.6914702e-06
9.694568e-06
9.6964999e-06
9.699469e-06
9.7067087e-06
9.7131383e-06
9.7169669e-06
9.7199037e-06
9.7219707e-06
9.7189151e-06
9.712465e-06
9.6850296e-06
9.6571803e-06
9.650053e-06
9.6366082e-06
9.5789538e-06
9.3742373e-06
8.8372466e-06
7.5293317e-06
4.9119345e-06
0.0003416371
0.00023902475
6.7247747e-05
0
0
0
0
6.8655178e-06
0
0
0
0
0
0
4.855201e-06
5.1348623e-06
5.300437e-06
5.3937739e-06
5.4869254e-06
5.596067e-06
5.7203554e-06
5.8544055e-06
5.9949277e-06
6.1657375e-06
6.3638615e-06
6.5477731e-06
6.7537979e-06
6.9479159e-06
7.1328785e-06
7.3620127e-06
7.503523e-06
7.6943094e-06
7.8749482e-06
8.0382373e-06
8.1948187e-06
8.3506139e-06
8.4900135e-06
8.6391652e-06
8.7494419e-06
8.8689539e-06
8.986663e-06
9.1011351e-06
9.2063608e-06
9.2529532e-06
9.3409501e-06
9.38679e-06
9.3225849e-06
8.9275532e-06
7.7049347e-06
4.9119345e-06
0
0
0
0
6.0315742e-05
0.00022383365
)
;
    }
    Front
    {
        type            wedge;
    }
    Back
    {
        type            wedge;
    }
    defaultFaces
    {
        type            empty;
    }
}


// ************************************************************************* //
