/*--------------------------------*- C++ -*----------------------------------*\
| =========                 |                                                 |
| \\      /  F ield         | OpenFOAM: The Open Source CFD Toolbox           |
|  \\    /   O peration     | Version:  4.0                                   |
|   \\  /    A nd           | Web:      www.OpenFOAM.org                      |
|    \\/     M anipulation  |                                                 |
\*---------------------------------------------------------------------------*/
FoamFile
{
    version     2.0;
    format      ascii;
    class       volScalarField;
    location    "0.05";
    object      nut;
}
// * * * * * * * * * * * * * * * * * * * * * * * * * * * * * * * * * * * * * //

dimensions      [0 2 -1 0 0 0 0];

internalField   nonuniform List<scalar> 
1740
(
2.7760629e-05
1.4260378e-05
1.2066136e-06
1.2373291e-05
7.5507796e-06
1.7943358e-06
8.1105963e-06
5.7030234e-06
2.3037151e-06
9.4687055e-06
4.8784916e-06
2.7517393e-06
1.9239278e-05
4.3609176e-06
3.1147432e-06
1.6007984e-05
4.0418183e-06
3.396846e-06
1.3573362e-05
3.8481624e-06
3.6484178e-06
1.1713023e-05
3.7237148e-06
3.8606203e-06
1.0507042e-05
3.634676e-06
3.9882654e-06
9.5812071e-06
3.5747393e-06
4.150833e-06
8.6470062e-06
3.5412935e-06
4.2849435e-06
7.8796954e-06
3.5216042e-06
4.3144492e-06
7.3649569e-06
3.5039804e-06
4.4123875e-06
6.9446135e-06
3.4989056e-06
4.4828128e-06
6.5369334e-06
3.487913e-06
4.5020074e-06
6.1728294e-06
3.4967506e-06
4.557165e-06
5.8409604e-06
3.5004283e-06
4.599412e-06
5.5389999e-06
3.4997175e-06
4.614701e-06
5.3315395e-06
3.5156624e-06
4.6001683e-06
5.1723104e-06
3.5253675e-06
4.6261748e-06
4.9987894e-06
3.5307183e-06
4.6634632e-06
4.8316009e-06
3.5303184e-06
4.6348612e-06
4.7064364e-06
3.5226849e-06
4.6649086e-06
4.5683317e-06
3.5324775e-06
4.6864867e-06
4.4497725e-06
3.5230137e-06
4.6396346e-06
4.3676882e-06
3.5019844e-06
4.6399048e-06
4.2866614e-06
3.5208426e-06
4.6318992e-06
4.2071215e-06
3.5351557e-06
4.6159016e-06
4.1563938e-06
3.5629721e-06
4.5786064e-06
2.8776979e-06
3.4573024e-06
4.279376e-06
1.870783e-06
2.182597e-06
4.4096446e-06
7.2041583e-06
7.3697212e-06
6.7232553e-06
6.4010586e-06
6.6189679e-06
6.2753451e-06
4.7922236e-06
4.7724899e-06
4.5508702e-06
3.3415827e-06
3.3195942e-06
3.2029745e-06
1.8803081e-06
1.8743974e-06
1.8150103e-06
7.4679817e-07
7.4466242e-07
7.1795594e-07
2.2178098e-07
2.2065145e-07
2.1203048e-07
6.5420807e-08
6.5068451e-08
6.3084941e-08
3.0637737e-08
3.0606357e-08
3.0329172e-08
2.5041339e-08
2.5093031e-08
2.5180884e-08
2.5499272e-08
2.556848e-08
2.5721656e-08
2.7074773e-08
2.7145742e-08
2.7304165e-08
2.884785e-08
2.8916584e-08
2.9068844e-08
3.0670189e-08
3.0735604e-08
3.0879686e-08
3.2523185e-08
3.258502e-08
3.2720789e-08
3.4406542e-08
3.4464821e-08
3.4592557e-08
3.6321518e-08
3.6376364e-08
3.6496456e-08
3.8268952e-08
3.8320522e-08
3.8433381e-08
4.0249191e-08
4.0297648e-08
4.040367e-08
4.2262134e-08
4.2307639e-08
4.2407189e-08
4.4307234e-08
4.4349938e-08
4.4443355e-08
4.6383476e-08
4.6423522e-08
4.651112e-08
4.8489344e-08
4.8526863e-08
4.8608934e-08
5.0622766e-08
5.0657881e-08
5.0734694e-08
5.2781069e-08
5.2813895e-08
5.28857e-08
5.4960928e-08
5.4991571e-08
5.50586e-08
5.7158314e-08
5.7186874e-08
5.7249346e-08
5.9368447e-08
5.9395017e-08
5.9453136e-08
6.1585748e-08
6.1610417e-08
6.1664377e-08
6.3803809e-08
6.3826662e-08
6.3876646e-08
6.6015363e-08
6.6036481e-08
6.6082669e-08
6.8212273e-08
6.8231735e-08
6.82743e-08
7.0385543e-08
7.0403426e-08
7.0442536e-08
7.252534e-08
7.254172e-08
7.2577543e-08
7.4621046e-08
7.4635999e-08
7.4668699e-08
7.6661325e-08
7.6674927e-08
7.670467e-08
7.8634227e-08
7.8646554e-08
7.8673507e-08
8.0527314e-08
8.0538444e-08
8.0562776e-08
8.2327814e-08
8.2337825e-08
8.2359709e-08
8.4022812e-08
8.4031783e-08
8.4051394e-08
8.5599485e-08
8.5607498e-08
8.5625013e-08
8.7045519e-08
8.7052657e-08
8.7068256e-08
8.8350095e-08
8.8356439e-08
8.8370304e-08
8.9506577e-08
8.9512211e-08
8.9524527e-08
9.051872e-08
9.0523729e-08
9.0534688e-08
9.1409404e-08
9.1413883e-08
9.1423692e-08
9.2217081e-08
9.2221137e-08
9.2230033e-08
9.2937212e-08
9.2940961e-08
9.2949199e-08
9.3304654e-08
9.3308199e-08
9.3316001e-08
4.1693136e-06
4.5002527e-06
6.7525028e-06
8.4565689e-06
5.9056781e-06
5.9419467e-06
4.3805657e-06
4.420883e-06
3.0831799e-06
3.0441173e-06
1.7186191e-06
1.6317597e-06
6.653593e-07
6.0677323e-07
1.9468147e-07
1.7420603e-07
5.9112689e-08
5.4322313e-08
2.9724326e-08
2.9005408e-08
2.5287318e-08
2.5444954e-08
2.595251e-08
2.6262338e-08
2.7544812e-08
2.7864135e-08
2.9299245e-08
2.9603771e-08
3.1097027e-08
3.1383844e-08
3.2925235e-08
3.3194867e-08
3.478475e-08
3.5038172e-08
3.6677086e-08
3.6915266e-08
3.8603106e-08
3.8826935e-08
4.0563101e-08
4.0773393e-08
4.2556889e-08
4.2754387e-08
4.4583842e-08
4.4769223e-08
4.664287e-08
4.6816753e-08
4.8732382e-08
4.8895338e-08
5.0850244e-08
5.1002801e-08
5.2993725e-08
5.3136373e-08
5.5159451e-08
5.5292647e-08
5.7343346e-08
5.746752e-08
5.9540594e-08
5.9656147e-08
6.1745583e-08
6.1852899e-08
6.3951879e-08
6.4051322e-08
6.6152195e-08
6.6244119e-08
6.833838e-08
6.8423127e-08
7.0501423e-08
7.0579329e-08
7.2631488e-08
7.2702882e-08
7.4717951e-08
7.4783163e-08
7.6749478e-08
7.6808837e-08
7.8714123e-08
7.8767962e-08
8.0599455e-08
8.0648109e-08
8.239271e-08
8.2436522e-08
8.408098e-08
8.4120298e-08
8.5651453e-08
8.5686634e-08
8.7091823e-08
8.7123228e-08
8.8391274e-08
8.8419273e-08
8.9543182e-08
8.9568152e-08
9.0551321e-08
9.0573657e-08
9.1438624e-08
9.1458751e-08
9.2243619e-08
9.2262005e-08
9.2961821e-08
9.2978957e-08
9.3327982e-08
9.3344286e-08
3.4021805e-10
3.3088179e-09
4.1479863e-08
1.4084297e-07
2.2434079e-07
2.4330562e-07
2.2392468e-07
1.9237798e-07
1.6007131e-07
1.3094537e-07
1.061521e-07
8.5801624e-08
6.9603277e-08
5.7140232e-08
4.7914651e-08
4.136916e-08
3.6938099e-08
3.4094872e-08
3.2383388e-08
3.144469e-08
3.1014936e-08
3.0916951e-08
3.1041815e-08
3.1302759e-08
3.1526438e-08
1.0993859e-10
1.2743216e-08
1.5077741e-07
4.8121406e-07
7.4283414e-07
8.0406108e-07
7.5295795e-07
6.6141411e-07
5.6085133e-07
4.636348e-07
3.7496651e-07
2.9707128e-07
2.3085293e-07
1.7654132e-07
1.3367994e-07
1.011669e-07
7.7452005e-08
6.0799826e-08
4.9524881e-08
4.2201996e-08
3.7686225e-08
3.5105113e-08
3.3821962e-08
3.3375656e-08
3.3319183e-08
5.1030928e-10
5.895308e-08
5.9186036e-07
1.5604411e-06
2.117244e-06
2.2510433e-06
2.1780818e-06
2.0147246e-06
1.810118e-06
1.5860281e-06
1.3551167e-06
1.1265655e-06
9.0929318e-07
7.1179707e-07
5.4082417e-07
4.0001584e-07
2.8941695e-07
2.0622398e-07
1.4611324e-07
1.0453604e-07
7.7146625e-08
6.0171962e-08
5.0587347e-08
4.6368122e-08
4.7175704e-08
3.0215505e-09
2.6750669e-07
1.8608576e-06
3.4392516e-06
4.1132875e-06
4.3247133e-06
4.3216223e-06
4.2065488e-06
4.0187779e-06
3.7722862e-06
3.4724311e-06
3.1217851e-06
2.7303565e-06
2.3139539e-06
1.895228e-06
1.4980709e-06
1.142291e-06
8.4018725e-07
5.9742038e-07
4.1335852e-07
2.819072e-07
1.9407166e-07
1.4013057e-07
1.1279089e-07
1.1199856e-07
2.3646249e-08
1.13609e-06
3.9555796e-06
5.4896417e-06
6.2299605e-06
6.5918279e-06
6.7550136e-06
6.8074902e-06
6.7794896e-06
6.6754541e-06
6.4822682e-06
6.1837643e-06
5.7785905e-06
5.2686878e-06
4.6740691e-06
4.0226517e-06
3.3472782e-06
2.6795402e-06
2.0581853e-06
1.5161198e-06
1.0735184e-06
7.3664178e-07
4.9749559e-07
3.4143725e-07
2.544438e-07
1.9530639e-07
2.7399648e-06
5.9621499e-06
7.8448731e-06
8.8065856e-06
9.2333574e-06
9.3953269e-06
9.4497789e-06
9.4495283e-06
9.3930463e-06
9.2661923e-06
9.0545388e-06
8.7433258e-06
8.3190838e-06
7.7736753e-06
7.1086059e-06
6.336929e-06
5.4844581e-06
4.5896055e-06
3.6994331e-06
2.8620397e-06
2.121658e-06
1.5072067e-06
1.0348099e-06
7.16029e-07
4.3428633e-06
4.3205178e-06
4.3660195e-06
4.4791763e-06
4.6604024e-06
4.8987268e-06
5.1810032e-06
5.498365e-06
5.8418091e-06
6.19584e-06
6.5360448e-06
6.8297021e-06
7.038509e-06
7.1238401e-06
7.0539072e-06
6.8108658e-06
6.3949281e-06
5.8248338e-06
5.1352033e-06
4.3722213e-06
3.586988e-06
2.8300187e-06
2.1436415e-06
1.5614163e-06
1.1253427e-06
9.0926118e-06
9.4002627e-06
9.8519176e-06
1.0332703e-05
1.055463e-05
1.0537067e-05
1.0401537e-05
1.0240677e-05
1.0077066e-05
9.8959046e-06
9.6756621e-06
9.3952329e-06
9.0348947e-06
8.5766362e-06
8.0078766e-06
7.3255689e-06
6.5402374e-06
5.6759638e-06
4.7685008e-06
3.86266e-06
3.005441e-06
2.2414656e-06
1.6015192e-06
1.104497e-06
7.6544295e-07
6.2955707e-06
6.6911101e-06
7.0996421e-06
7.4570752e-06
7.6781063e-06
7.7591136e-06
7.742568e-06
7.6672656e-06
7.545711e-06
7.3540711e-06
7.0750768e-06
6.6989356e-06
6.2307833e-06
5.6747124e-06
5.0440012e-06
4.3515311e-06
3.6281577e-06
2.9126875e-06
2.2451995e-06
1.6602648e-06
1.1799328e-06
8.1201995e-07
5.4909081e-07
3.7615143e-07
2.7849831e-07
4.6278742e-06
4.8561418e-06
5.0563505e-06
5.1880955e-06
5.2163408e-06
5.1415884e-06
4.9861817e-06
4.773398e-06
4.5167084e-06
4.2108937e-06
3.8531683e-06
3.4473717e-06
3.0070611e-06
2.5493123e-06
2.0948604e-06
1.6629817e-06
1.2721623e-06
9.3768864e-07
6.6774473e-07
4.6252074e-07
3.1565907e-07
2.1735255e-07
1.568348e-07
1.2594701e-07
1.243035e-07
3.0752069e-06
3.1208971e-06
3.1449866e-06
3.1169867e-06
3.0169835e-06
2.8471765e-06
2.6249857e-06
2.3711086e-06
2.1023032e-06
1.8262439e-06
1.5491897e-06
1.2795445e-06
1.0275634e-06
8.0226607e-07
6.0968736e-07
4.5174662e-07
3.2714629e-07
2.3292179e-07
1.6475448e-07
1.1765041e-07
8.667247e-08
6.7507218e-08
5.6703028e-08
5.196269e-08
5.2883575e-08
1.5638866e-06
1.5055463e-06
1.4427083e-06
1.3595405e-06
1.2473674e-06
1.1104376e-06
9.6128769e-07
8.1295438e-07
6.7450756e-07
5.4966323e-07
4.3956621e-07
3.4485884e-07
2.6589389e-07
2.023101e-07
1.529043e-07
1.1576011e-07
8.8657861e-08
6.9536916e-08
5.6549243e-08
4.8096471e-08
4.2871039e-08
3.9875368e-08
3.8389111e-08
3.7906083e-08
3.7979315e-08
5.5242838e-07
5.0446743e-07
4.5999089e-07
4.1403426e-07
3.6401573e-07
3.1154342e-07
2.6046474e-07
2.1416233e-07
1.7438194e-07
1.4126241e-07
1.141983e-07
9.2509494e-08
7.5572367e-08
6.275282e-08
5.3378897e-08
4.6763545e-08
4.2260664e-08
3.9327508e-08
3.7523769e-08
3.6502663e-08
3.6007934e-08
3.5871699e-08
3.5999831e-08
3.6323468e-08
3.6663459e-08
1.5472429e-07
1.3788287e-07
1.2334756e-07
1.0992019e-07
9.6863573e-08
8.4342795e-08
7.2985709e-08
6.329281e-08
5.5397577e-08
4.9198355e-08
4.445516e-08
4.092867e-08
3.8411885e-08
3.6716811e-08
3.5668244e-08
3.5104936e-08
3.4885379e-08
3.4895369e-08
3.5047122e-08
3.5277692e-08
3.555077e-08
3.5859995e-08
3.6222145e-08
3.6634631e-08
3.6974633e-08
4.977409e-08
4.5984602e-08
4.29591e-08
4.0457107e-08
3.8283489e-08
3.6400069e-08
3.4861671e-08
3.3716294e-08
3.2956386e-08
3.2538446e-08
3.2397714e-08
3.2472942e-08
3.2711961e-08
3.3069106e-08
3.3503812e-08
3.3980531e-08
3.4469236e-08
3.494627e-08
3.5394607e-08
3.5805088e-08
3.6179964e-08
3.6536459e-08
3.6898861e-08
3.7259072e-08
3.7504583e-08
2.8401627e-08
2.8040651e-08
2.7929509e-08
2.8011465e-08
2.822873e-08
2.8550561e-08
2.8965757e-08
2.9466488e-08
3.0039706e-08
3.0667137e-08
3.1330844e-08
3.2013427e-08
3.269946e-08
3.3375234e-08
3.4028582e-08
3.4648887e-08
3.5227163e-08
3.5756317e-08
3.6231742e-08
3.6653024e-08
3.7027293e-08
3.7371705e-08
3.7705015e-08
3.8013864e-08
3.8183353e-08
2.5694687e-08
2.6060279e-08
2.6536948e-08
2.710404e-08
2.7738788e-08
2.8423324e-08
2.9144537e-08
2.9891536e-08
3.0653946e-08
3.1421614e-08
3.2184482e-08
3.2933841e-08
3.366137e-08
3.4359363e-08
3.5020804e-08
3.5639425e-08
3.620979e-08
3.6727507e-08
3.7189872e-08
3.7597527e-08
3.7957574e-08
3.8286126e-08
3.8602399e-08
3.8901488e-08
3.9077126e-08
2.6654379e-08
2.7128933e-08
2.7678581e-08
2.8291508e-08
2.8954783e-08
2.9656278e-08
3.0385097e-08
3.1131314e-08
3.1885669e-08
3.2639456e-08
3.3384459e-08
3.4112769e-08
3.4817352e-08
3.5491519e-08
3.6129097e-08
3.6724516e-08
3.7272891e-08
3.7770234e-08
3.821408e-08
3.8605125e-08
3.8950502e-08
3.9267483e-08
3.9581099e-08
3.9902274e-08
4.0160967e-08
2.8258714e-08
2.8724344e-08
2.9253851e-08
2.9838409e-08
3.0468406e-08
3.1134122e-08
3.182611e-08
3.2535282e-08
3.3252936e-08
3.3970787e-08
3.4681017e-08
3.5375922e-08
3.6048665e-08
3.6692767e-08
3.730224e-08
3.7871658e-08
3.8396251e-08
3.8872112e-08
3.9296824e-08
3.9671175e-08
4.0002854e-08
4.0311615e-08
4.0629815e-08
4.0983767e-08
4.133143e-08
2.9978118e-08
3.0417429e-08
3.091525e-08
3.1464074e-08
3.2055811e-08
3.2682014e-08
3.3334166e-08
3.4003865e-08
3.4682904e-08
3.5363338e-08
3.6037562e-08
3.6698316e-08
3.733867e-08
3.795234e-08
3.853347e-08
3.9076737e-08
3.9577453e-08
4.0031779e-08
4.0437373e-08
4.0795239e-08
4.1113937e-08
4.1415984e-08
4.1740043e-08
4.2121727e-08
4.2516839e-08
3.1735931e-08
3.214853e-08
3.2615799e-08
3.3131072e-08
3.3687127e-08
3.4276377e-08
3.4891022e-08
3.5523239e-08
3.6165296e-08
3.6809639e-08
3.7448963e-08
3.8076291e-08
3.8684882e-08
3.9268603e-08
3.982175e-08
4.0339127e-08
4.0816151e-08
4.1249071e-08
4.1635664e-08
4.1977242e-08
4.22833e-08
4.2578672e-08
4.2905676e-08
4.3300373e-08
4.3699139e-08
3.3525749e-08
3.391339e-08
3.4352426e-08
3.4836802e-08
3.535995e-08
3.5914906e-08
3.649448e-08
3.7091373e-08
3.7698298e-08
3.8308096e-08
3.8913789e-08
3.9508665e-08
4.0086336e-08
4.0640767e-08
4.1166439e-08
4.1658314e-08
4.2111934e-08
4.2523664e-08
4.2891438e-08
4.3216912e-08
4.3510439e-08
4.379846e-08
4.4124423e-08
4.4520089e-08
4.4905731e-08
3.5349185e-08
3.5713574e-08
3.6126394e-08
3.6582081e-08
3.7074577e-08
3.7597459e-08
3.8144037e-08
3.8707492e-08
3.928097e-08
3.9857688e-08
4.0431009e-08
4.0994517e-08
4.1542089e-08
4.206796e-08
4.2566747e-08
4.303359e-08
4.3464178e-08
4.3855013e-08
4.4204202e-08
4.451375e-08
4.4794745e-08
4.5074658e-08
4.5396668e-08
4.5786892e-08
4.6152722e-08
3.7207641e-08
3.755026e-08
3.793855e-08
3.8367366e-08
3.8831093e-08
3.9323758e-08
3.9839133e-08
4.0370823e-08
4.091238e-08
4.1457392e-08
4.1999556e-08
4.2532759e-08
4.3051149e-08
4.3549206e-08
4.4021753e-08
4.4464102e-08
4.48721e-08
4.5242396e-08
4.5573279e-08
4.5867074e-08
4.6135459e-08
4.6406529e-08
4.6722648e-08
4.7105011e-08
4.7454022e-08
3.9101766e-08
3.9423918e-08
3.9789135e-08
4.0192642e-08
4.062922e-08
4.1093293e-08
4.1579046e-08
4.2080483e-08
4.2591531e-08
4.3106131e-08
4.3618309e-08
4.4122255e-08
4.4612385e-08
4.5083416e-08
4.5530418e-08
4.5948863e-08
4.6334766e-08
4.668493e-08
4.6997824e-08
4.7276063e-08
4.75318e-08
4.7793593e-08
4.8103276e-08
4.8479438e-08
4.8820523e-08
4.1031668e-08
4.1334508e-08
4.167794e-08
4.2057521e-08
4.2468387e-08
4.2905327e-08
4.3362893e-08
4.3835462e-08
4.4317317e-08
4.4802734e-08
4.5286059e-08
4.5761776e-08
4.622457e-08
4.6669403e-08
4.7091567e-08
4.7486727e-08
4.7851066e-08
4.8181544e-08
4.8476806e-08
4.8739733e-08
4.8982916e-08
4.9235436e-08
4.953923e-08
4.9912034e-08
5.0250682e-08
4.2997007e-08
4.3281569e-08
4.3604377e-08
4.3961277e-08
4.434773e-08
4.4758865e-08
4.5189567e-08
4.5634558e-08
4.6088458e-08
4.6545864e-08
4.7001428e-08
4.7449921e-08
4.7886298e-08
4.8305758e-08
4.8703811e-08
4.9076332e-08
4.9419663e-08
4.9730927e-08
5.0008946e-08
5.0256855e-08
5.0487675e-08
5.0731115e-08
5.1029725e-08
5.1401212e-08
5.1740065e-08
4.4997012e-08
4.5264245e-08
4.556748e-08
4.5902837e-08
4.6266067e-08
4.6652616e-08
4.7057681e-08
4.7476303e-08
4.7903419e-08
4.8333934e-08
4.8762792e-08
4.9185043e-08
4.9595902e-08
4.9990812e-08
5.0365497e-08
5.0716031e-08
5.1038926e-08
5.1331468e-08
5.1592653e-08
5.1825865e-08
5.2044559e-08
5.2279173e-08
5.2573244e-08
5.2945046e-08
5.3286301e-08
4.7030464e-08
4.7281242e-08
4.7565871e-08
4.7880731e-08
4.822184e-08
4.8584933e-08
4.8965506e-08
4.9358894e-08
4.9760335e-08
5.0165028e-08
5.0568197e-08
5.0965162e-08
5.1351392e-08
5.1722564e-08
5.2074617e-08
5.240382e-08
5.270686e-08
5.2981184e-08
5.3225959e-08
5.3444816e-08
5.3651652e-08
5.3877713e-08
5.4167787e-08
5.4541077e-08
5.4885468e-08
4.9095665e-08
4.9330789e-08
4.959771e-08
4.9893039e-08
5.0213051e-08
5.0553749e-08
5.0910901e-08
5.1280129e-08
5.165695e-08
5.2036841e-08
5.24153e-08
5.2787905e-08
5.3150371e-08
5.3498606e-08
5.3828759e-08
5.4137287e-08
5.4421059e-08
5.4677674e-08
5.4906474e-08
5.5111334e-08
5.5306582e-08
5.5524268e-08
5.5810387e-08
5.6184929e-08
5.6531959e-08
5.1190384e-08
5.1410598e-08
5.1660641e-08
5.1937341e-08
5.2237212e-08
5.2556504e-08
5.2891252e-08
5.3237332e-08
5.3590537e-08
5.3946608e-08
5.4301301e-08
5.4650445e-08
5.4989993e-08
5.5316075e-08
5.562505e-08
5.5913561e-08
5.6178648e-08
5.641807e-08
5.6631342e-08
5.6822582e-08
5.7006554e-08
5.721606e-08
5.7498129e-08
5.7873043e-08
5.8219848e-08
5.331181e-08
5.3517805e-08
5.3751744e-08
5.401066e-08
5.4291285e-08
5.4590104e-08
5.4903399e-08
5.5227301e-08
5.5557849e-08
5.5891038e-08
5.6222877e-08
5.6549432e-08
5.6866888e-08
5.7171591e-08
5.74601e-08
5.7729242e-08
5.7976227e-08
5.8198975e-08
5.8397177e-08
5.8575215e-08
5.8748316e-08
5.8950051e-08
5.922828e-08
5.9602758e-08
5.9945393e-08
5.5456493e-08
5.5648916e-08
5.5867476e-08
5.6109399e-08
5.6371622e-08
5.6650851e-08
5.6943601e-08
5.7246241e-08
5.7555051e-08
5.7866267e-08
5.8176131e-08
5.8480944e-08
5.8777113e-08
5.9061194e-08
5.9329941e-08
5.9580359e-08
5.9809822e-08
6.0016413e-08
6.0200005e-08
6.0365271e-08
6.0527963e-08
6.0722488e-08
6.0997482e-08
6.1371754e-08
6.1710371e-08
5.7620298e-08
5.7799756e-08
5.8003619e-08
5.8229295e-08
5.8473916e-08
5.8734394e-08
5.9007462e-08
5.9289718e-08
5.957767e-08
5.9867784e-08
6.0156529e-08
6.0440427e-08
6.0716096e-08
6.0980297e-08
6.1229973e-08
6.1462303e-08
6.1674823e-08
6.186577e-08
6.2035207e-08
6.2188105e-08
6.2340778e-08
6.2528525e-08
6.2800729e-08
6.317487e-08
6.350791e-08
5.9798351e-08
5.996542e-08
6.0155233e-08
6.0365367e-08
6.0593145e-08
6.0835672e-08
6.1089887e-08
6.1352602e-08
6.1620545e-08
6.18904e-08
6.2158853e-08
6.2422638e-08
6.2678581e-08
6.2923634e-08
6.3154921e-08
6.3369793e-08
6.3565941e-08
6.3741755e-08
6.3897481e-08
6.4038384e-08
6.4181327e-08
6.4362473e-08
6.4631882e-08
6.5005623e-08
6.5332899e-08
6.1984996e-08
6.2140223e-08
6.2316603e-08
6.2511875e-08
6.2723533e-08
6.2948875e-08
6.3185033e-08
6.3429021e-08
6.3677775e-08
6.3928191e-08
6.4177159e-08
6.4421618e-08
6.4658589e-08
6.4885211e-08
6.5098786e-08
6.5296825e-08
6.5477171e-08
6.5638362e-08
6.578082e-08
6.5910092e-08
6.6043558e-08
6.6218169e-08
6.6484468e-08
6.6856842e-08
6.7178884e-08
6.4173762e-08
6.431767e-08
6.448121e-08
6.466227e-08
6.4858511e-08
6.5067407e-08
6.5286276e-08
6.5512327e-08
6.5742692e-08
6.5974465e-08
6.6204738e-08
6.6430642e-08
6.6649384e-08
6.6858286e-08
6.7054815e-08
6.7236641e-08
6.7401753e-08
6.7548832e-08
6.7678469e-08
6.7796487e-08
6.7920772e-08
6.8089044e-08
6.8352327e-08
6.8723337e-08
6.9035027e-08
6.6357333e-08
6.6490428e-08
6.6641698e-08
6.6809177e-08
6.6990681e-08
6.7183851e-08
6.7386182e-08
6.7595066e-08
6.7807823e-08
6.8021737e-08
6.8234089e-08
6.8442197e-08
6.8643446e-08
6.883533e-08
6.9015477e-08
6.918171e-08
6.9332156e-08
6.9465635e-08
6.9582903e-08
6.9690053e-08
6.9805471e-08
6.9967681e-08
7.022839e-08
7.0599374e-08
7.0906587e-08
6.8527535e-08
6.8650308e-08
6.8789867e-08
6.8944379e-08
6.911181e-08
6.9289957e-08
6.9476486e-08
6.9668961e-08
6.986488e-08
7.0061708e-08
7.0256907e-08
7.044797e-08
7.0632456e-08
7.0808021e-08
7.0972451e-08
7.1123709e-08
7.1260061e-08
7.1380457e-08
7.1485815e-08
7.1582487e-08
7.1689346e-08
7.184566e-08
7.2103674e-08
7.2473697e-08
7.2773138e-08
7.0675343e-08
7.0788278e-08
7.0916672e-08
7.1058822e-08
7.1212832e-08
7.1376652e-08
7.1548104e-08
7.1724919e-08
7.1904764e-08
7.2085274e-08
7.2264082e-08
7.2438851e-08
7.2607303e-08
7.2767251e-08
7.2916627e-08
7.3053536e-08
7.3176368e-08
7.3284206e-08
7.3378122e-08
7.3464722e-08
7.3563348e-08
7.371398e-08
7.3969288e-08
7.4337935e-08
7.4628781e-08
7.2790909e-08
7.2894483e-08
7.3012253e-08
7.3142637e-08
7.3283875e-08
7.3434056e-08
7.3591153e-08
7.3753054e-08
7.3917586e-08
7.4082545e-08
7.4245727e-08
7.4404954e-08
7.4558106e-08
7.4703142e-08
7.4838137e-08
7.4961326e-08
7.5071225e-08
7.5167037e-08
7.5249986e-08
7.5326931e-08
7.5417685e-08
7.5562961e-08
7.5815987e-08
7.6184118e-08
7.6467919e-08
7.4863606e-08
7.4958294e-08
7.5065978e-08
7.5185194e-08
7.5314305e-08
7.5451535e-08
7.5595e-08
7.5742733e-08
7.5892714e-08
7.6042894e-08
7.619122e-08
7.6335666e-08
7.6474258e-08
7.6605097e-08
7.6726393e-08
7.6836504e-08
7.6934064e-08
7.7018393e-08
7.709086e-08
7.7158564e-08
7.7241776e-08
7.7381954e-08
7.7632971e-08
7.8001002e-08
7.827779e-08
7.6882103e-08
7.6968379e-08
7.7066518e-08
7.7175164e-08
7.7292798e-08
7.741777e-08
7.7548328e-08
7.7682648e-08
7.7818849e-08
7.7955027e-08
7.8089276e-08
7.8219711e-08
7.8344497e-08
7.8461868e-08
7.8570159e-08
7.8667848e-08
7.8753678e-08
7.8827081e-08
7.8889558e-08
7.8948425e-08
7.9024366e-08
7.91595e-08
7.9408211e-08
7.9775161e-08
8.0042606e-08
7.8834458e-08
7.8912802e-08
7.9001941e-08
7.9100622e-08
7.9207435e-08
7.9320849e-08
7.9439239e-08
7.9560908e-08
7.9684112e-08
7.9807081e-08
7.9928045e-08
8.0045254e-08
8.0157001e-08
8.0261648e-08
8.0357648e-08
8.0443588e-08
8.0518316e-08
8.0581366e-08
8.0634359e-08
8.0684802e-08
8.0753725e-08
8.0883778e-08
8.1129641e-08
8.1494374e-08
8.1751741e-08
8.0708249e-08
8.0779149e-08
8.0859842e-08
8.0949171e-08
8.104583e-08
8.1148399e-08
8.1255369e-08
8.1365165e-08
8.147617e-08
8.1586739e-08
8.1695228e-08
8.1800014e-08
8.1899511e-08
8.1992198e-08
8.2076638e-08
8.2151524e-08
8.2215798e-08
8.226909e-08
8.2313131e-08
8.2355597e-08
8.2417815e-08
8.2542852e-08
8.2785495e-08
8.314683e-08
8.3389899e-08
8.2490728e-08
8.2554678e-08
8.2627488e-08
8.2708091e-08
8.2795276e-08
8.2887727e-08
8.2984043e-08
8.3082763e-08
8.3182385e-08
8.3281382e-08
8.3378229e-08
8.3471417e-08
8.3559475e-08
8.3640989e-08
8.3714626e-08
8.3779174e-08
8.3833665e-08
8.3877819e-08
8.391347e-08
8.3948456e-08
8.4004382e-08
8.4124699e-08
8.4364252e-08
8.4722366e-08
8.4954231e-08
8.4169e-08
8.4226506e-08
8.429201e-08
8.4364526e-08
8.4442934e-08
8.4526012e-08
8.4612459e-08
8.4700919e-08
8.4789996e-08
8.4878273e-08
8.4964333e-08
8.5046774e-08
8.5124229e-08
8.5195384e-08
8.5258999e-08
8.5313952e-08
8.5359358e-08
8.5395019e-08
8.542287e-08
8.545091e-08
8.5501032e-08
8.5617095e-08
8.5854102e-08
8.6209937e-08
8.6432504e-08
8.573027e-08
8.5781849e-08
8.5840636e-08
8.5905721e-08
8.5976066e-08
8.6050535e-08
8.612792e-08
8.620696e-08
8.6286356e-08
8.6364791e-08
8.6440947e-08
8.6513518e-08
8.6581234e-08
8.6642871e-08
8.6697276e-08
8.6743406e-08
8.6780452e-08
8.6808292e-08
8.6828958e-08
8.6850607e-08
8.6895424e-08
8.7007692e-08
8.724261e-08
8.7596706e-08
8.7810824e-08
8.7162246e-08
8.7208427e-08
8.7261102e-08
8.731943e-08
8.7382446e-08
8.7449094e-08
8.7518249e-08
8.7588735e-08
8.7659341e-08
8.772884e-08
8.7796004e-08
8.7859615e-08
8.7918489e-08
8.7971483e-08
8.8017521e-08
8.8055631e-08
8.8085075e-08
8.8105797e-08
8.8119917e-08
8.8135742e-08
8.8175738e-08
8.8284593e-08
8.8517689e-08
8.8870185e-08
8.9075822e-08
8.845413e-08
8.8495456e-08
8.8542639e-08
8.8594904e-08
8.8651351e-08
8.8710995e-08
8.8772782e-08
8.8835612e-08
8.8898353e-08
8.8959859e-08
8.9018982e-08
8.9074583e-08
8.9125554e-08
8.9170823e-08
8.920938e-08
8.9240316e-08
8.9262952e-08
8.9277294e-08
8.9285536e-08
8.9296113e-08
8.9331725e-08
8.9437413e-08
8.9668701e-08
9.0019365e-08
9.0211858e-08
8.959932e-08
8.9636348e-08
8.9678683e-08
8.9725606e-08
8.977628e-08
8.9829777e-08
8.9885105e-08
8.9941225e-08
8.9997074e-08
9.005158e-08
9.0103668e-08
9.0152275e-08
9.0196353e-08
9.0234884e-08
9.0266908e-08
9.0291572e-08
9.0308252e-08
9.0317004e-08
9.0320079e-08
9.0326e-08
9.0357626e-08
9.0460216e-08
9.0689334e-08
9.1037725e-08
9.1223067e-08
9.0601626e-08
9.0634938e-08
9.0673097e-08
9.0715445e-08
9.0761201e-08
9.080948e-08
9.0859332e-08
9.0909761e-08
9.0959763e-08
9.100834e-08
9.1054494e-08
9.109723e-08
9.1135545e-08
9.1168444e-08
9.1194987e-08
9.1214372e-08
9.122603e-08
9.1230063e-08
9.1228752e-08
9.1230652e-08
9.1258647e-08
9.1357942e-08
9.1583741e-08
9.1927582e-08
9.2103702e-08
9.1484043e-08
9.1514255e-08
9.1548952e-08
9.1587556e-08
9.1629344e-08
9.1673441e-08
9.1718911e-08
9.1764771e-08
9.1810063e-08
9.1853886e-08
9.1895332e-08
9.1933481e-08
9.1967347e-08
9.1995893e-08
9.2018142e-08
9.2033356e-08
9.2041034e-08
9.2041317e-08
9.2036478e-08
9.2035009e-08
9.2059568e-08
9.2154739e-08
9.2374511e-08
9.270887e-08
9.2871596e-08
9.2285187e-08
9.2312955e-08
9.2344957e-08
9.2380733e-08
9.2419627e-08
9.246069e-08
9.2502968e-08
9.2545457e-08
9.2587239e-08
9.2627562e-08
9.2665628e-08
9.2700605e-08
9.2731485e-08
9.2757094e-08
9.2776319e-08
9.2788539e-08
9.2793309e-08
9.2790834e-08
9.2783355e-08
9.2779083e-08
9.2799965e-08
9.2888799e-08
9.309654e-08
9.3410046e-08
9.3545427e-08
9.3000617e-08
9.3026624e-08
9.3056728e-08
9.3090641e-08
9.3127783e-08
9.3166958e-08
9.3207182e-08
9.3247429e-08
9.3286839e-08
9.3324864e-08
9.3360805e-08
9.3393938e-08
9.3423194e-08
9.3447167e-08
9.34645e-08
9.3474738e-08
9.3477215e-08
9.3472531e-08
9.3463168e-08
9.3456486e-08
9.3472842e-08
9.3551199e-08
9.3736702e-08
9.4009431e-08
9.4091771e-08
9.3364927e-08
9.3389764e-08
9.3418666e-08
9.3451571e-08
9.3487963e-08
9.3526089e-08
9.3564993e-08
9.3603719e-08
9.3641547e-08
9.3678203e-08
9.3712932e-08
9.3745056e-08
9.3773497e-08
9.3796611e-08
9.3812672e-08
9.3821238e-08
9.3819887e-08
9.381141e-08
9.3800522e-08
9.3791805e-08
9.3802518e-08
9.3864736e-08
9.4016796e-08
9.4229082e-08
9.4249832e-08
)
;

boundaryField
{
    Walls
    {
        type            nutUWallFunction;
        Cmu             0.09;
        kappa           0.41;
        E               9.8;
        value           uniform 0;
    }
    Inlet
    {
        type            calculated;
        value           nonuniform List<scalar> 3(2.5413497e-05 3.5111519e-05 7.3356428e-07);
    }
    Outlet
    {
        type            calculated;
        value           nonuniform List<scalar> 
86
(
9.3304654e-08
9.3308199e-08
9.3316001e-08
9.3327982e-08
9.3344286e-08
9.3364927e-08
9.3389764e-08
9.3418666e-08
9.3451571e-08
9.3487963e-08
9.3526089e-08
9.3564993e-08
9.3603719e-08
9.3641547e-08
9.3678203e-08
9.3712932e-08
9.3745056e-08
9.3773497e-08
9.3796611e-08
9.3812672e-08
9.3821238e-08
9.3819887e-08
9.381141e-08
9.3800522e-08
9.3791805e-08
9.3802518e-08
9.3864736e-08
9.4016796e-08
9.4229082e-08
9.4249832e-08
1.1253427e-06
7.6544295e-07
2.7849831e-07
0
0
0
0
3.6974633e-08
0
0
0
0
0
0
4.3699139e-08
4.4905731e-08
4.6152722e-08
4.7454022e-08
4.8820523e-08
5.0250682e-08
5.1740065e-08
5.3286301e-08
5.4885468e-08
5.6531959e-08
5.8219848e-08
5.9945393e-08
6.1710371e-08
6.350791e-08
6.5332899e-08
6.7178884e-08
6.9035027e-08
7.0906587e-08
7.2773138e-08
7.4628781e-08
7.6467919e-08
7.827779e-08
8.0042606e-08
8.1751741e-08
8.3389899e-08
8.4954231e-08
8.6432504e-08
8.7810824e-08
8.9075822e-08
9.0211858e-08
9.1223067e-08
9.2103702e-08
9.2871596e-08
9.3545427e-08
9.4091771e-08
9.4249832e-08
0
0
0
0
2.544438e-07
7.16029e-07
)
;
    }
    Front
    {
        type            wedge;
    }
    Back
    {
        type            wedge;
    }
    defaultFaces
    {
        type            empty;
    }
}


// ************************************************************************* //
