/*--------------------------------*- C++ -*----------------------------------*\
| =========                 |                                                 |
| \\      /  F ield         | OpenFOAM: The Open Source CFD Toolbox           |
|  \\    /   O peration     | Version:  4.0                                   |
|   \\  /    A nd           | Web:      www.OpenFOAM.org                      |
|    \\/     M anipulation  |                                                 |
\*---------------------------------------------------------------------------*/
FoamFile
{
    version     2.0;
    format      ascii;
    class       surfaceScalarField;
    location    "0.05";
    object      phi;
}
// * * * * * * * * * * * * * * * * * * * * * * * * * * * * * * * * * * * * * //

dimensions      [0 3 -1 0 0 0 0];

internalField   nonuniform List<scalar> 
3364
(
1.7518063e-10
1.6278422e-08
-7.1650713e-10
5.1968005e-08
8.2711484e-08
3.6568232e-10
1.5912715e-08
-1.5413594e-09
5.3875027e-08
8.1170101e-08
-1.431454e-11
1.5927011e-08
-9.4667297e-10
5.480736e-08
8.0223418e-08
-4.4075161e-10
1.6367728e-08
8.2684828e-10
5.3539729e-08
8.1050255e-08
-2.7754205e-10
1.664523e-08
1.7221593e-09
5.1539993e-08
8.277239e-08
9.3776054e-12
1.6635833e-08
1.5342568e-09
5.0015084e-08
8.4306621e-08
-1.1447512e-10
1.6750278e-08
5.2223392e-10
4.9378353e-08
8.4828832e-08
-3.6627134e-10
1.711651e-08
-4.2960181e-10
4.9441654e-08
8.4399208e-08
-8.5174037e-11
1.7201652e-08
8.2153715e-11
4.9274292e-08
8.4481327e-08
1.2799788e-10
1.707362e-08
5.2543056e-10
4.8876803e-08
8.5006712e-08
-6.3645245e-11
1.713721e-08
-3.4958372e-10
4.9162676e-08
8.4657094e-08
8.1535307e-11
1.7055635e-08
-4.638813e-10
4.9708059e-08
8.4193192e-08
6.2612177e-10
1.642949e-08
-4.8206661e-10
5.0816222e-08
8.3711094e-08
4.451655e-10
1.5984291e-08
-8.1154541e-10
5.2072871e-08
8.2899496e-08
-1.4683285e-10
1.613108e-08
-4.9297138e-10
5.2418952e-08
8.2406473e-08
5.8365962e-11
1.6072663e-08
-3.6150333e-10
5.2838777e-08
8.2044937e-08
1.5464841e-11
1.6057142e-08
-4.520626e-10
5.3306252e-08
8.159284e-08
-4.151407e-10
1.647225e-08
1.1073894e-10
5.2780327e-08
8.1703536e-08
-3.0113566e-10
1.6773376e-08
8.3808043e-10
5.164108e-08
8.2541586e-08
3.4832397e-10
1.6425017e-08
1.0471499e-09
5.0942225e-08
8.3588717e-08
7.8472545e-11
1.6346499e-08
5.5022515e-10
5.0470432e-08
8.4138917e-08
-3.2626985e-10
1.6672726e-08
5.7169631e-10
4.9572432e-08
8.4710585e-08
5.2430902e-11
1.6620236e-08
-1.9561111e-10
4.982044e-08
8.4514956e-08
-7.5884377e-11
1.6696062e-08
-1.2876506e-09
5.1032147e-08
8.322727e-08
-5.1914827e-10
1.721518e-08
-7.0786021e-10
5.122083e-08
8.2519366e-08
2.396262e-10
1.697553e-08
-4.2717851e-10
5.1887617e-08
8.2092148e-08
6.6990833e-10
1.6305591e-08
-1.2798646e-09
5.3837351e-08
8.0812239e-08
-1.7726571e-10
1.6482844e-08
-5.3953406e-10
5.4199581e-08
8.0272664e-08
-6.0482372e-10
1.7087713e-08
9.167747e-10
5.2678059e-08
8.1189433e-08
1.3894038e-09
1.5698521e-08
5.9594158e-09
4.8108161e-08
8.7148844e-08
1.148799e-08
4.2098826e-09
4.8933669e-08
1.066061e-08
1.0186687e-08
1.2589325e-07
4.7227803e-09
-5.1336005e-10
1.6738037e-08
-1.3561098e-09
-1.5820264e-09
2.850491e-08
-4.234164e-10
-8.9906306e-11
-1.5464623e-09
-2.3298488e-10
-3.7103368e-10
-2.7573398e-09
-1.079069e-10
1.801654e-11
-3.8878166e-10
4.7928669e-11
4.3616188e-11
-8.0338342e-10
-6.8521751e-12
2.4870666e-11
-3.1731105e-11
7.2812815e-11
1.0218034e-10
-9.0287137e-11
6.5810265e-12
1.828962e-11
2.5608006e-11
5.3785847e-11
7.971724e-11
4.8071096e-11
5.2004253e-12
1.3089007e-11
2.1228431e-11
3.7757334e-11
5.5274457e-11
4.5670445e-11
3.1992978e-12
9.8898358e-12
1.2791554e-11
2.8165091e-11
4.1638165e-11
2.6427985e-11
1.9746619e-12
7.9153438e-12
7.371861e-12
2.2768061e-11
3.4248276e-11
1.4761942e-11
1.1381297e-12
6.7773831e-12
4.2756974e-12
1.9630712e-11
3.013076e-11
8.3934817e-12
7.8906521e-13
5.9884529e-12
2.9665622e-12
1.7453407e-11
2.6978642e-11
6.118913e-12
7.0782853e-13
5.2807251e-12
2.7140076e-12
1.5447374e-11
2.4147499e-11
5.5453236e-12
6.6330795e-13
4.6174925e-12
2.525758e-12
1.3585036e-11
2.1491622e-11
5.1817662e-12
5.8267453e-13
4.0348754e-12
2.2624135e-12
1.1905389e-11
1.9006743e-11
4.7473924e-12
4.9516351e-13
3.5397557e-12
1.9277439e-12
1.0472884e-11
1.6818562e-11
4.1160126e-12
4.1064748e-13
3.1291419e-12
1.6055811e-12
9.2780107e-12
1.4963985e-11
3.4602334e-12
3.4351438e-13
2.7856529e-12
1.3469459e-12
8.2746261e-12
1.341801e-11
2.8929826e-12
2.873673e-13
2.4983049e-12
1.1322026e-12
7.4298271e-12
1.2095727e-11
2.4545337e-12
2.4703946e-13
2.2512799e-12
9.7232259e-13
6.7045714e-12
1.0933538e-11
2.1345481e-12
2.1752618e-13
2.0337644e-12
8.6099429e-13
6.061123e-12
9.8956018e-12
1.898956e-12
1.9623792e-13
1.8375342e-12
7.7404288e-13
5.4833315e-12
8.9634146e-12
1.7062468e-12
1.7778092e-13
1.6597586e-12
7.0431352e-13
4.9568074e-12
8.1147744e-12
1.5529634e-12
1.6145354e-13
1.4983086e-12
6.413083e-13
4.4769575e-12
7.3385249e-12
1.4175623e-12
1.4644535e-13
1.3518655e-12
5.8250386e-13
4.0409011e-12
6.6295747e-12
1.2914547e-12
1.3158161e-13
1.2202852e-12
5.2394683e-13
3.6485362e-12
5.9896991e-12
1.1638206e-12
1.1781258e-13
1.1024733e-12
4.6884208e-13
3.2975056e-12
5.4168506e-12
1.0416871e-12
1.0630577e-13
9.9616759e-13
4.2167061e-13
2.9821387e-12
4.9040647e-12
9.3445179e-13
9.4440664e-14
9.017267e-13
3.7769451e-13
2.6988822e-12
4.4405003e-12
8.4125344e-13
8.3644737e-14
8.180815e-13
3.3381234e-13
2.4487118e-12
4.030635e-12
7.4367207e-13
7.3974814e-14
7.441061e-13
2.9514134e-13
2.2275422e-12
3.6683727e-12
6.5739817e-13
6.4959546e-14
6.7914587e-13
2.6012266e-13
2.0323762e-12
3.3487604e-12
5.7972968e-13
5.7478593e-14
6.2166659e-13
2.2806656e-13
1.8617853e-12
3.0690871e-12
5.0773488e-13
5.0250576e-14
5.7141534e-13
2.0005164e-13
1.7119817e-12
2.8231668e-12
4.4596746e-13
4.3629885e-14
5.2778485e-13
1.7392989e-13
1.5816793e-12
2.6094929e-12
3.8759979e-13
3.7617985e-14
4.9016634e-13
1.5007848e-13
1.4692168e-12
2.4250096e-12
3.3455836e-13
3.2218675e-14
4.5794724e-13
1.2865139e-13
1.3727824e-12
2.2664833e-12
2.8717488e-13
2.7464522e-14
4.3048239e-13
1.0957549e-13
1.2906701e-12
2.1319815e-12
2.4407506e-13
2.3214818e-14
4.0726736e-13
9.2666079e-14
1.2212179e-12
2.0180276e-12
2.0661846e-13
1.947694e-14
3.8779032e-13
7.778921e-14
1.162905e-12
1.9222138e-12
1.736021e-13
1.6210925e-14
3.7157941e-13
6.4738543e-14
1.1143772e-12
1.8424217e-12
1.4453026e-13
1.3387478e-14
3.5819204e-13
5.3419978e-14
1.0743448e-12
1.7768822e-12
1.1895981e-13
1.095415e-14
3.4723811e-13
4.3680982e-14
1.0416184e-12
1.7232387e-12
9.7325328e-14
8.8910467e-15
3.3834735e-13
3.5453688e-14
1.0150565e-12
1.6796134e-12
7.9080203e-14
7.1393936e-15
3.3120834e-13
2.8466713e-14
9.9373011e-13
1.6445341e-12
6.3547752e-14
5.6681153e-15
3.2554066e-13
2.2605405e-14
9.7679402e-13
1.616827e-12
5.0314598e-14
4.4109545e-15
3.2113019e-13
1.7630218e-14
9.635761e-13
1.595162e-12
3.9297522e-14
3.3528781e-15
3.1777784e-13
1.3485759e-14
9.5344471e-13
1.578497e-12
3.0153358e-14
2.4763415e-15
3.1530207e-13
1.0002804e-14
9.4591984e-13
1.5661176e-12
2.2384969e-14
1.7486705e-15
3.1355399e-13
6.835703e-15
9.4083444e-13
1.557789e-12
1.5167091e-14
8.5635667e-16
3.2466375e-15
7.1374073e-15
1.3544826e-07
-9.5602592e-09
-8.700207e-09
1.4414224e-07
2.0490616e-08
-1.547145e-09
-1.4978983e-09
1.3287787e-08
-3.8064643e-09
-4.9787825e-10
-6.709201e-10
-4.6332904e-09
-1.2818994e-09
-1.9304783e-11
-1.1492648e-10
-1.8378243e-09
-2.1053087e-10
1.0094864e-10
7.1572157e-11
-3.9701303e-10
5.765249e-11
9.136717e-11
8.5769633e-11
4.3455915e-11
7.3582853e-11
6.3454441e-11
6.1489843e-11
9.786206e-11
4.2438989e-11
4.7443542e-11
4.6407509e-11
5.7521327e-11
2.215328e-11
4.0052468e-11
4.0032663e-11
2.8528445e-11
1.2127819e-11
3.6318462e-11
3.8237403e-11
1.3923485e-11
8.8509843e-12
3.3586675e-11
3.6976635e-11
1.0112097e-11
8.3749184e-12
3.075728e-11
3.4905768e-11
1.0446015e-11
8.2001245e-12
2.7739059e-11
3.2279987e-11
1.0826048e-11
7.6097401e-12
2.4876818e-11
2.9331999e-11
1.0557837e-11
6.7682076e-12
2.2224713e-11
2.6414893e-11
9.6854023e-12
5.781725e-12
1.9903301e-11
2.3890812e-11
8.3058878e-12
4.8741613e-12
1.7922192e-11
2.1702466e-11
7.0625801e-12
4.1524552e-12
1.6224326e-11
1.9790148e-11
6.0648325e-12
3.6223638e-12
1.4736552e-11
1.807928e-11
5.3332761e-12
3.2343124e-12
1.3401224e-11
1.6510631e-11
4.8029917e-12
2.9267559e-12
1.2180732e-11
1.5055891e-11
4.3815138e-12
2.6806576e-12
1.1053047e-11
1.3701219e-11
4.035336e-12
2.4599632e-12
1.0010649e-11
1.2440939e-11
3.720243e-12
2.2442024e-12
9.0578989e-12
1.1278371e-11
3.4067649e-12
2.0275501e-12
8.1941644e-12
1.0217364e-11
3.0885491e-12
1.8190145e-12
7.4168302e-12
9.260854e-12
2.7755134e-12
1.6325194e-12
6.7187547e-12
8.3963602e-12
2.4970016e-12
1.4628532e-12
6.0971464e-12
7.6254167e-12
2.2337847e-12
1.3042369e-12
5.536573e-12
6.9378088e-12
1.991833e-12
1.1524288e-12
5.0415341e-12
6.3231924e-12
1.7670341e-12
1.0158542e-12
4.6054018e-12
5.7807758e-12
1.5582606e-12
8.8906925e-13
4.2240603e-12
5.3022118e-12
1.3676239e-12
7.8249675e-13
3.8875246e-12
4.8874357e-12
1.1972647e-12
6.7912709e-13
3.5959918e-12
4.5266117e-12
1.0399439e-12
5.8618618e-13
3.3443592e-12
4.2136212e-12
8.9917062e-13
5.0338074e-13
3.1281494e-12
3.9439883e-12
7.7300879e-13
4.2846784e-13
2.9437536e-12
3.7134521e-12
6.5900021e-13
3.6272494e-13
2.7876451e-12
3.5197563e-12
5.5641822e-13
3.0452725e-13
2.6567187e-12
3.3568062e-12
4.6747586e-13
2.5345256e-13
2.5477961e-12
3.2216107e-12
3.8864769e-13
2.0859071e-13
2.4581657e-12
3.1100359e-12
3.2016627e-13
1.7069382e-13
2.3847984e-12
3.0186879e-12
2.6204341e-13
1.3870327e-13
2.3251772e-12
2.944494e-12
2.1289959e-13
1.1144783e-13
2.2772796e-12
2.8848983e-12
1.7104678e-13
8.823673e-14
2.2393604e-12
2.8376575e-12
1.3548136e-13
6.8951306e-14
2.20971e-12
2.8007011e-12
1.0591202e-13
5.2970545e-14
2.1868965e-12
2.7722532e-12
8.1423183e-14
3.9335497e-14
2.1699498e-12
2.7511139e-12
6.0479877e-14
2.6571139e-14
2.1585498e-12
2.7368872e-12
4.0803142e-14
1.2465297e-14
1.912826e-14
6.7816787e-12
-6.7817458e-12
1.2587519e-11
-5.8059373e-12
1.5984146e-11
-3.3967143e-12
1.6637367e-11
-6.5332518e-13
1.4992608e-11
1.6446719e-12
1.0589679e-11
4.4028257e-12
1.5893289e-12
9.0002667e-12
-1.1001487e-11
1.2590711e-11
-2.6269467e-11
1.5267893e-11
-4.4241011e-11
1.7971432e-11
-6.4562556e-11
2.0321451e-11
-8.5437015e-11
2.0874339e-11
-1.0614996e-10
2.0712843e-11
-1.2603892e-10
1.9888833e-11
-1.4459058e-10
1.8551559e-11
-1.6148011e-10
1.6889404e-11
-1.7655191e-10
1.5071723e-11
-1.8975563e-10
1.3203749e-11
-2.0108426e-10
1.132875e-11
-2.1055299e-10
9.4688505e-12
-2.1819387e-10
7.6410245e-12
-2.2405318e-10
5.8594132e-12
-2.2817891e-10
4.125811e-12
-2.3056115e-10
2.3822944e-12
5.1408805e-13
-1.5179254e-11
8.398547e-12
-3.7239912e-11
1.6256162e-11
-7.0734794e-11
3.0099733e-11
-1.1719698e-10
4.581038e-11
-1.7708139e-10
6.1530479e-11
-2.4875799e-10
7.6080641e-11
-3.3158126e-10
9.1824515e-11
-4.24727e-10
1.0573717e-10
-5.2746128e-10
1.1800263e-10
-6.3663988e-10
1.2715024e-10
-7.4898627e-10
1.3266779e-10
-8.6326742e-10
1.351552e-10
-9.7691306e-10
1.3435799e-10
-1.0877468e-09
1.3072193e-10
-1.1941284e-09
1.2493257e-10
-1.2947895e-09
1.1754997e-10
-1.3886782e-09
1.0895979e-10
-1.474794e-09
9.9318982e-11
-1.5521343e-09
8.8668355e-11
-1.6197471e-09
7.7080879e-11
-1.6767423e-09
6.4635503e-11
-1.7222831e-09
5.1399501e-11
-1.7555601e-09
3.7402079e-11
-1.7756838e-09
2.2505192e-11
6.6689523e-12
-1.3036082e-10
1.3876258e-10
-2.9157822e-10
1.7747841e-10
-4.8545947e-10
2.2398633e-10
-7.1277731e-10
2.7313307e-10
-9.7119849e-10
3.1995567e-10
-1.2576255e-09
3.6251052e-10
-1.5659076e-09
4.001084e-10
-1.8903104e-09
4.3014069e-10
-2.2291898e-09
4.5688178e-10
-2.626552e-09
5.2451117e-10
-3.0305709e-09
5.3668444e-10
-3.4233517e-09
5.2793271e-10
-3.7962513e-09
5.0725345e-10
-4.1443982e-09
4.7886485e-10
-4.4653942e-09
4.459247e-10
-4.7577462e-09
4.0989829e-10
-5.0203365e-09
3.7154638e-10
-5.2519889e-09
3.309677e-10
-5.4521768e-09
2.8885251e-10
-5.6209683e-09
2.4586859e-10
-5.7586924e-09
2.0235575e-10
-5.8656905e-09
1.5839377e-10
-5.9421399e-09
1.1384761e-10
-5.9878761e-09
6.8237594e-11
2.1597511e-11
-4.2356561e-10
5.623361e-10
-9.233693e-10
6.7729468e-10
-1.5088049e-09
8.0943503e-10
-2.4118999e-09
1.1762379e-09
-3.3963001e-09
1.3043617e-09
-4.3583175e-09
1.32453e-09
-5.2430987e-09
1.2848885e-09
-6.0330987e-09
1.2201369e-09
-6.7144094e-09
1.1381868e-09
-7.236839e-09
1.0469335e-09
-7.648766e-09
9.4860295e-10
-7.967915e-09
8.4707236e-10
-8.208172e-09
7.4750038e-10
-8.3826861e-09
6.5336821e-10
-8.5020214e-09
5.6524958e-10
-8.5747541e-09
4.8262117e-10
-8.6081234e-09
4.0490668e-10
-8.6094514e-09
3.3228722e-10
-8.5883577e-09
2.6775071e-10
-8.5537355e-09
2.112387e-10
-8.5135183e-09
1.6213108e-10
-8.4744023e-09
1.1927059e-10
-8.4423641e-09
8.1802457e-11
-8.4223474e-09
4.8214183e-11
1.8239295e-11
-2.335945e-09
2.8982937e-09
-4.2273713e-09
2.5687353e-09
-5.9145848e-09
2.4966613e-09
-6.8059959e-09
2.0676544e-09
-7.1235115e-09
1.62188e-09
-6.9496902e-09
1.1507098e-09
-6.3823663e-09
7.1756494e-10
-5.6251853e-09
4.629566e-10
-4.7351178e-09
2.4812007e-10
-3.761615e-09
7.3432031e-11
-2.7510922e-09
-6.1917916e-11
-1.7445831e-09
-1.5943417e-10
-7.9578979e-10
-2.0128989e-10
7.9409638e-11
-2.2182771e-10
8.8258228e-10
-2.3791931e-10
1.6193683e-09
-2.5416066e-10
2.3519662e-09
-3.2768673e-10
3.0211476e-09
-3.3688909e-10
3.6058151e-09
-3.1691132e-10
4.1009385e-09
-2.838787e-10
4.5056904e-09
-2.4261467e-10
4.8204352e-09
-1.9546779e-10
5.0453487e-09
-1.431046e-10
5.180441e-09
-8.6871705e-11
-2.4560503e-11
9.1353352e-10
1.9848425e-09
4.0560384e-09
-5.7371802e-10
7.8148775e-09
-1.2621e-09
1.1523046e-08
-1.6404648e-09
1.5333712e-08
-2.1887525e-09
1.9122237e-08
-2.6377806e-09
2.273484e-08
-2.8949995e-09
2.614634e-08
-2.9484995e-09
2.9257084e-08
-2.8625747e-09
3.2031709e-08
-2.7011406e-09
3.4469583e-08
-2.4997356e-09
3.6580855e-08
-2.2706475e-09
3.8417132e-08
-2.0375065e-09
4.0002242e-08
-1.8068774e-09
4.134155e-08
-1.5771649e-09
4.2447135e-08
-1.3596839e-09
4.3278358e-08
-1.1588481e-09
4.3917501e-08
-9.7596942e-10
4.4409661e-08
-8.0901058e-10
4.4783043e-08
-6.5719989e-10
4.5059268e-08
-5.1877996e-10
4.5255737e-08
-3.9187765e-10
4.5385597e-08
-2.7290684e-10
4.5459559e-08
-1.6077645e-10
-4.8878821e-11
1.4857385e-07
-2.4455542e-09
1.4760236e-07
3.9868694e-10
1.4538247e-07
9.5857216e-10
1.4235136e-07
1.3913524e-09
1.3822467e-07
1.938545e-09
1.3319305e-07
2.3943712e-09
1.276333e-07
2.6651984e-09
1.219473e-07
2.737897e-09
1.1642053e-07
2.6645289e-09
1.1119817e-07
2.5215128e-09
1.063463e-07
2.3523996e-09
1.0192364e-07
2.1522389e-09
9.7951602e-08
1.9347472e-09
9.4428537e-08
1.7163782e-09
9.134666e-08
1.5048884e-09
8.868333e-08
1.3038075e-09
8.6409299e-08
1.1153332e-09
8.449254e-08
9.4092943e-10
8.2902494e-08
7.8116769e-10
8.1609903e-08
6.3551527e-10
8.0588874e-08
5.0236701e-10
7.9817109e-08
3.7999955e-10
7.9279285e-08
2.650246e-10
7.896225e-08
1.5636292e-10
4.7853883e-11
1.2778095e-08
-1.9357403e-09
1.5228409e-08
-2.0515141e-09
1.800527e-08
-1.8181742e-09
2.0865341e-08
-1.468607e-09
2.3857372e-08
-1.053377e-09
2.6857727e-08
-6.058793e-10
2.9864188e-08
-3.4116262e-10
3.2722538e-08
-1.2035776e-10
3.5327505e-08
5.965465e-11
3.7652079e-08
1.970311e-10
3.9739969e-08
2.6460017e-10
4.1588136e-08
3.0416146e-10
4.3184409e-08
3.3856142e-10
4.4528424e-08
3.7244981e-10
4.5555242e-08
4.7815415e-10
4.6361752e-08
4.9738009e-10
4.6997667e-08
4.7949798e-10
4.749429e-08
4.4438423e-10
4.7876545e-08
3.9898807e-10
4.816503e-08
3.4710389e-10
4.8376836e-08
2.9063149e-10
4.852634e-08
2.3056476e-10
4.8624472e-08
1.6695931e-10
4.8680112e-08
1.0078736e-10
2.9034207e-11
-5.5892843e-09
-9.7976285e-10
-6.4180423e-09
-1.2227717e-09
-6.9127073e-09
-1.3235251e-09
-7.016541e-09
-1.3647887e-09
-6.7170994e-09
-1.3528323e-09
-6.0284172e-09
-1.2945728e-09
-5.153577e-09
-1.2160114e-09
-4.1493733e-09
-1.124567e-09
-3.0641192e-09
-1.0256022e-09
-1.9438375e-09
-9.2325081e-10
-8.588386e-10
-8.2039655e-10
1.6868073e-10
-7.2335384e-10
1.1376158e-09
-6.30368e-10
2.0512943e-09
-5.4122178e-10
2.9856569e-09
-4.5620027e-10
3.8604654e-09
-3.774192e-10
4.64697e-09
-3.0699665e-10
5.3366932e-09
-2.453284e-10
5.928024e-09
-1.9233178e-10
6.4226355e-09
-1.4749647e-10
6.8233293e-09
-1.1005114e-10
7.1326677e-09
-7.8762444e-11
7.3524756e-09
-5.2837585e-11
7.4842327e-09
-3.0958867e-11
-1.3085175e-11
-2.5983157e-09
-2.1927886e-10
-3.5177423e-09
-3.0335444e-10
-4.4684325e-09
-3.7284703e-10
-5.39963e-09
-4.3360584e-10
-6.2690864e-09
-4.8339255e-10
-7.039186e-09
-5.2449137e-10
-7.6815905e-09
-5.7362606e-10
-8.1698068e-09
-6.3637035e-10
-8.5557712e-09
-6.3965764e-10
-8.8516989e-09
-6.2734273e-10
-9.0682515e-09
-6.0386334e-10
-9.2179264e-09
-5.7369812e-10
-9.3092687e-09
-5.3904434e-10
-9.3491548e-09
-5.0135305e-10
-9.3440121e-09
-4.6135932e-10
-9.30192e-09
-4.1952659e-10
-9.2325162e-09
-3.7641483e-10
-9.1452245e-09
-3.3263361e-10
-9.048966e-09
-2.8860305e-10
-8.9518944e-09
-2.4458023e-10
-8.861298e-09
-2.0065912e-10
-8.7833686e-09
-1.5670277e-10
-8.7237693e-09
-1.1244746e-10
-8.6873405e-09
-6.7397653e-11
-2.1519921e-11
-6.4423775e-10
2.7944747e-11
-9.3592162e-10
-1.1672314e-11
-1.2651591e-09
-4.3612211e-11
-1.6224452e-09
-7.6323398e-11
-1.9978724e-09
-1.0797003e-10
-2.3870593e-09
-1.3531011e-10
-2.8018629e-09
-1.5882897e-10
-3.2623529e-09
-1.7588775e-10
-3.7155041e-09
-1.8651499e-10
-4.1513361e-09
-1.9152024e-10
-4.5628286e-09
-1.9238028e-10
-4.9463118e-09
-1.9022447e-10
-5.2996678e-09
-1.8569785e-10
-5.621986e-09
-1.7904448e-10
-5.9127271e-09
-1.7062776e-10
-6.1715497e-09
-1.6071347e-10
-6.3985086e-09
-1.4946538e-10
-6.5941044e-09
-1.3704716e-10
-6.7591262e-09
-1.2359048e-10
-6.8945832e-09
-1.0913235e-10
-7.0014365e-09
-9.381477e-11
-7.0795552e-09
-7.8592785e-11
-7.1340024e-09
-5.8008834e-11
-7.1669034e-09
-3.4504911e-11
-8.945808e-12
1.2132733e-12
7.0187765e-11
-6.314841e-11
5.2689658e-11
-1.4580996e-10
3.9049393e-11
-2.4661147e-10
2.447785e-11
-3.6300589e-10
8.4237844e-12
-4.9257489e-10
-5.7420767e-12
-6.3358818e-10
-1.7817009e-11
-7.7981011e-10
-2.96675e-11
-9.2711349e-10
-3.9213635e-11
-1.0722654e-09
-4.6370626e-11
-1.213312e-09
-5.1336088e-11
-1.3492299e-09
-5.4309085e-11
-1.4794127e-09
-5.5517476e-11
-1.6032073e-09
-5.5252462e-11
-1.7200821e-09
-5.3755541e-11
-1.8295645e-09
-5.1233728e-11
-1.9311614e-09
-4.7871214e-11
-2.0243926e-09
-4.3818704e-11
-2.1087857e-09
-3.920006e-11
-2.1838061e-09
-3.4114691e-11
-2.2489945e-09
-2.8629103e-11
-2.3048354e-09
-2.2754606e-11
-2.3463225e-09
-1.6524368e-11
-2.3708862e-09
-9.9438639e-12
-2.984451e-12
1.1247244e-10
5.5577787e-11
1.1750856e-10
4.7654015e-11
1.1769798e-10
3.886045e-11
1.1156882e-10
3.0607439e-11
9.8732633e-11
2.1260338e-11
7.8998231e-11
1.3992614e-11
5.4797513e-11
6.3839226e-12
2.5930136e-11
-7.9998681e-13
-4.7825438e-12
-8.5008937e-12
-3.5382207e-11
-1.5770969e-11
-6.4863176e-11
-2.1855185e-11
-9.2777717e-11
-2.6394661e-11
-1.1896269e-10
-2.9332638e-11
-1.4342797e-10
-3.078734e-11
-1.6617475e-10
-3.1008933e-11
-1.8718528e-10
-3.0223377e-11
-2.0641927e-10
-2.8637423e-11
-2.238135e-10
-2.6424683e-11
-2.3929835e-10
-2.3715427e-11
-2.5280128e-10
-2.0611976e-11
-2.6423212e-10
-1.719849e-11
-2.7343378e-10
-1.3553186e-11
-2.8021184e-10
-9.7465405e-12
-2.8433761e-10
-5.8183136e-12
-1.7954355e-12
7.2084412e-11
4.1014794e-11
8.5227503e-11
3.4511071e-11
9.5810822e-11
2.8277324e-11
1.0389651e-10
2.2521967e-11
1.0890339e-10
1.6253678e-11
1.1125781e-10
1.1638416e-11
1.1104695e-10
6.5950122e-12
1.0927949e-10
9.6770933e-13
1.058039e-10
-5.0250664e-12
1.0103705e-10
-1.1003887e-11
9.5736605e-11
-1.6554508e-11
9.0614645e-11
-2.1272483e-11
8.6138991e-11
-2.4856772e-11
8.260685e-11
-2.7254991e-11
8.00739e-11
-2.8475778e-11
7.8505051e-11
-2.8654325e-11
7.7795666e-11
-2.7927837e-11
7.7785228e-11
-2.6414044e-11
7.8328306e-11
-2.4258306e-11
7.9271961e-11
-2.1555434e-11
8.0473233e-11
-1.8399566e-11
8.1786742e-11
-1.4866503e-11
8.3048689e-11
-1.1008299e-11
8.4112187e-11
-6.8816218e-12
-2.3899163e-12
3.314723e-11
3.6396037e-11
3.6306871e-11
3.1351455e-11
3.8597368e-11
2.5986838e-11
3.973649e-11
2.1382843e-11
3.864987e-11
1.7340291e-11
3.6961747e-11
1.3326527e-11
3.4159581e-11
9.397161e-12
2.9722549e-11
5.4047171e-12
2.3623668e-11
1.0737888e-12
1.605672e-11
-3.4369596e-12
7.4265227e-12
-7.9243279e-12
-1.740767e-12
-1.210521e-11
-1.0879996e-11
-1.5717562e-11
-1.9572792e-11
-1.8562216e-11
-2.7500924e-11
-2.0547668e-11
-3.4504996e-11
-2.1650274e-11
-4.052741e-11
-2.1905444e-11
-4.5564632e-11
-2.1376844e-11
-4.9669197e-11
-2.0153763e-11
-5.2899743e-11
-1.8324908e-11
-5.532547e-11
-1.5973857e-11
-5.7022619e-11
-1.3169373e-11
-5.8071679e-11
-9.9592581e-12
-5.8618709e-11
-6.3346037e-12
-2.2525098e-12
1.361325e-11
3.6706202e-11
1.1221922e-11
3.3742682e-11
7.5620761e-12
2.9646557e-11
3.35289e-12
2.5591878e-11
-1.4906998e-12
2.2183714e-11
-7.8067346e-12
1.9642397e-11
-1.5085131e-11
1.6675394e-11
-2.3069018e-11
1.3388442e-11
-3.2190236e-11
1.0194844e-11
-4.2543981e-11
6.9166237e-12
-5.4022464e-11
3.5539944e-12
-6.6309189e-11
1.8135412e-13
-7.898946e-11
-3.0374544e-12
-9.1654424e-11
-5.8974172e-12
-1.0394592e-10
-8.2563391e-12
-1.1558222e-10
-1.001415e-11
-1.2634413e-10
-1.1143699e-11
-1.3607721e-10
-1.1643943e-11
-1.4470174e-10
-1.1529397e-11
-1.5218185e-10
-1.0844979e-11
-1.5852066e-10
-9.6352157e-12
-1.637461e-10
-7.9440987e-12
-1.6789237e-10
-5.8131597e-12
-1.7121953e-10
-3.0076017e-12
-7.6076778e-13
9.2606524e-12
3.7557532e-11
6.9305855e-12
3.6072607e-11
2.8141567e-12
3.3762819e-11
-2.5540526e-12
3.0959898e-11
-8.5929414e-12
2.8222396e-11
-1.4684246e-11
2.5733497e-11
-2.1435585e-11
2.3426539e-11
-2.928009e-11
2.1232763e-11
-3.7969739e-11
1.8884309e-11
-4.7364461e-11
1.6311163e-11
-5.7625126e-11
1.3814476e-11
-6.851377e-11
1.1069814e-11
-7.9905031e-11
8.3536222e-12
-9.1501226e-11
5.6985917e-12
-1.0311142e-10
3.3536637e-12
-1.1444438e-10
1.3186256e-12
-1.2518795e-10
-4.0032038e-13
-1.3512442e-10
-1.7076657e-12
-1.4406941e-10
-2.5846016e-12
-1.5188928e-10
-3.0252924e-12
-1.5848115e-10
-3.0435373e-12
-1.6369437e-10
-2.7310736e-12
-1.6737268e-10
-2.1350382e-12
-1.6903298e-10
-1.347475e-12
-4.2667294e-13
1.1032263e-11
3.6971164e-11
1.0225553e-11
3.6879177e-11
8.0706126e-12
3.5917603e-11
4.8308529e-12
3.4199487e-11
8.8137064e-13
3.2171705e-11
-3.5574354e-12
3.0172135e-11
-8.4012234e-12
2.8270173e-11
-1.3600189e-11
2.643158e-11
-1.9313407e-11
2.4597379e-11
-2.5739288e-11
2.2736895e-11
-3.2680405e-11
2.0755445e-11
-4.0191311e-11
1.8580571e-11
-4.8255113e-11
1.6417276e-11
-5.6494354e-11
1.3937684e-11
-6.5041178e-11
1.1900338e-11
-7.3614123e-11
9.8914223e-12
-8.1911461e-11
7.8968678e-12
-8.9729013e-11
6.1097367e-12
-9.6862952e-11
4.5491876e-12
-1.0318832e-10
3.2999288e-12
-1.0855895e-10
2.3269379e-12
-1.1286496e-10
1.5747903e-12
-1.1598404e-10
9.8389863e-13
-1.1785577e-10
5.2411514e-13
2.1199092e-13
1.2778765e-11
3.5018334e-11
1.3588908e-11
3.606891e-11
1.3962248e-11
3.554413e-11
1.3256328e-11
3.4905276e-11
1.1794596e-11
3.3633311e-11
9.8758928e-12
3.209072e-11
7.585477e-12
3.0560479e-11
4.9543947e-12
2.9062557e-11
1.9981224e-12
2.7553547e-11
-1.3522678e-12
2.6087181e-11
-5.1088218e-12
2.4511895e-11
-9.4111856e-12
2.2882831e-11
-1.4084972e-11
2.1090959e-11
-1.9201485e-11
1.9054095e-11
-2.4535312e-11
1.7234063e-11
-2.9852627e-11
1.5208636e-11
-3.5352145e-11
1.3396284e-11
-4.0728443e-11
1.1485933e-11
-4.5698972e-11
9.5196146e-12
-5.0224529e-11
7.825384e-12
-5.4174042e-11
6.2763498e-12
-5.7418927e-11
4.8195736e-12
-5.9841399e-11
3.4062691e-12
-6.1355215e-11
2.037839e-12
6.7031168e-13
1.3254375e-11
3.2321691e-11
1.5355858e-11
3.396732e-11
1.6522419e-11
3.4377462e-11
1.7705772e-11
3.3721822e-11
1.8083709e-11
3.325528e-11
1.7914561e-11
3.2259783e-11
1.7420715e-11
3.1054246e-11
1.6629852e-11
2.9853344e-11
1.5528272e-11
2.8655053e-11
1.4184527e-11
2.7430853e-11
1.2550066e-11
2.6146283e-11
1.0641282e-11
2.4791543e-11
8.4228922e-12
2.3309278e-11
5.7896875e-12
2.1687229e-11
2.9946059e-12
2.0029075e-11
-1.1960276e-13
1.8322776e-11
-3.2414339e-12
1.6518047e-11
-6.3988279e-12
1.4643259e-11
-9.5997915e-12
1.272051e-11
-1.2540662e-11
1.0766186e-11
-1.5063836e-11
8.7994563e-12
-1.7110642e-11
6.8663103e-12
-1.864083e-11
4.9363871e-12
-1.9574297e-11
2.9712449e-12
9.6781598e-13
1.2425604e-11
2.9581396e-11
1.4889589e-11
3.1503242e-11
1.6875803e-11
3.2391161e-11
1.8120868e-11
3.2476674e-11
1.9485542e-11
3.1890531e-11
2.0272052e-11
3.1473203e-11
2.0732931e-11
3.0593303e-11
2.10084e-11
2.9577813e-11
2.1029983e-11
2.8633411e-11
2.0832662e-11
2.7628116e-11
2.0397816e-11
2.6581072e-11
1.9737969e-11
2.5451334e-11
1.8879419e-11
2.4167773e-11
1.7948946e-11
2.2617649e-11
1.6753642e-11
2.1224327e-11
1.5318278e-11
1.9758088e-11
1.3716765e-11
1.8119509e-11
1.2032022e-11
1.6327951e-11
1.0332544e-11
1.4419937e-11
8.6940776e-12
1.2404601e-11
7.1931178e-12
1.0300365e-11
5.936292e-12
8.1230842e-12
4.9963187e-12
5.8763075e-12
4.4086253e-12
3.558894e-12
1.1559564e-12
1.0879693e-11
2.7007506e-11
1.3259e-11
2.9123854e-11
1.5331464e-11
3.031862e-11
1.7031788e-11
3.0776279e-11
1.8286558e-11
3.0635695e-11
1.9484274e-11
3.0275426e-11
2.0394111e-11
2.9683408e-11
2.1058678e-11
2.8913191e-11
2.1607523e-11
2.8084512e-11
2.2013356e-11
2.7222229e-11
2.2275765e-11
2.6318612e-11
2.2388321e-11
2.5338728e-11
2.2349737e-11
2.4206308e-11
2.2207025e-11
2.2760313e-11
2.1918963e-11
2.1512344e-11
2.143769e-11
2.0239316e-11
2.0787032e-11
1.8770123e-11
2.0051107e-11
1.7063832e-11
1.9281405e-11
1.5189595e-11
1.849757e-11
1.3188392e-11
1.7710967e-11
1.1086925e-11
1.705408e-11
8.7799269e-12
1.6531329e-11
6.3990141e-12
1.6206926e-11
3.883259e-12
1.2303351e-12
9.3756982e-12
2.4694319e-11
1.1527141e-11
2.6972344e-11
1.3480816e-11
2.8364879e-11
1.5198329e-11
2.9058704e-11
1.6565234e-11
2.9268731e-11
1.7771492e-11
2.9069111e-11
1.8813976e-11
2.8640868e-11
1.9682658e-11
2.8044455e-11
2.0426014e-11
2.7341104e-11
2.1087086e-11
2.6561106e-11
2.1669291e-11
2.5736358e-11
2.2167597e-11
2.4840375e-11
2.2555221e-11
2.3818639e-11
2.2853043e-11
2.2462447e-11
2.3098334e-11
2.126701e-11
2.3160256e-11
2.0177353e-11
2.3170149e-11
1.876019e-11
2.309232e-11
1.7141621e-11
2.294136e-11
1.5340515e-11
2.2742034e-11
1.3387679e-11
2.2562557e-11
1.1266363e-11
2.2354463e-11
8.9879816e-12
2.2203478e-11
6.549958e-12
2.2079679e-11
4.0070245e-12
1.3038348e-12
8.090037e-12
2.2669062e-11
1.0147693e-11
2.4914633e-11
1.2001833e-11
2.6510684e-11
1.3646188e-11
2.7414294e-11
1.509621e-11
2.7818655e-11
1.6329454e-11
2.7835814e-11
1.741321e-11
2.755706e-11
1.8378768e-11
2.7078846e-11
1.92135e-11
2.6506323e-11
2.002017e-11
2.5754387e-11
2.0784238e-11
2.4972244e-11
2.1510991e-11
2.4113576e-11
2.2173203e-11
2.3156383e-11
2.2711862e-11
2.1923747e-11
2.3283377e-11
2.0695454e-11
2.3812662e-11
1.964803e-11
2.426214e-11
1.8310674e-11
2.4628067e-11
1.6775659e-11
2.491032e-11
1.5058226e-11
2.5143055e-11
1.3154908e-11
2.5322185e-11
1.1087198e-11
2.5450241e-11
8.8598894e-12
2.5504437e-11
6.4957257e-12
2.552797e-11
3.9834603e-12
1.3410194e-12
7.1576963e-12
2.0844596e-11
9.0699539e-12
2.3002327e-11
1.0915443e-11
2.4665146e-11
1.2565061e-11
2.5764627e-11
1.4071949e-11
2.6311717e-11
1.5394862e-11
2.6512853e-11
1.6574613e-11
2.637726e-11
1.7636876e-11
2.6016535e-11
1.8648933e-11
2.5494219e-11
1.9574851e-11
2.4828424e-11
2.0471445e-11
2.4075606e-11
2.1363553e-11
2.3221426e-11
2.2236938e-11
2.2282958e-11
2.2979089e-11
2.1181558e-11
2.37705e-11
1.9904007e-11
2.4627401e-11
1.8791095e-11
2.5381913e-11
1.7556129e-11
2.6063594e-11
1.6093946e-11
2.6672428e-11
1.4449361e-11
2.7187462e-11
1.2639844e-11
2.7618173e-11
1.0656456e-11
2.7968426e-11
8.5096053e-12
2.8197298e-11
6.266822e-12
2.8315133e-11
3.8655996e-12
1.3139374e-12
6.500016e-12
1.914753e-11
8.2476444e-12
2.1254655e-11
1.0049916e-11
2.286283e-11
1.1784246e-11
2.4030251e-11
1.3348637e-11
2.474728e-11
1.4818336e-11
2.5043109e-11
1.6134877e-11
2.5060675e-11
1.7362606e-11
2.4788762e-11
1.8525275e-11
2.4331508e-11
1.9622347e-11
2.3731312e-11
2.0685221e-11
2.3012694e-11
2.1724219e-11
2.2182391e-11
2.2758138e-11
2.1249003e-11
2.3726943e-11
2.0212719e-11
2.4614965e-11
1.9015954e-11
2.5633079e-11
1.7772952e-11
2.6672584e-11
1.6516597e-11
2.757951e-11
1.5186994e-11
2.8406226e-11
1.3622619e-11
2.9134321e-11
1.1911723e-11
2.9741901e-11
1.0048852e-11
3.0220152e-11
8.0313286e-12
3.056353e-11
5.9234179e-12
3.0780565e-11
3.6485444e-12
1.2333848e-12
6.0002329e-12
1.7528772e-11
7.6910207e-12
1.9563826e-11
9.4095368e-12
2.1144273e-11
1.1134124e-11
2.2305623e-11
1.2796193e-11
2.308517e-11
1.4345586e-11
2.3493675e-11
1.5823006e-11
2.3583215e-11
1.7196567e-11
2.3415162e-11
1.8500934e-11
2.3027103e-11
1.9760178e-11
2.2472032e-11
2.0990581e-11
2.1782256e-11
2.2188152e-11
2.0984788e-11
2.3356892e-11
2.0080233e-11
2.4499724e-11
1.906986e-11
2.5564228e-11
1.7951424e-11
2.6596941e-11
1.6740214e-11
2.7700665e-11
1.5412851e-11
2.8793723e-11
1.4093915e-11
2.9787992e-11
1.2628329e-11
3.0641124e-11
1.1058572e-11
3.1382142e-11
9.3078151e-12
3.1971909e-11
7.4415425e-12
3.2501674e-11
5.3936318e-12
3.2843141e-11
3.3070624e-12
1.1767026e-12
5.5599218e-12
1.600415e-11
7.1918972e-12
1.7931813e-11
8.8677306e-12
1.9468401e-11
1.0554883e-11
2.0618432e-11
1.2231809e-11
2.1408207e-11
1.3869687e-11
2.185576e-11
1.5427759e-11
2.2025107e-11
1.6908549e-11
2.1934338e-11
1.8320352e-11
2.1615267e-11
1.9681071e-11
2.111128e-11
2.1005645e-11
2.0457652e-11
2.2320114e-11
1.9670291e-11
2.3603724e-11
1.8796597e-11
2.4855502e-11
1.7818058e-11
2.6060483e-11
1.6746422e-11
2.7211323e-11
1.5589355e-11
2.8275818e-11
1.4348338e-11
2.9329184e-11
1.3040532e-11
3.0374826e-11
1.1582672e-11
3.1313573e-11
1.011981e-11
3.2108217e-11
8.5131572e-12
3.2765321e-11
6.784424e-12
3.3210474e-11
4.9484633e-12
3.3482707e-11
3.0348197e-12
1.0473722e-12
5.1493765e-12
1.4574982e-11
6.7005823e-12
1.6380572e-11
8.315961e-12
1.7852987e-11
9.9687472e-12
1.8965611e-11
1.1617489e-11
1.975943e-11
1.3255829e-11
2.0217387e-11
1.4858398e-11
2.0422506e-11
1.6391604e-11
2.04011e-11
1.785965e-11
2.0147192e-11
1.9274682e-11
1.9696221e-11
2.0648768e-11
1.908354e-11
2.1978998e-11
1.8340037e-11
2.3288593e-11
1.7486981e-11
2.457318e-11
1.6533451e-11
2.5810471e-11
1.5509114e-11
2.6997617e-11
1.4402194e-11
2.8123811e-11
1.3222131e-11
2.9196063e-11
1.1968268e-11
3.0149791e-11
1.0628932e-11
3.103822e-11
9.2313703e-12