/*--------------------------------*- C++ -*----------------------------------*\
| =========                 |                                                 |
| \\      /  F ield         | OpenFOAM: The Open Source CFD Toolbox           |
|  \\    /   O peration     | Version:  4.0                                   |
|   \\  /    A nd           | Web:      www.OpenFOAM.org                      |
|    \\/     M anipulation  |                                                 |
\*---------------------------------------------------------------------------*/
FoamFile
{
    version     2.0;
    format      ascii;
    class       volVectorField;
    location    "0.05";
    object      U;
}
// * * * * * * * * * * * * * * * * * * * * * * * * * * * * * * * * * * * * * //

dimensions      [0 1 -1 0 0 0 0];

internalField   nonuniform List<vector> 
1740
(
(1.5013955 0.0047153544 5.9310781e-06)
(1.5476837 -0.0075059942 9.435459e-07)
(1.5241269 -0.0075857911 9.9378871e-08)
(1.4953868 0.010897068 9.2197699e-06)
(1.6255073 -0.014680752 1.7377399e-06)
(1.5133179 -0.017570061 2.7572719e-07)
(1.4364074 0.0025359394 1.1815948e-05)
(1.6926591 -0.013666805 2.5843442e-06)
(1.4820175 -0.015371034 4.0499444e-07)
(1.5018807 -0.010489515 1.3174963e-05)
(1.6984174 0.0021062342 3.2149531e-06)
(1.4873709 -0.00012221684 5.7722142e-07)
(1.5334368 -0.0091075807 1.4599526e-05)
(1.6130498 0.018569078 4.2129792e-06)
(1.5157574 0.014480311 7.6909973e-07)
(1.5241979 -0.00047823856 1.6018438e-05)
(1.5127209 0.021531083 4.962072e-06)
(1.5018144 0.011635691 9.6726908e-07)
(1.4979882 -0.0020120981 1.6739109e-05)
(1.5224567 0.0047291337 5.617674e-06)
(1.5687926 0.0034894061 1.1255008e-06)
(1.5655327 -0.013892183 1.7585588e-05)
(1.5173169 -0.011253607 6.4430638e-06)
(1.5745336 -0.0055510726 1.3426906e-06)
(1.5864497 -0.0023673964 1.8330961e-05)
(1.4903974 -0.00065406309 7.0942603e-06)
(1.4915763 0.00046592989 1.55296e-06)
(1.573599 0.0086437912 1.8696693e-05)
(1.5133235 0.01056932 7.6545925e-06)
(1.5962123 0.0041769684 1.6529966e-06)
(1.5631684 -0.0017132076 1.9342844e-05)
(1.5098358 -0.0033772971 8.36613e-06)
(1.5882176 -0.0047177621 1.9720943e-06)
(1.5695774 -0.0054254859 1.9852372e-05)
(1.4881853 -0.00013629791 8.9123964e-06)
(1.4790422 -0.0024018839 2.1270164e-06)
(1.5696115 0.014665832 2.0419727e-05)
(1.5196073 0.0086394761 9.4107015e-06)
(1.574351 -0.0020229749 2.2640106e-06)
(1.4586683 0.015396171 2.0291865e-05)
(1.6199313 -0.0028305453 9.8700033e-06)
(1.570054 -0.010874147 2.5673472e-06)
(1.4677841 -0.0014920602 2.0370439e-05)
(1.5792202 -0.010566755 1.0431878e-05)
(1.4660169 -0.0051938968 2.7057574e-06)
(1.4668997 0.0016122766 2.0549374e-05)
(1.5835412 -0.0036707095 1.074349e-05)
(1.5050752 -0.0042855202 2.8820643e-06)
(1.4790476 0.00011095091 2.1029334e-05)
(1.6448567 -0.0042756441 1.1296927e-05)
(1.5153895 -0.0052132105 3.0402271e-06)
(1.4702549 -0.015262371 2.1440596e-05)
(1.6378104 -0.0066021544 1.1667584e-05)
(1.4995536 0.0013554977 3.219422e-06)
(1.544305 -0.011733351 2.1392663e-05)
(1.571647 0.0028023093 1.203593e-05)
(1.4749998 0.0060979301 3.4068003e-06)
(1.54481 0.017400087 2.1181682e-05)
(1.5700617 0.015618906 1.2265221e-05)
(1.542111 0.0036115687 3.5137796e-06)
(1.4699378 0.0057805804 2.142423e-05)
(1.5742633 0.0067904023 1.2799253e-05)
(1.562501 0.0021364073 3.7268192e-06)
(1.5044681 -0.010643883 2.1520399e-05)
(1.5032989 0.0035522218 1.3039812e-05)
(1.4920418 0.0067005767 3.9143057e-06)
(1.5511067 0.00074267458 2.1641542e-05)
(1.5009954 0.0013868367 1.3443496e-05)
(1.5891525 -0.0011644132 4.0298041e-06)
(1.5090618 -0.0044050147 2.205176e-05)
(1.5643285 -0.016141417 1.3814662e-05)
(1.5696036 -0.010745692 4.2735608e-06)
(1.5561946 -0.018574655 2.2468117e-05)
(1.5744948 -0.022490022 1.4224004e-05)
(1.4791436 -0.0044395125 4.4079764e-06)
(1.5857895 0.004945164 2.2674203e-05)
(1.5063577 -0.0037175183 1.4450589e-05)
(1.4942088 -0.003038697 4.5540442e-06)
(1.4718229 0.01803008 2.2628844e-05)
(1.5917032 -0.0072477944 1.4688561e-05)
(1.4784925 -0.0086429775 4.720862e-06)
(1.4287832 -0.010509815 2.292199e-05)
(1.6440352 -0.0068061012 1.4975347e-05)
(1.4464864 -0.0058404183 4.8540612e-06)
(1.4257363 -0.015393076 2.2373628e-05)
(1.5344936 -0.0033176 1.5117254e-05)
(1.4296452 0.010436923 4.9039143e-06)
(1.3148004 0.035014311 2.3548441e-05)
(1.3082111 0.11058307 1.5723197e-05)
(1.3411836 0.061817522 5.5080924e-06)
(0.81810243 0.37426857 1.1775405e-05)
(0.79527539 0.93654143 1.0010853e-05)
(0.72793646 1.2503259 5.3933935e-06)
(0.2142181 0.10866361 1.4849033e-06)
(0.18308135 0.36036288 3.0698462e-06)
(0.082857805 0.49089447 6.9469065e-07)
(-0.02923439 -0.014581337 1.2538071e-06)
(-0.026238208 -0.029872871 1.7402506e-06)
(-0.019672236 -0.03584122 6.5944901e-07)
(-0.0047824545 -0.0031639514 4.820785e-07)
(-0.0045323394 -0.0077955071 7.9483345e-07)
(-0.0047665728 -0.010702352 4.299514e-07)
(0.0018620096 -0.00016417129 1.3882884e-07)
(0.001720739 -0.00055565888 2.8705341e-07)
(0.00090834997 -0.00094123887 1.8885763e-07)
(0.0018705874 0.00020913147 2.9067663e-08)
(0.0017910534 0.00048187056 8.0577436e-08)
(0.0015144176 0.0007050281 5.8399707e-08)
(0.0014463271 0.00014939879 7.122802e-10)
(0.0013894753 0.00037892246 1.3908028e-08)
(0.0012283863 0.00060359089 1.0624735e-08)
(0.0010772734 9.1999629e-05 -2.6559773e-09)
(0.0010317018 0.00022760463 -9.1602238e-10)
(0.00091731416 0.00034577084 -1.0642055e-09)
(0.00083579969 6.18454e-05 -1.7103696e-09)
(0.00079998511 0.00013328976 -1.8378593e-09)
(0.00071557589 0.00019467628 -1.8049076e-09)
(0.00068252807 3.6006647e-05 -4.9722009e-10)
(0.00065593487 7.9382818e-05 -4.7687373e-10)
(0.00059396883 0.00011261357 -6.1403073e-10)
(0.00058169828 2.4885008e-05 1.1600492e-10)
(0.00056233136 5.4911258e-05 4.0119578e-10)
(0.00051682143 8.1683684e-05 2.0192291e-10)
(0.00050794346 2.1884613e-05 1.0711423e-10)
(0.00049401132 5.0930396e-05 4.9466534e-10)
(0.00046080029 7.5170422e-05 4.0079705e-10)
(0.00044633578 1.9702795e-05 -1.0884859e-10)
(0.00043628643 4.6754292e-05 2.6241887e-10)
(0.00041173372 6.9462958e-05 2.814169e-10)
(0.00039105172 1.7396415e-05 -2.4926151e-10)
(0.00038372497 4.0541173e-05 1.8324498e-11)
(0.00036534108 6.4048239e-05 9.5871664e-11)
(0.00034277888 1.4855034e-05 -3.0244557e-10)
(0.0003374197 3.4098999e-05 -1.2370079e-10)
(0.00032358344 5.4262777e-05 -2.9926103e-11)
(0.00030236767 1.2256065e-05 -2.7327599e-10)
(0.00029841932 2.8687414e-05 -1.5999434e-10)
(0.00028783097 4.508433e-05 -7.9270581e-11)
(0.00026874731 1.0194939e-05 -2.2105889e-10)
(0.00026578525 2.4302512e-05 -1.3743015e-10)
(0.0002574948 3.7818121e-05 -7.7090936e-11)
(0.00024036723 8.5553379e-06 -1.6441766e-10)
(0.00023811291 2.034874e-05 -9.163258e-11)
(0.00023151928 3.2140852e-05 -5.183272e-11)
(0.00021594954 7.3857921e-06 -1.2215395e-10)
(0.00021421231 1.7432507e-05 -5.3999057e-11)
(0.00020889667 2.7768745e-05 -2.5736826e-11)
(0.00019456597 6.5774269e-06 -9.8280792e-11)
(0.0001932135 1.5345921e-05 -3.3477916e-11)
(0.00018887892 2.4590725e-05 -9.9273796e-12)
(0.00017558331 5.8600663e-06 -8.6644653e-11)
(0.00017452412 1.3882243e-05 -2.7251257e-11)
(0.00017095494 2.219079e-05 -4.2569426e-12)
(0.00015856982 5.2852218e-06 -8.0086535e-11)
(0.00015773682 1.2649249e-05 -2.8234263e-11)
(0.00015477079 2.0192212e-05 -5.1413556e-12)
(0.00014323507 4.7968314e-06 -7.5803983e-11)
(0.00014257423 1.1512878e-05 -3.1905297e-11)
(0.00014008709 1.8416857e-05 -9.0699513e-12)
(0.00012938579 4.3481597e-06 -7.1735402e-11)
(0.00012885667 1.0448469e-05 -3.5450731e-11)
(0.00012675454 1.6769619e-05 -1.3591506e-11)
(0.00011689141 3.9055864e-06 -6.5414946e-11)
(0.00011646419 9.3916061e-06 -3.5564612e-11)
(0.0001146747 1.5093772e-05 -1.57291e-11)
(0.00010564799 3.4976208e-06 -5.9777766e-11)
(0.00010530085 8.4084751e-06 -3.4425799e-11)
(0.00010376682 1.3503846e-05 -1.6023002e-11)
(9.5554743e-05 3.1568922e-06 -5.6616234e-11)
(9.52719e-05 7.5770264e-06 -3.3469385e-11)
(9.3950659e-05 1.2125011e-05 -1.5976756e-11)
(8.6519912e-05 2.7985189e-06 -5.063207e-11)
(8.6288785e-05 6.7601581e-06 -3.1096268e-11)
(8.5146935e-05 1.0907061e-05 -1.5626486e-11)
(7.8473513e-05 2.4783071e-06 -4.6632823e-11)
(7.8283537e-05 5.9782347e-06 -2.885445e-11)
(7.7291793e-05 9.6278074e-06 -1.4627787e-11)
(7.1354771e-05 2.1902571e-06 -4.4031089e-11)
(7.119847e-05 5.288797e-06 -2.7357505e-11)
(7.0332975e-05 8.5125718e-06 -1.4083728e-11)
(6.5073186e-05 1.9201613e-06 -4.1623646e-11)
(6.4945874e-05 4.6565867e-06 -2.5735651e-11)
(6.4188258e-05 7.5057337e-06 -1.3474865e-11)
(5.9511624e-05 1.6982531e-06 -3.9545348e-11)
(5.940785e-05 4.0916317e-06 -2.4032866e-11)
(5.8742842e-05 6.573633e-06 -1.2634582e-11)
(5.4593622e-05 1.4817425e-06 -3.8140296e-11)
(5.4508572e-05 3.5867653e-06 -2.2752079e-11)
(5.3922765e-05 5.7707424e-06 -1.1841084e-11)
(5.03002e-05 1.2837014e-06 -3.7061628e-11)
(5.0231501e-05 3.1181968e-06 -2.1715963e-11)
(4.9713249e-05 5.0166534e-06 -1.1227811e-11)
(4.6601813e-05 1.1040003e-06 -3.6203078e-11)
(4.6547182e-05 2.6900971e-06 -2.0993205e-11)
(4.6086618e-05 4.3297138e-06 -1.0937909e-11)
(4.3433875e-05 9.4280837e-07 -3.5556078e-11)
(4.3391137e-05 2.3059981e-06 -2.0581652e-11)
(4.2979764e-05 3.715137e-06 -1.0931822e-11)
(4.0730645e-05 8.0148843e-07 -3.5191763e-11)
(4.0697928e-05 1.9661605e-06 -2.030876e-11)
(4.0328264e-05 3.1593664e-06 -1.0924588e-11)
(3.8436353e-05 6.7516457e-07 -3.4719215e-11)
(3.8412049e-05 1.6627906e-06 -1.9970539e-11)
(3.8077525e-05 2.6742037e-06 -1.0953483e-11)
(3.6500931e-05 5.6437055e-07 -3.430861e-11)
(3.6483689e-05 1.3957977e-06 -1.9690509e-11)
(3.6178713e-05 2.2459274e-06 -1.101284e-11)
(3.4879363e-05 4.678977e-07 -3.3947535e-11)
(3.4868058e-05 1.1621488e-06 -1.9424322e-11)
(3.4587855e-05 1.869849e-06 -1.105648e-11)
(3.3530938e-05 3.8494848e-07 -3.3643557e-11)
(3.3524621e-05 9.6004489e-07 -1.9117295e-11)
(3.3265063e-05 1.5404369e-06 -1.0970694e-11)
(3.2419063e-05 3.1362638e-07 -3.3326729e-11)
(3.2416906e-05 7.8550714e-07 -1.8759828e-11)
(3.2174408e-05 1.2599022e-06 -1.0847057e-11)
(3.1511424e-05 2.5339506e-07 -3.3122766e-11)
(3.1512688e-05 6.3762524e-07 -1.8543364e-11)
(3.1284141e-05 1.0232738e-06 -1.0836964e-11)
(3.0780102e-05 2.025423e-07 -3.3030872e-11)
(3.078415e-05 5.1216986e-07 -1.8479852e-11)
(3.0566876e-05 8.2205837e-07 -1.0934874e-11)
(3.0200797e-05 1.6015019e-07 -3.3071754e-11)
(3.0207094e-05 4.0713427e-07 -1.8549876e-11)
(2.9998802e-05 6.5164967e-07 -1.1065631e-11)
(2.9750712e-05 1.2407874e-07 -3.3096825e-11)
(2.9758794e-05 3.1745196e-07 -1.8577797e-11)
(2.9557517e-05 5.0872195e-07 -1.1146969e-11)
(2.9405806e-05 9.3908203e-08 -3.3207071e-11)
(2.9415253e-05 2.4230139e-07 -1.8695441e-11)
(2.9219314e-05 3.898899e-07 -1.1262725e-11)
(2.9135923e-05 6.9216725e-08 -3.341453e-11)
(2.9146332e-05 1.7959076e-07 -1.8862386e-11)
(2.895436e-05 2.8935676e-07 -1.1355572e-11)
(2.8942919e-05 4.9076089e-08 -3.3394993e-11)
(2.8953946e-05 1.2430877e-07 -1.8353383e-11)
(2.8764673e-05 1.9667267e-07 -1.0828251e-11)
(2.8708821e-05 2.4193241e-08 -3.1180717e-11)
(2.8719567e-05 5.9829544e-08 -1.4772163e-11)
(2.8532523e-05 9.2967084e-08 -8.122093e-12)
(-0.045685039 1.9335576 -3.5728243e-07)
(-0.03264056 1.6821471 -3.4434013e-06)
(-0.062520782 0.33467686 -2.3324964e-07)
(-0.044074462 0.14659039 -9.7134599e-07)
(-0.016724474 -0.043911981 -6.5965159e-08)
(-0.013242857 -0.045615228 -4.4685546e-07)
(-0.0048918267 -0.013875882 5.7989977e-08)
(-0.0050733441 -0.016014382 -1.6475225e-07)
(4.5897324e-05 -0.0018649011 4.1628741e-08)
(-0.00063833758 -0.0030259914 -6.1236185e-08)
(0.0011037489 0.00072266789 1.0657947e-08)
(0.00068191716 0.00054321666 -2.6235096e-08)
(0.00097978627 0.00077042724 -1.753439e-09)
(0.0007119811 0.00086407692 -1.1944659e-08)
(0.00075113851 0.00044226957 -3.3599991e-09)
(0.00057116066 0.00050414844 -5.3506831e-09)
(0.00059661252 0.0002390274 -2.0390033e-09)
(0.0004656506 0.0002551636 -2.2206741e-09)
(0.00050747984 0.00013308087 -6.6902913e-10)
(0.00041070505 0.00013258685 -6.5731977e-10)
(0.00045381613 9.6972176e-05 8.2970452e-11)
(0.00038212523 9.6428299e-05 4.4002446e-11)
(0.00041434583 8.9664196e-05 2.9885518e-10)
(0.00036034269 9.5741854e-05 2.4034244e-10)
(0.00037701413 8.6920023e-05 2.3888543e-10)
(0.00033599275 9.69451e-05 2.0296075e-10)
(0.00033920435 7.9645899e-05 1.0816236e-10)
(0.00030789185 9.0991672e-05 1.0300465e-10)
(0.00030377068 7.0183615e-05 9.0633148e-12)
(0.00027960399 8.2435856e-05 2.3309526e-11)
(0.00027253034 6.0094361e-05 -3.5931243e-11)
(0.0002536243 7.1301368e-05 -1.4135175e-11)
(0.00024542901 5.0127845e-05 -3.9879156e-11)
(0.00023042792 6.0124729e-05 -1.9191247e-11)
(0.00022185929 4.2785007e-05 -2.5627661e-11)
(0.00020977464 5.1496374e-05 -9.7186781e-12)
(0.00020106987 3.7234663e-05 -8.3919495e-12)
(0.00019121234 4.5227534e-05 1.9693593e-12)
(0.00018247233 3.3231352e-05 2.8547212e-12)
(0.00017435124 4.0650785e-05 9.7469495e-12)
(0.00016565989 3.0229516e-05 6.7887596e-12)
(0.00015890731 3.7120263e-05 1.2253546e-11)
(0.0001503516 2.769464e-05 5.621605e-12)
(0.00014468873 3.4221514e-05 1.0611142e-11)
(0.00013636599 2.5297903e-05 1.9020986e-12)
(0.00013158009 3.1457728e-05 6.9929206e-12)
(0.00012359802 2.2948068e-05 -2.3874976e-12)
(0.00011952303 2.8687524e-05 3.0924434e-12)
(0.00011197941 2.06753e-05 -5.0890981e-12)
(0.00010848693 2.6013466e-05 3.6472438e-13)
(0.00010144964 1.8509175e-05 -5.9732999e-12)
(9.8439634e-05 2.3404377e-05 -9.080091e-13)
(9.1948456e-05 1.659957e-05 -6.3716008e-12)
(8.9342252e-05 2.0947404e-05 -1.5859793e-12)
(8.341253e-05 1.4905481e-05 -6.5158977e-12)
(8.1148371e-05 1.8701868e-05 -1.7743597e-12)
(7.5783813e-05 1.3244648e-05 -6.301782e-12)
(7.3810167e-05 1.6669893e-05 -1.8540491e-12)
(6.9014962e-05 1.1699194e-05 -6.1618796e-12)
(6.7287798e-05 1.4754541e-05 -1.9210713e-12)
(6.3032102e-05 1.0314235e-05 -6.1003269e-12)
(6.1514472e-05 1.3003247e-05 -2.0930783e-12)
(5.7726169e-05 9.0258655e-06 -5.8194355e-12)
(5.6388869e-05 1.1403055e-05 -2.134524e-12)
(5.3026423e-05 7.9358752e-06 -5.351354e-12)
(5.184607e-05 1.0003639e-05 -1.8971767e-12)
(4.8919844e-05 6.8912434e-06 -5.0075731e-12)
(4.787444e-05 8.6834009e-06 -1.6944205e-12)
(4.5380604e-05 5.9486602e-06 -4.9624489e-12)
(4.4449273e-05 7.5023157e-06 -1.7499458e-12)
(4.2348107e-05 5.1073198e-06 -5.1567227e-12)
(4.1513498e-05 6.4470381e-06 -2.0197434e-12)
(3.9759755e-05 4.343568e-06 -5.3384051e-12)
(3.9007503e-05 5.4927652e-06 -2.2997799e-12)
(3.7562298e-05 3.6784556e-06 -5.5512793e-12)
(3.6879762e-05 4.6422603e-06 -2.5596303e-12)
(3.5708323e-05 3.0891286e-06 -5.7680282e-12)
(3.5084547e-05 3.8994208e-06 -2.8329639e-12)
(3.4155051e-05 2.5714875e-06 -5.9532554e-12)
(3.3580518e-05 3.2432435e-06 -3.0538766e-12)
(3.2863528e-05 2.1158615e-06 -6.0003288e-12)
(3.2329929e-05 2.6702814e-06 -3.1677236e-12)
(3.1798659e-05 1.731181e-06 -6.0235592e-12)
(3.1298799e-05 2.1854344e-06 -3.2602587e-12)
(3.092946e-05 1.4067382e-06 -6.1187327e-12)
(3.0457167e-05 1.7755185e-06 -3.4000185e-12)
(3.0229212e-05 1.1302723e-06 -6.2782132e-12)
(2.9779183e-05 1.4266339e-06 -3.5789253e-12)
(2.9674666e-05 8.9464992e-07 -6.4267559e-12)
(2.9242328e-05 1.1297138e-06 -3.7317587e-12)
(2.9243913e-05 6.989257e-07 -6.5272184e-12)
(2.8825344e-05 8.8291039e-07 -3.8348852e-12)
(2.8913724e-05 5.3675195e-07 -6.6419118e-12)
(2.8505629e-05 6.7856749e-07 -3.9491504e-12)
(2.8654759e-05 3.9862949e-07 -6.7373626e-12)
(2.8254502e-05 5.0405051e-07 -4.0668796e-12)
(2.8469157e-05 2.6966253e-07 -6.4095382e-12)
(2.8074256e-05 3.4033799e-07 -3.919911e-12)
(2.8240535e-05 1.2682531e-07 -4.7087923e-12)
(2.7850334e-05 1.5981261e-07 -2.8925929e-12)
(-0.0039996693 4.4033166e-05 -4.8329105e-09)
(-0.0038883272 5.4773297e-05 -1.0510547e-08)
(-0.0036676105 9.4028933e-05 -1.2974437e-08)
(-0.0034038126 8.7854662e-05 -1.2994396e-08)
(-0.0031269608 7.9989338e-05 -1.1479888e-08)
(-0.0028495541 5.5620887e-05 -9.3494315e-09)
(-0.0025749633 2.5427955e-05 -7.2556982e-09)
(-0.0023119053 -1.6382955e-05 -5.4618321e-09)
(-0.0020634063 -6.2526497e-05 -4.0136767e-09)
(-0.0018319164 -0.00011038432 -2.858911e-09)
(-0.0016172567 -0.00016004855 -1.9246039e-09)
(-0.0014185315 -0.00020804235 -1.1814645e-09)
(-0.0012361873 -0.00025024074 -6.2009779e-10)
(-0.0010703548 -0.00028701755 -2.0741452e-10)
(-0.00092048902 -0.00031784647 8.9262593e-11)
(-0.0007856181 -0.0003420779 2.9325395e-10)
(-0.00066449036 -0.0003596038 4.2308148e-10)
(-0.00055574028 -0.00037248773 4.9548173e-10)
(-0.00045800465 -0.00038133258 5.2742124e-10)
(-0.00036993862 -0.00038534757 5.3175796e-10)
(-0.0002902149 -0.00038565129 5.1787576e-10)
(-0.00021753043 -0.00038256503 4.8886562e-10)
(-0.00015062277 -0.00037717369 4.3737064e-10)
(-8.8333754e-05 -0.00036997068 3.4525513e-10)
(-2.9234903e-05 -0.00035282402 2.1382418e-10)
(2.4361857e-05 -3.3815138e-05 -1.332601e-08)
(5.0312444e-05 -0.00020064762 -2.8267673e-08)
(8.5721374e-05 -0.0002945866 -3.5167824e-08)
(0.00012180678 -0.00051397345 -3.5795118e-08)
(0.00015977997 -0.00070150455 -3.2315473e-08)
(0.00019688704 -0.00092992141 -2.7157268e-08)
(0.00022794408 -0.0011544591 -2.1937817e-08)
(0.00025247828 -0.0013846844 -1.7321191e-08)
(0.00026826485 -0.0016124638 -1.3470306e-08)
(0.00027587717 -0.0018348849 -1.0243535e-08)
(0.00027354837 -0.0020485528 -7.4780324e-09)
(0.00026189636 -0.0022430849 -5.2008736e-09)
(0.0002446205 -0.0024146426 -3.4086685e-09)
(0.00022384337 -0.002562612 -2.0090069e-09)
(0.00020144435 -0.0026866373 -9.3294316e-10)
(0.00017871529 -0.0027871541 -1.3480203e-10)
(0.00015639585 -0.0028651352 4.2536591e-10)
(0.00013476031 -0.0029211509 7.8489392e-10)
(0.00011391267 -0.0029563746 9.968289e-10)
(9.3938558e-05 -0.0029713635 1.0953562e-09)
(7.4884851e-05 -0.0029665486 1.1144258e-09)
(5.6750083e-05 -0.0029432196 1.0752757e-09)
(3.9469085e-05 -0.0029054044 9.7555411e-10)
(2.2784638e-05 -0.0028458511 7.6803066e-10)
(6.4967045e-06 -0.0027229166 3.7502527e-10)
(0.00081631127 -0.00034309857 -3.9234142e-08)
(0.00088148586 -0.0016390046 -8.1313683e-08)
(0.0009664793 -0.0022604086 -1.000768e-07)
(0.0010573215 -0.0032580684 -1.0093523e-07)
(0.0011287086 -0.0040734138 -9.1687937e-08)
(0.00116707 -0.0048972944 -7.9216037e-08)
(0.0011663569 -0.005654047 -6.670579e-08)
(0.0011367004 -0.0063596978 -5.5402405e-08)
(0.0010843754 -0.0070095679 -4.5730353e-08)
(0.0010159002 -0.0076820764 -3.711108e-08)
(0.00093826967 -0.0083754597 -2.9114597e-08)
(0.00085542402 -0.0089760171 -2.2357698e-08)
(0.00077004018 -0.0094677379 -1.6747805e-08)
(0.00068534571 -0.0098490327 -1.2016485e-08)
(0.00060402414 -0.010129067 -8.0998379e-09)
(0.00052717549 -0.010319922 -4.9600591e-09)
(0.00045500385 -0.010431388 -2.5475382e-09)
(0.00038712054 -0.010469543 -8.1393726e-10)
(0.00032362911 -0.010444858 4.0974159e-10)
(0.00026445959 -0.010362779 1.176444e-09)
(0.00020933582 -0.010231099 1.5911048e-09)
(0.00015782686 -0.010057955 1.742554e-09)
(0.00010941505 -0.0098588273 1.6795818e-09)
(6.3295561e-05 -0.0095925792 1.3592928e-09)
(1.9172424e-05 -0.0091745454 7.0626389e-10)
(0.0037623386 -0.0012141686 -1.0847983e-07)
(0.0038213436 -0.005370228 -2.1059078e-07)
(0.0038483982 -0.0071295405 -2.4543139e-07)
(0.0037133117 -0.010764756 -2.3807062e-07)
(0.0035071606 -0.014067309 -2.1458522e-07)
(0.0032337195 -0.017032806 -1.8933955e-07)
(0.0029209009 -0.019215386 -1.6528978e-07)
(0.0026079897 -0.02074976 -1.4353312e-07)
(0.0023038499 -0.021698652 -1.2541087e-07)
(0.0020191407 -0.022070289 -1.0863825e-07)
(0.0017565799 -0.022020341 -9.1073705e-08)
(0.0015154124 -0.021688283 -7.6407057e-08)
(0.0012979269 -0.021174153 -6.3284528e-08)
(0.0011048225 -0.020544301 -5.0993986e-08)
(0.00093458234 -0.019837671 -3.9868915e-08)
(0.00078388835 -0.019091328 -3.0098264e-08)
(0.00064971778 -0.018318653 -2.1775269e-08)
(0.00052982549 -0.017536675 -1.4914119e-08)
(0.00042547142 -0.016770508 -9.4606798e-09)
(0.00033509957 -0.016031595 -5.3498865e-09)
(0.0002567667 -0.015336226 -2.4651292e-09)
(0.00018830461 -0.014687757 -6.3383344e-10)
(0.00012791655 -0.014118311 3.485543e-10)
(7.3529253e-05 -0.01352001 6.4328125e-10)
(2.4210767e-05 -0.012869182 3.9748956e-10)
(0.012049016 -0.0091223514 -2.8693448e-07)
(0.0098022823 -0.027056324 -4.740479e-07)
(0.0088134031 -0.030308826 -5.0396549e-07)
(0.0071223746 -0.035398488 -4.7900521e-07)
(0.0056971808 -0.033753188 -4.3777008e-07)
(0.0044384882 -0.030716213 -3.943954e-07)
(0.0033934624 -0.026560961 -3.5355951e-07)
(0.0025485775 -0.021955577 -3.1566787e-07)
(0.0018834269 -0.017534403 -2.7991963e-07)
(0.0013664271 -0.013345533 -2.4921238e-07)
(0.00096873047 -0.0095165564 -2.1957971e-07)
(0.00066936001 -0.0061498438 -1.9468947e-07)
(0.00044616594 -0.0032322763 -1.72271e-07)
(0.00027953349 -0.00081111915 -1.492222e-07)
(0.00015717044 0.0011924274 -1.2698319e-07)
(7.0169175e-05 0.0028353337 -1.0591808e-07)
(1.1236257e-05 0.0042700476 -8.6248098e-08)
(-2.4953131e-05 0.0054953792 -6.8061409e-08)
(-4.5601256e-05 0.0064728853 -5.1596933e-08)
(-5.4670478e-05 0.0072176294 -3.7171743e-08)
(-5.4911805e-05 0.0077252547 -2.5156438e-08)
(-4.8696581e-05 0.0080805004 -1.5853996e-08)
(-3.7185981e-05 0.008184207 -9.2925449e-09)
(-2.2381549e-05 0.0082987757 -5.1556202e-09)
(-3.4081046e-06 0.0079770733 -2.7514025e-09)
(0.015099005 0.023061027 -7.0648143e-07)
(0.0047568581 -0.0033287192 -9.6562837e-07)
(0.0019840887 0.047801652 -9.5165828e-07)
(1.1815523e-05 0.050318683 -8.7071495e-07)
(-0.0016559314 0.064873556 -7.9482396e-07)
(-0.0028740776 0.075887815 -7.1145044e-07)
(-0.0035322217 0.083365712 -6.3602072e-07)
(-0.0037354541 0.089318172 -5.6828899e-07)
(-0.0036562254 0.093852082 -5.0763971e-07)
(-0.0034354829 0.096725145 -4.5516937e-07)
(-0.0031437623 0.098215178 -4.038631e-07)
(-0.0028038608 0.098519198 -3.591099e-07)
(-0.0024685273 0.09813876 -3.2800049e-07)
(-0.0021536858 0.09702727 -2.9150893e-07)
(-0.0018490597 0.095483117 -2.5719886e-07)
(-0.0015674563 0.093569184 -2.2504152e-07)
(-0.0013118066 0.091314761 -1.944862e-07)
(-0.001081106 0.088766402 -1.6512296e-07)
(-0.000876833 0.08607251 -1.3678726e-07)
(-0.00069702241 0.083390338 -1.0934449e-07)
(-0.00053836136 0.080648133 -8.2951666e-08)
(-0.00039766619 0.078131215 -5.8517976e-08)
(-0.00027039452 0.075315361 -3.7570163e-08)
(-0.00015494964 0.073394964 -2.2007198e-08)
(-4.4480459e-05 0.069500485 -9.5690925e-09)
(-0.0018937524 1.1663774 -2.5072288e-06)
(-0.00061095157 0.95884173 -1.9818993e-06)
(-0.00092522235 0.86573743 -1.5963214e-06)
(-0.00064062047 0.77543923 -1.3006139e-06)
(-0.00053827364 0.68134598 -1.0785372e-06)
(-0.00044951591 0.5917672 -9.1157113e-07)
(-0.00037570053 0.51487474 -7.8646399e-07)
(-0.00031030826 0.45241808 -6.879253e-07)
(-0.00025452318 0.40107771 -6.0679834e-07)
(-0.00020371839 0.35749777 -5.4315747e-07)
(-0.00016090141 0.32001125 -4.8822036e-07)
(-0.00013383375 0.28789332 -4.3883032e-07)
(-0.00011003002 0.26061173 -3.9539273e-07)
(-8.5844691e-05 0.2374238 -3.5512429e-07)
(-6.3268597e-05 0.21765441 -3.1733266e-07)
(-4.5292216e-05 0.20075178 -2.8166238e-07)
(-3.2504827e-05 0.18625064 -2.4773024e-07)
(-2.4351742e-05 0.17379773 -2.1506963e-07)
(-1.8026865e-05 0.16301606 -1.8351042e-07)
(-1.3087703e-05 0.15377589 -1.5294661e-07)
(-9.2420259e-06 0.14557532 -1.230143e-07)
(-6.248849e-06 0.13881896 -9.3442592e-08)
(-3.8713234e-06 0.13211197 -6.478188e-08)
(-2.0306244e-06 0.12795066 -4.0962934e-08)
(-3.9386828e-07 0.12051496 -1.7067549e-08)
(-0.014608353 0.087432535 -1.143548e-06)
(-0.0040654008 0.096365272 -1.1602827e-06)
(-0.0013290789 0.10356451 -1.0962152e-06)
(0.0005985558 0.1056913 -9.9554721e-07)
(0.0021812503 0.10859002 -8.885276e-07)
(0.0033099063 0.11092017 -7.8591618e-07)
(0.0039030512 0.11272285 -6.9590804e-07)
(0.0040506607 0.11443326 -6.0492272e-07)
(0.0039042891 0.11525985 -5.3092598e-07)
(0.003627231 0.11523004 -4.8719994e-07)
(0.0033166906 0.11429274 -4.3648627e-07)
(0.0029800406 0.11273778 -3.8576819e-07)
(0.002623859 0.11083251 -3.4197403e-07)
(0.0022755534 0.10850536 -3.0259871e-07)
(0.0019462566 0.10578098 -2.6654785e-07)
(0.0016435819 0.10268459 -2.3295008e-07)
(0.0013713164 0.099435651 -2.0120153e-07)
(0.0011291215 0.09617265 -1.7087102e-07)
(0.00091535156 0.092925156 -1.4171683e-07)
(0.00072743204 0.089790882 -1.1351177e-07)
(0.0005617452 0.086664119 -8.6302626e-08)
(0.00041490032 0.083834758 -6.0904116e-08)
(0.00028214605 0.080721905 -3.9021703e-08)
(0.000161783 0.078620668 -2.2626714e-08)
(4.685012e-05 0.074413557 -9.3865737e-09)
(-0.010769447 -0.043660239 -6.1368649e-07)
(-0.009185171 -0.042265538 -6.4798538e-07)
(-0.0075729306 -0.040740928 -6.1991777e-07)
(-0.0060154264 -0.037718897 -5.6984953e-07)
(-0.0046282197 -0.033165456 -5.1305801e-07)
(-0.0034575703 -0.027859116 -4.5450385e-07)
(-0.0025152318 -0.022341787 -4.034445e-07)
(-0.0017737861 -0.017060738 -3.5423913e-07)
(-0.0012074963 -0.012165327 -3.1618731e-07)
(-0.00078492518 -0.0078038391 -2.8458474e-07)
(-0.00047390669 -0.004051819 -2.5206063e-07)
(-0.00024168111 -0.00087466711 -2.2083225e-07)
(-7.8324339e-05 0.0017828775 -1.9195075e-07)
(3.1458264e-05 0.0040001227 -1.6520678e-07)
(0.00010075122 0.0059783525 -1.4041622e-07)
(0.00014123557 0.0076949429 -1.172414e-07)
(0.0001611123 0.0090961779 -9.5598181e-08)
(0.00016566632 0.010186717 -7.5596777e-08)
(0.00015902134 0.010988824 -5.7475576e-08)
(0.00014436578 0.011554481 -4.154779e-08)
(0.00012386893 0.011887594 -2.8180709e-08)
(9.9339083e-05 0.012077969 -1.7500499e-08)
(7.1558977e-05 0.012029391 -1.060997e-08)
(4.2070042e-05 0.012004937 -5.6426419e-09)
(9.3899098e-06 0.011496312 -2.8194342e-09)
(-0.0052293282 -0.018331897 -2.701338e-07)
(-0.0050686324 -0.021459969 -3.0069247e-07)
(-0.0047322726 -0.02449956 -2.9195644e-07)
(-0.0043197245 -0.026743878 -2.68562e-07)
(-0.0038728557 -0.028262496 -2.4099175e-07)
(-0.0034113218 -0.02913454 -2.1606638e-07)
(-0.0029766703 -0.029373829 -1.9020518e-07)
(-0.0025896453 -0.029089 -1.6285471e-07)
(-0.0022424502 -0.028398689 -1.4116012e-07)
(-0.0019314959 -0.027500403 -1.2209224e-07)
(-0.001653121 -0.026480149 -1.0373488e-07)
(-0.0014115889 -0.025382469 -8.656698e-08)
(-0.0011987132 -0.024248907 -7.0951502e-08)
(-0.0010099471 -0.023109256 -5.695528e-08)
(-0.00084216149 -0.021967606 -4.4595633e-08)
(-0.00069476546 -0.020839258 -3.3831383e-08)
(-0.00056737019 -0.019752049 -2.4627187e-08)
(-0.00045803549 -0.018715892 -1.6979212e-08)
(-0.00036465326 -0.017742078 -1.0865365e-08)
(-0.00028502691 -0.016835169 -6.2176094e-09)
(-0.00021698937 -0.016006737 -2.9116643e-09)
(-0.00015827008 -0.015255473 -7.5700285e-10)
(-0.00010706002 -0.014611201 3.5418785e-10)
(-6.1492312e-05 -0.013953324 7.363301e-10)
(-2.0739318e-05 -0.013267164 4.4217571e-10)
(-0.0011439116 -0.0042962005 -1.1339871e-07)
(-0.0014347499 -0.0055643854 -1.3011218e-07)
(-0.0016069233 -0.0067535908 -1.2637923e-07)
(-0.0016830655 -0.0078130694 -1.1427286e-07)
(-0.0016832306 -0.00875657 -9.9733162e-08)
(-0.0016358218 -0.0095884067 -8.5712421e-08)
(-0.0015504422 -0.010348557 -7.2135777e-08)
(-0.0014472523 -0.01112191 -5.8855274e-08)
(-0.0013313427 -0.011854861 -4.7793077e-08)
(-0.0012098783 -0.012448477 -3.846921e-08)
(-0.0010885027 -0.012899573 -3.0232032e-08)
(-0.00097238207 -0.013220932 -2.3031744e-08)
(-0.00086280843 -0.013428763 -1.6894963e-08)
(-0.00076013096 -0.013539579 -1.1781144e-08)
(-0.00066436518 -0.013564786 -7.696345e-09)
(-0.00057541443 -0.013515882 -4.4569254e-09)
(-0.00049315783 -0.013404322 -1.9747336e-09)
(-0.00041731193 -0.013238239 -1.6660367e-10)
(-0.00034744213 -0.013026141 1.0698731e-09)
(-0.00028300594 -0.012774459 1.836882e-09)
(-0.00022342384 -0.012490343 2.2342386e-09)
(-0.00016811454 -0.012181261 2.3464627e-09)
(-0.00011639802 -0.011866004 2.1980931e-09)
(-6.7273835e-05 -0.011491536 1.7217479e-09)
(-2.0450056e-05 -0.010973581 8.4229277e-10)
(0.00035532975 0.00020849714 -4.4780318e-08)
(0.00011071871 -0.00020924378 -4.96316e-08)
(-8.3403919e-05 -0.00063784247 -4.6689408e-08)
(-0.00022687004 -0.0010594158 -4.0596284e-08)
(-0.00033295463 -0.0014735334 -3.3815891e-08)
(-0.00041658143 -0.0018703501 -2.7505978e-08)
(-0.0004699971 -0.0022406896 -2.1851929e-08)
(-0.00049271935 -0.0025878258 -1.6766746e-08)
(-0.00049265989 -0.0029013222 -1.2569532e-08)
(-0.0004777712 -0.0031658452 -9.1757839e-09)
(-0.00045338175 -0.0033857157 -6.3930106e-09)
(-0.00042314991 -0.0035655344 -4.1283955e-09)
(-0.00038949531 -0.0037103162 -2.3276256e-09)
(-0.0003540544 -0.0038244653 -9.3850879e-10)
(-0.00031800526 -0.0039112881 8.2966121e-11)
(-0.00028213682 -0.0039735156 8.0691177e-10)
(-0.00024699481 -0.0040137406 1.2878148e-09)
(-0.00021293791 -0.004033832 1.5752584e-09)
(-0.00018017276 -0.0040355398 1.7124932e-09)
(-0.00014878389 -0.0040197756 1.7400548e-09)
(-0.00011878335 -0.0039878785 1.6890813e-09)
(-9.017078e-05 -0.0039423027 1.5770306e-09)
(-6.2828805e-05 -0.0038855181 1.3887776e-09)
(-3.6367186e-05 -0.0038006682 1.0544522e-09)
(-1.0660366e-05 -0.0036327432 4.8581794e-10)
(0.00048423427 0.00088182616 -1.6486916e-08)
(0.00032246701 0.00081655702 -1.6806792e-08)
(0.00021363348 0.00072477976 -1.4988897e-08)
(0.00012820348 0.0006244639 -1.2421537e-08)
(5.2763055e-05 0.00050654916 -9.8499762e-09)
(-8.2192705e-06 0.00038888352 -7.5939523e-09)
(-5.7965387e-05 0.00026879895 -5.704697e-09)
(-9.5245865e-05 0.000146558 -4.1153609e-09)
(-0.00012200694 3.7965849e-05 -2.8389911e-09)
(-0.00013949932 -6.0931451e-05 -1.841098e-09)
(-0.00014850241 -0.00014725698 -1.065076e-09)
(-0.00015035882 -0.00021843377 -4.6789743e-10)
(-0.00014675244 -0.00027706119 -1.9079128e-11)
(-0.00013931267 -0.00032483771 3.0524017e-10)
(-0.00012928609 -0.00036367238 5.2542122e-10)
(-0.00011760572 -0.00039523704 6.6283157e-10)
(-0.00010497316 -0.00041994486 7.3694582e-10)
(-9.1885578e-05 -0.00043869735 7.6408329e-10)
(-7.8686984e-05 -0.00045235404 7.5766075e-10)
(-6.5609786e-05 -0.00046112065 7.2896703e-10)
(-5.279085e-05 -0.00046549204 6.8497868e-10)
(-4.0272554e-05 -0.00046553618 6.2664547e-10)
(-2.8110034e-05 -0.00046243738 5.4366371e-10)
(-1.63042e-05 -0.00045122461 4.1570528e-10)
(-4.79622e-06 -0.00043619226 2.4050971e-10)
(0.00040690688 0.00053946376 -5.9605223e-09)
(0.00028547411 0.00055543527 -5.5145174e-09)
(0.00020126776 0.00055448087 -4.6577905e-09)
(0.00013759794 0.00054342231 -3.7260807e-09)
(8.7703182e-05 0.00051824694 -2.8761524e-09)
(4.8876859e-05 0.00048223556 -2.1662007e-09)
(1.450957e-05 0.00044456477 -1.5947143e-09)