/*--------------------------------*- C++ -*----------------------------------*\
| =========                 |                                                 |
| \\      /  F ield         | OpenFOAM: The Open Source CFD Toolbox           |
|  \\    /   O peration     | Version:  4.0                                   |
|   \\  /    A nd           | Web:      www.OpenFOAM.org                      |
|    \\/     M anipulation  |                                                 |
\*---------------------------------------------------------------------------*/
FoamFile
{
    version     2.0;
    format      ascii;
    class       volScalarField;
    location    "0.45";
    object      k;
}
// * * * * * * * * * * * * * * * * * * * * * * * * * * * * * * * * * * * * * //

dimensions      [0 2 -2 0 0 0 0];

internalField   nonuniform List<scalar> 
1740
(
0.009084076
0.0092328436
0.018359073
0.0092855742
0.0098132551
0.027110847
0.0095598819
0.010307805
0.03486566
0.0097975591
0.010705311
0.041818066
0.010003888
0.010992521
0.047577466
0.010173883
0.011348796
0.052401075
0.010288715
0.011878328
0.056675815
0.010353069
0.01216628
0.06013838
0.010352749
0.012400544
0.062657151
0.010315181
0.012708202
0.064632116
0.010262797
0.013052948
0.066522335
0.010195793
0.013348833
0.068195199
0.010106556
0.01372586
0.069328256
0.010035394
0.014132914
0.069960658
0.010006942
0.013988698
0.070275122
0.009854435
0.013957745
0.071211738
0.0096671954
0.014081192
0.071904975
0.0095850013
0.014128199
0.07208301
0.0094229405
0.014181677
0.072425672
0.0092457203
0.014335594
0.072471089
0.0091247531
0.014213889
0.072723362
0.0089815084
0.014466937
0.073286455
0.0088901726
0.014744724
0.073152523
0.0087767856
0.014606042
0.073208092
0.0086424035
0.01458529
0.073154244
0.0085068567
0.014578661
0.072891052
0.008402629
0.014695924
0.072870048
0.0083475991
0.015054157
0.072771382
0.0083340869
0.015214761
0.072067099
0.0089598279
0.016269636
0.067047383
0.012788191
0.018236045
0.047650068
0.024104022
0.031342365
0.040026008
0.010311402
0.012575667
0.013761625
0.0042730442
0.0046039406
0.0046638068
0.0020836525
0.0021259889
0.0020977201
0.0011445684
0.0011452518
0.0011262004
0.00068969197
0.00068707449
0.00067872816
0.00044634861
0.00044496485
0.00044211962
0.00030417923
0.00030378434
0.00030329711
0.00021450574
0.00021457176
0.00021495658
0.00015420209
0.00015442361
0.00015503493
0.00011157665
0.00011181345
0.00011239403
8.0409549e-05
8.0608478e-05
8.1073669e-05
5.7233215e-05
5.7381405e-05
5.7719724e-05
3.9990287e-05
4.0091751e-05
4.0320364e-05
2.7336763e-05
2.7401458e-05
2.7546122e-05
1.8277686e-05
1.8316296e-05
1.8402233e-05
1.1995287e-05
1.20169e-05
1.2064866e-05
7.7898612e-06
7.8011897e-06
7.8263355e-06
5.0775133e-06
5.0831386e-06
5.0956374e-06
3.394733e-06
3.3974624e-06
3.4035132e-06
2.3914042e-06
2.3927676e-06
2.3957822e-06
1.818909e-06
1.8196899e-06
1.8214128e-06
1.5105341e-06
1.5111005e-06
1.5123478e-06
1.3591002e-06
1.359604e-06
1.360712e-06
1.2981912e-06
1.2986826e-06
1.2997626e-06
1.2879945e-06
1.2884816e-06
1.2895519e-06
1.3053584e-06
1.3058358e-06
1.306884e-06
1.3371882e-06
1.3376482e-06
1.3386577e-06
1.3762535e-06
1.3766903e-06
1.3776483e-06
1.4186264e-06
1.4190366e-06
1.4199359e-06
1.4621679e-06
1.4625502e-06
1.463388e-06
1.5056556e-06
1.50601e-06
1.5067862e-06
1.5482873e-06
1.5486145e-06
1.5493311e-06
1.5893933e-06
1.5896946e-06
1.5903541e-06
1.6282537e-06
1.6285305e-06
1.6291362e-06
1.6639607e-06
1.6642145e-06
1.6647698e-06
1.6952897e-06
1.695522e-06
1.6960303e-06
1.7205596e-06
1.7207721e-06
1.7212368e-06
1.7374752e-06
1.7376693e-06
1.7380938e-06
1.7429535e-06
1.7431308e-06
1.7435185e-06
1.7329521e-06
1.7331139e-06
1.7334678e-06
1.702333e-06
1.7024806e-06
1.7028032e-06
1.6448257e-06
1.6449599e-06
1.6452531e-06
1.5531864e-06
1.5533071e-06
1.5535708e-06
1.4196961e-06
1.4198015e-06
1.4200326e-06
1.2372128e-06
1.2372993e-06
1.2374899e-06
1.001014e-06
1.0010765e-06
1.0012159e-06
7.1144986e-07
7.1148588e-07
7.115683e-07
3.7478873e-07
3.7480278e-07
3.748363e-07
0.056527997
0.061106823
0.046269728
0.046737855
0.012508893
0.011370632
0.0043565451
0.0041244033
0.0020028549
0.0019412445
0.0010951403
0.0010787981
0.00066924687
0.00066686561
0.00044012238
0.00044187566
0.00030381114
0.00030646066
0.00021615719
0.00021865056
0.00015625638
0.00015829346
0.0001134131
0.00011495984
8.1843697e-05
8.2957318e-05
5.8262431e-05
5.9026175e-05
4.0680523e-05
4.1179022e-05
2.7771549e-05
2.8080185e-05
1.8535228e-05
1.8715964e-05
1.2138779e-05
1.2238731e-05
7.8650252e-06
7.917199e-06
5.1148604e-06
5.140734e-06
3.4128038e-06
3.4252801e-06
2.400401e-06
2.4065891e-06
1.8240452e-06
1.8275637e-06
1.5142469e-06
1.5167796e-06
1.3623943e-06
1.3646338e-06
1.3013991e-06
1.303575e-06
1.2911715e-06
1.2933227e-06
1.3084688e-06
1.3105715e-06
1.3401826e-06
1.3422038e-06
1.3790942e-06
1.381009e-06
1.4212922e-06
1.4230867e-06
1.4646505e-06
1.4663197e-06
1.5079553e-06
1.5095e-06
1.5504097e-06
1.5518339e-06
1.5913465e-06
1.592656e-06
1.6300472e-06
1.6312487e-06
1.6656046e-06
1.666705e-06
1.6967942e-06
1.6978005e-06
1.7219349e-06
1.7228542e-06
1.7387314e-06
1.7395704e-06
1.7441004e-06
1.7448656e-06
1.7339986e-06
1.7346962e-06
1.703287e-06
1.7039222e-06
1.6456926e-06
1.646269e-06
1.5539662e-06
1.5544845e-06
1.4203796e-06
1.4208352e-06
1.237778e-06
1.2381589e-06
1.0014302e-06
1.0017192e-06
7.1169926e-07
7.1188575e-07
3.7489315e-07
3.7499245e-07
4.7769436e-06
2.7091282e-05
0.0001343986
0.00030492124
0.00046214934
0.00057309896
0.00064337076
0.00068696058
0.00071565148
0.00073657638
0.0007537789
0.00077028423
0.00078574237
0.00079991251
0.00081248379
0.00082290694
0.0008301999
0.00083270004
0.00082769488
0.00081090994
0.00077579889
0.00071267325
0.00060803081
0.00044486942
0.00020239219
2.5645384e-06
5.4738013e-05
0.00025095861
0.00051577728
0.00072766661
0.00085912833
0.00093500345
0.00097945141
0.0010079143
0.0010284218
0.0010452228
0.0010608544
0.0010751809
0.001087933
0.0010987154
0.0011069045
0.0011113696
0.0011101992
0.0011001997
0.001076254
0.0010303703
0.00095029297
0.00081775987
0.00060727542
0.00028760136
7.9436002e-06
0.00015998096
0.00061599669
0.0010796516
0.0013624855
0.0015050473
0.0015723468
0.0016037874
0.0016193653
0.001627529
0.0016326543
0.0016356616
0.001637754
0.0016382801
0.0016367452
0.0016326759
0.0016250119
0.0016119568
0.0015901026
0.001553857
0.0014942043
0.0013964429
0.0012358915
0.0009696637
0.00052218843
3.758315e-05
0.00057969981
0.0016865198
0.0024375556
0.0027740385
0.0028875221
0.0028964796
0.0028659013
0.0028256208
0.00278056
0.0027357715
0.0026931376
0.0026531555
0.0026126528
0.0025710712
0.0025288221
0.0024854034
0.0024393821
0.0023880089
0.0023265134
0.0022469921
0.0021361712
0.0019697418
0.0016947936
0.0011544503
0.00028113898
0.0024490846
0.0049182645
0.0060400576
0.0063860943
0.0063237636
0.0060936403
0.0058297824
0.0055798276
0.0053282562
0.0050875408
0.0048628011
0.00465909
0.0044617396
0.004270151
0.004089014
0.0039192471
0.0037602568
0.0036102117
0.00346562
0.0033208183
0.0031675553
0.0029948158
0.0027942478
0.0025841971
0.0023625224
0.010546805
0.016592187
0.01854166
0.018080053
0.016521047
0.014704387
0.01301448
0.011530755
0.01025311
0.0091605358
0.0082303167
0.0074370604
0.0067569126
0.0061721216
0.0056693512
0.0052372351
0.0048654623
0.0045446257
0.0042658792
0.0040203586
0.0037990781
0.0035934286
0.0034027061
0.0032423289
0.045143864
0.034196793
0.026640811
0.021445307
0.017772882
0.015061655
0.012972496
0.011317994
0.0099882961
0.0089069878
0.0080161871
0.0072721207
0.0066419079
0.0061011741
0.0056320236
0.0052219271
0.0048622048
0.0045463442
0.0042688579
0.0040245081
0.0038076947
0.0036124231
0.0034329472
0.0032706018
0.0031405285
0.037381771
0.031038924
0.02780569
0.025162839
0.022283272
0.019303474
0.016583101
0.014282677
0.012400235
0.010858023
0.0095865126
0.0085289328
0.0076417759
0.0068951873
0.0062653451
0.0057327488
0.0052810627
0.0048965848
0.0045675777
0.0042835032
0.0040342778
0.0038100978
0.0036017866
0.0034084787
0.0032459784
0.010228969
0.0095525805
0.0092108076
0.0088895182
0.008426368
0.0078607785
0.0073033494
0.0068065097
0.0063547063
0.005955981
0.0056073075
0.0053026105
0.0050165789
0.004752262
0.0045111092
0.0042923215
0.0040938336
0.0039127471
0.0037451533
0.0035860037
0.0034285652
0.0032638816
0.0030804704
0.0028697509
0.0026502253
0.003966571
0.0038934977
0.0038710072
0.0038301298
0.003735599
0.0036004856
0.003460738
0.0033312431
0.0032145387
0.0031127679
0.0030249588
0.0029480037
0.0028763108
0.0028092995
0.0027468021
0.002687971
0.0026311376
0.0025737057
0.0025118936
0.0024402037
0.0023503295
0.002228867
0.0020514775
0.0017644929
0.001205728
0.0019230465
0.0019365421
0.0019617365
0.0019765865
0.0019701146
0.0019458858
0.0019149059
0.0018841862
0.0018567743
0.0018339802
0.0018155982
0.0018003828
0.001786668
0.0017737806
0.0017613751
0.0017482326
0.0017324761
0.0017113157
0.0016806941
0.0016346527
0.001564158
0.0014548572
0.0012825991
0.0010045609
0.00054359082
0.0010825982
0.0011008526
0.001124401
0.0011444262
0.0011563751
0.0011610011
0.0011618833
0.0011620096
0.0011631188
0.0011659639
0.0011705103
0.0011761926
0.0011822289
0.0011879395
0.0011925743
0.0011949235
0.0011931691
0.0011846892
0.0011657699
0.0011311424
0.0010732378
0.0009810075
0.00083820554
0.0006215396
0.00030046315
0.00067390634
0.0006880596
0.00070524707
0.00072161013
0.0007350157
0.00074541293
0.00075401709
0.00076212922
0.00077064079
0.00077998394
0.00079017001
0.0008009032
0.00081170503
0.00082198968
0.00083097044
0.00083750412
0.00083997646
0.00083615998
0.00082303857
0.00079658
0.00075145926
0.00068078147
0.00057592005
0.00042631182
0.0002148113
0.00044834007
0.0004585597
0.00047069004
0.00048294055
0.00049423273
0.0005043651
0.00051373421
0.0005228914
0.00053227654
0.00054211606
0.00055241121
0.00056296956
0.00057344243
0.000583334
0.00059195171
0.00059832761
0.00060114168
0.00059864409
0.00058858495
0.00056817704
0.00053416801
0.00048322921
0.00041322172
0.00032699301
0.0002444683
0.00031164427
0.00031894482
0.00032751033
0.00033646504
0.00034523197
0.00035362621
0.00036175838
0.00036985431
0.0003781154
0.00038664483
0.00039541997
0.00040429184
0.00041298658
0.00042109661
0.00042804936
0.00043306382
0.00043510889
0.00043287279
0.00042476181
0.00040896565
0.00038367628
0.0003476518
0.00030153869
0.00025076129
0.00021088905
0.0002226032
0.00022781801
0.00023388292
0.00024035649
0.00024691935
0.00025343367
0.00025990889
0.00026642714
0.0002730709
0.00027987472
0.0002867996
0.00029372084
0.0003004191
0.00030656734
0.00031171016
0.00031523978
0.00031637703
0.00031416757
0.00030750907
0.00029523896
0.00027633554
0.0002503263
0.00021805462
0.00018305336
0.00015428963
0.00016121572
0.00016492269
0.00016920645
0.00017383543
0.00017862832
0.00018348829
0.00018839333
0.00019336343
0.00019842345
0.00020357311
0.00020876686
0.00021390058
0.00021880068
0.00022321223
0.00022678522
0.00022906135
0.000229467
0.0002273193
0.00022185444
0.00021229081
0.00019793675
0.00017832874
0.00015326632
0.00012208518
7.8385061e-05
0.00011706108
0.00011966275
0.00012265484
0.00012591109
0.00012932586
0.00013283275
0.00013640344
0.0001400332
0.00014372062
0.00014745028
0.00015117808
0.00015482019
0.00015824329
0.0001612553
0.00016359629
0.0001649312
0.00016484754
0.00016286189
0.00015843862
0.00015102141
0.00014006727
0.00012504237
0.00010526142
7.9251297e-05
4.2758604e-05
8.4422654e-05
8.6209133e-05
8.8256065e-05
9.0492313e-05
9.2854389e-05
9.5297467e-05
9.7795811e-05
0.00010033616
0.00010290745
0.00010549009
0.00010804621
0.00011051135
0.00011278714
0.00011473456
0.00011616775
0.00011684973
0.00011649135
0.0001147552
0.00011126475
0.00010561582
9.7379626e-05
8.6073695e-05
7.1065289e-05
5.1392528e-05
2.5523885e-05
6.0012057e-05
6.12014e-05
6.2559748e-05
6.404601e-05
6.5621358e-05
6.7255512e-05
6.8927808e-05
7.0624128e-05
7.2331381e-05
7.4031298e-05
7.5694154e-05
7.7273019e-05
7.8698674e-05
7.9874894e-05
8.067432e-05
8.0935602e-05
8.0462397e-05
7.9024702e-05
7.6362142e-05
7.2187036e-05
6.618256e-05
5.7990838e-05
4.7196824e-05
3.3359613e-05
1.6132574e-05
4.1814571e-05
4.2575689e-05
4.3442313e-05
4.4390045e-05
4.5395117e-05
4.64372e-05
4.750085e-05
4.8573977e-05
4.9645027e-05
5.0699183e-05
5.1714815e-05
5.2659653e-05
5.3487416e-05
5.4134726e-05
5.4518318e-05
5.4533017e-05
5.4050548e-05
5.2919333e-05
5.0965124e-05
4.7991896e-05
4.3783165e-05
3.8107432e-05
3.0742329e-05
2.1557262e-05
1.0797023e-05
2.8470411e-05
2.8935128e-05
2.9462494e-05
3.0037967e-05
3.064681e-05
3.1275796e-05
3.1913923e-05
3.2551978e-05
3.3180967e-05
3.3790152e-05
3.4364725e-05
3.4883706e-05
3.531779e-05
3.5627315e-05
3.5760462e-05
3.5651755e-05
3.522086e-05
3.4371803e-05
3.2992671e-05
3.0956367e-05
2.8124436e-05
2.4359065e-05
1.9552872e-05
1.3689932e-05
6.9734702e-06
1.8943135e-05
1.9212333e-05
1.9516616e-05
1.9847371e-05
2.01955e-05
2.0552594e-05
2.0911237e-05
2.1264923e-05
2.1607291e-05
2.1931042e-05
2.222673e-05
2.2481418e-05
2.2677425e-05
2.2791131e-05
2.2791763e-05
2.2640292e-05
2.2288409e-05
2.1677658e-05
2.0739002e-05
1.9393662e-05
1.7557278e-05
1.5151051e-05
1.2123768e-05
8.4840342e-06
4.3487087e-06
1.2363769e-05
1.2511257e-05
1.2677167e-05
1.2856452e-05
1.3043639e-05
1.323348e-05
1.3421218e-05
1.3602562e-05
1.377329e-05
1.3928752e-05
1.4063197e-05
1.4169026e-05
1.4236041e-05
1.4250705e-05
1.4195384e-05
1.4047604e-05
1.3779195e-05
1.3355602e-05
1.2735521e-05
1.1871686e-05
1.0714212e-05
9.2185117e-06
7.3587743e-06
5.1434709e-06
2.6360352e-06
7.9822309e-06
8.0586142e-06
8.144053e-06
8.2356482e-06
8.3302005e-06
8.4245417e-06
8.5157394e-06
8.6010832e-06
8.6779367e-06
8.7434608e-06
8.7942681e-06
8.8260188e-06
8.8329766e-06
8.8075431e-06
8.7397673e-06
8.6168777e-06
8.4226491e-06
8.1369154e-06
7.7352686e-06
7.1896915e-06
6.4709295e-06
5.5534499e-06
4.4230099e-06
3.0844592e-06
1.5745435e-06
5.1728779e-06
5.2104553e-06
5.2521791e-06
5.2964279e-06
5.3413798e-06
5.3851899e-06
5.4261143e-06
5.4625189e-06
5.4928155e-06
5.515328e-06
5.5281008e-06
5.5286776e-06
5.5138462e-06
5.4793379e-06
5.419492e-06
5.3268079e-06
5.1915699e-06
5.0017305e-06
4.7427277e-06
4.3977127e-06
3.9492241e-06
3.3821941e-06
2.6882048e-06
1.8697462e-06
9.4844786e-07
3.4407203e-06
3.4586665e-06
3.4784079e-06
3.4990465e-06
3.5195728e-06
3.5389357e-06
3.5561218e-06
3.5701682e-06
3.5801304e-06
3.5850123e-06
3.5836601e-06
3.5746297e-06
3.5560277e-06
3.5253157e-06
3.4790748e-06
3.4126801e-06
3.3200897e-06
3.1934663e-06
3.0234539e-06
2.7994277e-06
2.5104263e-06
2.1470614e-06
1.7041559e-06
1.183731e-06
6.0261283e-07
2.4142214e-06
2.4230477e-06
2.4326802e-06
2.4426256e-06
2.4523228e-06
2.4611783e-06
2.4686006e-06
2.4740132e-06
2.4768354e-06
2.4764393e-06
2.4720828e-06
2.4628201e-06
2.4473922e-06
2.4240856e-06
2.3905643e-06
2.343678e-06
2.2792815e-06
2.191937e-06
2.0749249e-06
1.9208407e-06
1.7221396e-06
1.4724296e-06
1.1683109e-06
8.1166942e-07
4.1463432e-07
1.8318966e-06
1.8369047e-06
1.8423741e-06
1.8480298e-06
1.853552e-06
1.8585973e-06
1.862809e-06
1.8658217e-06
1.867249e-06
1.8666509e-06
1.8634845e-06
1.8570358e-06
1.8463332e-06
1.8300362e-06
1.8063037e-06
1.7726452e-06
1.7257686e-06
1.6614771e-06
1.5745292e-06
1.4590785e-06
1.3092812e-06
1.1202584e-06
8.8954111e-07
6.1896569e-07
3.1909993e-07
1.5199013e-06
1.5235297e-06
1.5275407e-06
1.5317723e-06
1.536032e-06
1.5401058e-06
1.5437616e-06
1.5467448e-06
1.5487667e-06
1.5494767e-06
1.5484204e-06
1.5449821e-06
1.5383077e-06
1.5272097e-06
1.5100524e-06
1.4846254e-06
1.4480199e-06
1.3965454e-06
1.3257162e-06
1.2304362e-06
1.105662e-06
9.4722416e-07
7.5304215e-07
5.2459495e-07
2.7021893e-07
1.3673987e-06
1.3706344e-06
1.374261e-06
1.3781733e-06
1.3822434e-06
1.3863232e-06
1.3902428e-06
1.3938035e-06
1.3967635e-06
1.3988116e-06
1.399529e-06
1.3983347e-06
1.3944142e-06
1.3866297e-06
1.373414e-06
1.3526545e-06
1.3215842e-06
1.2767083e-06
1.2138313e-06
1.1282003e-06
1.0151104e-06
8.7069187e-07
6.9303505e-07
4.834976e-07
2.4951262e-07
1.3062636e-06
1.3094233e-06
1.312995e-06
1.3169015e-06
1.3210468e-06
1.3253154e-06
1.3295683e-06
1.3336338e-06
1.3372916e-06
1.340247e-06
1.3420922e-06
1.3422539e-06
1.3399225e-06
1.3339644e-06
1.3228184e-06
1.304384e-06
1.2759189e-06
1.233973e-06
1.1744203e-06
1.0926215e-06
9.8397285e-07
8.4469655e-07
6.7294477e-07
4.7006699e-07
2.4317861e-07
1.2959805e-06
1.2991093e-06
1.30266e-06
1.3065685e-06
1.310755e-06
1.3151203e-06
1.3195408e-06
1.323858e-06
1.3278614e-06
1.3312622e-06
1.3336539e-06
1.3344594e-06
1.3328602e-06
1.3277073e-06
1.3174185e-06
1.2998668e-06
1.2722796e-06
1.2311765e-06
1.1724033e-06
1.0913094e-06
9.8327249e-07
8.4450796e-07
6.732088e-07
4.7087096e-07
2.4439563e-07
1.3131681e-06
1.3162253e-06
1.319699e-06
1.3235323e-06
1.3276534e-06
1.3319719e-06
1.3363727e-06
1.3407041e-06
1.3447603e-06
1.3482539e-06
1.3507759e-06
1.3517413e-06
1.3503169e-06
1.3453311e-06
1.3351692e-06
1.3176605e-06
1.2899776e-06
1.2485747e-06
1.189223e-06
1.1071982e-06
9.9779738e-07
8.5717517e-07
6.8355596e-07
4.7871254e-07
2.5069685e-07
1.3446975e-06
1.3476323e-06
1.3509666e-06
1.3546478e-06
1.3586088e-06
1.3627649e-06
1.3670059e-06
1.3711844e-06
1.375097e-06
1.3784558e-06
1.380848e-06
1.3816791e-06
1.3800995e-06
1.3749119e-06
1.3644645e-06
1.346536e-06
1.3182331e-06
1.2759286e-06
1.215298e-06
1.1315123e-06
1.0197548e-06
8.7608461e-07
6.9873962e-07
4.8990813e-07
2.5957819e-07
1.3833693e-06
1.3861447e-06
1.389296e-06
1.392773e-06
1.3965127e-06
1.400434e-06
1.4044304e-06
1.4083574e-06
1.412013e-06
1.4151084e-06
1.4172259e-06
1.4177611e-06
1.4158472e-06
1.4102605e-06
1.3993101e-06
1.3807215e-06
1.3515309e-06
1.3080227e-06
1.2457669e-06
1.1598159e-06
1.0452252e-06
8.9794426e-07
7.1620714e-07
5.0244203e-07
2.6637646e-07
1.4252967e-06
1.427893e-06
1.4308381e-06
1.4340844e-06
1.4375717e-06
1.4412222e-06
1.4449322e-06
1.4485595e-06
1.451903e-06
1.4546723e-06
1.4564446e-06
1.4566053e-06
1.4542703e-06
1.4481889e-06
1.4366308e-06
1.4172671e-06
1.3870619e-06
1.3422087e-06
1.2781674e-06
1.189867e-06
1.0722296e-06
9.2108867e-07
7.3464465e-07
5.1547147e-07
2.7352088e-07
1.4683736e-06
1.4707842e-06
1.4735157e-06
1.4765229e-06
1.4797481e-06
1.4831162e-06
1.4865262e-06
1.4898375e-06
1.4928494e-06
1.4952697e-06
1.4966703e-06
1.4964261e-06
1.4936355e-06
1.4870206e-06
1.474812e-06
1.4546261e-06
1.4233546e-06
1.3770994e-06
1.3112096e-06
1.2204889e-06
1.0997257e-06
9.4463269e-07
7.5334129e-07
5.2844636e-07
2.7896789e-07
1.5113991e-06
1.5136258e-06
1.5161462e-06
1.5189172e-06
1.5218835e-06
1.5249723e-06
1.5280847e-06
1.5310818e-06
1.5337628e-06
1.5358332e-06
1.5368593e-06
1.5362055e-06
1.5329527e-06
1.5257959e-06
1.5129266e-06
1.4919071e-06
1.4595572e-06
1.4118881e-06
1.3441387e-06
1.2509887e-06
1.1270945e-06
9.6804796e-07
7.7190171e-07
5.4126225e-07
2.8543642e-07
1.5535835e-06
1.5556331e-06
1.5579503e-06
1.5604942e-06
1.5632115e-06
1.5660316e-06
1.5688576e-06
1.5715514e-06
1.5739122e-06
1.5756428e-06
1.5763039e-06
1.575249e-06
1.5715413e-06
1.5638494e-06
1.5503261e-06
1.5284803e-06
1.4950616e-06
1.445992e-06
1.3764033e-06
1.2808544e-06
1.153874e-06
9.9093724e-07
7.900157e-07
5.5371357e-07
2.9042726e-07
1.5942636e-06
1.5961451e-06
1.5982698e-06
1.6005985e-06
1.60308e-06
1.6056457e-06
1.6082001e-06
1.610606e-06
1.6126619e-06
1.6140681e-06
1.614379e-06
1.6129374e-06
1.6087892e-06
1.6005765e-06
1.5864145e-06
1.5637604e-06
1.5292956e-06
1.4788566e-06
1.4074726e-06
1.3095878e-06
1.1796117e-06
1.0129101e-06
8.0737309e-07
5.6557563e-07
2.9617139e-07
1.6327226e-06
1.6344461e-06
1.6363899e-06
1.6385166e-06
1.6407769e-06
1.6431037e-06
1.6454029e-06
1.6475378e-06
1.649306e-06
1.6504049e-06
1.6503828e-06
1.6485717e-06
1.6440003e-06
1.6352852e-06
1.6205054e-06
1.5970684e-06
1.5615912e-06
1.5098299e-06
1.4367184e-06
1.3365963e-06
1.2037663e-06
1.0335017e-06
8.2362735e-07
5.7668942e-07
3.0154521e-07
1.668054e-06
1.6696298e-06
1.6714048e-06
1.673343e-06
1.6753968e-06
1.6775005e-06
1.6795611e-06
1.6814423e-06
1.6829405e-06
1.68375e-06
1.6834129e-06
1.6812506e-06
1.6762753e-06
1.6670792e-06
1.651707e-06
1.6275201e-06
1.5910764e-06
1.5380591e-06
1.4633178e-06
1.3611016e-06
1.2256246e-06
1.0520891e-06
8.3828756e-07
5.8679385e-07
3.0663832e-07
1.6990333e-06
1.7004719e-06
1.7020901e-06
1.7038532e-06
1.705715e-06
1.7076114e-06
1.7094499e-06
1.7110944e-06
1.7123402e-06
1.7128782e-06
1.7122445e-06
1.7097503e-06
1.7043922e-06
1.6947399e-06
1.6788067e-06
1.6539132e-06
1.6165654e-06
1.5623851e-06
1.4861528e-06
1.382047e-06
1.2442166e-06
1.0678159e-06
8.5062207e-07
5.9524322e-07
3.1086624e-07
1.7239794e-06
1.7252911e-06
1.7267641e-06
1.7283652e-06
1.7300494e-06
1.7317536e-06
1.7333862e-06
1.7348109e-06
1.7358215e-06
1.7361061e-06
1.7351947e-06
1.7323894e-06
1.7266725e-06
1.7165939e-06
1.7001404e-06
1.6745986e-06
1.6364337e-06
1.5812218e-06
1.5036961e-06
1.3979916e-06
1.258223e-06
1.0795247e-06
8.5966804e-07
6.0126351e-07
3.136363e-07
1.7405965e-06
1.7417912e-06
1.7431304e-06
1.7445821e-06
1.7461025e-06
1.7476293e-06
1.7490716e-06
1.7502927e-06
1.7510855e-06
1.7511349e-06
1.749966e-06
1.7468729e-06
1.7408262e-06
1.7303602e-06
1.7134415e-06
1.6873334e-06
1.6484756e-06
1.5924201e-06
1.5138822e-06
1.406991e-06
1.2658701e-06
1.0856783e-06
8.6422493e-07
6.0417246e-07
3.1495631e-07
1.7458006e-06
1.7468878e-06
1.7481041e-06
1.7494184e-06
1.750788e-06
1.7521514e-06
1.7534183e-06
1.7544519e-06
1.7550441e-06
1.7548777e-06
1.7534739e-06
1.750121e-06
1.7437821e-06
1.7329818e-06
1.7156766e-06
1.6891206e-06
1.6497496e-06
1.593121e-06
1.5139719e-06
1.4064745e-06
1.264819e-06
1.0842477e-06
8.6266253e-07
6.028249e-07
3.142697e-07
1.7355477e-06
1.7365361e-06
1.7376393e-06
1.7388273e-06
1.740058e-06
1.7412711e-06
1.7423767e-06
1.7432384e-06
1.7436478e-06
1.7432868e-06
1.741675e-06
1.7380986e-06
1.731519e-06
1.7204605e-06
1.7028835e-06
1.6760534e-06
1.636431e-06
1.5796192e-06
1.5004285e-06
1.3931386e-06
1.2520783e-06
1.0726467e-06
8.5290511e-07
5.958282e-07
3.1135178e-07
1.7046965e-06
1.7055938e-06
1.7065925e-06
1.7076634e-06
1.7087658e-06
1.7098401e-06
1.7107976e-06
1.7115028e-06
1.7117484e-06
1.7112175e-06
1.7094317e-06
1.7056811e-06
1.6989343e-06
1.6877289e-06
1.6700488e-06
1.6431997e-06
1.603706e-06
1.5472692e-06
1.46884e-06
1.3628868e-06
1.2239669e-06
1.0477215e-06
8.3242868e-07
5.8126856e-07
3.0435882e-07
1.6469707e-06
1.6477822e-06
1.6486826e-06
1.6496436e-06
1.6506255e-06
1.6515705e-06
1.6523915e-06
1.6529557e-06
1.6530588e-06
1.6523885e-06
1.6504741e-06
1.6466182e-06
1.63981e-06
1.6286202e-06
1.611084e-06
1.5845852e-06
1.5457647e-06
1.4904897e-06
1.4139361e-06
1.3108613e-06
1.1761585e-06
1.0058101e-06
7.9836787e-07
5.5712649e-07
2.9193186e-07
1.5551149e-06
1.5558425e-06
1.556647e-06
1.5575009e-06
1.5583662e-06
1.5591877e-06
1.5598821e-06
1.5603211e-06
1.560307e-06
1.5595371e-06
1.5575561e-06
1.5536921e-06
1.5469741e-06
1.536033e-06
1.5189931e-06
1.4933678e-06
1.4559813e-06
1.4029518e-06
1.329784e-06
1.23164e-06
1.1038703e-06
9.4290398e-07
7.4760546e-07
5.2123703e-07
2.7301732e-07
1.42139e-06
1.4220305e-06
1.4227359e-06
1.4234793e-06
1.4242258e-06
1.4249248e-06
1.4254998e-06
1.4258315e-06
1.4257335e-06
1.4249186e-06
1.4229569e-06
1.4192204e-06
1.4128053e-06
1.402439e-06
1.3863838e-06
1.3623474e-06
1.3274223e-06
1.2780809e-06
1.2102757e-06
1.1197018e-06
1.0022935e-06
8.5503081e-07
6.7712232e-07
4.7166286e-07
2.4690746e-07
1.238627e-06
1.2391716e-06
1.2397686e-06
1.2403915e-06
1.24101e-06
1.2415823e-06
1.2420436e-06
1.2422917e-06
1.2421601e-06
1.2413806e-06
1.2395572e-06
1.2361337e-06
1.2303129e-06
1.2209613e-06
1.2065392e-06
1.1850241e-06
1.1538794e-06
1.1100535e-06
1.0500767e-06
9.7030517e-07
8.6737516e-07
7.3890532e-07
5.8447155e-07
4.0701411e-07
2.1380359e-07
1.0020862e-06
1.0025328e-06
1.0030099e-06
1.003498e-06
1.0039758e-06
1.0044197e-06
1.0047768e-06
1.0049813e-06
1.0049024e-06
1.0042863e-06
1.0027648e-06
9.9990125e-07
9.950657e-07
9.8729802e-07
9.7532675e-07
9.574685e-07
9.3167857e-07
8.9552256e-07
8.4624717e-07
7.8096293e-07
6.9710978e-07
5.9301583e-07
4.6858281e-07
3.2644168e-07
1.726916e-07
7.121601e-07
7.1262209e-07
7.1298415e-07
7.1332613e-07
7.1366353e-07
7.1407972e-07
7.1435683e-07
7.1457427e-07
7.1467245e-07
7.1440374e-07
7.1338801e-07
7.1138587e-07
7.0802249e-07
7.0250762e-07
6.9392557e-07
6.8096928e-07
6.6221498e-07
6.3602337e-07
6.0054078e-07
5.5352189e-07
4.9333958e-07
4.1909982e-07
3.3094611e-07
2.3096479e-07
1.2328794e-07
3.752815e-07
3.7639192e-07
3.767154e-07
3.7691134e-07
3.7720074e-07
3.7856301e-07
3.788432e-07
3.7906729e-07
3.7934121e-07
3.7946972e-07
3.7907834e-07
3.7815703e-07
3.7662453e-07
3.738867e-07
3.6948014e-07
3.6254861e-07
3.5235719e-07
3.3831125e-07
3.1978783e-07
2.9450715e-07
2.6207568e-07
2.2236299e-07
1.7559872e-07
1.2317894e-07
6.7521734e-08
)
;

boundaryField
{
    Walls
    {
        type            kqRWallFunction;
        value           nonuniform List<scalar> 
38
(
4.7769436e-06
2.5645384e-06
7.9436002e-06
3.758315e-05
0.00028113898
0.0023625224
0.056527997
0.061106823
0.018359073
0.027110847
0.03486566
0.041818066
0.047577466
0.052401075
0.056675815
0.06013838
0.062657151
0.064632116
0.066522335
0.068195199
0.069328256
0.069960658
0.070275122
0.071211738
0.071904975
0.07208301
0.072425672
0.072471089
0.072723362
0.073286455
0.073152523
0.073208092
0.073154244
0.072891052
0.072870048
0.072771382
0.072067099
0.067047383
)
;
    }
    Inlet
    {
        type            turbulentIntensityKineticEnergyInlet;
        intensity       0.05;
        value           nonuniform List<scalar> 3(0.0082305725 0.0086230181 0.0097947055);
    }
    Outlet
    {
        type            inletOutlet;
        inletValue      uniform 0;
        value           nonuniform List<scalar> 
86
(
0
0
0
0
0
0
0
0
0
0
0
0
0
0
0
0
0
0
0
0
0
0
0
0
0
0
0
0
0
0
0.0031405285
0.0032459784
0.0026502253
0
0
0
0
0.0002444683
0.00021088905
0.00015428963
0
0
0
0
1.0797023e-05
6.9734702e-06
4.3487087e-06
2.6360352e-06
1.5745435e-06
9.4844786e-07
6.0261283e-07
4.1463432e-07
3.1909993e-07
2.7021893e-07
2.4951262e-07
2.4317861e-07
0
0
0
0
0
0
0
0
0
0
0
0
0
0
0
0
0
0
0
0
0
0
0
0
0
0
0
0
0.0025841971
0.0032423289
)
;
    }
    Front
    {
        type            wedge;
    }
    Back
    {
        type            wedge;
    }
    defaultFaces
    {
        type            empty;
    }
}


// ************************************************************************* //
