/*--------------------------------*- C++ -*----------------------------------*\
| =========                 |                                                 |
| \\      /  F ield         | OpenFOAM: The Open Source CFD Toolbox           |
|  \\    /   O peration     | Version:  4.0                                   |
|   \\  /    A nd           | Web:      www.OpenFOAM.org                      |
|    \\/     M anipulation  |                                                 |
\*---------------------------------------------------------------------------*/
FoamFile
{
    version     2.0;
    format      ascii;
    class       volScalarField;
    location    "0.45";
    object      nut;
}
// * * * * * * * * * * * * * * * * * * * * * * * * * * * * * * * * * * * * * //

dimensions      [0 2 -1 0 0 0 0];

internalField   nonuniform List<scalar> 
1740
(
8.051078e-05
1.4474577e-05
1.2305376e-06
2.2582415e-05
7.6577677e-06
1.8041396e-06
1.4916425e-05
5.7033478e-06
2.3060034e-06
2.1177709e-05
4.8254132e-06
2.7505685e-06
1.8515334e-05
4.3662615e-06
3.1152952e-06
1.6099942e-05
4.06392e-06
3.418319e-06
1.3765502e-05
3.8608002e-06
3.6851102e-06
1.2135551e-05
3.7365588e-06
3.8999387e-06
1.1042602e-05
3.6580218e-06
4.0553959e-06
1.007262e-05
3.6093354e-06
4.1769264e-06
9.0543386e-06
3.5736059e-06
4.2929594e-06
8.2256041e-06
3.5548937e-06
4.3952842e-06
7.6397399e-06
3.5569875e-06
4.464355e-06
7.0524085e-06
3.5618787e-06
4.5030994e-06
6.5567341e-06
3.5317868e-06
4.5212499e-06
6.2427357e-06
3.5192815e-06
4.5785432e-06
5.9930144e-06
3.5202337e-06
4.6210927e-06
5.6790881e-06
3.5169604e-06
4.631307e-06
5.457497e-06
3.5151014e-06
4.6525741e-06
5.2721428e-06
3.5222414e-06
4.6554541e-06
5.0685943e-06
3.5113773e-06
4.6702216e-06
4.9128452e-06
3.5315811e-06
4.7042369e-06
4.7618128e-06
3.5521562e-06
4.6964819e-06
4.6250436e-06
3.5378529e-06
4.6996019e-06
4.5044266e-06
3.5345513e-06
4.6961936e-06
4.3955451e-06
3.5309641e-06
4.6801095e-06
4.3024167e-06
3.5375441e-06
4.6793568e-06
4.2117126e-06
3.5676099e-06
4.6732104e-06
4.166455e-06
3.5857392e-06
4.6299486e-06
2.75185e-06
3.5069915e-06
4.3237986e-06
1.8391367e-06
2.1531334e-06
4.4335421e-06
7.2058184e-06
7.3764133e-06
6.7235029e-06
6.5506821e-06
6.7539133e-06
6.3830726e-06
5.1846631e-06
5.1211155e-06
4.87323e-06
4.3445612e-06
4.2719296e-06
4.1345253e-06
3.7958927e-06
3.7526101e-06
3.6913119e-06
3.4200574e-06
3.4023367e-06
3.3865838e-06
3.1401023e-06
3.1379798e-06
3.1464399e-06
2.9018386e-06
2.9075734e-06
2.927006e-06
2.6677236e-06
2.6765146e-06
2.6992507e-06
2.413579e-06
2.4227632e-06
2.4446267e-06
2.1277929e-06
2.1360305e-06
2.1549597e-06
1.8115119e-06
1.8182396e-06
1.8334351e-06
1.4780543e-06
1.4831515e-06
1.4945599e-06
1.149693e-06
1.1532887e-06
1.1612974e-06
8.5111112e-07
8.5346912e-07
8.5870866e-07
6.0144477e-07
6.0287919e-07
6.0606529e-07
4.0899211e-07
4.098005e-07
4.1160042e-07
2.7121775e-07
2.716394e-07
2.7258666e-07
1.789378e-07
1.7915156e-07
1.7963114e-07
1.2068541e-07
1.2079248e-07
1.2103096e-07
8.5613239e-08
8.5668255e-08
8.5790497e-08
6.5514286e-08
6.5546346e-08
6.5617685e-08
5.4714764e-08
5.4737786e-08
5.4789304e-08
4.9499409e-08
4.9519228e-08
4.9564002e-08
4.753567e-08
4.7554329e-08
4.7596912e-08
4.7407774e-08
4.7425796e-08
4.7467228e-08
4.8280294e-08
4.829771e-08
4.8337851e-08
4.9672982e-08
4.9689697e-08
4.9728155e-08
5.1317178e-08
5.1333089e-08
5.1369532e-08
5.306685e-08
5.3081878e-08
5.3116103e-08
5.484466e-08
5.485876e-08
5.4890684e-08
5.6610125e-08
5.6623281e-08
5.6652914e-08
5.8341471e-08
5.8353695e-08
5.8381102e-08
6.0025731e-08
6.0037051e-08
6.0062333e-08
6.1653629e-08
6.1664085e-08
6.1687362e-08
6.3217151e-08
6.3226791e-08
6.3248196e-08
6.4708557e-08
6.4717435e-08
6.4737106e-08
6.6120149e-08
6.6128324e-08
6.6146405e-08
6.7444391e-08
6.7451925e-08
6.7468566e-08
6.8674155e-08
6.8681113e-08
6.8696465e-08
6.980294e-08
6.980939e-08
6.9823606e-08
7.0825034e-08
7.0831045e-08
7.0844281e-08
7.1735775e-08
7.1741426e-08
7.1753844e-08
7.2526621e-08
7.2531982e-08
7.2543726e-08
7.3179555e-08
7.3184663e-08
7.3195842e-08
7.3678595e-08
7.3683493e-08
7.3694207e-08
7.3995721e-08
7.4000444e-08
7.4010775e-08
7.4074166e-08
7.4078739e-08
7.4088744e-08
7.3746183e-08
7.375061e-08
7.3760299e-08
4.1923809e-06
4.5140048e-06
6.6993576e-06
8.4018778e-06
5.998756e-06
6.0404219e-06
4.7263124e-06
4.8306256e-06
4.0840205e-06
4.1907148e-06
3.692097e-06
3.7921575e-06
3.4145714e-06
3.50656e-06
3.186668e-06
3.2696285e-06
2.9704836e-06
3.0437425e-06
2.7407296e-06
2.8038243e-06
2.4812454e-06
2.5339737e-06
2.1853882e-06
2.2279162e-06
1.8573529e-06
1.8902476e-06
1.5123153e-06
1.5365264e-06
1.1736863e-06
1.1905024e-06
8.6678897e-07
8.7772852e-07
6.1097385e-07
6.1761112e-07
4.1437704e-07
4.1813266e-07
2.7405495e-07
2.760448e-07
1.8037385e-07
1.8137949e-07
1.2139917e-07
1.2189698e-07
8.5979132e-08
8.6234234e-08
6.5727926e-08
6.5877326e-08
5.4869156e-08
5.4977673e-08
4.9633694e-08
4.9728636e-08
4.7663483e-08
4.7754317e-08
4.7532179e-08
4.7620838e-08
4.8400789e-08
4.8486611e-08
4.9788322e-08
4.9870173e-08
5.1426331e-08
5.1503356e-08
5.3169208e-08
5.3240973e-08
5.4940001e-08
5.5006417e-08
5.6698503e-08
5.6759705e-08
5.8423116e-08
5.8479363e-08
6.0100971e-08
6.0152578e-08
6.1722847e-08
6.1770147e-08
6.3280756e-08
6.3324087e-08
6.4766977e-08
6.4806673e-08
6.6173823e-08
6.6210217e-08
6.7493769e-08
6.7527189e-08
6.8719693e-08
6.8750468e-08
6.9845099e-08
6.9873552e-08
7.0864275e-08
7.0890722e-08
7.1772573e-08
7.1797321e-08
7.2561402e-08
7.2584727e-08
7.3212651e-08
7.3234814e-08
7.3710311e-08
7.3731539e-08
7.4026305e-08
7.4046781e-08
7.4103791e-08
7.4123645e-08
7.3774878e-08
7.3794173e-08
3.9615782e-10
1.3257463e-08
1.9290542e-07
8.2601051e-07
1.6430987e-06
2.2298012e-06
2.5747822e-06
2.7830951e-06
2.9270966e-06
3.0424048e-06
3.1461576e-06
3.2522731e-06
3.357649e-06
3.4611677e-06
3.5620348e-06
3.658898e-06
3.7493066e-06
3.8291289e-06
3.8916771e-06
3.9263791e-06
3.9166356e-06
3.8362139e-06
3.642648e-06
3.2594408e-06
2.4486973e-06
2.1268122e-10
2.686779e-08
3.5965268e-07
1.376522e-06
2.5693974e-06
3.3777088e-06
3.8507428e-06
4.1572871e-06
4.3918258e-06
4.5971076e-06
4.7937088e-06
4.9940652e-06
5.1960022e-06
5.3984653e-06
5.5997858e-06
5.7972158e-06
5.9860093e-06
6.1583962e-06
6.3016802e-06
6.3955807e-06
6.4077918e-06
6.2860101e-06
5.9425713e-06
5.2168174e-06
3.6803378e-06
6.587728e-10
7.8784795e-08
8.5715533e-07
2.5065722e-06
3.7914667e-06
4.527605e-06
4.9909434e-06
5.3363735e-06
5.6364529e-06
5.9235432e-06
6.2129498e-06
6.5114154e-06
6.8174694e-06
7.1299437e-06
7.4474046e-06
7.7667751e-06
8.0818128e-06
8.3825405e-06
8.6513068e-06
8.8593981e-06
8.9601964e-06
8.8761526e-06
8.4719687e-06
7.489463e-06
5.2856199e-06
3.1167284e-09
2.8528627e-07
2.0625047e-06
4.0025999e-06
5.0425744e-06
5.6297129e-06
6.0359492e-06
6.3780214e-06
6.7061536e-06
7.0389034e-06
7.3870816e-06
7.7537958e-06
8.1354996e-06
8.5309164e-06
8.9398944e-06
9.3610712e-06
9.7894525e-06
1.0215484e-05
1.0622484e-05
1.0982534e-05
1.1249399e-05
1.1344661e-05
1.1124736e-05
1.0280925e-05
7.8845585e-06
2.3308742e-08
1.1383198e-06
3.9891371e-06
5.5982642e-06
6.4499404e-06
6.9705216e-06
7.3533374e-06
7.6986851e-06
8.0475291e-06
8.401317e-06
8.7737949e-06
9.171936e-06
9.5850341e-06
1.0008897e-05
1.0446043e-05
1.0901146e-05
1.1373531e-05
1.1858574e-05
1.2346317e-05
1.2818487e-05
1.3243923e-05
1.3572407e-05
1.3727316e-05
1.3612978e-05
1.3201176e-05
1.9545517e-07
2.7536728e-06
5.8999692e-06
7.7062635e-06
8.6233834e-06
9.0419366e-06
9.2387228e-06
9.3751581e-06
9.5127894e-06
9.6703229e-06
9.8558954e-06
1.0075892e-05
1.0330886e-05
1.0621009e-05
1.0947393e-05
1.1311055e-05
1.1712194e-05
1.21489e-05
1.2616168e-05
1.3104144e-05
1.3595096e-05
1.4060123e-05
1.4456064e-05
1.4734301e-05
1.4837436e-05
4.3515722e-06
4.3228546e-06
4.3664133e-06
4.4771826e-06
4.6532984e-06
4.8843221e-06
5.1597731e-06
5.4760019e-06
5.8341611e-06
6.2355177e-06
6.6796028e-06
7.1637554e-06
7.6826252e-06
8.2292149e-06
8.796638e-06
9.3799075e-06
9.9764085e-06
1.058475e-05
1.1203058e-05
1.1826787e-05
1.2445681e-05
1.3040667e-05
1.3581088e-05
1.4030223e-05
1.4320465e-05
9.1282611e-06
9.3790494e-06
9.7762251e-06
1.0194489e-05
1.0370872e-05
1.033464e-05
1.0217428e-05
1.0119754e-05
1.008182e-05
1.0105419e-05
1.0186678e-05
1.0321099e-05
1.0506632e-05
1.0742961e-05
1.1029907e-05
1.1366898e-05
1.1752039e-05
1.2181482e-05
1.2648262e-05
1.3140208e-05
1.3636827e-05
1.4106165e-05
1.4501999e-05
1.4774329e-05
1.4869101e-05
6.4124894e-06
6.8212345e-06
7.2521684e-06
7.6520682e-06
7.9538621e-06
8.1706769e-06
8.3624018e-06
8.5690943e-06
8.7987386e-06
9.0662664e-06
9.3684326e-06
9.696084e-06
1.0044382e-05
1.0419528e-05
1.0825421e-05
1.1262686e-05
1.1728459e-05
1.2215565e-05
1.2710579e-05
1.3190856e-05
1.361998e-05
1.394188e-05
1.4074334e-05
1.3918742e-05
1.3453701e-05
5.1432446e-06
5.4997122e-06
5.850099e-06
6.166738e-06
6.4327514e-06
6.6607213e-06
6.8808816e-06
7.1136826e-06
7.3702056e-06
7.6570513e-06
7.9722524e-06
8.3130523e-06
8.6792975e-06
9.0721324e-06
9.4911535e-06
9.932764e-06
1.0388941e-05
1.0845524e-05
1.1279627e-05
1.1655503e-05
1.1917617e-05
1.1977444e-05
1.1681726e-05
1.0711766e-05
8.1140827e-06
4.4328936e-06
4.7226066e-06
5.0131374e-06
5.2840377e-06
5.5294463e-06
5.7574614e-06
5.9825447e-06
6.2174722e-06
6.4707616e-06
6.7465539e-06
7.0445696e-06
7.3635966e-06
7.7033326e-06
8.0628079e-06
8.4392695e-06
8.8259026e-06
9.2107747e-06
9.5749337e-06
9.8896853e-06
1.0112489e-05
1.0180407e-05
9.9985965e-06
9.4169238e-06
8.1705866e-06
5.6248299e-06
3.9797889e-06
4.2090471e-06
4.4469705e-06
4.6777136e-06
4.8975092e-06
5.111044e-06
5.3263777e-06
5.5512172e-06
5.79125e-06
6.0493364e-06
6.3257417e-06
6.6196384e-06
6.9298585e-06
7.2538378e-06
7.5864246e-06
7.9187764e-06
8.2369727e-06
8.5203785e-06
8.7395325e-06
8.8532857e-06
8.8047292e-06
8.5147172e-06
7.8690546e-06
6.6811418e-06
4.4701426e-06
3.6562986e-06
3.8395377e-06
4.0351486e-06
4.2314468e-06
4.4250225e-06
4.6179904e-06
4.8148965e-06
5.0205207e-06
5.2385725e-06
5.4710573e-06
5.7182814e-06
5.9794226e-06
6.2527049e-06
6.5347076e-06
6.8194019e-06
7.0972595e-06
7.3542734e-06
7.5708011e-06
7.7202974e-06
7.7679366e-06
7.6690994e-06
7.3673014e-06
6.7888456e-06
5.8170281e-06
4.0861214e-06
3.3920345e-06
3.5407716e-06
3.7027495e-06
3.8696787e-06
4.0384284e-06
4.2095794e-06
4.385569e-06
4.5692587e-06
4.7629854e-06
4.9680189e-06
5.1844339e-06
5.4112163e-06
5.6461785e-06
5.8854664e-06
6.1228894e-06
6.3492488e-06
6.551663e-06
6.7129251e-06
6.8110203e-06
6.8190161e-06
6.7057387e-06
6.438178e-06
5.9884586e-06
5.3576572e-06
4.6849832e-06
3.144982e-06
3.2668999e-06
3.4014372e-06
3.5428037e-06
3.6882752e-06
3.8375949e-06
3.991925e-06
4.1528805e-06
4.3218261e-06
4.4994328e-06
4.685479e-06
4.878758e-06
5.0768926e-06
5.2759749e-06
5.4701036e-06
5.6509262e-06
5.8072477e-06
5.9247885e-06
5.9862558e-06
5.9720039e-06
5.8618601e-06
5.639444e-06
5.3025877e-06
4.8901235e-06
4.544675e-06
2.8874485e-06
2.9873772e-06
3.0985793e-06
3.2170338e-06
3.3404727e-06
3.4682403e-06
3.6007159e-06
3.7386976e-06
3.8828862e-06
4.0335154e-06
4.1901301e-06
4.3514238e-06
4.5150437e-06
4.677324e-06
4.8329748e-06
4.9748061e-06
5.0935447e-06
5.1778415e-06
5.2146004e-06
5.1898555e-06
5.0905922e-06
4.9083239e-06
4.6462714e-06
4.3348159e-06
4.06743e-06
2.6020983e-06
2.6830755e-06
2.7736994e-06
2.8711603e-06
2.9736199e-06
3.0802666e-06
3.1910287e-06
3.3061857e-06
3.4259985e-06
3.5504146e-06
3.6788547e-06
3.8100418e-06
3.9418313e-06
4.0710191e-06
4.1931472e-06
4.3023523e-06
4.3913142e-06
4.4513697e-06
4.4728653e-06
4.4458375e-06
4.3610608e-06
4.2112498e-06
3.990896e-06
3.6862774e-06
3.1853753e-06
2.2820469e-06
2.3462036e-06
2.4183003e-06
2.4963589e-06
2.5789236e-06
2.6651712e-06
2.7547924e-06
2.8477602e-06
2.9440643e-06
3.043493e-06
3.1454479e-06
3.2487962e-06
3.3517336e-06
3.4516553e-06
3.5450446e-06
3.6274045e-06
3.6932698e-06
3.7363317e-06
3.7496891e-06
3.7261901e-06
3.6586512e-06
3.5392377e-06
3.3555903e-06
3.0743065e-06
2.5496135e-06
1.9317665e-06
1.9809186e-06
2.0363298e-06
2.0966111e-06
2.1606334e-06
2.2276507e-06
2.2972589e-06
2.3692644e-06
2.4435153e-06
2.519738e-06
2.5973944e-06
2.6755654e-06
2.7528536e-06
2.8273047e-06
2.8963498e-06
2.9567865e-06
3.0048137e-06
3.0361206e-06
3.0460067e-06
3.0294297e-06
2.9807044e-06
2.8921585e-06
2.7499318e-06
2.5208859e-06
2.0872144e-06
1.5669536e-06
1.6029637e-06
1.6436572e-06
1.6880734e-06
1.7353656e-06
1.7849047e-06
1.836283e-06
1.8892443e-06
1.9435796e-06
1.9990175e-06
2.0551236e-06
2.1112168e-06
2.1663089e-06
2.219061e-06
2.2677624e-06
2.3103369e-06
2.3443764e-06
2.3671861e-06
2.3757979e-06
2.3668416e-06
2.3360446e-06
2.2768929e-06
2.1774226e-06
2.0118445e-06
1.6991303e-06
1.2115886e-06
1.2365478e-06
1.2648001e-06
1.2956932e-06
1.3286212e-06
1.3630873e-06
1.398733e-06
1.4353034e-06
1.4725901e-06
1.5103585e-06
1.5482892e-06
1.5859231e-06
1.622627e-06
1.6575766e-06
1.689754e-06
1.7179637e-06
1.7408565e-06
1.7569393e-06
1.7645313e-06
1.761575e-06
1.7451565e-06
1.7104883e-06
1.6489013e-06
1.5434109e-06
1.3511796e-06
8.9143168e-07
9.0765475e-07
9.2603239e-07
9.4613755e-07
9.6755129e-07
9.8991015e-07
1.0129272e-06
1.0363857e-06
1.0601063e-06
1.0839106e-06
1.1075812e-06
1.1308372e-06
1.153317e-06
1.1745726e-06
1.1940767e-06
1.2112372e-06
1.225409e-06
1.2358866e-06
1.241846e-06
1.2421803e-06
1.2351491e-06
1.2177429e-06
1.1846121e-06
1.1259702e-06
1.0187558e-06
6.2592273e-07
6.3576163e-07
6.4690599e-07
6.5908712e-07
6.7202692e-07
6.8547531e-07
6.992228e-07
7.1310341e-07
7.2698088e-07
7.4072924e-07
7.5421561e-07
7.6728504e-07
7.7975516e-07
7.9141895e-07
8.0204973e-07
8.1140921e-07
8.1924943e-07
8.2529906e-07
8.2921943e-07
8.3050012e-07
8.2825424e-07
8.2088891e-07
8.0562026e-07
7.7753713e-07
7.248996e-07
4.2283639e-07
4.2840386e-07
4.3470481e-07
4.4157624e-07
4.4884309e-07
4.5634139e-07
4.6392955e-07
4.7149233e-07
4.7893476e-07
4.8617578e-07
4.9314029e-07
4.9975331e-07
5.0593867e-07
5.1162242e-07
5.1673533e-07
5.2121366e-07
5.2499311e-07
5.2799439e-07
5.3010044e-07
5.3111158e-07
5.3064769e-07
5.2800258e-07
5.2195961e-07
5.1039549e-07
4.8780713e-07
2.7853885e-07
2.8149147e-07
2.8482856e-07
2.8845507e-07
2.922664e-07
2.9616097e-07
3.0004924e-07
3.0385647e-07
3.0752237e-07
3.1099847e-07
3.1424576e-07
3.1723356e-07
3.1994035e-07
3.223563e-07
3.2448291e-07
3.2632349e-07
3.2788019e-07
3.2913483e-07
3.3004297e-07
3.3053581e-07
3.3047901e-07
3.296085e-07
3.2746586e-07
3.2323532e-07
3.1455052e-07
1.8263777e-07
1.8412308e-07
1.8579374e-07
1.8759645e-07
1.8947159e-07
1.9136011e-07
1.9320923e-07
1.9497483e-07
1.9662219e-07
1.9812581e-07
1.9946887e-07
2.0064402e-07
2.0165544e-07
2.0252098e-07
2.0327046e-07
2.0392115e-07
2.0448759e-07
2.0495063e-07
2.0527166e-07
2.0542735e-07
2.0538482e-07
2.0506054e-07
2.0428952e-07
2.0274002e-07
1.993407e-07
1.225186e-07
1.2325e-07
1.2406828e-07
1.24944e-07
1.2584421e-07
1.2673546e-07
1.2758741e-07
1.2837462e-07
1.2907739e-07
1.2968205e-07
1.3018106e-07
1.3057357e-07
1.3086656e-07
1.3107638e-07
1.3123021e-07
1.313696e-07
1.3155918e-07
1.3176799e-07
1.3190136e-07
1.3194278e-07
1.3189733e-07
1.3174476e-07
1.3141906e-07
1.3075492e-07
1.2919842e-07
8.6552819e-08
8.6927513e-08
8.734606e-08
8.7792535e-08
8.8248899e-08
8.8696641e-08
8.9118571e-08
8.9500209e-08
8.9830412e-08
9.0101707e-08
9.0310464e-08
9.0457136e-08
9.0546896e-08
9.0590441e-08
9.0605342e-08
9.0618594e-08
9.0667109e-08
9.080305e-08
9.0929362e-08
9.0986724e-08
9.0987067e-08
9.0928325e-08
9.0777458e-08
9.0438417e-08
8.9596735e-08
6.6064504e-08
6.6285699e-08
6.6534469e-08
6.6802239e-08
6.7079057e-08
6.7354639e-08
6.7619175e-08
6.7864182e-08
6.8083009e-08
6.8271041e-08
6.8425854e-08
6.8547343e-08
6.8638116e-08
6.8704068e-08
6.8755398e-08
6.8808343e-08
6.8883111e-08
6.9018274e-08
6.9197294e-08
6.9317006e-08
6.9386297e-08
6.9406654e-08
6.9357864e-08
6.9181802e-08
6.8708827e-08
5.5114312e-08
5.5277212e-08
5.5462954e-08
5.5666777e-08
5.5883004e-08
5.610558e-08
5.6328584e-08
5.6546601e-08
5.6755086e-08
5.6950523e-08
5.7130548e-08
5.7294111e-08
5.7441766e-08
5.7576141e-08
5.7702651e-08
5.7830447e-08
5.7973447e-08
5.8150094e-08
5.8385377e-08
5.8566547e-08
5.8698959e-08
5.8783097e-08
5.8803747e-08
5.8721296e-08
5.8426867e-08
4.9848676e-08
4.9992915e-08
5.0159412e-08
5.0345291e-08
5.0546987e-08
5.0760533e-08
5.0981843e-08
5.1206956e-08
5.1432223e-08
5.1654472e-08
5.1871148e-08
5.208049e-08
5.2281804e-08
5.247584e-08
5.2665327e-08
5.2855764e-08
5.3056767e-08
5.3280566e-08
5.3550804e-08
5.377515e-08
5.3952244e-08
5.4080109e-08
5.4144593e-08
5.411167e-08
5.38859e-08
4.7869415e-08
4.8008331e-08
4.8169787e-08
4.8351765e-08
4.855166e-08
4.8766453e-08
4.8992886e-08
4.9227632e-08
4.9467441e-08
4.9709295e-08
4.995056e-08
5.0189176e-08
5.0423884e-08
5.0654516e-08
5.0882387e-08
5.1110898e-08
5.1346532e-08
5.1600336e-08
5.1888974e-08
5.2137234e-08
5.2339954e-08
5.2492906e-08
5.2581511e-08
5.257344e-08
5.2378777e-08
4.7733218e-08
4.786905e-08
4.8027312e-08
4.8206334e-08
4.8403918e-08
4.8617466e-08
4.884411e-08
4.9080857e-08
4.9324721e-08
4.9572878e-08
4.9822819e-08
5.0072519e-08
5.0320621e-08
5.0566634e-08
5.0811221e-08
5.1056673e-08
5.1307795e-08
5.1573562e-08
5.1866619e-08
5.2123628e-08
5.2337306e-08
5.2501424e-08
5.2600302e-08
5.2601511e-08
5.241803e-08
4.8595268e-08
4.8726514e-08
4.8879396e-08
4.9052383e-08
4.9243467e-08
4.9450277e-08
4.9670201e-08
4.9900512e-08
5.0138507e-08
5.0381645e-08
5.0627697e-08
5.0874879e-08
5.1121992e-08
5.1368549e-08
5.1614976e-08
5.1862961e-08
5.2116203e-08
5.2381879e-08
5.267006e-08
5.2926013e-08
5.31412e-08
5.3307591e-08
5.3408094e-08
5.3409312e-08
5.32258e-08
4.9973569e-08
5.0098205e-08
5.024314e-08
5.0406912e-08
5.0587649e-08
5.0783169e-08
5.0991098e-08
5.1208992e-08
5.1434465e-08
5.1665325e-08
5.1899698e-08
5.213614e-08
5.2373728e-08
5.2612136e-08
5.285175e-08
5.3093914e-08
5.3341473e-08
5.3599855e-08
5.3878473e-08
5.4128045e-08
5.4339467e-08
5.4503147e-08
5.4600498e-08
5.4596739e-08
5.440777e-08
5.1600371e-08
5.1716991e-08
5.1852274e-08
5.2004828e-08
5.2172914e-08
5.2354549e-08
5.2547608e-08
5.2749942e-08
5.2959506e-08
5.3174472e-08
5.3393344e-08
5.361504e-08
5.3838953e-08
5.406498e-08
5.4293568e-08
5.4525868e-08
5.4764135e-08
5.5012618e-08
5.5278971e-08
5.5519593e-08
5.5724685e-08
5.5883196e-08
5.5975065e-08
5.5963624e-08
5.5759306e-08
5.3331077e-08
5.3439061e-08
5.3563991e-08
5.3704558e-08
5.3859169e-08
5.4026039e-08
5.42033e-08
5.4389099e-08
5.4581719e-08
5.4779687e-08
5.4981869e-08
5.5187537e-08
5.5396394e-08
5.5608575e-08
5.5824634e-08
5.6045611e-08
5.6273315e-08
5.6511016e-08
5.6764604e-08
5.6995513e-08
5.7193299e-08
5.734557e-08
5.7430785e-08
5.7410003e-08
5.7188314e-08
5.5089547e-08
5.5188877e-08
5.5303498e-08
5.543219e-08
5.5573508e-08
5.5725867e-08
5.5887637e-08
5.6057245e-08
5.6233282e-08
5.64146e-08
5.6600398e-08
5.6790269e-08
5.6984212e-08
5.718259e-08
5.7386077e-08
5.7595653e-08
5.7812762e-08
5.8039827e-08
5.8281132e-08
5.8502531e-08
5.8692872e-08
5.8838547e-08
5.8916552e-08
5.8885528e-08
5.8642427e-08
5.6836093e-08
5.6927118e-08
5.7031906e-08
5.7149332e-08
5.7278093e-08
5.7416789e-08
5.7564011e-08
5.771844e-08
5.7878941e-08
5.8044657e-08
5.8215085e-08
5.8390111e-08
5.8569998e-08
5.8755324e-08
5.8946886e-08
5.9145627e-08
5.935269e-08
5.9569773e-08
5.9799784e-08
6.0012184e-08
6.0195292e-08
6.0334354e-08
6.0404958e-08
6.036346e-08
6.01014e-08
5.8549391e-08
5.8632637e-08
5.872827e-08
5.8835257e-08
5.8952428e-08
5.907855e-08
5.9212414e-08
5.9352922e-08
5.9499184e-08
5.96506e-08
5.980693e-08
5.9968319e-08
6.0135269e-08
6.0308557e-08
6.0489093e-08
6.0677799e-08
6.0875569e-08
6.1083476e-08
6.130323e-08
6.1507293e-08
6.1683515e-08
6.1816092e-08
6.1879267e-08
6.1827131e-08
6.1542989e-08
6.021669e-08
6.0292746e-08
6.0379963e-08
6.0477395e-08
6.0583991e-08
6.0698671e-08
6.0820399e-08
6.0948273e-08
6.1081617e-08
6.1220056e-08
6.1363583e-08
6.151257e-08
6.1667735e-08
6.1830031e-08
6.2000476e-08
6.217998e-08
6.2369222e-08
6.2568738e-08
6.2779197e-08
6.2975561e-08
6.3145248e-08
6.3271501e-08
6.3327302e-08
6.326451e-08
6.2960393e-08
6.1828802e-08
6.1898262e-08
6.1977794e-08
6.206653e-08
6.2163533e-08
6.2267852e-08
6.2378607e-08
6.2495067e-08
6.2616741e-08
6.2743451e-08
6.2875394e-08
6.3013145e-08
6.315761e-08
6.3309899e-08
6.3471129e-08
6.36422e-08
6.3823611e-08
6.4015428e-08
6.4217423e-08
6.4406628e-08
6.4570068e-08
6.4690122e-08
6.473863e-08
6.4665459e-08
6.4342379e-08
6.3377738e-08
6.3441176e-08
6.3513718e-08
6.3594573e-08
6.3682899e-08
6.3777864e-08
6.3878722e-08
6.3984891e-08
6.4096042e-08
6.421217e-08
6.4333649e-08
6.446123e-08
6.4595985e-08
6.4739161e-08
6.489196e-08
6.5055277e-08
6.5229452e-08
6.5414149e-08
6.5608361e-08
6.5790818e-08
6.5948195e-08
6.6062092e-08
6.6103283e-08
6.6019815e-08
6.5678534e-08
6.485576e-08
6.4913729e-08
6.4979941e-08
6.5053677e-08
6.5134181e-08
6.5220724e-08
6.5312677e-08
6.5409589e-08
6.5511271e-08
6.5617867e-08
6.5729905e-08
6.5848287e-08
6.5974229e-08
6.6109094e-08
6.6254156e-08
6.6410303e-08
6.6577735e-08
6.6755768e-08
6.6942729e-08
6.7118706e-08
6.7270085e-08
6.7377762e-08
6.741149e-08
6.7317451e-08
6.6957396e-08
6.625517e-08
6.6308199e-08
6.6368712e-08
6.6436049e-08
6.6509533e-08
6.6588525e-08
6.6672497e-08
6.6761113e-08
6.6854302e-08
6.6952338e-08
6.7055877e-08
6.7165953e-08
6.7283898e-08
6.7411174e-08
6.754911e-08
6.7698582e-08
6.7859667e-08
6.8031378e-08
6.8211472e-08
6.8381077e-08
6.8526386e-08
6.8627683e-08
6.8653795e-08
6.8549147e-08
6.817053e-08
6.7568431e-08
6.7617036e-08
6.7672454e-08
6.773408e-08
6.7801305e-08
6.7873569e-08
6.7950432e-08
6.8031653e-08
6.8117265e-08
6.8207649e-08
6.8303569e-08
6.8406166e-08
6.8516866e-08
6.8637207e-08
6.8768561e-08
6.891178e-08
6.9066827e-08
6.9232446e-08
6.9405895e-08
6.9569059e-08
6.9708073e-08
6.980273e-08
6.9821106e-08
6.9706227e-08
6.9310786e-08
6.8788413e-08
6.8833096e-08
6.8884002e-08
6.8940578e-08
6.9002271e-08
6.906859e-08
6.9139171e-08
6.9213851e-08
6.929275e-08
6.9376338e-08
6.9465466e-08
6.9561357e-08
6.9665513e-08
6.9779525e-08
6.9904788e-08
7.0042123e-08
7.0191379e-08
7.0351061e-08
7.0517848e-08
7.0674284e-08
7.0806609e-08
7.0894249e-08
7.0904735e-08
7.0780129e-08
7.0370281e-08
6.9908607e-08
6.9949854e-08
6.9996812e-08
7.004897e-08
7.0105826e-08
7.0166945e-08
7.0232025e-08
7.0300971e-08
7.0373975e-08
7.0451572e-08
7.0534686e-08
7.06246e-08
7.0722872e-08
7.0831129e-08
7.095077e-08
7.1082568e-08
7.122628e-08
7.1380407e-08
7.1539817e-08
7.1688942e-08
7.1814007e-08
7.1894146e-08
7.1896647e-08
7.1763538e-08
7.1345873e-08
7.0923281e-08
7.096156e-08
7.1005106e-08
7.1053444e-08
7.1106113e-08
7.1162728e-08
7.1223037e-08
7.1287002e-08
7.1354867e-08
7.1427226e-08
7.1505051e-08
7.1589676e-08
7.1682696e-08
7.1785762e-08
7.1900253e-08
7.2026856e-08
7.2165223e-08
7.2314105e-08
7.2464599e-08
7.2605543e-08
7.2722617e-08
7.2794652e-08
7.2789048e-08
7.2649423e-08
7.2239992e-08
7.1827757e-08
7.1863503e-08
7.1904129e-08
7.1949188e-08
7.1998256e-08
7.2050986e-08
7.2107172e-08
7.2166818e-08
7.2230215e-08
7.2297999e-08
7.2371183e-08
7.2451139e-08
7.2539494e-08
7.2637909e-08
7.2747711e-08
7.2869369e-08
7.3001932e-08
7.3142391e-08
7.3283937e-08
7.3416213e-08
7.3524582e-08
7.358772e-08
7.3573166e-08
7.3425261e-08
7.301124e-08
7.261338e-08
7.2646987e-08
7.2685137e-08
7.2727406e-08
7.2773397e-08
7.2822797e-08
7.2875431e-08
7.2931337e-08
7.2990831e-08
7.3054566e-08
7.3123559e-08
7.3199164e-08
7.3282962e-08
7.3376529e-08
7.3481071e-08
7.3596906e-08
7.372286e-08
7.3855581e-08
7.3988657e-08
7.4112032e-08
7.4211064e-08
7.426447e-08
7.4239973e-08
7.4082086e-08
7.3657203e-08
7.3262019e-08
7.3293903e-08
7.3330064e-08
7.3370093e-08
7.3413619e-08
7.3460351e-08
7.3510142e-08
7.3563051e-08
7.3619407e-08
7.3679861e-08
7.3745416e-08
7.3817393e-08
7.3897315e-08
7.3986665e-08
7.4086518e-08
7.4197038e-08
7.4316858e-08
7.4442421e-08
7.4567332e-08
7.4681644e-08
7.4770822e-08
7.4813789e-08
7.4778603e-08
7.4610091e-08
7.4174065e-08
7.3757589e-08
7.378811e-08
7.3822701e-08
7.3860965e-08
7.3902546e-08
7.3947178e-08
7.3994734e-08
7.404529e-08
7.409918e-08
7.4157031e-08
7.4219805e-08
7.4288794e-08
7.4365472e-08
7.445123e-08
7.4547038e-08
7.4652918e-08
7.4767303e-08
7.4886305e-08
7.5003382e-08
7.5108618e-08
7.518765e-08
7.5219761e-08
7.5173603e-08
7.4995133e-08
7.4553416e-08
7.4071919e-08
7.410139e-08
7.4134761e-08
7.4171646e-08
7.4211708e-08
7.4254709e-08
7.4300536e-08
7.43493e-08
7.4401337e-08
7.4457206e-08
7.4517785e-08
7.4584367e-08
7.4658423e-08
7.4741261e-08
7.483383e-08
7.493612e-08
7.5046432e-08
7.5159957e-08
7.5269891e-08
7.5366374e-08
7.5435355e-08
7.5456721e-08
7.5400022e-08
7.5213072e-08
7.4771122e-08
7.4148083e-08
7.4176928e-08
7.4209367e-08
7.424516e-08
7.4284032e-08
7.4325901e-08
7.4370415e-08
7.4417879e-08
7.4468672e-08
7.4523206e-08
7.4582147e-08
7.4646904e-08
7.4719073e-08
7.4799824e-08
7.4890356e-08
7.4991144e-08
7.5101347e-08
7.5211958e-08
7.5316368e-08
7.5404964e-08
7.546453e-08
7.547605e-08
7.5410451e-08
7.5218605e-08
7.4783197e-08
7.3818341e-08
7.3848653e-08
7.3880551e-08
7.3915383e-08
7.3953456e-08
7.3996945e-08
7.4040581e-08
7.4087113e-08
7.4137259e-08
7.4191161e-08
7.4248954e-08
7.4312452e-08
7.4383639e-08
7.4463264e-08
7.4553458e-08
7.4657767e-08
7.4788609e-08
7.4904083e-08
7.5007354e-08
7.5089749e-08
7.5141167e-08
7.5144821e-08
7.5073765e-08
7.4885088e-08
7.4483732e-08
)
;

boundaryField
{
    Walls
    {
        type            nutUWallFunction;
        Cmu             0.09;
        kappa           0.41;
        E               9.8;
        value           uniform 0;
    }
    Inlet
    {
        type            calculated;
        value           nonuniform List<scalar> 3(6.025177e-05 1.7312329e-05 8.00045e-07);
    }
    Outlet
    {
        type            calculated;
        value           nonuniform List<scalar> 
86
(
0
0
0
0
0
0
0
0
0
0
0
0
0
0
0
0
0
0
0
0
0
0
0
0
0
0
0
0
0
0
1.4320465e-05
1.4869101e-05
1.3453701e-05
0
0
0
0
4.6849832e-06
4.544675e-06
4.06743e-06
0
0
0
0
1.3511796e-06
1.0187558e-06
7.248996e-07
4.8780713e-07
3.1455052e-07
1.993407e-07
1.2919842e-07
8.9596735e-08
6.8708827e-08
5.8426867e-08
5.38859e-08
5.2378777e-08
0
0
0
0
0
0
0
0
0
0
0
0
0
0
0
0
0
0
0
0
0
0
0
0
0
0
0
0
1.3201176e-05
1.4837436e-05
)
;
    }
    Front
    {
        type            wedge;
    }
    Back
    {
        type            wedge;
    }
    defaultFaces
    {
        type            empty;
    }
}


// ************************************************************************* //
