/*--------------------------------*- C++ -*----------------------------------*\
| =========                 |                                                 |
| \\      /  F ield         | OpenFOAM: The Open Source CFD Toolbox           |
|  \\    /   O peration     | Version:  4.0                                   |
|   \\  /    A nd           | Web:      www.OpenFOAM.org                      |
|    \\/     M anipulation  |                                                 |
\*---------------------------------------------------------------------------*/
FoamFile
{
    version     2.0;
    format      ascii;
    class       volScalarField;
    location    "0.45";
    object      omega;
}
// * * * * * * * * * * * * * * * * * * * * * * * * * * * * * * * * * * * * * //

dimensions      [0 0 -1 0 0 0 0];

internalField   nonuniform List<scalar> 
1740
(
52.834687
637.8662
14919.554
148.85512
1281.4773
15027.022
269.9718
1807.3253
15119.518
385.2221
2218.5274
15203.427
506.89876
2517.6048
15272.218
631.92044
2792.5737
15329.486
747.42754
3076.6492
15379.68
853.11904
3256.012
15420.34
937.52801
3389.959
15450.317
1024.0812
3520.9258
15473.607
1133.4674
3652.5986
15495.682
1239.519
3755.0582
15515.538
1322.8927
3858.8441
15529.288
1422.9739
3967.8258
15536.112
1526.2083
3960.7991
15543.295
1578.5443
3966.0781
15553.362
1613.0773
4000.0729
15560.167
1687.7712
4017.1618
15564.291
1726.6048
4034.5003
15566.796
1753.6931
4070.0203
15566.922
1800.2532
4047.9525
15571.715
1828.1684
4096.4476
15578.819
1866.9723
4150.9222
15576.026
1897.6655
4128.5045
15577.509
1918.6467
4126.4898
15577.348
1935.336
4128.8046
15574.647
1953.0022
4154.2731
15572.663
1981.9964
4219.6758
15572.032
2000.2824
4243.1311
15565.421
2129.1129
4309.7282
15506.592
3199.8167
4577.0437
10747.63
3345.0776
4248.9979
5953.148
1574.0959
1861.9823
2155.9563
824.17008
899.01129
957.02578
479.60022
497.66479
507.36662
301.52813
305.18807
305.09488
201.66094
201.94194
200.41676
142.14461
141.79978
140.51424
104.82293
104.48037
103.62025
80.407784
80.168349
79.635648
63.889391
63.73863
63.418653
52.43774
52.346376
52.155979
44.388087
44.333254
44.219546
38.721998
38.688835
38.61988
34.783449
34.762979
34.720103
32.118912
32.105975
32.078542
30.389633
30.38137
30.363449
29.328896
29.323781
29.312084
28.721797
28.718918
28.711367
28.375856
28.373398
28.367228
28.128779
28.12644
28.121013
27.932645
27.930622
27.925962
27.763547
27.761882
27.757957
27.607431
27.606168
27.602975
27.456897
27.456081
27.453636
27.309833
27.30945
27.307708
27.168423
27.168371
27.167204
27.037084
27.037219
27.036453
26.91983
26.920032
26.919514
26.818573
26.818769
26.818393
26.732817
26.732976
26.732683
26.66017
26.660286
26.660042
26.596932
26.59701
26.596799
26.538367
26.538414
26.538229
26.478534
26.478559
26.478394
26.409698
26.409708
26.409562
26.32135
26.32135
26.321222
26.198849
26.198845
26.198735
26.021714
26.02171
26.021622
25.761596
25.761597
25.761535
25.38005
25.380061
25.380032
24.826348
24.826373
24.826385
24.035752
24.035797
24.03586
22.928946
22.92901
22.929128
21.415397
21.415478
21.415647
19.400174
19.400261
19.400454
16.792025
16.792083
16.792227
13.527999
13.52798
13.527975
9.6045612
9.6044546
9.6042699
5.0821442
5.0820296
5.0818165
13483.507
13537.164
6003.5709
5337.2266
2085.2479
1882.4235
921.76411
853.80314
490.41254
463.22515
296.61742
284.48135
195.99733
190.17659
138.11366
135.14552
102.27666
100.68547
78.868486
77.982973
62.97498
62.46847
51.896089
51.599716
44.0647
43.887013
38.52532
38.415334
34.660474
34.589618
32.039574
31.991879
30.337187
30.3038
29.294044
29.26997
28.698716
28.680848
28.356995
28.342421
28.11225
28.099793
27.918414
27.907584
27.751449
27.741923
27.597416
27.589011
27.44898
27.441609
27.303903
27.297532
27.164156
27.158755
27.034039
27.029556
26.917609
26.913958
26.816889
26.813961
26.73149
26.729164
26.659091
26.657248
26.596034
26.59457
26.537607
26.536436
26.477884
26.476937
26.409139
26.408367
26.320871
26.320238
26.198446
26.197927
26.021391
26.020972
25.761362
25.761036
25.379921
25.379691
24.826347
24.826221
24.035906
24.035899
22.929268
22.929394
21.415879
21.416138
19.40074
19.40109
16.792468
16.792799
13.528032
13.528194
9.604087
9.6040305
5.0815828
5.0815998
12058.183
2043.4741
696.70724
369.14935
281.26694
257.01796
249.87386
246.83331
244.49193
242.10334
239.58714
236.84488
234.01564
231.11059
228.09541
224.90568
221.42759
217.46461
212.68334
206.52869
198.07788
185.77516
166.92
136.48642
82.653003
12058.133
2037.3098
697.78045
374.69601
283.20516
254.35239
242.81119
235.59869
229.49779
223.71063
218.04052
212.42301
206.92463
201.52636
196.20668
190.93726
185.66119
180.27408
174.58831
168.28088
160.79959
151.17586
137.61044
116.40726
78.14537
12058.179
2030.6071
718.65235
430.72831
359.35578
332.41576
315.03999
300.53883
287.3022
274.756
262.78247
251.1991
240.22902
229.77462
219.7739
210.21285
201.07022
192.29931
183.79912
175.3908
166.76022
157.32525
145.88009
129.47039
98.794169
12058.526
2031.9934
817.7047
608.99308
550.12346
512.90751
479.87144
449.34018
421.34746
395.02745
370.34538
347.33151
326.12078
306.25699
287.59526
270.14238
253.88585
238.79262
224.80702
211.83759
199.7433
188.29748
177.05964
164.84835
146.41914
12061.525
2151.4908
1232.9144
1078.9161
990.10129
907.21527
828.69042
757.24391
693.35911
634.21678
579.85636
530.18263
486.07964
445.77734
408.78167
375.09946
344.5937
317.09181
292.41204
270.36108
250.7428
233.38199
218.1647
205.26352
195.75507
12087.285
3830.0867
2812.2497
2406.0506
2096.631
1827.158
1591.6039
1388.1878
1212.1319
1060.2655
929.44735
816.83258
719.88599
636.18366
563.79832
501.22215
447.16088
400.48582
360.22235
325.53664
295.72124
270.20233
248.57587
230.93773
218.52353
10374.15
7910.6971
6101.303
4789.9111
3819.4158
3083.6735
2514.1602
2066.8353
1712.0364
1428.428
1200.0994
1015.1269
864.53624
741.40415
640.24728
556.71414
487.37026
429.51834
381.04398
340.28751
305.94506
277.01214
252.7741
233.11118
219.30353
4095.1689
3309.3891
2844.2154
2468.2787
2148.6401
1867.8419
1623.0211
1411.366
1229.96
1074.4753
941.08329
826.35899
727.32877
641.83302
568.03247
504.33716
449.37417
401.96955
361.12294
325.98442
295.83698
270.10161
248.36483
230.70277
218.3036
1595.1635
1400.4181
1270.0764
1161.7144
1059.4058
962.07189
873.35548
794.30912
722.22925
656.93868
598.53208
546.88165
499.44128
456.09187
416.71443
381.10993
349.05128
320.30833
294.64852
271.85526
251.73056
234.10628
218.87148
206.1789
196.98856
771.21958
707.94572
661.69944
621.09494
580.71559
540.55491
502.9498
468.28672
436.15319
406.52306
379.4359
354.6235
331.39903
309.66253
289.40656
270.61662
253.26332
237.30579
222.69297
209.36065
197.21472
186.08871
175.61425
164.72475
148.59695
433.81292
410.05789
391.31913
374.06745
356.2951
337.97634
320.08217
303.04699
286.94834
271.83956
257.73019
244.49775
231.93443
219.9954
208.71179
198.07975
188.09233
178.72873
169.94415
161.64691
153.64395
145.50614
136.2015
122.94844
96.641289
272.02402
261.54437
252.84652
244.65504
236.11494
227.15538
218.13762
209.3252
200.84072
192.74245
185.03922
177.6823
170.59929
163.76703
157.19847
150.89749
144.85529
139.04185
133.39042
127.76527
121.89333
115.21316
106.51922
93.028949
67.215563
184.31382
179.20376
174.77599
170.53508
166.1044
161.415
156.60089
151.80282
147.10893
142.56549
138.18313
133.94323
129.81662
125.78829
121.85386
118.00387
114.2161
110.44538
106.60711
102.54718
97.985333
92.405812
84.833281
73.286877
52.570953
132.17438
129.50841
127.11906
124.8012
122.38244
119.81366
117.14197
114.43681
111.75271
109.12118
106.55189
104.03753
101.56293
99.114319
96.67849
94.235969
91.754061
89.17783
86.41656
83.322437
79.658339
75.056826
69.00302
61.032836
52.181254
99.092544
97.629199
96.285867
94.971401
93.602552
92.147874
90.62254
89.059703
87.489731
85.931904
84.392646
82.867779
81.34633
79.813989
78.252514
76.635901
74.925147
73.061306
70.956174
68.480473
65.452992
61.646467
56.866327
51.279132
46.403549
77.093394
76.260208
75.480697
74.713697
73.917488
73.072698
72.18256
71.262019
70.326784
69.387293
68.446465
67.499939
66.537361
65.543318
64.496543
63.367251
62.113331
60.675393
58.970783
56.887703
54.283574
51.000364
46.931097
42.228634
37.932953
61.956045
61.467781
61.003888
60.545358
60.070999
59.568964
59.038431
58.485351
57.916969
57.337843
56.747785
56.141268
55.507368
54.829571
54.084726
53.240955
52.254744
51.06727
49.600072
47.750466
45.387296
42.345801
38.403989
33.118825
24.607794
51.296526
51.002713
50.719439
50.437897
50.147223
49.840233
49.514961
49.173103
48.81708
48.447714
48.062498
47.654635
47.212372
46.718251
46.147878
45.468102
44.634578
43.588714
42.253801
40.529713
38.283853
35.330312
31.368973
25.778594
16.770622
43.702307
43.519776
43.340752
43.161229
42.975541
42.779358
42.570652
42.349077
42.114511
41.8655
41.597923
41.303923
40.970992
40.580897
40.108331
39.519163
38.768243
37.796653
36.52807
34.86327
32.670005
29.761057
25.842564
20.386693
12.228684
38.298554
38.180153
38.061311
37.940298
37.814141
37.680169
37.536593
37.38221
37.21555
37.033842
36.831923
36.601176
36.328464
35.994907
35.574415
35.031948
34.321451
33.383392
32.141682
30.49931
28.331034
25.469286
21.675546
16.581606
9.4946067
34.512187
34.431089
34.347177
34.259689
34.167087
34.067663
33.959913
33.842307
33.712726
33.567647
33.401262
33.204418
32.963469
32.658958
32.264057
31.742822
31.04825
30.120182
28.883095
27.243743
25.088389
22.278687
18.644129
13.967286
7.9908126
31.937849
31.879002
31.815835
31.747992
31.67461
31.594581
31.506629
31.409134
31.299659
31.174299
31.026823
30.847681
30.622794
30.332152
29.948213
29.434164
28.742126
27.811453
26.567441
24.920993
22.770074
20.003455
16.505717
12.158343
6.8450849
30.264335
30.219397
30.169169
30.113426
30.051624
29.982981
29.9064
29.820251
29.721953
29.607367
29.469995
29.299956
29.08275
28.797808
28.416895
27.902434
27.205888
26.266428
25.010271
23.351788
21.197933
18.456884
15.048986
10.91142
5.9990496
29.240078
29.204351
29.162702
29.11491
29.060576
28.99908
28.929432
28.850017
28.758176
28.649622
28.517639
28.352041
28.13788
27.85395
27.471286
26.951718
26.24643
25.294969
24.024733
22.352528
20.19082
17.459217
14.09836
10.077422
5.4038472
28.657514
28.628271
28.592824
28.550887
28.50208
28.44582
28.381139
28.306401
28.218879
28.11416
27.985319
27.821832
27.608198
27.322386
26.934445
26.405938
25.688192
24.722134
23.437156
21.751626
19.580455
16.848625
13.506782
9.5424572
5.0056934
28.323155
28.298762
28.268871
28.233092
28.190927
28.141654
28.084135
28.016533
27.935888
27.837505
27.714103
27.55466
27.342909
27.055656
26.661484
26.121901
25.38819
24.404562
23.104639
21.40763
19.228412
16.493637
13.158799
9.2223835
4.7579238
28.083249
28.062202
28.036239
28.004919
27.967698
27.923801
27.872044
27.810545
27.736308
27.64463
27.528275
27.376365
27.172928
26.895124
26.511233
25.9777
25.236473
24.235525
22.922083
21.216983
19.033185
16.29713
12.967342
9.0530515
4.6642429
27.893042
27.874347
27.851059
27.822703
27.788707
27.74827
27.700182
27.642541
27.572348
27.484932
27.373161
27.226377
27.029002
26.758735
26.384364
25.863103
25.139012
24.139465
22.819086
21.111219
18.927301
16.193299
12.870055
8.97483
4.6277839
27.728909
27.711931
27.690521
27.66419
27.63235
27.594199
27.548531
27.493467
27.426065
27.341767
27.233632
27.091288
26.899532
26.636504
26.271445
25.762067
25.053581
24.073002
22.754201
21.049358
18.869448
16.140505
12.825382
8.9469437
4.6442349
27.577253
27.561624
27.541641
27.516813
27.486569
27.450136
27.406362
27.353454
27.288599
27.207418
27.103196
26.96581
26.780301
26.525045
26.16955
25.672038
24.977295
24.01622
22.706305
21.009199
18.836144
16.113886
12.806023
8.9336406
4.6249087
27.430993
27.416573
27.39787
27.374423
27.345714
27.311046
27.269371
27.219028
27.157362
27.080164
26.980876
26.849492
26.671119
26.424155
26.078145
25.591428
24.908872
23.961988
22.666911
20.979957
18.81498
16.100039
12.799709
8.9351816
4.630388
27.288062
27.274918
27.257647
27.235851
27.209095
27.176785
27.137987
27.091163
27.033774
26.961697
26.868412
26.743893
26.573172
26.33456
25.997569
25.520663
24.849173
23.914049
22.63333
20.956645
18.799651
16.091633
12.798125
8.9411496
4.6426936
27.150496
27.138816
27.123316
27.103669
27.079523
27.050367
27.015351
26.973001
26.92081
26.854648
26.767933
26.650535
26.487355
26.256589
25.927708
25.459293
24.797004
23.872242
22.604198
20.936942
18.78722
16.085429
12.798573
8.9516622
4.6624345
27.02255
27.012507
26.999086
26.982018
26.961005
26.93558
26.904918
26.867541
26.820909
26.760815
26.680571
26.569916
26.41362
26.189783
25.867864
25.406581
24.751949
23.836004
22.578729
20.919735
18.776343
16.079796
12.798734
8.9630913
4.7100626
26.908174
26.899811
26.888579
26.874246
26.856532
26.834973
26.808717
26.776243
26.734933
26.680483
26.606089
26.50137
26.350988
26.132981
25.816827
25.3614
24.713099
23.804702
22.556282
20.904363
18.766375
16.074019
12.797312
8.9732123
4.7709764
26.80929
26.802501
26.793347
26.78161
26.767006
26.749041
26.726819
26.698748
26.662126
26.612552
26.543119
26.443346
26.297822
26.084546
25.773036
25.322321
24.679124
23.776777
22.536
20.890209
18.756951
16.068234
12.79511
8.9780111
4.7772556
26.725445
26.720025
26.712686
26.703216
26.69131
26.676436
26.657642
26.633269
26.600537
26.554958
26.489542
26.393736
26.252075
26.042546
25.734711
25.287745
24.648662
23.751275
22.516979
20.876502
18.747469
16.062072
12.791827
8.9787743
4.7828107
26.654306
26.650011
26.644168
26.636561
26.626862
26.614503
26.59848
26.577073
26.547436
26.505013
26.442752
26.350044
26.211391
26.004779
25.699823
25.255832
24.620077
23.726801
22.498012
20.862156
18.736956
16.054657
12.786581
8.9741297
4.7570999
26.592241
26.588836
26.584176
26.57804
26.57008
26.559693
26.545835
26.526736
26.499496
26.45951
26.399674
26.309345
26.173002
25.96864
25.665929
25.224301
24.591257
23.701418
22.477317
20.845579
18.723964
16.044722
12.778781
8.9667201
4.7492475
26.53458
26.531862
26.528115
26.523113
26.51649
26.507618
26.495417
26.47808
26.452668
26.414535
26.356543
26.26802
26.133438
25.930805
25.629845
25.190107
24.559303
23.672392
22.452378
20.824431
18.70636
16.030409
12.76705
8.9558347
4.7190957
26.475444
26.473252
26.470201
26.466062
26.460456
26.452733
26.441789
26.425786
26.401756
26.365022
26.308421
26.221266
26.088021
25.886717
25.587134
25.148936
24.520037
23.635711
22.419411
20.795175
18.680925
16.008947
12.74921
8.9398563
4.7040905
26.407153
26.405363
26.402843
26.399359
26.394524
26.387672
26.377679
26.362685
26.339697
26.304019
26.248469
26.162346
26.030122
25.829851
25.531378
25.094487
24.467297
23.585407
22.37272
20.752464
18.642792
15.97619
12.722348
8.9180441
4.6865723
26.319241
26.317762
26.315651
26.31267
26.308425
26.302237
26.292967
26.278739
26.256543
26.221665
26.166911
26.081578
25.950147
25.750708
25.453184
25.017496
24.391994
23.512637
22.303832
20.688321
18.584657
15.925761
12.681481
8.8881473
4.6687754
26.197107
26.195875
26.194084
26.191497
26.18771
26.182036
26.173325
26.159688
26.1381
26.103839
26.049703
25.964993
25.834212
25.635504
25.338889
24.904467
24.280871
23.404495
22.200362
20.591085
18.495838
15.848195
12.618354
8.8423315
4.6427469
26.0203
26.019272
26.017743
26.015472
26.012052
26.006788
25.99852
25.98535
25.964246
25.930477
25.876847
25.792671
25.662492
25.464531
25.168953
24.736095
24.114968
23.242537
22.044622
20.444129
18.361147
15.730164
12.521785
8.7712762
4.6007608
25.760498
25.75965
25.758345
25.756342
25.753229
25.748305
25.740404
25.727623
25.706926
25.673586
25.620419
25.536775
25.407266
25.210236
24.916059
24.485413
23.867835
23.001067
21.812012
20.224378
18.159591
15.553522
12.377703
8.6674102
4.5441168
25.379283
25.378604
25.377505
25.375744
25.372904
25.368281
25.360707
25.348278
25.327961
25.295046
25.242383
25.159386
25.03078
24.835104
24.543048
24.115783
23.503593
22.645302
21.469343
19.900796
17.863007
15.293874
12.166501
8.5168663
4.4659435
24.825951
24.825443
24.82455
24.823024
24.820448
24.816117
24.808863
24.79679
24.776884
24.74447
24.692461
24.610385
24.483155
24.28961
24.000916
23.578966
22.975101
22.129591
20.973334
19.433103
17.435015
14.919806
11.862933
8.3026592
4.3639773
24.035782
24.03546
24.034785
24.033507
24.031208
24.027186
24.020284
24.008624
23.989231
23.957496
23.906447
23.825798
23.700759
23.510635
23.227301
22.813708
22.222698
21.396507
20.26976
18.771112
16.830623
14.392836
11.43618
8.0010072
4.2131624
22.929447
22.929333
22.928901
22.927898
22.92591
22.922246
22.915772
22.90465
22.885974
22.855246
22.805681
22.727292
22.605755
22.421078
22.146181
21.745559
21.174298
20.377918
19.293943
17.855202
15.996807
13.668178
10.851346
7.5876678
3.9984509
21.416368
21.416477
21.416304
21.415598
21.413954
21.410709
21.404773
21.394386
21.376754
21.347565
21.300332
21.225544
21.109601
20.933575
20.671897
20.291176
19.749387
18.99588
17.972808
16.618624
14.87474
12.696569
10.07012
7.0359389
3.7065936
19.401458
19.401757
19.401809
19.401357
19.400022
19.397196
19.39188
19.38244
19.366272
19.339322
19.29553
19.226097
19.118494
18.955295
18.713037
18.36121
17.861658
17.168718
16.230643
14.992999
13.404875
11.428786
9.0550277
6.3217033
3.3287573
16.793214
16.793649
16.793867
16.793601
16.79252
16.790123
16.785568
16.777458
16.76348
16.739891
16.701164
16.639571
16.544142
16.399478
16.184938
15.873781
15.432942
14.823184
14.000392
12.918693
11.536139
9.8232873
7.7749572
5.427207
2.8677907
13.528557
13.529203
13.529549
13.529402
13.528536
13.52668
13.523143
13.517025
13.50651
13.488101
13.456717
13.406311
13.328244
13.209545
13.033233
12.777129
12.414695
11.914889
11.242838
10.36222
9.2411546
7.8590193
6.2146243
4.3402254
2.3096029
9.6045653
9.6070585
9.6077379
9.6077122
9.6072267
9.6074142
9.60539
9.6021854
9.5969544
9.5863258
9.5651311
9.5300117
9.4757932
9.3918353
9.265887
9.0806627
8.817618
8.4564128
7.9735759
7.3406558
6.5373703
5.5527525
4.3885975
3.0705807
1.6486048
5.0838518
5.0968014
5.0989793
5.0992273
5.1005154
5.1159276
5.1166968
5.1165078
5.1167417
5.1147565
5.1055041
5.0887438
5.0632711
5.0210893
4.9559088
4.8561405
4.7113751
4.516593
4.2634197
3.9220687
3.4877776
2.9591259
2.3390158
1.6449062
0.90652995
)
;

boundaryField
{
    Walls
    {
        Cmu             0.09;
        kappa           0.41;
        E               9.8;
        beta1           0.075;
        type            omegaWallFunction;
        value           nonuniform List<scalar> 
38
(
12058.183
12058.133
12058.179
12058.526
12061.525
12087.285
13483.507
13537.164
14919.554
15027.022
15119.518
15203.427
15272.218
15329.486
15379.68
15420.34
15450.317
15473.607
15495.682
15515.538
15529.288
15536.112
15543.295
15553.362
15560.167
15564.291
15566.796
15566.922
15571.715
15578.819
15576.026
15577.509
15577.348
15574.647
15572.663
15572.032
15565.421
15506.592
)
;
    }
    Inlet
    {
        type            turbulentMixingLengthDissipationRateInlet;
        mixingLength    0.03;
        phi             phi;
        k               k;
        value           nonuniform List<scalar> 3(0.005861939 0.0044092709 0.0050206947);
    }
    Outlet
    {
        type            inletOutlet;
        inletValue      uniform 1e-05;
        value           nonuniform List<scalar> 
86
(
1e-05
1e-05
1e-05
1e-05
1e-05
1e-05
1e-05
1e-05
1e-05
1e-05
1e-05
1e-05
1e-05
1e-05
1e-05
1e-05
1e-05
1e-05
1e-05
1e-05
1e-05
1e-05
1e-05
1e-05
1e-05
1e-05
1e-05
1e-05
1e-05
1e-05
219.30353
218.3036
196.98856
1e-05
1e-05
1e-05
1e-05
52.181254
46.403549
37.932953
1e-05
1e-05
1e-05
1e-05
7.9908126
6.8450849
5.9990496
5.4038472
5.0056934
4.7579238
4.6642429
4.6277839
4.6442349
4.6249087
4.630388
4.6426936
1e-05
1e-05
1e-05
1e-05
1e-05
1e-05
1e-05
1e-05
1e-05
1e-05
1e-05
1e-05
1e-05
1e-05
1e-05
1e-05
1e-05
1e-05
1e-05
1e-05
1e-05
1e-05
1e-05
1e-05
1e-05
1e-05
1e-05
1e-05
195.75507
218.52353
)
;
    }
    Front
    {
        type            wedge;
    }
    Back
    {
        type            wedge;
    }
    defaultFaces
    {
        type            empty;
    }
}


// ************************************************************************* //
