/*--------------------------------*- C++ -*----------------------------------*\
| =========                 |                                                 |
| \\      /  F ield         | OpenFOAM: The Open Source CFD Toolbox           |
|  \\    /   O peration     | Version:  4.0                                   |
|   \\  /    A nd           | Web:      www.OpenFOAM.org                      |
|    \\/     M anipulation  |                                                 |
\*---------------------------------------------------------------------------*/
FoamFile
{
    version     2.0;
    format      ascii;
    class       volScalarField;
    location    "0.45";
    object      p;
}
// * * * * * * * * * * * * * * * * * * * * * * * * * * * * * * * * * * * * * //

dimensions      [0 2 -2 0 0 0 0];

internalField   nonuniform List<scalar> 
1740
(
491.64592
491.56011
491.64106
475.00592
475.0318
475.11866
458.43002
458.74537
458.76606
442.24999
442.43134
442.32757
426.18355
426.0185
425.91316
409.5616
409.49407
409.57551
392.93397
392.94712
393.03119
376.39349
376.36327
376.3077
359.78979
359.88843
359.81366
343.43063
343.56864
343.61089
327.11907
327.13181
327.25511
310.70566
310.6336
310.68395
294.11942
294.04553
294.21962
277.75251
277.65543
278.08193
261.53597
261.57218
261.67645
245.13746
245.35177
245.24688
228.91844
229.13276
229.29429
212.76573
212.84749
212.86734
196.30633
196.23789
196.13876
179.67217
179.6735
179.72014
163.06707
163.17326
163.19043
146.42331
146.35788
146.36353
129.65118
129.57774
129.58822
112.7584
112.88927
112.90375
96.151601
96.304468
96.345236
80.002814
80.072702
79.844561
63.796102
63.591975
63.350166
47.325307
46.98605
47.183823
31.129412
31.030821
31.178478
16.26305
16.174744
15.582232
4.2721993
3.6788673
1.576833
-0.55818926
-0.5089852
-0.4134555
-0.13769525
-0.1322831
-0.13625673
-0.014180306
-0.017964126
-0.030493573
-0.0058099471
-0.0079346223
-0.012874538
-0.0056639366
-0.007126577
-0.0096752791
-0.0068452006
-0.0077805872
-0.0092026557
-0.0078710485
-0.0083441769
-0.0090239326
-0.0077050489
-0.0079529461
-0.0083015385
-0.0069882789
-0.007091486
-0.0072347902
-0.0060582151
-0.0061030785
-0.0061662541
-0.0052773998
-0.0052964047
-0.0053236452
-0.0047739867
-0.0047784933
-0.004786824
-0.0044451183
-0.0044423873
-0.0044341586
-0.0042009958
-0.0041936785
-0.0041759274
-0.0039980944
-0.0039878614
-0.0039645145
-0.0038133401
-0.0038014305
-0.0037752071
-0.0036372107
-0.0036245211
-0.0035970698
-0.0034655179
-0.0034526664
-0.0034250439
-0.0032960352
-0.003283408
-0.0032563071
-0.0031274428
-0.0031152603
-0.0030891126
-0.0029588671
-0.0029472544
-0.0029223102
-0.0027898018
-0.0027788224
-0.002755211
-0.0026202278
-0.0026099085
-0.0025876879
-0.0024505961
-0.0024409412
-0.0024201246
-0.0022816947
-0.0022726963
-0.0022532716
-0.0021145059
-0.0021061494
-0.002088091
-0.0019500969
-0.0019423628
-0.0019256371
-0.0017895404
-0.0017824143
-0.0017669805
-0.0016338786
-0.001627336
-0.00161315
-0.0014840572
-0.0014780739
-0.0014650875
-0.0013409031
-0.0013354542
-0.0013236149
-0.0012051043
-0.0012001639
-0.0011894153
-0.0010772018
-0.001072744
-0.0010630266
-0.00095758629
-0.00095358607
-0.00094483954
-0.00084650635
-0.00084292577
-0.00083509927
-0.00074403038
-0.00074083618
-0.00073387312
-0.00065006714
-0.00064723786
-0.00064107959
-0.00056439752
-0.000561909
-0.00055649719
-0.00048667992
-0.00048450702
-0.00047978437
-0.00041647059
-0.00041458844
-0.00041049962
-0.000353243
-0.00035162779
-0.00034812027
-0.00029640451
-0.00029503403
-0.00029205894
-0.00024530889
-0.000244163
-0.00024167569
-0.00019926367
-0.00019832443
-0.00019628512
-0.00015752974
-0.00015678051
-0.00015515557
-0.00011932512
-0.00011875422
-0.00011751602
-8.3779702e-05
-8.3377675e-05
-8.2505304e-05
-4.9991529e-05
-4.9752183e-05
-4.923124e-05
-1.6723837e-05
-1.664436e-05
-1.6470274e-05
-1.3486683
-0.94391081
-0.33585608
-0.26001136
-0.1271016
-0.11298221
-0.036572948
-0.037318768
-0.015827772
-0.015131601
-0.011025865
-0.010306006
-0.0098010375
-0.0093295181
-0.0093332626
-0.009048034
-0.008559947
-0.0084307507
-0.007335601
-0.0072786545
-0.0061819556
-0.0061370175
-0.0053250094
-0.0052722637
-0.004785021
-0.0047311237
-0.0044124472
-0.0043622653
-0.0041439985
-0.0040923105
-0.0039273932
-0.0038746745
-0.003735422
-0.0036819903
-0.0035563086
-0.0035029696
-0.0033844176
-0.003331958
-0.0032165937
-0.0031656479
-0.0030508299
-0.0030018408
-0.0028857676
-0.0028390182
-0.0027205748
-0.0026762278
-0.0025550352
-0.0025131604
-0.0023894786
-0.0023501001
-0.0022246232
-0.0021877366
-0.0020614123
-0.0020269931
-0.0019008878
-0.0018688974
-0.0017441108
-0.0017144998
-0.0015921034
-0.0015648126
-0.0014458004
-0.0014207603
-0.0013060159
-0.0012831431
-0.0011734258
-0.0011526249
-0.0010485624
-0.0010297305
-0.00093181467
-0.00091484693
-0.00082343802
-0.00080823373
-0.00072349219
-0.00070994995
-0.00063189526
-0.00061991051
-0.00054842442
-0.00053788802
-0.00047273868
-0.00046354149
-0.00040439892
-0.00039643448
-0.00034288651
-0.00033605343
-0.0002876194
-0.00028182293
-0.00023796398
-0.00023311757
-0.00019324213
-0.00018926885
-0.00015273065
-0.00014956481
-0.00011566828
-0.00011325597
-8.1203269e-05
-7.9503285e-05
-4.8453465e-05
-4.7437377e-05
-1.6210201e-05
-1.5870307e-05
-0.0048601402
-0.0044856861
-0.0039534019
-0.0033708052
-0.0028019573
-0.0022625583
-0.0017587598
-0.0013077677
-0.00092805665
-0.00062949171
-0.00041161749
-0.00026370585
-0.00017202907
-0.00012357924
-0.00010996496
-0.00013110168
-0.00015185785
-0.00016393396
-0.00016631032
-0.0001597288
-0.00014560075
-0.00012497566
-9.8618129e-05
-6.6170639e-05
-2.4663532e-05
-0.0054497825
-0.0049667755
-0.0043703524
-0.0037526608
-0.0031767904
-0.0026521455
-0.0021814704
-0.0017855722
-0.0014780667
-0.0012554339
-0.0011048356
-0.0010049843
-0.00093878251
-0.00089265668
-0.00085340425
-0.00080296684
-0.00075184465
-0.00069267946
-0.00062478936
-0.00054670502
-0.00045978618
-0.00036600755
-0.00026698471
-0.0001615444
-4.8321528e-05
-0.010075729
-0.0096327427
-0.0090929629
-0.0085511976
-0.0081122364
-0.0078178523
-0.0076860274
-0.0076755101
-0.0076489229
-0.0075649297
-0.007413116
-0.0071825524
-0.0068780925
-0.0065082454
-0.0060761559
-0.0055863038
-0.0050529589
-0.0044882302
-0.0038950668
-0.0032787761
-0.0026520018
-0.0020234098
-0.0014016104
-0.0007954264
-0.00022263841
-0.026763211
-0.026298303
-0.026025097
-0.026000274
-0.026029991
-0.02592419
-0.0255791
-0.024941871
-0.024078845
-0.023023475
-0.021825105
-0.020500378
-0.019082864
-0.017588332
-0.016035953
-0.014444264
-0.012830636
-0.011208355
-0.0095882124
-0.0079820126
-0.0064162609
-0.0048860303
-0.003395272
-0.0019542404
-0.00059692229
-0.079344678
-0.077930628
-0.075792493
-0.071797217
-0.067453669
-0.062670753
-0.05781285
-0.052985531
-0.04824643
-0.043647007
-0.039343451
-0.035262583
-0.031393428
-0.02759278
-0.024079758
-0.020856052
-0.017903713
-0.015201434
-0.012724014
-0.010441408
-0.0083075837
-0.0063082535
-0.0044237492
-0.0026292302
-0.00090263359
-0.24551919
-0.19825302
-0.17400315
-0.14110705
-0.11426121
-0.09115142
-0.071719451
-0.055949372
-0.043309159
-0.03323507
-0.025169113
-0.018852869
-0.013938572
-0.010214208
-0.0072926266
-0.0050616736
-0.0033862096
-0.0021559996
-0.0012843402
-0.00070019941
-0.00033754606
-0.00014314962
-7.3266115e-05
-8.2914846e-05
-0.00017119525
-0.34876838
-0.13725483
-0.085043327
-0.047627237
-0.013919138
0.012733892
0.029656279
0.037983226
0.040952113
0.04110709
0.03975169
0.037460903
0.034603773
0.031455596
0.028209695
0.024985212
0.021851194
0.018842372
0.015969359
0.013227512
0.010604083
0.0080819646
0.0056359619
0.0032559737
0.00085653136
-0.21077892
-0.18030715
-0.15204272
-0.12520374
-0.10079952
-0.079640064
-0.062026465
-0.0478102
-0.036493826
-0.027555954
-0.020515689
-0.015030606
-0.010793449
-0.0075191639
-0.0050233907
-0.0031542797
-0.0017901839
-0.00082962925
-0.00019262535
0.00018591026
0.00036073557
0.00038039027
0.00028644373
0.00012305452
-0.00011239627
-0.1023906
-0.094235249
-0.086898543
-0.08004361
-0.073435565
-0.067073705
-0.061049255
-0.055342911
-0.04994918
-0.044899839
-0.040192617
-0.035682108
-0.031460658
-0.027584914
-0.024043878
-0.020811898
-0.017843903
-0.015122806
-0.012626802
-0.010330755
-0.0082082836
-0.0062322625
-0.0043765362
-0.0026103847
-0.0009073404
-0.036030786
-0.034858689
-0.034050262
-0.033484564
-0.032901039
-0.032121944
-0.031149324
-0.029961439
-0.028576611
-0.027030033
-0.025376003
-0.023642268
-0.02184529
-0.020002707
-0.01813149
-0.01624937
-0.014391089
-0.012556237
-0.010744924
-0.0089596308
-0.0072044289
-0.0054853575
-0.0038112264
-0.002194577
-0.00067149884
-0.013090853
-0.011476977
-0.010414331
-0.009936084
-0.009962476
-0.010195357
-0.010415211
-0.010542735
-0.010545764
-0.010413677
-0.010154896
-0.0097910151
-0.0093368112
-0.0087985284
-0.0081832842
-0.0075014387
-0.0067660896
-0.0059896436
-0.0051822196
-0.0043535871
-0.0035138825
-0.0026743019
-0.0018472461
-0.0010452491
-0.00029427761
-0.0086453149
-0.0069466395
-0.0054839393
-0.0042821112
-0.0033312632
-0.0027090622
-0.0023489954
-0.0021910173
-0.0021632526
-0.0021938852
-0.0022181748
-0.0022373374
-0.00226232
-0.0022463915
-0.0021774038
-0.0020666823
-0.0019186816
-0.0017401807
-0.0015372921
-0.0013161231
-0.0010823621
-0.00084124629
-0.00059693606
-0.00035037858
-0.00010196498
-0.0082038536
-0.0069057776
-0.0056866026
-0.0045652381
-0.0035448041
-0.0027162724
-0.0020849376
-0.001627988
-0.0013109972
-0.0010961211
-0.00094938575
-0.00084084917
-0.0007457896
-0.00067382571
-0.0006204842
-0.00057352249
-0.00052555173
-0.00047535061
-0.00042309589
-0.00036893352
-0.00031255143
-0.00025345846
-0.00019090509
-0.0001225792
-4.2886261e-05
-0.0082819768
-0.0072930107
-0.0062627277
-0.0052592191
-0.0043320563
-0.0035291697
-0.0028596611
-0.0023161968
-0.001887062
-0.0015594256
-0.0013326409
-0.0011586403
-0.0010024873
-0.00087190077
-0.00076666252
-0.00068023932
-0.00060516913
-0.00053432826
-0.00046532458
-0.00039677413
-0.00032759078
-0.00025726477
-0.00018599668
-0.00011392201
-4.0142215e-05
-0.0079239153
-0.0071759811
-0.0063715097
-0.005563267
-0.0047846365
-0.0040664227
-0.0034303967
-0.0028788325
-0.0024110355
-0.0020241331
-0.0017139781
-0.0014609271
-0.0012463079
-0.0010649359
-0.00091405758
-0.00078958187
-0.00068743527
-0.00059332945
-0.00050625546
-0.00042344511
-0.00034301864
-0.00026383734
-0.00018681201
-0.00011183505
-3.8301218e-05
-0.0070015084
-0.0065714849
-0.0059973489
-0.0053893434
-0.0047740916
-0.0041766188
-0.00361508
-0.0031025899
-0.0026453365
-0.0022465597
-0.0019057838
-0.0016140865
-0.0013636556
-0.0011501203
-0.00096962432
-0.00081663254
-0.00068621691
-0.00057346339
-0.00047542462
-0.0003880736
-0.00030839033
-0.00023491138
-0.00016554009
-9.8815164e-05
-3.3867057e-05
-0.0059750594
-0.0057100666
-0.0053576712
-0.0049156267
-0.0044520564
-0.003976493
-0.0035067872
-0.0030611233
-0.0026498152
-0.0022775052
-0.0019462784
-0.0016532196
-0.0013961631
-0.0011727245
-0.00098020791
-0.00081421849
-0.0006679907
-0.00054652153
-0.00044243845
-0.00035259396
-0.00027457276
-0.00020564983
-0.0001427928
-8.367959e-05
-2.7203602e-05
-0.0051612702
-0.0049836561
-0.0047426262
-0.0044475219
-0.0040959497
-0.003722278
-0.0033411239
-0.0029659838
-0.0026068598
-0.0022723272
-0.0019660044
-0.001688342
-0.0014390685
-0.0012171547
-0.0010214956
-0.00084999702
-0.00069997123
-0.00057113014
-0.00046030924
-0.0003648095
-0.00028202719
-0.00020935883
-0.00014431249
-8.4608936e-05
-2.8075412e-05
-0.0046419733
-0.0045094602
-0.0043271051
-0.0040937479
-0.0038182297
-0.0035184286
-0.0032066199
-0.002891953
-0.0025826946
-0.0022863466
-0.0020077315
-0.0017490629
-0.0015113946
-0.0012950078
-0.0010998317
-0.00092518145
-0.00076996858
-0.00063365149
-0.00051440784
-0.00041002687
-0.00031823044
-0.00023673016
-0.00016332974
-9.5641209e-05
-3.1327046e-05
-0.0042835642
-0.0041715589
-0.004022286
-0.003835413
-0.0036139779
-0.0033677338
-0.0031065699
-0.0028393861
-0.0025721957
-0.0023107013
-0.0020590283
-0.001820223
-0.0015961428
-0.0013877657
-0.0011957533
-0.0010202696
-0.00086105127
-0.00071783338
-0.00058953536
-0.00047460278
-0.00037132787
-0.00027794038
-0.00019276456
-0.00011280088
-3.5935906e-05
-0.0040199393
-0.0039216997
-0.003795121
-0.0036394488
-0.0034557909
-0.0032489675
-0.0030275351
-0.0027974644
-0.0025646476
-0.0023325475
-0.0021053661
-0.0018858429
-0.0016757164
-0.0014764289
-0.0012890366
-0.0011143203
-0.00095273545
-0.00080404255
-0.00066767905
-0.00054274722
-0.0004280518
-0.00032229869
-0.00022420245
-0.00013107063
-4.1707385e-05
-0.0038048884
-0.0037167239
-0.0036063055
-0.0034727517
-0.0033170939
-0.0031410834
-0.0029508084
-0.002751218
-0.0025463041
-0.0023398013
-0.002134397
-0.0019325375
-0.0017362197
-0.0015468989
-0.001365739
-0.001193725
-0.0010315201
-0.00087929681
-0.00073688449
-0.0006038097
-0.00047941764
-0.0003628132
-0.00025305162
-0.0001482238
-4.7634044e-05
-0.0036144434
-0.0035321947
-0.003432874
-0.0033155064
-0.0031809466
-0.0030304351
-0.0028655376
-0.0026910043
-0.0025101082
-0.0023255315
-0.0021395726
-0.0019542679
-0.0017713972
-0.0015924329
-0.0014185974
-0.0012509334
-0.001090175
-0.00093675601
-0.00079080574
-0.00065220842
-0.00052066387
-0.00039568985
-0.00027674073
-0.00016243423
-5.2353581e-05
-0.0034373625
-0.0033593157
-0.0032679439
-0.0031626212
-0.0030437209
-0.002912542
-0.0027691759
-0.0026154848
-0.0024547489
-0.0022891248
-0.0021204465
-0.0019503571
-0.0017803672
-0.0016118638
-0.0014461292
-0.0012841183
-0.0011266045
-0.00097415305
-0.00082711651
-0.00068564833
-0.00054972708
-0.00041919574
-0.00029386972
-0.00017276751
-5.5677186e-05
-0.0032684637
-0.0031942471
-0.0031091791
-0.0030131017
-0.0029062005
-0.0027891273
-0.0026624646
-0.0025264429
-0.0023825528
-0.002233041
-0.0020793709
-0.0019229887
-0.0017651322
-0.0016070309
-0.0014497982
-0.0012943392
-0.0011414657
-0.0009918039
-0.00084584709
-0.00070394166
-0.00056629012
-0.00043295804
-0.00030402967
-0.00017895609
-5.7657749e-05
-0.0031045625
-0.003034009
-0.0029543279
-0.0028656474
-0.0027681217
-0.0026620463
-0.0025477932
-0.0024257401
-0.0022962462
-0.0021604359
-0.0020198053
-0.0018756213
-0.0017289135
-0.0015808072
-0.0014322043
-0.001283955
-0.0011367786
-0.00099140344
-0.00084839008
-0.00070819453
-0.00057118336
-0.00043757872
-0.00030772045
-0.00018122061
-5.8346332e-05
-0.0029433855
-0.0028763853
-0.0028014503
-0.0027188895
-0.0026288845
-0.0025315759
-0.002427149
-0.0023158393
-0.0021980327
-0.0020741136
-0.0019450528
-0.0018117889
-0.0016753565
-0.0015367146
-0.0013966265
-0.0012558926
-0.0011152728
-0.00097539676
-0.00083685946
-0.00070017722
-0.00056577687
-0.00043409065
-0.00030557592
-0.00018012851
-5.8004734e-05
-0.0027833425
-0.0027197777
-0.0026491182
-0.0025717789
-0.0024879978
-0.0023978824
-0.0023015294
-0.0021990555
-0.0020906944
-0.0019768349
-0.0018579224
-0.0017346547
-0.0016079126
-0.0014782991
-0.0013466317
-0.0012136646
-0.0010801376
-0.00094661436
-0.00081368743
-0.00068191322
-0.00055180927
-0.00042387549
-0.00029863336
-0.0001760924
-5.6596189e-05
-0.0026234251
-0.0025632267
-0.0024965087
-0.0024237874
-0.002345354
-0.0022613551
-0.0021718445
-0.0020769052
-0.0019766749
-0.0018713918
-0.0017613657
-0.0016471471
-0.00152937
-0.0014085476
-0.0012853528
-0.0011604135
-0.0010343181
-0.00090775458
-0.00078132348
-0.00065558486
-0.00053108542
-0.00040834103
-0.00028795994
-0.00016975292
-5.4363592e-05
-0.0024632561
-0.0024063801
-0.0023433981
-0.0022749149
-0.0022012736
-0.0021226628
-0.0020391518
-0.0019508404
-0.0018578072
-0.0017602093
-0.0016581143
-0.0015521018
-0.0014426086
-0.0013302471
-0.0012153241
-0.0010984406
-0.0009801439
-0.00086110261
-0.0007418981
-0.00062306873
-0.00050513144
-0.00038859412
-0.00027410255
-0.00016170128
-5.1842395e-05
-0.0023030984
-0.0022494939
-0.002190126
-0.0021256438
-0.0020564393
-0.0019827457
-0.0019046855
-0.0018223559
-0.0017358475
-0.0016454276
-0.0015504647
-0.0014520884
-0.0013504657
-0.0012459947
-0.0011392889
-0.0010303774
-0.00092004504
-0.00080885927
-0.00069731788
-0.00058593468
-0.00047522177
-0.00036567548
-0.00025803655
-0.00015226346
-4.8760222e-05
-0.0021436276
-0.0020932561
-0.0020374365
-0.001976804
-0.0019118173
-0.0018427457
-0.0017697467
-0.0016929242
-0.0016123036
-0.0015278647
-0.0014403064
-0.0013492824
-0.0012551868
-0.0011583778
-0.0010592322
-0.00095845523
-0.00085631226
-0.00075314784
-0.00064951428
-0.0005459622
-0.00044296746
-0.00034101761
-0.00024062474
-0.00014204589
-4.5446873e-05
-0.0019857537
-0.0019385816
-0.0018862555
-0.0018293945
-0.0017684994
-0.0017038728
-0.0016357178
-0.0015641007
-0.0014891389
-0.0014109193
-0.0013297726
-0.001245646
-0.0011587832
-0.0010694871
-0.00097810941
-0.00088510689
-0.00079081595
-0.00069566668
-0.00060008385
-0.00050450897
-0.0004093996
-0.00031520815
-0.00022255838
-0.00013132385
-4.2047437e-05
-0.001830494
-0.0017864891
-0.0017376142
-0.0016844836
-0.0016275878
-0.0015672694
-0.001503757
-0.0014371867
-0.0013676715
-0.0012953176
-0.0012203708
-0.0011428323
-0.0010629126
-0.0009808637
-0.00089698926
-0.00081163742
-0.00072514886
-0.00063790474
-0.00055028488
-0.00046267663
-0.00037550809
-0.00028914974
-0.00020420172
-0.0001205745
-3.8479521e-05
-0.0016788896
-0.0016380189
-0.0015925637
-0.0015431198
-0.0014901525
-0.0014340542
-0.0013750794
-0.0013133967
-0.0012491349
-0.0011824076
-0.0011134402
-0.0010422272
-0.00096897254
-0.00089389447
-0.00081725174
-0.00073933446
-0.00066045189
-0.00058093497
-0.00050112448
-0.00042137362
-0.00034205561
-0.00026350375
-0.00018638652
-0.00011014647
-3.4802552e-05
-0.0015319418
-0.0014941631
-0.0014521002
-0.0014062728
-0.0013571787
-0.001305228
-0.0012506943
-0.0011937677
-0.0011345962
-0.0010733101
-0.0010100813
-0.00094495545
-0.00087809887
-0.00080971145
-0.00074001309
-0.00066925259
-0.00059770168
-0.00052565141
-0.00045340526
-0.0003812806
-0.00030960809
-0.00023870163
-0.00016948146
-0.00010026819
-3.09712e-05
-0.0013905632
-0.0013558252
-0.001317131
-0.0012747998
-0.0012295286
-0.0011816578
-0.0011314666
-0.001079171
-0.0010249301
-0.00096887861
-0.0009111479
-0.00085189281
-0.00079116903
-0.00072918337
-0.00066611995
-0.00060219793
-0.00053765305
-0.00047273892
-0.00040772332
-0.00034288672
-0.00027851953
-0.00021486572
-0.0001537178
-9.1054136e-05
-2.6868964e-05
-0.0012555305
-0.0012237378
-0.001188305
-0.00114946
-0.0011079339
-0.0010640552
-0.0010181035
-0.00097030325
-0.00092082641
-0.0008698115
-0.00081738755
-0.00076369015
-0.0007088142
-0.00065293244
-0.00059617404
-0.00053873958
-0.0004808318
-0.00042266918
-0.00036448478
-0.0003065183
-0.00024900684
-0.00019183627
-0.0001384256
-8.1281596e-05
-2.3593726e-05
-0.0011274871
-0.0010985111
-0.0010661639
-0.0010308144
-0.00099296944
-0.00095298177
-0.00091114424
-0.00086769243
-0.00082279808
-0.00077660823
-0.00072925146
-0.00068084536
-0.00063150352
-0.00058138005
-0.00053057088
-0.0004792444
-0.00042756886
-0.00037573623
-0.00032394275
-0.00027239134
-0.00022128959
-0.00017076396
-0.00012193673
-7.168931e-05
-2.1192837e-05
-0.0010069507
-0.00098066604
-0.00095133343
-0.00091935868
-0.00088508379
-0.00084885198
-0.0008109816
-0.00077170232
-0.00073119152
-0.00068960003
-0.00064705257
-0.00060366049
-0.00055953268
-0.00051478998
-0.00046954534
-0.00042392429
-0.00037805334
-0.00033210416
-0.00028623654
-0.00024061195
-0.00019539438
-0.00015069621
-0.00010711348
-6.2955998e-05
-1.8739576e-05
-0.00089430861
-0.00087056436
-0.00084401963
-0.0008154201
-0.00078455103
-0.00075192654
-0.00071785155
-0.00068255271
-0.00064621027
-0.00060896961
-0.00057095556
-0.00053227355
-0.00049302278
-0.00045330337
-0.00041321682
-0.00037286165
-0.00033236872
-0.00029184924
-0.00025143776
-0.00021125919
-0.00017144936
-0.00013210807
-9.3569859e-05
-5.5045314e-05
-1.6552195e-05
-0.00078981053
-0.00076851521
-0.00074473564
-0.00071909251
-0.00069153077
-0.00066233095
-0.00063185827
-0.00060032761
-0.00056791506
-0.00053476417
-0.00050099271
-0.00046670179
-0.00043198084
-0.00039691556
-0.00036159153
-0.00032609501
-0.00029052772
-0.00025498261
-0.00021956066
-0.00018437588
-0.00014952396
-0.0001151023
-8.1407378e-05
-4.7878319e-05
-1.4499502e-05
-0.00069353446
-0.00067455694
-0.00065335317
-0.0006302797
-0.00060595111
-0.00058002927
-0.0005529681
-0.00052498176
-0.00049624886
-0.00046691325
-0.00043708629
-0.0004068623
-0.00037632239
-0.00034554081
-0.00031458988
-0.00028353999
-0.00025247208
-0.00022146329
-0.00019059605
-0.00015996054
-0.00012964195
-9.9734968e-05
-7.0501108e-05
-4.1459905e-05
-1.2584643e-05
-0.00060537836
-0.00058857755
-0.00056980157
-0.00054934626
-0.0005275052
-0.00050478488
-0.00048102725
-0.00045635769
-0.00043104646
-0.0004052497
-0.00037906692
-0.00035258793
-0.00032588539
-0.00029902312
-0.00027206224
-0.000245061
-0.00021808331
-0.00019119288
-0.00016445734
-0.00013794915
-0.00011174523
-8.5932519e-05
-6.0726934e-05
-3.5710527e-05
-1.0846852e-05
-0.00052511036
-0.0005103374
-0.00049382864
-0.00047584639
-0.00045664887
-0.00043649215
-0.0004155914
-0.00039418026
-0.00037204171
-0.00034952207
-0.00032668701
-0.00030363929
-0.00028044134
-0.00025714588
-0.00023380736
-0.00021047317
-0.00018719442
-0.00016402308
-0.00014101427
-0.00011822765
-9.5729197e-05
-7.3594351e-05
-5.1994395e-05
-3.0574342e-05
-9.2876335e-06
-0.00045238692
-0.00043949038
-0.0004250796
-0.0004093848
-0.00039262889
-0.00037501757
-0.00035672044
-0.00033786867
-0.00031879066
-0.00029940407
-0.00027962521
-0.00025971418
-0.00023970712
-0.00021964062
-0.00019957727
-0.0001795492
-0.00015959879
-0.00013976882
-0.00012010344
-0.00010065147
-8.1467251e-05
-6.2612841e-05
-4.4223674e-05
-2.6004864e-05
-7.8971837e-06
-0.00038677437
-0.00037560573
-0.00036312663
-0.00034953733
-0.00033503121
-0.00031978703
-0.0003039623
-0.00028769068
-0.00027111733
-0.00025427383
-0.00023741233
-0.00022044411
-0.00020335096
-0.00018619102
-0.00016908565
-0.00015202643
-0.0001350574
-0.00011821643
-0.00010153666
-8.5055135e-05
-6.8819354e-05
-5.2877716e-05
-3.7336478e-05
-2.1954648e-05
-6.6643764e-06
-0.00032776523
-0.00031818283
-0.000307477
-0.00029582063
-0.00028338139
-0.0002703152
-0.00025676104
-0.00024284147
-0.00022866527
-0.00021430789
-0.00019986199
-0.00018533119
-0.00017083376
-0.00015640898
-0.00014201595
-0.00012761186
-0.00011330289
-9.9129811e-05
-8.5109956e-05
-7.126573e-05
-5.7640612e-05
-4.4274021e-05
-3.1250089e-05
-1.8374406e-05
-5.5747228e-06
-0.00027479206
-0.00026666364
-0.00025758318
-0.0002476984
-0.00023715307
-0.00022608159
-0.00021460608
-0.00020283223
-0.00019085224
-0.00017873876
-0.00016655769
-0.00015434324
-0.00014214641
-0.00012999306
-0.00011787151
-0.00010590319
-9.402451e-05
-8.2252326e-05
-7.0610171e-05
-5.9097869e-05
-4.778036e-05
-3.6685907e-05
-2.5884006e-05
-1.5219247e-05
-4.6173461e-06
-0.00022723917
-0.00022044375
-0.00021285336
-0.00020459245
-0.00019578237
-0.00018653716
-0.00017696033
-0.00016714511
-0.00015716736
-0.00014709147
-0.00013697028
-0.00012684114
-0.00011673786
-0.00010668311
-9.6691342e-05
-8.6798162e-05
-7.6999837e-05
-6.7299934e-05
-5.7723082e-05
-4.8317877e-05
-3.9068276e-05
-2.9994078e-05
-2.1156773e-05
-1.2438912e-05
-3.768795e-06
-0.00018444958
-0.00017887933
-0.00017265808
-0.00016588886
-0.00015867192
-0.00015110212
-0.00014326577
-0.00013524008
-0.0001270894
-0.00011886764
-0.00011061826
-0.00010237439
-9.4162473e-05
-8.6001607e-05
-7.7906738e-05
-6.9893706e-05
-6.1970995e-05
-5.4143573e-05
-4.6427123e-05
-3.8841528e-05
-3.1392683e-05
-2.4093547e-05
-1.6990614e-05
-9.9882296e-06
-3.0244868e-06
-0.00014572481
-0.00014128663
-0.00013633001
-0.00013093839
-0.00012519181
-0.00011916664
-0.00011293267
-0.00010655183
-0.0001000768
-9.3551327e-05
-8.7010657e-05
-8.0482017e-05
-7.3986365e-05
-6.7539171e-05
-6.1152427e-05
-5.4836282e-05
-4.8598523e-05
-4.2444871e-05
-3.6385123e-05
-3.0429947e-05
-2.4587569e-05
-1.886765e-05
-1.3305092e-05
-7.8217371e-06
-2.3643471e-06
-0.00011033012
-0.00010694721
-0.00010316932
-9.9060651e-05
-9.468248e-05
-9.009367e-05
-8.5347661e-05
-8.049202e-05
-7.5567635e-05
-7.0608567e-05
-6.564196e-05
-6.068905e-05
-5.5765835e-05
-5.0884227e-05
-4.605319e-05
-4.1279988e-05
-3.6570106e-05
-3.1929463e-05
-2.736363e-05
-2.2879918e-05
-1.8484946e-05
-1.4184823e-05
-1.0008847e-05
-5.8852672e-06
-1.7700642e-06
-7.7441096e-05
-7.505665e-05
-7.2393567e-05
-6.9495969e-05
-6.6408772e-05
-6.3174093e-05
-5.982934e-05
-5.6408317e-05
-5.2940291e-05
-4.9449529e-05
-4.5955536e-05
-4.2473366e-05
-3.9014422e-05
-3.5587143e-05
-3.219783e-05
-2.8851412e-05
-2.555183e-05
-2.2303253e-05
-1.9109669e-05
-1.5976009e-05
-1.2907527e-05
-9.9096533e-06
-7.0021212e-06
-4.1186444e-06
-1.2276269e-06
-4.6204671e-05
-4.4779398e-05
-4.3187363e-05
-4.1454358e-05
-3.960723e-05
-3.7671333e-05
-3.5669868e-05
-3.362332e-05
-3.1549252e-05
-2.9462216e-05
-2.7373929e-05
-2.5293507e-05
-2.3227811e-05
-2.1181948e-05
-1.9159739e-05
-1.7164093e-05
-1.5197429e-05
-1.3262177e-05
-1.1360988e-05
-9.4970415e-06
-7.6741213e-06
-5.8960502e-06
-4.1824105e-06
-2.4607087e-06
-7.1782333e-07
-1.5457687e-05
-1.4980762e-05
-1.444796e-05
-1.3868506e-05
-1.3246275e-05
-1.2600492e-05
-1.1929186e-05
-1.1243309e-05
-1.0548485e-05
-9.8494726e-06
-9.1501696e-06
-8.4536272e-06
-7.7621481e-06
-7.0774636e-06
-6.4007955e-06
-5.7331571e-06
-5.0754091e-06
-4.4283317e-06
-3.7928387e-06
-3.1701882e-06
-2.562153e-06
-1.9670016e-06
-1.4237286e-06
-8.3271303e-07
-2.1863275e-07
)
;

boundaryField
{
    Walls
    {
        type            zeroGradient;
    }
    Inlet
    {
        type            fixedValue;
        value           uniform 500;
    }
    Outlet
    {
        type            fixedValue;
        value           uniform 0;
    }
    Front
    {
        type            wedge;
    }
    Back
    {
        type            wedge;
    }
    defaultFaces
    {
        type            empty;
    }
}


// ************************************************************************* //
