/*--------------------------------*- C++ -*----------------------------------*\
| =========                 |                                                 |
| \\      /  F ield         | OpenFOAM: The Open Source CFD Toolbox           |
|  \\    /   O peration     | Version:  4.0                                   |
|   \\  /    A nd           | Web:      www.OpenFOAM.org                      |
|    \\/     M anipulation  |                                                 |
\*---------------------------------------------------------------------------*/
FoamFile
{
    version     2.0;
    format      ascii;
    class       volScalarField;
    location    "0.65";
    object      k;
}
// * * * * * * * * * * * * * * * * * * * * * * * * * * * * * * * * * * * * * //

dimensions      [0 2 -2 0 0 0 0];

internalField   nonuniform List<scalar> 
1740
(
0.0086722236
0.0090712384
0.018515522
0.0090688307
0.0099379381
0.027524508
0.0094185111
0.010523305
0.0345171
0.0096318825
0.010742082
0.041311779
0.0098122647
0.010993556
0.047386798
0.0099634521
0.01127357
0.051569355
0.010051376
0.011471021
0.055893631
0.010119394
0.011872475
0.059776639
0.010159729
0.012338378
0.062363719
0.010151601
0.012641126
0.064587062
0.010051383
0.012988988
0.066361228
0.0099944769
0.0131363
0.067890523
0.0099451618
0.013526017
0.069157867
0.009859028
0.013947339
0.069858847
0.0097271409
0.013876669
0.070405106
0.0095989978
0.013701858
0.071360235
0.0094871114
0.013966537
0.072098976
0.009417143
0.01424248
0.072639193
0.0092532437
0.014294727
0.072464889
0.0091070325
0.014250156
0.072728868
0.0089740373
0.014481778
0.073138304
0.0089116735
0.014720607
0.072897555
0.008842261
0.014480916
0.072898396
0.0087229686
0.014459478
0.072878576
0.0085778724
0.014529378
0.073195273
0.0085419807
0.014748771
0.07334395
0.0084758331
0.015177062
0.073266156
0.008438358
0.015584358
0.072628958
0.008396652
0.015421299
0.071582523
0.0090272651
0.016307639
0.066506175
0.012759297
0.018204314
0.047230935
0.023927874
0.031225623
0.039850226
0.010276432
0.012541851
0.01374079
0.004271433
0.0046021185
0.0046611827
0.0020754202
0.0021178814
0.0020911907
0.0011403384
0.0011415567
0.001123879
0.00069016095
0.00068787685
0.00068027325
0.00045046749
0.00044927269
0.00044683222
0.000311402
0.00031114363
0.00031094405
0.00022460482
0.00022479085
0.00022542898
0.00016690665
0.00016724279
0.00016809927
0.00012642393
0.0001267732
0.00012759704
9.6731835e-05
9.7040481e-05
9.7744557e-05
7.4207135e-05
7.445975e-05
7.5026222e-05
5.672805e-05
5.6925364e-05
5.7363741e-05
4.3002794e-05
4.3151617e-05
4.3480534e-05
3.2205368e-05
3.2314212e-05
3.255403e-05
2.3769993e-05
2.3847248e-05
2.4017135e-05
1.7272813e-05
1.7326013e-05
1.7442847e-05
1.2366033e-05
1.240157e-05
1.2479532e-05
8.7458283e-06
8.7688631e-06
8.8193515e-06
6.1415086e-06
6.1559976e-06
6.1877508e-06
4.3168895e-06
4.3257623e-06
4.3452112e-06
3.0739293e-06
3.0792611e-06
3.0909374e-06
2.2511082e-06
2.2542764e-06
2.2612047e-06
1.722219e-06
1.7241017e-06
1.7282149e-06
1.3935744e-06
1.3947155e-06
1.3972066e-06
1.1980598e-06
1.1987838e-06
1.2003639e-06
1.0889899e-06
1.0894837e-06
1.0905612e-06
1.0347251e-06
1.0350921e-06
1.0358934e-06
1.0143059e-06
1.0146017e-06
1.0152478e-06
1.0141097e-06
1.0143629e-06
1.0149163e-06
1.0253983e-06
1.0256232e-06
1.0261149e-06
1.042581e-06
1.0427847e-06
1.0432298e-06
1.0620176e-06
1.0622035e-06
1.0626096e-06
1.0812093e-06
1.0813794e-06
1.0817506e-06
1.0982579e-06
1.0984133e-06
1.0987524e-06
1.1115052e-06
1.111647e-06
1.1119562e-06
1.1192918e-06
1.119421e-06
1.1197022e-06
1.1197952e-06
1.1199126e-06
1.1201679e-06
1.1109263e-06
1.1110327e-06
1.1112639e-06
1.0902779e-06
1.090374e-06
1.0905827e-06
1.055134e-06
1.0552206e-06
1.0554082e-06
1.002553e-06
1.0026304e-06
1.0027981e-06
9.2957004e-07
9.2963866e-07
9.2978708e-07
8.3354413e-07
8.3360392e-07
8.3373302e-07
7.1265908e-07
7.1270941e-07
7.128174e-07
5.6654736e-07
5.6658623e-07
5.6666749e-07
3.9696015e-07
3.9698419e-07
3.9702912e-07
2.0909864e-07
2.0910711e-07
2.0911564e-07
0.056182879
0.060918561
0.04618358
0.046681312
0.012499351
0.011365193
0.0043569443
0.0041257044
0.0020004956
0.0019415977
0.0010948638
0.0010800693
0.00067173874
0.00067021702
0.00044536393
0.00044767769
0.00031185309
0.00031497132
0.00022699245
0.00022993883
0.00016967956
0.0001721787
0.00012897676
0.00013099463
9.8871719e-05
0.00010045506
7.591177e-05
7.7128288e-05
5.8039906e-05
5.8956803e-05
4.3983891e-05
4.4661108e-05
3.2919278e-05
3.3408252e-05
2.427508e-05
2.4619269e-05
1.7619861e-05
1.7855506e-05
1.2597461e-05
1.2754164e-05
8.8956225e-06
8.9968135e-06
6.2356804e-06
6.2991881e-06
4.3745481e-06
4.4133688e-06
3.1085263e-06
3.1317603e-06
2.2716238e-06
2.2853591e-06
1.734391e-06
1.7425159e-06
1.4009425e-06
1.4058481e-06
1.2027312e-06
1.2058355e-06
1.092175e-06
1.0942896e-06
1.0370938e-06
1.0386668e-06
1.0162163e-06
1.0174857e-06
1.0157459e-06
1.0168336e-06
1.0268519e-06
1.027818e-06
1.0438968e-06
1.0447702e-06
1.0632177e-06
1.0640129e-06
1.0823058e-06
1.0830306e-06
1.0992588e-06
1.0999185e-06
1.1124172e-06
1.1130162e-06
1.1201209e-06
1.1206635e-06
1.1205472e-06
1.1210372e-06
1.1116066e-06
1.1120479e-06
1.0908915e-06
1.0912875e-06
1.0556851e-06
1.0560389e-06
1.003045e-06
1.0033591e-06
9.3000498e-07
9.3028101e-07
8.3392183e-07
8.3415976e-07
7.1297362e-07
7.1316893e-07
5.6677984e-07
5.6691736e-07
3.9707832e-07
3.9712333e-07
2.0909526e-07
2.0821755e-07
4.5691869e-06
2.6994887e-05
0.00013441868
0.00030495667
0.00046216375
0.00057311654
0.00064341601
0.00068705218
0.00071579687
0.00073677981
0.00075404431
0.00077061939
0.00078615203
0.00080040335
0.00081306371
0.00082358362
0.00083097884
0.0008335816
0.00082867129
0.00081196254
0.00077689888
0.00071379374
0.00060917636
0.00044606651
0.0002033707
2.5449323e-06
5.4757006e-05
0.00025106934
0.00051591967
0.00072780162
0.00085928053
0.00093519827
0.00097970232
0.0010082215
0.0010287871
0.0010456505
0.0010613514
0.0010757533
0.0010885896
0.0010994669
0.0011077627
0.0011123442
0.0011112937
0.0011014078
0.0010775556
0.0010317301
0.00095166284
0.00081908383
0.0006084601
0.00028836698
7.956749e-06
0.00016002249
0.00061618501
0.0010799911
0.0013629186
0.0015055567
0.0015729328
0.0016044389
0.0016200571
0.001628254
0.0016334169
0.0016364657
0.0016386098
0.0016391995
0.0016377457
0.001633776
0.0016262298
0.0016133067
0.0015915854
0.0015554585
0.001495891
0.0013981578
0.0012375442
0.0009710921
0.00052306647
3.7657253e-05
0.00057986561
0.0016868331
0.0024378526
0.0027743192
0.0028878636
0.0028969545
0.0028665342
0.002826353
0.002781356
0.0027366266
0.0026940505
0.0026541295
0.0026136796
0.0025721758
0.0025300277
0.0024867328
0.0024408581
0.0023896487
0.0023283158
0.0022489346
0.0021382063
0.0019717879
0.0016967026
0.0011558747
0.00028171825
0.0024503149
0.0049195728
0.0060402146
0.0063857186
0.0063233074
0.0060933969
0.0058299578
0.0055800343
0.0053288454
0.0050883231
0.0048637786
0.0046601592
0.0044627744
0.0042712146
0.0040901463
0.0039204784
0.003761617
0.0036117437
0.0034673448
0.0033227343
0.0031696375
0.002997013
0.0027964822
0.0025863862
0.0023653497
0.010544327
0.016596953
0.018545801
0.018082394
0.016522377
0.014704668
0.013014421
0.011531174
0.010253787
0.0091614002
0.0082312658
0.0074379378
0.0067576343
0.0061727573
0.0056700014
0.0052379851
0.0048663738
0.0045457442
0.0042672387
0.0040219757
0.0038009437
0.003595508
0.0034049403
0.0032446562
0.045059015
0.034184861
0.026663423
0.021477231
0.01780161
0.015082261
0.012984406
0.011322969
0.0099890562
0.0089061419
0.0080154792
0.0072721691
0.006642545
0.0061020406
0.0056329282
0.0052228776
0.0048632944
0.0045476592
0.004270449
0.0040263953
0.0038098736
0.0036148649
0.0034356005
0.0032734013
0.0031434143
0.037340598
0.031030285
0.027810809
0.025169042
0.022287282
0.019305428
0.016583179
0.0142821
0.01239972
0.010858037
0.0095870491
0.0085297955
0.0076428247
0.0068963727
0.006266699
0.005734334
0.0052829358
0.0048987758
0.0045700912
0.0042863187
0.0040373474
0.0038133449
0.0036051144
0.0034117917
0.0032492377
0.010227483
0.0095524782
0.009210986
0.0088894654
0.0084260374
0.007860465
0.0073033466
0.0068067643
0.0063555948
0.0059574356
0.0056092298
0.0053049018
0.0050191821
0.0047551862
0.0045143355
0.0042958933
0.0040977416
0.0039169612
0.003749622
0.0035906473
0.0034332743
0.0032685202
0.0030848891
0.002873815
0.0026539018
0.0039678729
0.0038945962
0.0038720144
0.0038311271
0.0037367494
0.0036019376
0.0034625954
0.0033335163
0.0032172379
0.0031158998
0.0030285267
0.002951992
0.0028807153
0.0028141241
0.0027520274
0.0026935745
0.0026370699
0.0025798873
0.0025182167
0.002446532
0.0023564985
0.0022346874
0.0020567387
0.0017689448
0.0012088738
0.0019247654
0.0019384597
0.0019638065
0.0019788531
0.0019726809
0.0019488374
0.0019183066
0.0018880482
0.0018611232
0.0018388382
0.0018209813
0.0018062932
0.001793095
0.0017807156
0.0017687644
0.0017560016
0.0017405236
0.0017195119
0.0016888816
0.0016426481
0.0015717512
0.001461806
0.0012886109
0.001009238
0.00054625142
0.0010849071
0.0011037645
0.0011277592
0.0011481864
0.0011605501
0.0011656339
0.0011670222
0.0011677115
0.0011694339
0.0011729288
0.0011781443
0.0011844947
0.0011911752
0.0011974819
0.0012026271
0.0012053688
0.0012038578
0.0011954428
0.0011763843
0.0011413913
0.0010828694
0.00098972885
0.00084564122
0.0006271547
0.00030343307
0.00067794945
0.00069265558
0.00071034524
0.0007272088
0.00074115474
0.00075214301
0.00076139664
0.00077021849
0.000779494
0.00078963854
0.00080064302
0.00081218514
0.00082375532
0.0008347293
0.00084428045
0.00085122638
0.00085391676
0.00085009404
0.00083671983
0.00080974476
0.00076382361
0.00069201343
0.00058556486
0.00043367339
0.0002188622
0.00045469793
0.0004654532
0.00047813352
0.00049097783
0.00050292329
0.00051377641
0.00052393423
0.00053394836
0.00054424579
0.00055503411
0.00056628748
0.0005777805
0.00058912589
0.00059978401
0.00060901665
0.00061581104
0.00061880717
0.00061622406
0.00060579136
0.00058471032
0.00054971429
0.00049742462
0.00042555242
0.00033668968
0.00024975574
0.00032067548
0.00032853868
0.00033771444
0.00034734823
0.00035687265
0.0003661082
0.00037516215
0.00038425106
0.00039356034
0.00040317023
0.0004130277
0.00042294453
0.00043260147
0.00044154099
0.00044913845
0.00045456227
0.00045673681
0.00045431596
0.00044568395
0.00042901932
0.0004025037
0.00036485908
0.00031663369
0.00026317913
0.0002206491
0.00023442181
0.00024024094
0.00024698505
0.00025422215
0.00026163903
0.00026909945
0.00027660752
0.00028423321
0.00029203973
0.00030003479
0.00030814393
0.00031619891
0.00032392949
0.00033095264
0.00033675449
0.00034067014
0.00034186917
0.0003393554
0.00033199656
0.00031861038
0.00029815594
0.00027011792
0.00023524639
0.00019697199
0.00016174268
0.00017565573
0.00018000946
0.00018503154
0.00019049382
0.00019621784
0.00020210488
0.0002081265
0.00021428872
0.00022059508
0.00022701568
0.00023346628
0.00023979556
0.00024577478
0.00025108749
0.00025531883
0.00025794601
0.00025833519
0.00025575099
0.00024938682
0.00023842625
0.00022214238
0.00020001719
0.00017174918
0.00013652131
8.7606461e-05
0.00013367044
0.00013694787
0.00014071648
0.00014485043
0.00014924336
0.00015382581
0.00015856085
0.00016342894
0.00016840663
0.00017344765
0.00017846784
0.00018333394
0.00018785436
0.00019177153
0.00019475515
0.00019639831
0.00019621861
0.00019366812
0.00018815387
0.0001790681
0.00016581553
0.000147794
0.00012420016
9.3285408e-05
5.0026731e-05
0.00010249833
0.00010496763
0.00010780084
0.0001109255
0.00011427578
0.00011780211
0.00012146935
0.00012524918
0.00012910844
0.00013299703
0.00013683714
0.00014051465
0.00014387199
0.0001467025
0.00014874628
0.00014968874
0.00014916282
0.00014675618
0.0001420227
0.00013449419
0.00012368002
0.00010902922
8.9811796e-05
6.4846822e-05
3.1952728e-05
7.8673404e-05
8.052537e-05
8.264725e-05
8.4995299e-05
8.7527405e-05
9.0207715e-05
9.300597e-05
9.5893411e-05
9.8835839e-05
0.00010178591
0.00010467574
0.00010741054
0.00010986335
0.00011187088
0.00011323104
0.00011370244
0.00011300633
0.0001108315
0.00010684081
0.00010067682
9.1960956e-05
8.0281531e-05
6.5176147e-05
4.6141414e-05
2.2619742e-05
6.0110165e-05
6.1485509e-05
6.3059929e-05
6.4805874e-05
6.6695416e-05
6.8702468e-05
7.0802406e-05
7.2969538e-05
7.5172878e-05
7.7371242e-05
7.9508017e-05
8.1506803e-05
8.3267507e-05
8.4663467e-05
8.5539726e-05
8.5712959e-05
8.4973011e-05
8.3086379e-05
7.9801029e-05
7.4851835e-05
6.7966836e-05
5.8879131e-05
4.7359574e-05
3.3294935e-05
1.6805478e-05
4.5507809e-05
4.6514193e-05
4.7665449e-05
4.894379e-05
5.0330205e-05
5.1805697e-05
5.3350942e-05
5.494461e-05
5.6560698e-05
5.8165324e-05
5.97133e-05
6.1144874e-05
6.2383042e-05
6.3331553e-05
6.3873673e-05
6.3872192e-05
6.3170692e-05
6.1596309e-05
5.8964064e-05
5.5083343e-05
4.97689e-05
4.2862851e-05
3.4276944e-05
2.4054545e-05
1.2490007e-05
3.4017204e-05
3.4739358e-05
3.5564957e-05
3.6482232e-05
3.7478116e-05
3.8538889e-05
3.964978e-05
4.0794015e-05
4.1950926e-05
4.309398e-05
4.4188397e-05
4.5188945e-05
4.6038023e-05
4.6664177e-05
4.6981313e-05
4.6888706e-05
4.6271989e-05
4.5005499e-05
4.2956272e-05
3.9990719e-05
3.5986416e-05
3.0853726e-05
2.4570412e-05
1.7216292e-05
9.0131366e-06
2.5046772e-05
2.5552841e-05
2.6131004e-05
2.6773334e-05
2.7470853e-05
2.8213761e-05
2.8991132e-05
2.9790247e-05
3.0595471e-05
3.1386859e-05
3.2138622e-05
3.2817613e-05
3.3381968e-05
3.3780081e-05
3.3950003e-05
3.3819456e-05
3.3306617e-05
3.232204e-05
3.0772122e-05
2.8565011e-05
2.5620657e-05
2.1887507e-05
1.7365354e-05
1.2119259e-05
6.2923807e-06
1.8147596e-05
1.8492847e-05
1.8886887e-05
1.9324392e-05
1.9799213e-05
2.0304447e-05
2.0832239e-05
2.1373321e-05
2.19163e-05
2.2446748e-05
2.2946217e-05
2.3391176e-05
2.3752123e-05
2.3992829e-05
2.4069886e-05
2.393272e-05
2.3524177e-05
2.2782001e-05
2.1641618e-05
2.0040818e-05
1.7927321e-05
1.5270259e-05
1.2074023e-05
8.3828616e-06
4.2828541e-06
1.2948049e-05
1.3176885e-05
1.3437721e-05
1.3726976e-05
1.4040479e-05
1.4373451e-05
1.4720388e-05
1.5074764e-05
1.5428559e-05
1.5771693e-05
1.6091379e-05
1.6371435e-05
1.6591665e-05
1.6727326e-05
1.6748817e-05
1.6621631e-05
1.6306783e-05
1.5761894e-05
1.4943258e-05
1.3809295e-05
1.2325882e-05
1.0473902e-05
8.2576137e-06
5.7072361e-06
2.886452e-06
9.1218036e-06
9.269088e-06
9.4366951e-06
9.6222277e-06
9.8228883e-06
1.0035426e-05
1.0256079e-05
1.0480367e-05
1.070282e-05
1.0916597e-05
1.1113085e-05
1.1281448e-05
1.1408211e-05
1.1476893e-05
1.1467778e-05
1.1357856e-05
1.1121112e-05
1.0729248e-05
1.0153166e-05
9.3653907e-06
8.3436997e-06
7.0760633e-06
5.5659257e-06
3.8339709e-06
1.9316525e-06
6.3775129e-06
6.4696471e-06
6.5742991e-06
6.6898803e-06
6.8145283e-06
6.9460817e-06
7.0820123e-06
7.2193158e-06
7.3543375e-06
7.4825424e-06
7.5982521e-06
7.6943515e-06
7.7620163e-06
7.7904572e-06
7.7667676e-06
7.6758831e-06
7.5007299e-06
7.2226755e-06
6.8225627e-06
6.2823792e-06
5.5876819e-06
4.7308514e-06
3.7145719e-06
2.5534147e-06
1.2911931e-06
4.461167e-06
4.5172784e-06
4.5808651e-06
4.6508904e-06
4.7261372e-06
4.8051879e-06
4.8863834e-06
4.9677497e-06
5.0468942e-06
5.1208637e-06
5.1859803e-06
5.2376413e-06
5.2701227e-06
5.2763686e-06
5.247882e-06
5.1748352e-06
5.0461626e-06
4.8496912e-06
4.5728421e-06
4.2038201e-06
3.7332218e-06
3.1561869e-06
2.4747205e-06
1.6987795e-06
8.6115539e-07
3.1603056e-06
3.1937273e-06
3.2314795e-06
3.2728939e-06
3.317182e-06
3.3634205e-06
3.4105317e-06
3.4572292e-06
3.5019574e-06
3.5428031e-06
3.5773897e-06
3.6027516e-06
3.6151976e-06
3.6101673e-06
3.5820997e-06
3.5243513e-06
3.4294986e-06
3.2895987e-06
3.0963437e-06
2.8419436e-06
2.5202048e-06
2.1279615e-06
1.6666293e-06
1.1429126e-06
5.7870993e-07
2.3021918e-06
2.3218381e-06
2.343942e-06
2.3680717e-06
2.3937144e-06
2.4202662e-06
2.4470179e-06
2.4731223e-06
2.4975512e-06
2.5190393e-06
2.5360143e-06
2.546516e-06
2.5481081e-06
2.5377925e-06
2.511906e-06
2.4659754e-06
2.3947744e-06
2.2928326e-06
2.1545278e-06
1.9745818e-06
1.7487974e-06
1.4750433e-06
1.1543958e-06
7.9191499e-07
4.0304918e-07
1.7524466e-06
1.7639979e-06
1.7769369e-06
1.7909809e-06
1.8057916e-06
1.8209673e-06
1.8360296e-06
1.8504035e-06
1.8633852e-06
1.8741029e-06
1.8814671e-06
1.8841138e-06
1.88034e-06
1.8680393e-06
1.8446434e-06
1.8070739e-06
1.7516374e-06
1.6742781e-06
1.5709605e-06
1.4379156e-06
1.2721456e-06
1.0721263e-06
8.3868595e-07
5.7590047e-07
2.9629966e-07
1.4118286e-06
1.4187613e-06
1.4264912e-06
1.434828e-06
1.4435414e-06
1.4523537e-06
1.4609278e-06
1.4688525e-06
1.4756171e-06
1.4805818e-06
1.482939e-06
1.4816703e-06
1.4754963e-06
1.4628272e-06
1.4417171e-06
1.4098344e-06
1.3644457e-06
1.3024147e-06
1.2206156e-06
1.1161507e-06
9.8671728e-07
8.3113764e-07
6.5005067e-07
4.4669964e-07
2.3160759e-07
1.2096124e-06
1.2139775e-06
1.2188237e-06
1.2240173e-06
1.2293927e-06
1.2347462e-06
1.239825e-06
1.2443132e-06
1.2478115e-06
1.2498119e-06
1.2496658e-06
1.2465476e-06
1.239414e-06
1.2269628e-06
1.2075961e-06
1.1793962e-06
1.1401359e-06
1.0872561e-06
1.0181549e-06
9.3042288e-07
8.2214704e-07
6.923453e-07
5.4154763e-07
3.7250476e-07
1.9462594e-07
1.0968593e-06
1.0998234e-06
1.1031032e-06
1.1065983e-06
1.1101817e-06
1.1136925e-06
1.1169263e-06
1.1196209e-06
1.121439e-06
1.1219442e-06
1.1205735e-06
1.1166038e-06
1.109117e-06
1.096963e-06
1.0787285e-06
1.052717e-06
1.0169599e-06
9.6922153e-07
9.0719215e-07
8.2872499e-07
7.3211582e-07
6.1648653e-07
4.8230098e-07
3.3201754e-07
1.7398254e-07
1.0405777e-06
1.0427796e-06
1.0452107e-06
1.0477901e-06
1.0504126e-06
1.0529417e-06
1.0551996e-06
1.0569535e-06
1.0578984e-06
1.0576351e-06
1.0556431e-06
1.0512502e-06
1.0435991e-06
1.0316138e-06
1.013971e-06
9.8908217e-07
9.5510464e-07
9.0996543e-07
8.5150509e-07
7.7770808e-07
6.8697385e-07
5.7847779e-07
4.5266686e-07
3.1196981e-07
1.6453406e-07
1.0190279e-06
1.0208041e-06
1.0227621e-06
1.024832e-06
1.026921e-06
1.0289058e-06
1.0306227e-06
1.031854e-06
1.0323106e-06
1.0316101e-06
1.0292511e-06
1.0245828e-06
1.0167731e-06
1.0047757e-06
9.8730374e-07
9.6281275e-07
9.2951206e-07
8.8539892e-07
8.2838063e-07
7.5649763e-07
6.6819441e-07
5.626717e-07
4.4036419e-07
3.0363308e-07
1.6037493e-07
1.0181548e-06
1.0196754e-06
1.0213486e-06
1.0231106e-06
1.0248755e-06
1.0265269e-06
1.0279081e-06
1.0288084e-06
1.0289452e-06
1.0279426e-06
1.0253048e-06
1.0203866e-06
1.0123612e-06
1.0001884e-06
9.8258785e-07
9.5802426e-07
9.2471818e-07
8.8068657e-07
8.2385627e-07
7.5228229e-07
6.6442301e-07
5.5949224e-07
4.3792161e-07
3.0198947e-07
1.5913029e-07
1.0289906e-06
1.0303383e-06
1.0318173e-06
1.0333673e-06
1.0349058e-06
1.0363199e-06
1.0374563e-06
1.0381067e-06
1.0379903e-06
1.0367315e-06
1.0338335e-06
1.0286481e-06
1.0203437e-06
1.0078732e-06
9.8994787e-07
9.6502271e-07
9.3130824e-07
8.8681482e-07
8.2946367e-07
7.5730283e-07
6.6878878e-07
5.6314417e-07
4.4081923e-07
3.0413891e-07
1.6068918e-07
1.0458289e-06
1.047043e-06
1.0483703e-06
1.0497525e-06
1.0511087e-06
1.0523279e-06
1.0532577e-06
1.0536902e-06
1.0533436e-06
1.0518399e-06
1.0486775e-06
1.0432014e-06
1.03457e-06
1.0217232e-06
1.0033564e-06
9.7790628e-07
9.4356321e-07
8.9831863e-07
8.4007627e-07
7.6686741e-07
6.7713945e-07
5.7012256e-07
4.4629804e-07
3.0806648e-07
1.6313892e-07
1.0649747e-06
1.0660742e-06
1.0672703e-06
1.0685055e-06
1.0697001e-06
1.0707435e-06
1.0714835e-06
1.0717111e-06
1.0711425e-06
1.0693956e-06
1.0659629e-06
1.0601803e-06
1.0511944e-06
1.03793e-06
1.0190638e-06
9.9301117e-07
9.5793907e-07
9.1181603e-07
8.5252481e-07
7.7807763e-07
6.8691122e-07
5.782626e-07
4.5264108e-07
3.1249669e-07
1.6495702e-07
1.083905e-06
1.0849004e-06
1.0859766e-06
1.0870765e-06
1.0881209e-06
1.0889994e-06
1.089559e-06
1.0895896e-06
1.0888045e-06
1.0868171e-06
1.0831134e-06
1.0770203e-06
1.0676721e-06
1.0539784e-06
1.0345978e-06
1.0079247e-06
9.7210422e-07
9.2508307e-07
8.6472525e-07
7.890271e-07
6.9641756e-07
5.8614279e-07
4.5873872e-07
3.1666102e-07
1.6704425e-07
1.1007118e-06
1.1016106e-06
1.1025748e-06
1.1035481e-06
1.1044511e-06
1.1051734e-06
1.1055612e-06
1.1054028e-06
1.1044086e-06
1.1021879e-06
1.0982201e-06
1.0918238e-06
1.0821221e-06
1.0680112e-06
1.0481339e-06
1.0208672e-06
9.8433832e-07
9.3647777e-07
8.7513723e-07
7.9830472e-07
7.0440811e-07
5.9270687e-07
4.6376545e-07
3.200378e-07
1.6859623e-07
1.1137339e-06
1.1145424e-06
1.1154019e-06
1.1162563e-06
1.1170265e-06
1.1176015e-06
1.1178271e-06
1.1174897e-06
1.1162974e-06
1.1138554e-06
1.109638e-06
1.1029565e-06
1.0929252e-06
1.0784299e-06
1.0581016e-06
1.0303057e-06
9.9315893e-07
9.4458396e-07
8.8243056e-07
8.0469008e-07
7.0979946e-07
5.9703518e-07
4.6698001e-07
3.2203075e-07
1.6814263e-07
1.1213107e-06
1.122035e-06
1.1227969e-06
1.1235405e-06
1.1241867e-06
1.1246245e-06
1.1246988e-06
1.1241949e-06
1.1228189e-06
1.1201733e-06
1.1157283e-06
1.1087903e-06
1.0984683e-06
1.0836417e-06
1.0629362e-06
1.0347134e-06
9.9708938e-07
9.4799123e-07
8.8528075e-07
8.0696825e-07
7.1151373e-07
5.9821733e-07
4.6767699e-07
3.2229146e-07
1.6803232e-07
1.121619e-06
1.1222652e-06
1.1229367e-06
1.1235777e-06
1.1241094e-06
1.1244207e-06
1.1243563e-06
1.123701e-06
1.1221599e-06
1.119334e-06
1.114692e-06
1.1075386e-06
1.0969815e-06
1.0819004e-06
1.0609236e-06
1.032419e-06
9.9451572e-07
9.4516073e-07
8.8224586e-07
8.0381981e-07
7.083833e-07
5.9526888e-07
4.6507653e-07
3.2017497e-07
1.6660618e-07
1.1125691e-06
1.1131431e-06
1.1137311e-06
1.1142778e-06
1.1147048e-06
1.1149015e-06
1.114713e-06
1.1139245e-06
1.1122414e-06
1.1092659e-06
1.1044679e-06
1.097155e-06
1.0864398e-06
1.0712101e-06
1.0501072e-06
1.0215195e-06
9.8360497e-07
9.3435008e-07
8.7169939e-07
7.9376302e-07
6.991051e-07
5.8711073e-07
4.5839673e-07
3.1528623e-07
1.6375761e-07
1.0917524e-06
1.0922597e-06
1.0927711e-06
1.093232e-06
1.0935647e-06
1.0936598e-06
1.0933638e-06
1.0924638e-06
1.0906681e-06
1.0875826e-06
1.0826834e-06
1.0752865e-06
1.0645173e-06
1.0492822e-06
1.0282495e-06
9.9984482e-07
9.6227396e-07
9.1358746e-07
8.5180953e-07
7.751375e-07
6.8222306e-07
5.7252326e-07
4.4668759e-07
3.0701155e-07
1.5932219e-07
1.0564517e-06
1.0568975e-06
1.0573387e-06
1.057722e-06
1.0579712e-06
1.057979e-06
1.0575948e-06
1.0566099e-06
1.0547385e-06
1.0515948e-06
1.0466663e-06
1.0392858e-06
1.0286016e-06
1.0135523e-06
9.9284952e-07
9.6497574e-07
9.282104e-07
8.8069713e-07
8.2056764e-07
7.461353e-07
6.5616465e-07
5.5020312e-07
4.2894557e-07
2.9465996e-07
1.5266009e-07
1.003723e-06
1.0041117e-06
1.0044888e-06
1.0048027e-06
1.0049796e-06
1.0049158e-06
1.0044658e-06
1.0034284e-06
1.0015277e-06
9.9839194e-07
9.935282e-07
9.8629553e-07
9.7587853e-07
9.6126428e-07
9.4122806e-07
9.1433469e-07
8.7896643e-07
8.3338994e-07
7.7587611e-07
7.0488459e-07
6.1931664e-07
5.1882189e-07
4.0413441e-07
2.7749845e-07
1.4420026e-07
9.3059866e-07
9.3093383e-07
9.3125198e-07
9.315038e-07
9.3161944e-07
9.3150072e-07
9.3101042e-07
9.2995868e-07
9.2808585e-07
9.2504167e-07
9.2036199e-07
9.1344479e-07
9.03527e-07
8.8966476e-07
8.7072188e-07
8.4537397e-07
8.1213763e-07
7.6943586e-07
7.1571199e-07
6.4960164e-07
5.7016369e-07
4.7715558e-07
3.7133416e-07
2.5484552e-07
1.3257023e-07
8.3443199e-07
8.3471583e-07
8.3497876e-07
8.351746e-07
8.3523876e-07
8.3508179e-07
8.3457855e-07
8.3355654e-07
8.3177966e-07
8.2892895e-07
8.2458005e-07
8.1818408e-07
8.0904971e-07
7.9632705e-07
7.7899676e-07
7.5587709e-07
7.2565311e-07
6.8693874e-07
6.3838231e-07
5.7882223e-07
5.0749084e-07
4.2425203e-07
3.2985752e-07
2.2627732e-07
1.1780493e-07
7.1339332e-07
7.1362583e-07
7.1383558e-07
7.1397987e-07
7.140015e-07
7.1382378e-07
7.1333723e-07
7.123934e-07
7.1078918e-07
7.0825044e-07
7.044032e-07
6.9876545e-07
6.9074122e-07
6.7960725e-07
6.6449106e-07
6.4438621e-07
6.1818131e-07
5.8471487e-07
5.4286964e-07
4.9170755e-07
4.3064253e-07
3.5963707e-07
2.7941326e-07
1.917178e-07
1.0010667e-07
5.6708469e-07
5.6726262e-07
5.6742009e-07
5.6751818e-07
5.6751064e-07
5.6733758e-07
5.669035e-07
5.6608849e-07
5.6473289e-07
5.6263119e-07
5.5946562e-07
5.5482989e-07
5.4825138e-07
5.3918712e-07
5.2693736e-07
5.1069816e-07
4.8959402e-07
4.6271642e-07
4.2921034e-07
3.8837107e-07
3.3979002e-07
2.8350602e-07
2.2016892e-07
1.5123962e-07
7.9601434e-08
3.9721727e-07
3.9733409e-07
3.9744014e-07
3.9750238e-07
3.9749093e-07
3.9736383e-07
3.970292e-07
3.9639235e-07
3.9534546e-07
3.9379269e-07
3.9147485e-07
3.8809912e-07
3.8326357e-07
3.7673129e-07
3.6799138e-07
3.5645704e-07
3.415118e-07
3.2248632e-07
2.9888997e-07
2.7021336e-07
2.3620411e-07
1.9694009e-07
1.5294562e-07
1.0533276e-07
5.6119132e-08
2.08231e-07
2.0828407e-07
2.083391e-07
2.0837504e-07
2.0838065e-07
2.0833106e-07
2.0814482e-07
2.0775222e-07
2.0709868e-07
2.0621079e-07
2.0495276e-07
2.0364375e-07
2.0091282e-07
1.9733766e-07
1.9264643e-07
1.8650263e-07
1.7854456e-07
1.6800991e-07
1.5557739e-07
1.4055728e-07
1.2278807e-07
1.0233406e-07
7.9522866e-08
5.5081402e-08
3.0434231e-08
)
;

boundaryField
{
    Walls
    {
        type            kqRWallFunction;
        value           nonuniform List<scalar> 
38
(
4.5691869e-06
2.5449323e-06
7.956749e-06
3.7657253e-05
0.00028171825
0.0023653497
0.056182879
0.060918561
0.018515522
0.027524508
0.0345171
0.041311779
0.047386798
0.051569355
0.055893631
0.059776639
0.062363719
0.064587062
0.066361228
0.067890523
0.069157867
0.069858847
0.070405106
0.071360235
0.072098976
0.072639193
0.072464889
0.072728868
0.073138304
0.072897555
0.072898396
0.072878576
0.073195273
0.07334395
0.073266156
0.072628958
0.071582523
0.066506175
)
;
    }
    Inlet
    {
        type            turbulentIntensityKineticEnergyInlet;
        intensity       0.05;
        value           nonuniform List<scalar> 3(0.0081937978 0.0082618725 0.0098949882);
    }
    Outlet
    {
        type            inletOutlet;
        inletValue      uniform 0;
        value           nonuniform List<scalar> 
86
(
0
0
0
0
0
0
0
0
0
0
0
0
0
0
0
0
0
0
0
0
0
0
0
0
0
0
0
0
0
0
0.0031434143
0.0032492377
0.0026539018
0
0
0
0
0.00024975574
0.0002206491
0.00016174268
0
0
0
0
1.6805478e-05
1.2490007e-05
9.0131366e-06
6.2923807e-06
4.2828541e-06
2.886452e-06
1.9316525e-06
1.2911931e-06
8.6115539e-07
5.7870993e-07
4.0304918e-07
2.9629966e-07
2.3160759e-07
1.9462594e-07
1.7398254e-07
1.6453406e-07
1.6037493e-07
1.5913029e-07
1.6068918e-07
1.6313892e-07
0
0
0
0
0
0
0
0
0
0
0
0
0
0
0
0
0
0
0
0
0.0025863862
0.0032446562
)
;
    }
    Front
    {
        type            wedge;
    }
    Back
    {
        type            wedge;
    }
    defaultFaces
    {
        type            empty;
    }
}


// ************************************************************************* //
