/*--------------------------------*- C++ -*----------------------------------*\
| =========                 |                                                 |
| \\      /  F ield         | OpenFOAM: The Open Source CFD Toolbox           |
|  \\    /   O peration     | Version:  4.0                                   |
|   \\  /    A nd           | Web:      www.OpenFOAM.org                      |
|    \\/     M anipulation  |                                                 |
\*---------------------------------------------------------------------------*/
FoamFile
{
    version     2.0;
    format      ascii;
    class       surfaceScalarField;
    location    "0.65";
    object      phi;
}
// * * * * * * * * * * * * * * * * * * * * * * * * * * * * * * * * * * * * * //

dimensions      [0 3 -1 0 0 0 0];

internalField   nonuniform List<scalar> 
3364
(
-1.3209829e-10
1.6253921e-08
-5.1405763e-10
4.8948015e-08
8.8068874e-08
-4.1681269e-10
1.66707e-08
-1.8687654e-09
5.04e-08
8.6200133e-08
-1.8996661e-10
1.6860644e-08
-1.2382184e-09
5.1448289e-08
8.4961917e-08
1.5744797e-10
1.6703167e-08
9.6710646e-10
5.0638623e-08
8.5929011e-08
3.0721778e-10
1.6395895e-08
-5.526462e-11
5.100104e-08
8.587371e-08
3.16339e-10
1.6079514e-08
-5.0745408e-10
5.1824774e-08
8.5366211e-08
-8.3219878e-11
1.6162721e-08
1.1106675e-09
5.0630827e-08
8.6476821e-08
-2.6487333e-10
1.6427582e-08
4.3028015e-10
4.9935609e-08
8.6907062e-08
-5.4299098e-11
1.6481831e-08
-6.5367471e-10
5.0534933e-08
8.6253362e-08
-1.2137269e-10
1.6603165e-08
-4.1032992e-10
5.082385e-08
8.5842997e-08
-1.0097413e-10
1.6704095e-08
-8.4880749e-11
5.0807711e-08
8.5758085e-08
1.127002e-11
1.6692784e-08
3.8226245e-11
5.0780693e-08
8.579627e-08
-1.5082334e-10
1.684359e-08
-4.3130237e-10
5.1061127e-08
8.5364929e-08
-4.5332663e-10
1.7296893e-08
-9.6320506e-10
5.1570996e-08
8.4401696e-08
-1.2068747e-10
1.7417532e-08
-6.7626504e-10
5.212654e-08
8.3725405e-08
4.9647119e-10
1.6921002e-08
2.3334001e-10
5.2389599e-08
8.3958691e-08
2.2884183e-10
1.6692116e-08
9.4434304e-10
5.167402e-08
8.4902976e-08
-2.2226873e-10
1.6914354e-08
2.9326507e-10
5.1158469e-08
8.5196222e-08
-1.0218757e-10
1.7016503e-08
-1.6226405e-10
5.1218552e-08
8.5033932e-08
-2.1601934e-10
1.723249e-08
4.7239814e-10
5.0530102e-08
8.5506282e-08
-9.0835551e-11
1.7323283e-08
-7.3397075e-10
5.1173174e-08
8.4772262e-08
1.4794893e-10
1.7175293e-08
-1.00731e-09
5.2328399e-08
8.3764915e-08
3.7944396e-10
1.6795833e-08
1.791431e-09
5.0916381e-08
8.5556311e-08
4.6644041e-10
1.6329377e-08
2.932005e-09
4.8450774e-08
8.8488273e-08
2.7518678e-11
1.6301824e-08
9.6822968e-10
4.7510028e-08
8.9456463e-08
-3.5256663e-10
1.6654351e-08
-5.9913069e-10
4.7756557e-08
8.8857293e-08
-4.4564245e-10
1.7099955e-08
-1.3734533e-09
4.8684345e-08
8.7483797e-08
-3.7345588e-10
1.7473387e-08
-1.8668556e-09
5.0177749e-08
8.5616918e-08
2.3174209e-10
1.7241677e-08
-1.1529198e-09
5.1562552e-08
8.4464031e-08
1.717203e-09
1.5524695e-08
5.0440204e-09
4.823587e-08
8.9508021e-08
1.1299218e-08
4.2248315e-09
4.8823697e-08
1.0709492e-08
1.0821711e-08
1.2750741e-07
4.792245e-09
-5.678858e-10
1.6965804e-08
-1.4655589e-09
-1.4697328e-09
2.9255368e-08
-4.2116481e-10
-1.4668686e-10
-1.5045259e-09
-3.8212757e-10
-4.3687565e-10
-2.5372845e-09
-1.1667951e-10
-2.999314e-11
-4.2746379e-10
-7.1309091e-11
-7.8875228e-11
-7.8542767e-10
-1.8912295e-11
-1.1079477e-11
-6.9823969e-11
-2.0393534e-11
-1.0907003e-11
-1.3778788e-10
-4.8762801e-12
-6.2032859e-12
-1.419874e-11
-1.1071155e-11
-5.3011328e-14
-2.5052631e-11
-2.2119678e-12
-3.9913633e-12
-5.2777357e-12
-8.005459e-12
-2.474129e-12
-2.8566681e-12
-4.9322476e-13
-3.4981915e-12
-2.7716984e-13
-8.2217256e-12
-7.0067814e-12
4.2550994e-12
-2.9094255e-13
-3.2072784e-12
-2.7039448e-13
-8.2423948e-12
-9.3839794e-12
2.106598e-12
-5.526817e-13
-2.6545787e-12
-1.6857114e-12
-7.1093496e-12
-9.0135798e-12
-2.0560898e-12
-6.5761033e-13
-1.9969288e-12
-2.3407933e-12
-5.4260858e-12
-7.1389667e-12
-4.215278e-12
-6.0000083e-13
-1.3968876e-12
-2.2056288e-12
-3.8203701e-12
-5.0628988e-12
-4.2815574e-12
-4.2949422e-13
-9.673636e-13
-1.6351132e-12
-2.6146864e-12
-3.4258497e-12
-3.272058e-12
-2.6385471e-13
-7.0349055e-13
-9.8397738e-13
-1.8945266e-12
-2.4671932e-12
-1.9425743e-12
-1.4408072e-13
-5.5939982e-13
-5.2255631e-13
-1.5160337e-12
-2.0060556e-12
-9.8366645e-13
-7.9232267e-14
-4.8016235e-13
-2.7541757e-13
-1.319842e-12
-1.8013398e-12
-4.8012344e-13
-5.2281535e-14
-4.27878e-13
-1.7732793e-13
-1.1947944e-12
-1.6848313e-12
-2.938348e-13
-3.9645869e-14
-3.8823078e-13
-1.345283e-13
-1.0999136e-12
-1.5951382e-12
-2.2422451e-13
-3.0175564e-14
-3.5805507e-13
-1.0471554e-13
-1.0253777e-12
-1.5216118e-12
-1.7824893e-13
-2.1792536e-14
-3.362634e-13
-7.6732261e-14
-9.7044411e-13
-1.4678947e-12
-1.3045969e-13
-1.3898184e-14
-3.2236696e-13
-4.8108152e-14
-9.3624218e-13
-1.4396949e-12
-7.6321464e-14
-7.3428627e-15
-3.1502651e-13
-2.3473731e-14
-9.2012079e-13
-1.4349234e-12
-2.8260952e-14
-2.6632383e-15
-3.1236613e-13
-5.9786002e-15
-9.1681582e-13
-1.4463008e-12
5.3815038e-15
4.4888526e-16
-3.1281813e-13
4.8754362e-15
-9.212532e-13
-1.4659511e-12
2.450765e-14
1.9335229e-15
-3.1475487e-13
9.2218919e-15
-9.2855247e-13
-1.4870984e-12
3.0350956e-14
-6.750279e-16
-3.1408303e-13
2.1651767e-15
-9.314033e-13
-1.5085544e-12
2.3603421e-14
-1.1002908e-16
-3.139761e-13
2.6134003e-15
-9.3413693e-13
-1.517061e-12
1.1102762e-14
-4.1938488e-16
-3.1355968e-13
-1.9526566e-16
-9.3437074e-13
-1.5219804e-12
4.7077731e-15
-1.2703361e-15
-3.1229215e-13
-3.9632624e-15
-9.316869e-13
-1.5217276e-12
-4.2314092e-15
-2.3514068e-15
-3.0994334e-13
-8.4765733e-15
-9.2557014e-13
-1.5151436e-12
-1.5074701e-14
-3.6237822e-15
-3.0632195e-13
-1.3948456e-14
-9.1525317e-13
-1.5011047e-12
-2.8000272e-14
-4.6999098e-15
-3.0162422e-13
-1.8536745e-14
-9.0142336e-13
-1.4804169e-12
-3.9236326e-14
-5.7356668e-15
-2.9589053e-13
-2.2163746e-14
-8.8500167e-13
-1.4552073e-12
-4.7384054e-14
-6.5891709e-15
-2.8930314e-13
-2.5760483e-14
-8.6583613e-13
-1.4250537e-12
-5.5923796e-14
-7.3398469e-15
-2.8196489e-13
-2.8979549e-14
-8.4420161e-13
-1.3905217e-12
-6.3520109e-14
-7.9426884e-15
-2.7402362e-13
-3.146762e-14
-8.2068131e-13
-1.3526402e-12
-6.9356903e-14
-8.3570933e-15
-2.6566779e-13
-3.3197776e-14
-7.9584474e-13
-1.3124269e-12
-7.3417837e-14
-8.549074e-15
-2.5711983e-13
-3.4089776e-14
-7.7030768e-13
-1.2711325e-12
-7.5390209e-14
-8.5058946e-15
-2.4861491e-13
-3.4119613e-14
-7.4469716e-13
-1.2295952e-12
-7.5662131e-14
-8.3898858e-15
-2.4022587e-13
-3.3121997e-14
-7.1996784e-13
-1.1887448e-12
-7.397692e-14
-8.0526658e-15
-2.3217395e-13
-3.1997904e-14
-6.9602502e-13
-1.1494292e-12
-7.131746e-14
-7.5526142e-15
-2.2462197e-13
-3.0073313e-14
-6.7350641e-13
-1.112483e-12
-6.7022883e-14
-6.9212358e-15
-2.1770128e-13
-2.7575104e-14
-6.5285434e-13
-1.0784756e-12
-6.1585328e-14
-6.2892016e-15
-2.1141254e-13
-2.5139313e-14
-6.3400577e-13
-1.047515e-12
-5.6102427e-14
-5.4707044e-15
-2.0594222e-13
-2.1899293e-14
-6.1757848e-13
-1.0205445e-12
-4.8871838e-14
-4.4884754e-15
-2.0145407e-13
-1.794884e-14
-6.0411923e-13
-9.9839996e-13
-4.0095099e-14
-3.4099299e-15
-1.9804441e-13
-1.362277e-14
-5.9390733e-13
-9.8154659e-13
-3.0477601e-14
-2.292863e-15
-1.9575177e-13
-9.2021608e-15
-5.8699887e-13
-9.7009769e-13
-2.0652358e-14
-1.2546754e-15
-1.9449732e-13
-5.0859496e-15
-5.8316841e-13
-9.6374456e-13
-1.1440344e-14
-3.180607e-16
-1.2322625e-15
-2.6855377e-15
1.3700085e-07
-9.498737e-09
-8.6882144e-09
1.4568277e-07
2.1257843e-08
-1.5024145e-09
-1.3872618e-09
1.3956351e-08
-3.5432157e-09
-4.9635807e-10
-5.8532747e-10
-4.3450063e-09
-1.1755874e-09
-1.0614626e-10
-1.5461471e-10
-1.6062372e-09
-2.3806439e-10
-5.8596674e-12
-1.0336282e-11
-3.8232725e-10
-4.1837074e-11
1.0926446e-11
2.4849273e-11
-7.7019677e-11
-6.2274246e-14
8.1317977e-12
1.8392567e-11
6.3942081e-12
1.311613e-11
-7.2981787e-13
6.9142188e-12
2.4593721e-11
8.1485185e-12
-6.7720531e-12
-2.1059118e-12
1.7168224e-11
-5.9473444e-13
-8.2334008e-12
-5.5305537e-12
2.8298977e-12
-5.5860036e-12
-6.8625055e-12
-4.9881222e-12
-6.1282275e-12
-6.2912937e-12
-4.8525808e-12
-3.3023556e-12
-7.9768254e-12
-4.8497193e-12
-3.2747777e-12
-2.0316296e-12
-6.1202697e-12
-2.9518625e-12
-2.2654086e-12
-1.337387e-12
-3.6460049e-12
-1.366836e-12
-1.8822023e-12
-1.1658961e-12
-1.538281e-12
-5.679415e-13
-1.7943714e-12
-1.2945707e-12
-4.3925082e-13
-2.9919168e-13
-1.789013e-12
-1.4790472e-12
-1.1471376e-13
-2.2868716e-13
-1.7845551e-12
-1.6352741e-12
-7.2466972e-14
-1.9085371e-13
-1.7719603e-12
-1.7405832e-12
-8.5557608e-14
-1.3842521e-13
-1.7640094e-12
-1.8296023e-12
-4.9424803e-14
-6.0517867e-14
-1.7798318e-12
-1.9261834e-12
3.6039005e-14
7.0463416e-15
-1.8151611e-12
-2.0326061e-12
1.1344092e-13
5.4062278e-14
-1.863866e-12
-2.1445655e-12
1.6599093e-13
7.767246e-14
-1.9170559e-12
-2.2517774e-12
1.8485235e-13
7.9215745e-14
-1.965946e-12
-2.3455865e-12
1.729927e-13
6.5601749e-14
-2.0079691e-12
-2.4248814e-12
1.4486514e-13
4.3766628e-14
-2.0406571e-12
-2.488432e-12
1.0728655e-13
2.2724808e-14
-2.058697e-12
-2.5297276e-12
6.3991099e-14
3.6653584e-15
-2.0666153e-12
-2.5527397e-12
2.6650017e-14
-1.7243301e-14
-2.0644665e-12
-2.5615454e-12
-8.4629753e-15
-4.1287585e-14
-2.0511973e-12
-2.5546821e-12
-4.8173885e-14
-6.3194345e-14
-2.0272557e-12
-2.532364e-12
-8.5533336e-14
-7.8654812e-14
-1.9959998e-12
-2.4979527e-12
-1.1308504e-13
-9.4748994e-14
-1.957188e-12
-2.4531779e-12
-1.3954073e-13
-1.0880763e-13
-1.9119124e-12
-2.3998253e-12
-1.6217534e-13
-1.1966152e-13
-1.8616184e-12
-2.3396052e-12
-1.7989497e-13
-1.27374e-13
-1.8076716e-12
-2.2746487e-12
-1.9234233e-13
-1.3076487e-13
-1.7523052e-12
-2.2061644e-12
-1.9925942e-13
-1.321022e-13
-1.6958722e-12
-2.1362441e-12
-2.0203144e-13
-1.2983257e-13
-1.6400228e-12
-2.0668948e-12
-1.9918954e-13
-1.2491119e-13
-1.5864344e-12
-2.0010392e-12
-1.9077349e-13
-1.1743896e-13
-1.5360229e-12
-1.9387057e-12
-1.7977814e-13
-1.0843526e-13
-1.4891768e-12
-1.8797884e-12
-1.6735736e-13
-9.850491e-14
-1.4467776e-12
-1.8266713e-12
-1.5162603e-13
-8.5741205e-14
-1.409911e-12
-1.7806617e-12
-1.3175414e-13
-7.0473137e-14
-1.3795352e-12
-1.7426274e-12
-1.0851029e-13
-5.375553e-14
-1.3562592e-12
-1.7130408e-12
-8.3344413e-14
-3.6746885e-14
-1.3401664e-12
-1.6916883e-12
-5.8101351e-14
-2.0906408e-14
-1.3307019e-12
-1.6811531e-12
-3.144359e-14
-3.5410515e-15
-4.1019509e-15
-4.2150151e-12
4.2082981e-12
-7.8591901e-12
3.6355642e-12
-1.0946265e-11
3.0817057e-12
-1.4855028e-11
3.9056921e-12
-2.0957243e-11
6.1008389e-12
-3.0569481e-11
9.6121792e-12
-4.4656597e-11
1.408806e-11
-6.3911811e-11
1.9256919e-11
-8.8600712e-11
2.469113e-11
-1.1841533e-10
2.9817191e-11
-1.5258519e-10
3.4172588e-11
-1.901104e-10
3.7527964e-11
-2.2997993e-10
3.987216e-11
-2.7130478e-10
4.1327268e-11
-3.132228e-10
4.1920128e-11
-3.5484778e-10
4.1626741e-11
-3.9518917e-10
4.0342768e-11
-4.3316062e-10
3.7972451e-11
-4.67896e-10
3.4736014e-11
-4.9859429e-10
3.069862e-11
-5.2454058e-10
2.5946367e-11
-5.452211e-10
2.0680442e-11
-5.6021526e-10
1.4993984e-11
-5.6904817e-10
8.8326942e-12
2.3529957e-12
-4.348416e-11
4.7697141e-11
-9.4208955e-11
5.4367653e-11
-1.5266115e-10
6.1542402e-11
-2.2152075e-10
7.2774241e-11
-3.03508e-10
8.8097138e-11
-4.0051227e-10
1.0662538e-10
-5.1382295e-10
1.2740738e-10
-6.4424556e-10
1.4968776e-10
-7.9013674e-10
1.7059001e-10
-9.4910709e-10
1.8879462e-10
-1.1185137e-09
2.035856e-10
-1.2957108e-09
2.1473074e-10
-1.478123e-09
2.2228944e-10
-1.6635931e-09
2.2680174e-10
-1.8502503e-09
2.2858093e-10
-2.0375472e-09
2.2892662e-10
-2.2349085e-09
2.3770636e-10
-2.4231683e-09
2.2623393e-10
-2.5947849e-09
2.063537e-10
-2.7447049e-09
1.8061904e-10
-2.8692495e-09
1.5049085e-10
-2.9656821e-09
1.1711255e-10
-3.0316221e-09
8.0932979e-11
-3.0631542e-09
4.0363624e-11
1.0349608e-11
-1.1995362e-10
1.676603e-10
-2.6054438e-10
1.9497332e-10
-4.2785122e-10
2.2886659e-10
-6.2651243e-10
2.7145341e-10
-8.6010552e-10
3.2170794e-10
-1.1310856e-09
3.7762234e-10
-1.4439748e-09
4.403122e-10
-1.8628907e-09
5.6861785e-10
-2.3186619e-09
6.2637368e-10
-2.7844924e-09
6.5463596e-10
-3.2457355e-09
6.6483786e-10
-3.6935052e-09
6.6250812e-10
-4.1214076e-09
6.5019805e-10
-4.5237164e-09
6.2911532e-10
-4.8943407e-09
5.9920877e-10
-5.2273498e-09
5.6193813e-10
-5.5080062e-09
5.1836412e-10
-5.7508009e-09
4.6902902e-10
-5.9594244e-09
4.1497665e-10
-6.1360192e-09
3.5721239e-10
-6.2826766e-09
2.971462e-10
-6.4003282e-09
2.3476137e-10
-6.4890058e-09
1.6960739e-10
-6.5507119e-09
1.0206602e-10
3.3867693e-11
-3.6698899e-10
5.3466721e-10
-7.7990036e-10
6.0791156e-10
-1.2597539e-09
7.0874962e-10
-2.0407356e-09
1.0524622e-09
-2.8911097e-09
1.1721058e-09
-3.7055605e-09
1.1920931e-09
-4.4313344e-09
1.1661023e-09
-4.9727645e-09
1.1100613e-09
-5.379688e-09
1.033308e-09
-5.6678458e-09
9.4280247e-10
-5.8511841e-09
8.4818299e-10
-5.9414662e-09
7.5279556e-10
-5.9487803e-09
6.575163e-10
-5.8754919e-09
5.5582984e-10
-5.7375046e-09
4.6122362e-10
-5.5519246e-09
3.763594e-10
-5.3357824e-09
3.0222262e-10
-5.1060937e-09
2.3934036e-10
-4.8789521e-09
1.8783479e-10
-4.6688531e-09
1.4711253e-10
-4.4883711e-09
1.1666304e-10
-4.3449752e-09
9.1364043e-11
-4.2437168e-09
6.8347276e-11
-4.1881664e-09
4.6513627e-11
2.5049531e-11
-2.2093014e-09
2.7439972e-09
-3.9457598e-09
2.3444015e-09
-5.4277807e-09
2.1908013e-09
-6.1003327e-09
1.7250364e-09
-6.1647677e-09
1.2365591e-09
-5.6991222e-09
7.264624e-10
-4.938202e-09
4.0519443e-10
-3.9486504e-09
1.2052e-10
-2.7949268e-09
-1.20407e-10
-1.5453148e-09
-3.0680238e-10
-3.0419642e-10
-3.9293094e-10
9.3227946e-10
-4.8368131e-10
2.2339852e-09
-6.4419065e-10
3.6497281e-09
-8.5991316e-10
5.0340738e-09
-9.2312051e-10
6.3466655e-09
-9.362288e-10
7.5645999e-09
-9.1570654e-10
8.6731056e-09
-8.6915826e-10
9.662021e-09
-8.0107199e-10
1.0523395e-08
-7.1425127e-10
1.125028e-08
-6.1021002e-10
1.1833072e-08
-4.9141452e-10
1.2261508e-08
-3.6007372e-10
1.2526613e-08
-2.1857596e-10
-6.54535e-11
1.0717926e-09
1.6722915e-09
4.2901233e-09
-8.7387728e-10
8.0206091e-09
-1.5396141e-09
1.1711495e-08
-1.9658204e-09
1.5427249e-08
-2.4791697e-09
1.9077826e-08
-2.9240875e-09
2.2667392e-08
-3.1843399e-09
2.6038142e-08
-3.2501934e-09
2.9099932e-08
-3.1821548e-09
3.1836895e-08
-3.0437201e-09
3.4309058e-08
-2.8650451e-09
3.647892e-08
-2.6534908e-09
3.8270393e-08
-2.4356104e-09
3.96391e-08
-2.228565e-09
4.0729172e-08
-2.0131385e-09
4.1591271e-08
-1.7982722e-09
4.2265327e-08
-1.5897076e-09
4.2784721e-08
-1.3884968e-09
4.3178456e-08
-1.194752e-09
4.3471913e-08
-1.0076535e-09
4.3687062e-08
-8.2530426e-10
4.3841072e-08
-6.4537101e-10
4.3946084e-08
-4.6503134e-10
4.4009276e-08
-2.8171513e-10
-8.9497252e-11
1.4962861e-07
-2.2723224e-09
1.48149e-07
6.0665551e-10
1.4548584e-07
1.1243232e-09
1.4194984e-07
1.5708841e-09
1.3735326e-07
2.1180173e-09
1.318428e-07
2.5868972e-09
1.2578306e-07
2.8758474e-09
1.1956342e-07
2.9698266e-09
1.1345292e-07
2.9286788e-09
1.076004e-07
2.8090834e-09
1.0207433e-07
2.661278e-09
9.6926247e-08
2.4948164e-09
9.2185775e-08
2.3050608e-09
8.785303e-08
2.1043574e-09
8.3938772e-08
1.9012805e-09
8.0440402e-08
1.7002434e-09
7.7346837e-08
1.5039905e-09
7.4644473e-08
1.3139904e-09
7.2319297e-08
1.1305372e-09
7.0358709e-08
9.5303992e-10
6.8753281e-08
7.8022259e-10
6.7497828e-08
6.1017502e-10
6.659288e-08
4.4000495e-10
6.6044239e-08
2.6701046e-10
8.5345877e-11
1.3275348e-08
-1.5911949e-09
1.5613425e-08
-1.7313077e-09
1.8236927e-08
-1.4990632e-09
2.0948969e-08
-1.1410469e-09
2.3746793e-08
-6.7970053e-10
2.6656891e-08
-3.2309914e-10
2.9573311e-08
-4.0480075e-11
3.2336522e-08
2.0670476e-10
3.4911073e-08
3.542155e-10
3.7258706e-08
4.6153823e-10
3.9336743e-08
5.8332798e-10
4.0958802e-08
8.7284187e-10
4.2246457e-08
1.0174896e-09
4.3269527e-08
1.0813683e-09
4.4070251e-08
1.1006349e-09
4.4684915e-08
1.0856566e-09
4.5146988e-08
1.0419916e-09
4.5486123e-08
9.7492844e-10
4.5728559e-08
8.881702e-10
4.5897189e-08
7.8447835e-10
4.6011494e-08
6.659823e-10
4.6087452e-08
5.3428068e-10
4.6136425e-08
3.9109318e-10
4.6165561e-08
2.3793427e-10
7.2261052e-11
-5.1339709e-09
-8.0224035e-10
-5.8219472e-09
-1.0433402e-09
-6.1724373e-09
-1.1485825e-09
-6.1149825e-09
-1.1985107e-09
-5.5996695e-09
-1.195021e-09
-4.7733702e-09
-1.1494037e-09
-3.7345295e-09
-1.0793235e-09
-2.5364699e-09
-9.9135476e-10
-1.2897102e-09
-8.9254153e-10
-3.8254602e-11
-7.8991236e-10
1.2334075e-09
-6.8832695e-10
2.6869517e-09
-5.8069273e-10
4.1805109e-09
-4.7605788e-10
5.6414698e-09
-3.7957668e-10
7.0347862e-09
-2.9266576e-10
8.3379641e-09
-2.1750398e-10
9.5516439e-09
-1.7166953e-10
1.0659684e-08
-1.33092e-10
1.1649474e-08
-1.0159951e-10
1.2510903e-08
-7.692906e-11
1.3235363e-08
-5.8456654e-11
1.3814763e-08
-4.5097688e-11
1.4241281e-08
-3.5403229e-11
1.450629e-08
-2.7052929e-11
-1.6602896e-11
-2.2145319e-09
-1.9394583e-10
-3.0028904e-09
-2.5498339e-10
-3.8254884e-09
-3.2598879e-10
-4.6253354e-09
-3.9867037e-10
-5.3442706e-09
-4.760943e-10
-5.8792351e-09
-6.1444897e-10
-6.2878517e-09
-6.7071733e-10
-6.5777264e-09
-7.0149077e-10
-6.7549016e-09
-7.1537709e-10
-6.8289382e-09
-7.1588624e-10
-6.8111791e-09
-7.0609607e-10
-6.7033176e-09
-6.885638e-10
-6.516398e-09
-6.6298628e-10
-6.2658781e-09
-6.3010465e-10
-5.9675337e-09
-5.9101745e-10
-5.6376822e-09
-5.47362e-10
-5.3083442e-09
-5.010133e-10
-4.9895723e-09
-4.5186897e-10
-4.6912163e-09
-3.9995999e-10
-4.4228286e-09
-3.4532081e-10
-4.1933009e-09
-2.8798788e-10
-4.0104365e-09
-2.2796527e-10
-3.8805604e-09
-1.6528231e-10
-3.8074704e-09
-1.0014587e-10
-3.3813143e-11
-5.6397314e-10
-1.2296689e-11
-7.9095368e-10
-2.7999847e-11
-1.0634018e-09
-5.3538367e-11
-1.3757614e-09
-8.6309236e-11
-1.7352309e-09
-1.1662431e-10
-2.1979672e-09
-1.517133e-10
-2.6836976e-09
-1.8498887e-10
-3.1720457e-09
-2.1314571e-10
-3.6519937e-09
-2.354332e-10
-4.115316e-09
-2.5256895e-10
-4.5563354e-09
-2.6508251e-10
-4.9697057e-09
-2.7520001e-10
-5.3452666e-09
-2.8743242e-10
-5.6625539e-09
-3.1282475e-10
-5.9424265e-09
-3.1115263e-10
-6.1887413e-09
-3.0105507e-10
-6.4053789e-09
-2.8438378e-10
-6.5949039e-09
-2.6235209e-10
-6.7592356e-09
-2.3563648e-10
-6.8998586e-09
-2.0470593e-10
-7.0178556e-09
-1.6999907e-10
-7.1137689e-09
-1.3206016e-10
-7.1874092e-09
-9.1649986e-11
-7.238666e-09
-4.8897129e-11
-1.1188196e-11
-1.2628776e-10
3.6973151e-11
-1.9782117e-10
4.3535375e-11
-2.9333932e-10
4.1981483e-11
-4.1137158e-10
3.1724488e-11
-5.5170985e-10
2.3715106e-11
-7.1510722e-10
1.1684825e-11
-8.9654464e-10
-3.5511442e-12
-1.0914604e-09
-1.8230112e-11
-1.2944498e-09
-3.2444439e-11
-1.5016246e-09
-4.5395145e-11
-1.713211e-09
-5.3497578e-11
-1.9295828e-09
-5.8830017e-11
-2.1539676e-09
-6.3049936e-11
-2.4011671e-09
-6.5627935e-11
-2.6459066e-09
-6.6416187e-11
-2.8814156e-09
-6.5549422e-11
-3.1027281e-09
-6.3075112e-11
-3.3059884e-09
-5.9095735e-11
-3.4878438e-09
-5.3785318e-11
-3.6452437e-09
-4.7310485e-11
-3.7754222e-09
-3.9825036e-11
-3.8759799e-09
-3.1507099e-11
-3.9450742e-09
-2.2560315e-11
-3.9808301e-09
-1.3145821e-11
-3.6146012e-12
1.0910582e-11
3.2457074e-11
1.0831291e-11
4.3614862e-11
2.4916846e-12
5.0321188e-11
-1.8034908e-11
5.2251094e-11
-4.6761692e-11
5.2441813e-11
-8.4493589e-11
4.941655e-11
-1.3145507e-10
4.3410067e-11
-1.8717605e-10
3.7490494e-11
-2.4952098e-10
2.9900021e-11
-3.1555902e-10
2.0642327e-11
-3.8463863e-10
1.5581372e-11
-4.5476908e-10
1.1299684e-11
-5.2546742e-10
7.6475619e-12
-5.9584854e-10
4.7522454e-12
-6.6486743e-10
2.6016787e-12
-7.3139482e-10
9.7684483e-13
-7.9426289e-10
-2.0823623e-13
-8.5239014e-10
-9.6976174e-13
-9.0477484e-10
-1.4019534e-12
-9.5049248e-10
-1.5942093e-12
-9.8860714e-10
-1.711771e-12
-1.0183465e-09
-1.7691089e-12
-1.0391933e-09
-1.7149435e-12
-1.0509839e-09
-1.3564835e-12
-4.3194131e-13
4.0543619e-11
1.6507218e-11
5.8526195e-11
2.5632246e-11
7.697772e-11
3.1869569e-11
9.2023465e-11
3.7205226e-11
1.048673e-10
3.9597842e-11
1.1374058e-10
4.0543142e-11
1.1725241e-10
3.9898102e-11
1.1736816e-10
3.737461e-11
1.1431963e-10
3.2948432e-11
1.0811002e-10
2.6851809e-11
1.0152486e-10
2.2166414e-11
9.4389549e-11
1.8434888e-11
8.7491715e-11
1.4545291e-11
8.1055364e-11
1.1188503e-11
7.5383059e-11
8.2739019e-12
7.0635951e-11
5.7238858e-12
6.6889889e-11
3.5377746e-12
6.3925357e-11
1.9947379e-12
6.1725436e-11
7.9795077e-13
6.0061152e-11
7.0076449e-14
5.8752144e-11
-4.0274558e-13
5.7643291e-11
-6.6022265e-13
5.6658616e-11
-7.3021739e-13
5.5954587e-11
-6.5238539e-13
-3.9556097e-13
2.9832116e-11
3.8434371e-12
4.5007021e-11
1.0457414e-11
6.041546e-11
1.6461175e-11
7.7475078e-11
2.0145642e-11
9.3876575e-11
2.3196381e-11
1.0906427e-10
2.5355497e-11
1.2288579e-10
2.6076639e-11
1.3510762e-10
2.5152859e-11
1.446047e-10
2.3451448e-11
1.5122247e-10
2.0234142e-11
1.5639016e-10
1.6998851e-11
1.6105453e-10
1.3770658e-11
1.653901e-10
1.0209876e-11
1.6956341e-10
7.0153585e-12
1.7300223e-10
4.835272e-12
1.7628361e-10
2.4427111e-12
1.7939433e-10
4.2728293e-13
1.8239525e-10
-1.0059431e-12
1.8537846e-10
-2.1850046e-12
1.88216e-10
-2.7672002e-12
1.9069209e-10
-2.8785547e-12
1.926864e-10
-2.6542503e-12
1.9405919e-10
-2.1027304e-12
1.9472276e-10
-1.3156714e-12
-4.0243204e-13
8.3386122e-12
-1.6651325e-12
1.5998576e-11
2.797587e-12
2.4982315e-11
7.4775661e-12
3.3232218e-11
1.1895865e-11
4.1862449e-11
1.4566276e-11
5.0347809e-11
1.6870265e-11
5.8483536e-11
1.7941044e-11
6.5461545e-11
1.8174986e-11
7.1103348e-11
1.7809784e-11
7.4592067e-11
1.6745566e-11
7.6812571e-11
1.4778491e-11
7.7836802e-11
1.2746572e-11
7.7495353e-11
1.0551471e-11
7.6410426e-11
8.1004317e-12
7.5274818e-11
5.9710269e-12
7.3340812e-11
4.376864e-12
7.1193807e-11
2.574436e-12
6.9180506e-11
1.0075062e-12
6.7186726e-11
-1.9107763e-13
6.5397915e-11
-9.7824283e-13
6.389933e-11
-1.3798247e-12
6.2867745e-11
-1.6225238e-12
6.2240018e-11
-1.4748665e-12
6.1995633e-11
-1.0711517e-12
-4.8286698e-13
-5.680057e-12
-2.1131732e-12
-4.1171004e-12
1.2347618e-12
-1.4220813e-12
4.7826798e-12
2.0250234e-12
8.4488941e-12
4.5528049e-12
1.2038628e-11
7.3887312e-12
1.4034469e-11
9.7551664e-12
1.5574735e-11
1.1362751e-11
1.6567522e-11
1.2107443e-11
1.7065204e-11
1.1850753e-11
1.7002361e-11
1.0525288e-11
1.6104051e-11
8.15831e-12
1.5113635e-11
5.1005652e-12
1.360929e-11
7.072547e-13
1.2493806e-11
-4.1670311e-12
1.0845366e-11
-9.1384384e-12
9.348315e-12
-1.408676e-11
7.5227916e-12
-1.9037617e-11
5.9583893e-12
-2.3835303e-11
4.6066276e-12
-2.8290985e-11
3.4774505e-12
-3.2232978e-11
2.5621741e-12
-3.5655125e-11
1.7996228e-12
-3.8344168e-11
1.2141711e-12
-4.0199166e-11
7.8383959e-13
3.91497e-13
-9.2122613e-12
-8.7764598e-13
-9.8244369e-12
1.8470304e-12
-9.8584781e-12
4.8168144e-12
-9.2478938e-12
7.8384024e-12
-7.90768e-12
1.0698505e-11
-7.6086906e-12
1.3735566e-11
-7.1384148e-12
1.510454e-11
-7.1306433e-12
1.6559824e-11
-8.0889749e-12
1.80236e-11
-9.2666205e-12
1.8180061e-11
-1.1266502e-11
1.8103977e-11
-1.3922047e-11
1.7769213e-11
-1.7400906e-11
1.708817e-11
-2.1161948e-11
1.6254859e-11
-2.5436011e-11
1.5119429e-11
-2.9868217e-11
1.378051e-11
-3.4535822e-11
1.2190377e-11
-3.9306182e-11
1.072872e-11
-4.3853774e-11
9.1541838e-12
-4.8021553e-11
7.645187e-12
-5.1694402e-11
6.234975e-12
-5.4706683e-11
4.8118498e-12
-5.6923343e-11
3.4307748e-12
-5.819763e-11
2.0580703e-12
6.8649336e-13
-7.0503198e-12
5.2461338e-14
-7.6462574e-12
2.4430275e-12
-7.8318813e-12
5.0024979e-12
-7.5627737e-12
7.5693535e-12
-6.7901765e-12
9.9259649e-12
-5.6296087e-12
1.2575053e-11
-5.1418399e-12
1.4616821e-11
-4.884362e-12
1.6302391e-11
-4.5334702e-12
1.7672747e-11
-4.8758242e-12
1.8522446e-11
-5.7428872e-12
1.8971063e-11
-7.0132048e-12
1.9039546e-11
-8.7475908e-12
1.8822564e-11
-1.074729e-11
1.8254557e-11
-1.3062101e-11
1.7434231e-11
-1.5648893e-11
1.6367287e-11
-1.8513172e-11
1.5054632e-11
-2.1375949e-11
1.3591468e-11
-2.4197984e-11
1.1976184e-11
-2.6829324e-11
1.0276487e-11
-2.9078572e-11
8.4841788e-12
-3.09338e-11
6.6670295e-12
-3.2325375e-11
4.8222997e-12
-3.3132112e-11
2.8647584e-12
8.2543764e-13
-3.8135598e-12
2.2004797e-13
-3.6009582e-12
2.2304607e-12
-3.0298714e-12
4.4314476e-12
-2.1833982e-12
6.722917e-12
-9.7148639e-13
8.7140893e-12
4.6833362e-13
1.1135268e-11
1.9932971e-12
1.3091891e-11
3.5177133e-12
1.4778006e-11
4.9448417e-12
1.6245647e-11
6.144361e-12
1.7322952e-11
6.9838412e-12
1.8131604e-11
7.4733226e-12
1.8550081e-11
7.6824591e-12
1.8613439e-11
7.626039e-12
1.8310984e-11
7.3738049e-12
1.7686467e-11
6.8032535e-12
1.6937836e-11
5.9837963e-12
1.5874082e-11
5.0079179e-12
1.4567334e-11
3.9517825e-12
1.3032304e-11
2.9117882e-12
1.1316462e-11
1.9036397e-12
9.4923051e-12
1.0554499e-12
7.5151938e-12
4.6349891e-13
5.4142229e-12
7.3745231e-14
3.2544862e-12
1.1107289e-12
-1.361234e-12
4.3013688e-14
-7.3077544e-13
1.6000185e-12
3.0612005e-13
3.394571e-12
1.6542421e-12
5.3748156e-12
3.301088e-12
7.0672647e-12
5.1962742e-12
9.2401036e-12
7.2524947e-12
1.1035693e-11
9.3821172e-12
1.2648406e-11
1.1554541e-11
1.4073246e-11
1.3700892e-11
1.5176621e-11
1.5767301e-11
1.6065215e-11
1.7636364e-11
1.6681035e-11
1.9267155e-11
1.6982663e-11
2.0588828e-11
1.6989325e-11
2.1586011e-11
1.6689295e-11
2.2452884e-11
1.607097e-11
2.3124196e-11
1.5202776e-11
2.3549946e-11
1.4141587e-11
2.3809331e-11
1.277292e-11
2.392444e-11
1.1201351e-11
2.3951236e-11
9.4655034e-12
2.3915226e-11
7.5511969e-12
2.3833493e-11
5.4959458e-12
2.3747078e-11
3.3408933e-12
1.1128077e-12
-1.1597122e-14
-3.8464201e-13
7.1632674e-13
8.7209682e-13
1.7898474e-12
2.3210556e-12
3.2225354e-12
3.9421354e-12
4.7743358e-12
5.515474e-12
6.8026764e-12
7.2117742e-12
8.9827364e-12
8.8556459e-12
1.1276784e-11
1.0354372e-11
1.3696468e-11
1.1653576e-11
1.6180685e-11
1.2692419e-11
1.8690297e-11
1.3555617e-11
2.1122008e-11
1.4249338e-11
2.3382486e-11
1.47222e-11
2.5478117e-11
1.4893707e-11
2.7362613e-11
1.4804811e-11
2.8986844e-11
1.444675e-11
3.0391708e-11
1.3797921e-11
3.1620457e-11
1.2912847e-11
3.263886e-11
1.1754523e-11
3.3469934e-11
1.0370281e-11
3.4162001e-11
8.7734385e-12
3.4693122e-11
7.0200763e-12
3.5077843e-11
5.1112235e-12
3.5298965e-11
3.1197716e-12
1.1138412e-12
3.0380599e-13
-8.0317709e-13
1.0126328e-12
1.6325928e-13
1.98491e-12
1.3487713e-12
3.2306737e-12
2.6963676e-12
4.6622818e-12
4.0838643e-12
6.5324666e-12
5.3415899e-12
8.4988656e-12
6.8892492e-12
1.066617e-11
8.1870708e-12
1.2995954e-11
9.3237973e-12
1.5490346e-11
1.0198033e-11
1.7962913e-11
1.1083058e-11
2.0365115e-11
1.1847143e-11
2.272423e-11
1.2363093e-11
2.4986763e-11
1.2631181e-11
2.7132343e-11
1.265924e-11
2.9130625e-11
1.2448476e-11
3.0958353e-11
1.19702e-11
3.2625914e-11
1.1245292e-11
3.40614e-11
1.0319043e-11
3.526937e-11
9.1623155e-12
3.624129e-11
7.801522e-12
3.698914e-11
6.2722273e-12
3.7489119e-11
4.6112443e-12
3.7778608e-11
2.8302847e-12
9.4929672e-13
2.7569309e-13
-1.1513641e-12
8.3092993e-13
-3.9199996e-13
1.6418498e-12
5.3783278e-13
2.7114558e-12
1.6267463e-12
4.0182923e-12
2.7770153e-12
5.4748053e-12
3.8850669e-12
7.2980792e-12
5.0659675e-12
9.2493783e-12
6.2357657e-12
1.1343929e-11
7.229242e-12
1.3544639e-11
7.9973202e-12
1.5708737e-11
8.9189585e-12
1.7956304e-11
9.5995752e-12
2.0230407e-11
1.008899e-11
2.2465918e-11
1.0395672e-11
2.4628916e-11
1.0496244e-11
2.6699113e-11
1.0378281e-11
2.8614624e-11
1.0054692e-11
3.0353645e-11
9.5062736e-12
3.1905972e-11
8.7667175e-12
3.3240788e-11
7.8275012e-12
3.4335289e-11
6.7070221e-12
3.520029e-11
5.4072248e-12
3.5812912e-11
3.9986212e-12
3.6198246e-11
2.4449514e-12
8.1059846e-13
1.9245677e-13
-1.4294147e-12
6.7052531e-13
-8.7010024e-13
1.3467545e-12
-1.3842429e-13
2.2361763e-12
7.3729993e-13
3.3421076e-12
1.6710624e-12
4.5840884e-12
2.6430672e-12
6.1597068e-12
3.4903325e-12
7.8701336e-12
4.5253244e-12
9.6989385e-12
5.4004247e-12
1.155999e-11
6.1362578e-12
1.3535602e-11
6.9433375e-12
1.5593211e-11
7.5419595e-12
1.7682241e-11
7.9999538e-12
1.9776361e-11
8.3015476e-12
2.1828558e-11
8.4440435e-12
2.3791731e-11
8.4151048e-12
2.5646899e-11
8.1995217e-12
2.7355435e-11
7.7977364e-12
2.890148e-11
7.2206711e-12
3.0233779e-11
6.4952e-12
3.1346176e-11
5.5946236e-12
3.221787e-11
4.5355276e-12
3.2891628e-11
3.3248604e-12
3.3278094e-11
2.0584842e-12
6.880336e-13
1.901934e-13
-1.6690755e-12
6.0130067e-13
-1.2812459e-12
1.1832039e-12
-7.2036212e-13
1.9692331e-12
-4.8760451e-14
2.9267706e-12
7.1349674e-13
4.0676832e-12
1.5021291e-12
5.2830636e-12
2.2749291e-12
6.8351132e-12
2.9732542e-12
8.4446674e-12
3.7908521e-12
1.0114736e-11
4.4661726e-12
1.1917053e-11
5.1410063e-12
1.3778337e-11
5.680663e-12
1.5663303e-11
6.1149767e-12
1.7571138e-11
6.3937036e-12
1.9459209e-11
6.5559648e-12
2.1295357e-11
6.57895e-12
2.3039093e-11
6.4557806e-12
2.4658211e-11
6.1786139e-12
2.6119664e-11
5.7592144e-12
2.7429454e-11
5.1854055e-12
2.8541966e-11
4.4821081e-12
2.9424013e-11
3.6534769e-12
2.9984078e-11
2.7647904e-12
3.0402378e-11
1.6401838e-12
4.7904772e-13
2.4619185e-13
-1.8792747e-12
6.082246e-13
-1.6433211e-12
1.1381361e-12
-1.2503125e-12
1.8277116e-12
-7.3837149e-13
2.6803809e-12
-1.3920499e-13
3.6973883e-12
4.8509203e-13
4.8404059e-12
1.1318844e-12
6.0683726e-12
1.7452629e-12
7.5422547e-12
2.3169476e-12
9.0919489e-12
2.9164583e-12
1.0709531e-11
3.523406e-12
1.2387304e-11
4.0028738e-12
1.4116272e-11
4.3859946e-12
1.5848186e-11
4.6617779e-12
1.7565954e-11
4.8381861e-12
1.9243581e-11
4.9013146e-12
2.0857103e-11
4.8422509e-12
2.2368181e-11
4.66753e-12
2.3759188e-11
4.3682017e-12
2.4989143e-11
3.9554458e-12
2.6045762e-11
3.4254851e-12
2.6923311e-11
2.7759231e-12
2.7658773e-11
2.0293241e-12
2.7992276e-11
1.3066802e-12
4.6342023e-13
3.1635803e-13
-2.0822398e-12
6.5214525e-13
-1.9791528e-12
1.1228595e-12
-1.7210678e-12
1.7381624e-12
-1.3537123e-12
2.5103424e-12
-9.1141994e-13
3.4088867e-12
-4.134843e-13
4.4437467e-12
9.6994927e-14
5.5849919e-12
6.0399062e-13
6.8144321e-12
1.0874827e-12
8.2192412e-12
1.5116268e-12
9.6735594e-12
2.0690677e-12
1.1197016e-11
2.4793991e-12
1.2753589e-11
2.8294061e-12
1.431976e-11
3.0955932e-12
1.5878843e-11
3.279091e-12
1.7403778e-11
3.3763699e-12
1.8865946e-11
3.3800742e-12
2.0242569e-11
3.2909e-12
2.1509327e-11
3.1014386e-12
2.2641178e-11
2.8235903e-12
2.3611312e-11
2.4553467e-12
2.4377574e-11
2.0096563e-12
2.4911496e-11
1.4953987e-12
2.5299714e-11
9.1846108e-13
2.9384254e-13
3.6378273e-13
-2.2800794e-12
6.6178355e-13
-2.2771983e-12
1.084315e-12
-2.1436409e-12
1.6350816e-12
-1.9045176e-12
2.3045135e-12
-1.5808875e-12
3.1122417e-12
-1.2212456e-12