/*--------------------------------*- C++ -*----------------------------------*\
| =========                 |                                                 |
| \\      /  F ield         | OpenFOAM: The Open Source CFD Toolbox           |
|  \\    /   O peration     | Version:  4.0                                   |
|   \\  /    A nd           | Web:      www.OpenFOAM.org                      |
|    \\/     M anipulation  |                                                 |
\*---------------------------------------------------------------------------*/
FoamFile
{
    version     2.0;
    format      ascii;
    class       volScalarField;
    location    "0.12";
    object      omega;
}
// * * * * * * * * * * * * * * * * * * * * * * * * * * * * * * * * * * * * * //

dimensions      [0 0 -1 0 0 0 0];

internalField   nonuniform List<scalar> 
1740
(
65.827557
686.01126
14920.445
180.58245
1464.7688
15030.901
308.77211
2008.617
15114.998
422.13547
2280.5881
15198.352
527.65991
2553.0126
15271.262
637.1452
2810.6468
15326.357
746.77378
3117.017
15374.066
861.07487
3288.5529
15411.335
962.9341
3409.9243
15446.513
1063.0705
3570.8864
15474.51
1149.6108
3717.9493
15492.662
1237.909
3766.0715
15511.727
1343.9318
3808.4025
15521.136
1399.0114
3842.9192
15536.978
1462.0627
3915.074
15550.588
1536.139
3978.5376
15550.833
1605.4489
4028.415
15557.239
1662.8241
4030.8589
15561.34
1734.1818
4065.076
15564.964
1769.5723
4083.5382
15571.551
1800.8718
4125.9267
15577.004
1854.0944
4175.5362
15575.284
1875.2151
4147.513
15575.465
1890.3604
4112.0791
15576.655
1909.0666
4182.3252
15573.58
1932.1512
4162.88
15571.927
1965.3698
4154.6835
15570.212
2008.3294
4182.9379
15568.419
2026.3737
4225.0531
15558.417
2148.5102
4294.0194
15499.435
3221.8823
4563.7323
10736.341
3345.4524
4239.1262
5931.8555
1574.7298
1861.7112
2156.7134
824.85287
899.69186
957.72957
480.3023
498.43292
508.36854
304.56768
308.36338
308.64295
208.72208
209.11947
207.87536
154.83237
154.59121
153.52377
125.44099
125.21095
124.57552
111.02434
110.9139
110.63404
105.06419
105.05004
104.98894
103.15491
103.18371
103.19651
101.93743
101.96311
101.98063
100.80867
100.84094
100.86626
99.82401
99.85216
99.874366
99.060613
99.078981
99.092094
98.508384
98.518257
98.523254
98.110338
98.1147
98.114459
97.810666
97.811853
97.808698
97.570035
97.569488
97.564865
97.364093
97.362636
97.357362
97.178502
97.176593
97.171119
97.004927
97.002821
96.99739
96.83851
96.836351
96.831095
96.676411
96.674281
96.669268
96.516986
96.51493
96.510194
96.359318
96.35736
96.352915
96.202952
96.201104
96.196952
96.047734
96.046003
96.042139
95.893724
95.892111
95.888527
95.741133
95.739636
95.736322
95.590288
95.588905
95.585849
95.441609
95.440335
95.437526
95.295591
95.294422
95.291847
95.152784
95.151714
95.149361
95.013759
95.012783
95.010639
94.87903
94.878143
94.876196
94.748809
94.748006
94.746243
94.622305
94.62158
94.61999
94.495781
94.495129
94.493699
94.357541
94.356957
94.355677
94.175925
94.175405
94.174264
93.872934
93.872474
93.871465
93.271613
93.27121
93.270328
92.00231
92.001974
92.001238
89.35798
89.357771
89.357298
84.114942
84.115071
84.115288
74.407976
74.408899
74.410765
57.913446
57.915539
57.919938
32.904637
32.906999
32.912231
13479.944
13534.942
5995.64
5333.8549
2084.4344
1881.3367
922.24818
854.095
491.94538
465.36784
300.78511
289.2182
203.85044
198.39837
151.39609
148.68839
123.51014
122.19359
110.18257
109.61455
104.86376
104.67864
103.16568
103.0826
101.96435
101.90421
100.8591
100.81271
99.86942
99.83328
99.085508
99.056871
98.514661
98.491196
98.10466
98.084672
97.798455
97.780859
97.554664
97.538816
97.347474
97.332997
97.161678
97.148348
96.988461
96.976132
96.822699
96.811271
96.661406
96.650803
96.502855
96.493018
96.346082
96.33696
96.190604
96.182154
96.036254
96.028438
95.883084
95.875864
95.731299
95.724643
95.581225
95.575101
95.43328
95.427659
95.287958
95.282811
95.145808
95.141109
95.007404
95.003125
94.873258
94.869373
94.743584
94.740068
94.617591
94.614417
94.491542
94.488689
94.353745
94.35119
94.172544
94.170269
93.869943
93.867935
93.268998
93.267244
92.000108
91.998601
89.35648
89.355262
84.115253
84.114639
74.412723
74.414123
57.92562
57.933351
32.920733
32.938592
12058.19
2044.1003
692.38034
363.54159
271.76123
244.1028
233.68378
227.31726
221.50367
215.4027
208.87973
201.96823
194.72417
187.18706
179.39232
171.39238
163.24738
154.99289
146.58093
137.78234
128.04729
116.355
101.17683
80.86649
53.18925
12058.131
2037.7824
696.60331
372.15042
279.02422
249.40173
236.5917
227.83656
220.09127
212.53903
204.99145
197.44371
189.93052
182.45504
175.00903
167.60536
160.2536
152.9226
145.48644
137.63889
128.76338
117.75101
102.7365
80.570666
44.934942
12058.179
2029.7874
717.81784
430.03574
359.01979
331.87151
314.44815
299.68375
286.06371
273.03013
260.46002
248.3769
236.8409
225.7811
215.09861
204.77667
194.80014
185.10986
175.56262
165.86937
155.48953
143.44649
127.9438
105.39525
67.273045
12058.53
2030.8392
817.1354
609.21473
550.948
514.18744
481.49457
451.18324
423.46374
397.46132
373.02983
350.1939
329.15757
309.63742
291.28644
274.07955
257.99004
242.944
228.80712
215.35856
202.23443
188.81969
173.96253
154.97133
122.16187
12061.544
2150.3512
1232.3749
1078.9361
990.72218
908.44202
830.36579
759.15643
695.74703
637.41497
583.75182
534.62685
490.95419
451.77066
415.84663
383.21221
353.74581
327.23934
303.43561
282.03727
262.69064
244.9791
228.42559
212.84038
199.46981
12087.272
3823.1029
2809.2449
2404.8632
2096.6792
1828.2036
1593.1879
1390.3953
1214.9537
1063.558
933.22395
821.15589
724.94852
642.24425
570.95445
509.56278
456.77814
411.45403
372.56651
339.1991
310.52022
285.78795
264.35252
246.10211
232.2648
10364.149
7904.9919
6099.7862
4790.3262
3820.7408
3085.6581
2516.6196
2069.5345
1714.8012
1431.22
1203.0081
1018.3071
868.16857
745.68395
645.37304
562.87869
494.75234
438.26743
391.25735
351.98224
319.02272
291.22159
267.64845
247.95813
233.33621
4091.6153
3306.8256
2843.5583
2468.5433
2149.7403
1869.6159
1625.4107
1414.2464
1233.192
1078.0778
945.14376
831.05375
732.87082
648.36521
575.69108
513.25214
459.65834
413.6972
374.30379
340.53453
311.53844
286.5594
264.93059
246.52712
232.56666
1594.1329
1400.0018
1270.3349
1162.5943
1060.9163
964.06469
875.54451
797.14708
725.78293
661.19531
603.40017
552.46776
506.17536
464.04453
425.9332
391.60898
360.80708
333.2361
308.58444
286.51088
266.6275
248.49571
231.62274
215.80501
202.23999
771.69772
708.98119
663.27477
623.19536
583.33747
543.64917
506.45874
472.40358
440.8815
411.85634
385.358
361.20489
338.77183
317.84928
298.37025
280.26887
263.46373
247.84189
233.24021
219.41489
205.98681
192.33826
177.34042
158.37312
125.86618
436.51151
413.21432
394.91426
378.09012
360.73772
342.82361
325.32413
308.72647
293.05342
278.33923
264.59636
251.73363
239.55063
227.94308
216.86861
206.29275
196.17694
186.42015
176.84448
167.1312
156.71274
144.58361
128.92613
106.18912
68.066575
277.19932
267.06419
258.68316
250.79627
242.53851
233.83336
225.04868
216.46202
208.17453
200.23226
192.6471
185.38359
178.36988
171.55592
164.91813
158.43875
152.08957
145.79451
139.38109
132.4977
124.47552
114.11492
99.374817
76.920201
41.256277
192.82423
187.93935
183.70521
179.63576
175.35291
170.78234
166.06024
161.33199
156.68241
152.15577
147.76917
143.51695
139.37876
135.33932
131.39522
127.54566
123.77582
120.02714
116.14666
111.80327
106.3573
98.673664
86.863932
67.825064
35.530674
145.92799
143.41779
141.14309
138.91398
136.56709
134.05928
131.44444
128.79898
126.18072
123.62658
121.15643
118.77763
116.49058
114.29591
112.19661
110.19215
108.26416
106.35058
104.30123
101.80822
98.313365
92.929614
84.522226
72.403127
58.997555
120.82876
119.53004
118.2943
117.05353
115.74852
114.36558
112.93359
111.49583
110.08988
108.74235
107.46848
106.27429
105.16073
104.12675
103.16905
102.27713
101.42156
100.53076
99.449583
97.87309
95.261703
90.790702
83.513804
73.216689
62.817927
108.99322
108.35234
107.69114
106.99207
106.24346
105.45122
104.63764
103.83169
103.05975
102.34101
101.68692
101.09838
100.57175
100.10195
99.681276
99.293107
98.901763
98.428581
97.70565
96.397357
93.887679
89.161612
80.799253
67.376901
46.932066
104.43751
104.13391
103.76287
103.32488
102.82762
102.28628
101.7229
101.16373
100.63365
100.15027
99.728961
99.365948
99.049829
98.767106
98.519651
98.293493
98.047931
97.696631
97.054559
95.742494
93.036296
87.666494
77.641566
60.149845
31.820493
102.94099
102.73409
102.45924
102.11748
101.71328
101.25625
100.76284
100.25909
99.776575
99.342156
98.970306
98.669673
98.42553
98.225773
98.057099
97.897929
97.706451
97.391775
96.755472
95.385948
92.490317
86.670044
75.724389
56.708858
27.196438
101.79181
101.61807
101.37952
101.07779
100.72005
100.32059
99.901517
99.48973
99.109912
98.77777
98.497125
98.274263
98.095565
97.949302
97.822767
97.695991
97.527834
97.225706
96.585151
95.181456
92.200063
86.222052
75.076079
56.1361
27.925619
100.72006
100.57181
100.36724
100.11223
99.81854
99.502949
99.184904
98.882776
98.610105
98.373668
98.174039
98.008617
97.875216
97.763365
97.662519
97.554602
97.399682
97.105603
96.467819
95.06246
92.082131
86.138253
75.157099
56.788201
29.907056
99.761026
99.645392
99.488007
99.296222
99.081195
98.856017
98.633538
98.424284
98.235126
98.06904
97.925751
97.802511
97.70005
97.61125
97.527553
97.432362
97.286999
97.000763
96.371846
94.982935
92.042639
86.199876
75.462063
57.618149
31.545071
99.003154
98.919699
98.808422
98.67508
98.527501
98.374083
98.222485
98.078661
97.946424
97.827528
97.722079
97.629045
97.546906
97.473807
97.402169
97.316296
97.178516
96.899664
96.28097
94.911506
92.012754
86.257735
75.693239
58.141072
32.449169
98.451157
98.391825
98.314587
98.223127
98.122248
98.016951
97.911732
97.810118
97.714497
97.62618
97.545592
97.472475
97.405919
97.343631
97.280758
97.201954
97.070208
96.797483
96.187141
94.832244
91.961026
86.255766
75.768051
58.288902
32.57407
98.053599
98.009925
97.954532
97.889619
97.81802
97.74269
97.66633
97.591149
97.518773
97.450256
97.386148
97.326529
97.27084
97.217054
97.160849
97.08752
96.960494
96.692371
96.087623
94.741163
91.883871
86.200607
75.741205
58.275315
32.524572
97.755474
97.721487
97.679462
97.630728
97.576985
97.520034
97.461571
97.403057
97.345656
97.290226
97.237322
97.187162
97.139407
97.092406
97.041168
96.972113
96.848758
96.583955
95.982638
94.640521
91.789764
86.117092
75.674691
58.229477
32.722388
97.517141
97.489225
97.455468
97.416714
97.37404
97.328604
97.281531
97.233842
97.186406
97.139922
97.094901
97.051598
97.009759
96.967841
96.92082
96.855237
96.734805
96.472482
95.873447
94.534115
91.688338
86.026576
75.609691
58.220517
32.789688
97.313894
97.289983
97.261574
97.229248
97.193735
97.155831
97.116332
97.075987
97.035471
96.995363
96.956115
96.917972
96.880708
96.842835
96.799434
96.736636
96.618618
96.358326
95.76122
94.424751
91.58548
85.939639
75.559026
58.238292
32.869515
97.131164
97.110079
97.085353
97.05742
97.026812
96.994114
96.959923
96.924819
96.889347
96.853993
96.819152
96.785046
96.751443
96.716866
96.676404
96.616121
96.50023
96.241778
95.646617
94.3135
91.482105
85.853919
75.503868
58.197709
32.709472
96.960478
96.941531
96.919518
96.894787
96.867752
96.838869
96.808611
96.777449
96.745836
96.714188
96.682855
96.652025
96.621451
96.58965
96.551707
96.493673
96.379714
96.123029
95.529922
94.200525
91.377622
85.767422
75.446646
58.163394
32.765274
96.796905
96.779675
96.75979
96.737539
96.713263
96.687337
96.660152
96.632105
96.603582
96.574948
96.546511
96.518431
96.490441
96.461045
96.425326
96.369371
96.257161
96.0022
95.411228
94.085679
91.271277
85.679216
75.391819
58.15801
32.937819
96.637563
96.621783
96.603654
96.583427
96.561395
96.537876
96.513206
96.487728
96.461781
96.435688
96.409723
96.384019
96.358286
96.331016
96.29728
96.243168
96.132653
95.879371
95.290501
93.968591
91.161887
85.586692
75.335385
58.17522
33.101953
96.480789
96.466275
96.449655
96.431152
96.411021
96.389543
96.367012
96.34373
96.320002
96.296116
96.272317
96.248712
96.224994
96.199634
96.167695
96.115264
96.006362
95.754639
95.167718
93.848965
91.048379
85.485863
75.262197
58.162159
33.178975
96.325655
96.312278
96.296993
96.280003
96.261537
96.241843
96.221185
96.199836
96.178068
96.156144
96.134283
96.112569
96.090676
96.067056
96.036759
95.985865
95.878417
95.628152
95.043006
93.727063
90.931818
85.380289
75.180506
58.13222
33.226539
96.171704
96.159364
96.145287
96.129656
96.11268
96.094583
96.075605
96.055991
96.03599
96.015841
95.995741
95.975755
95.955536
95.933518
95.904731
95.855244
95.749111
95.500158
94.916602
93.603297
90.813418
85.273355
75.096974
58.089484
33.230286
96.018784
96.007402
95.994432
95.980043
95.964425
95.947782
95.930332
95.9123
95.893915
95.875394
95.856914
95.838523
95.819852
95.799318
95.771929
95.723733
95.61878
95.370976
94.788775
93.477892
90.693329
85.164763
75.00982
58.031492
33.193708
95.866958
95.856466
95.844522
95.831279
95.816911
95.801607
95.785566
95.768994
95.752101
95.735086
95.71811
95.7012
95.683972
95.664822
95.638731
95.591716
95.487804
95.240938
94.659818
93.350961
90.571168
85.05274
74.912592
57.932937
33.040641
95.716438
95.70678
95.695791
95.683615
95.670409
95.656347
95.641614
95.626398
95.610893
95.595281
95.579708
95.564183
95.548305
95.530449
95.505567
95.459634
95.356629
95.110487
94.530098
93.222726
90.447095
84.938942
74.818077
57.858071
32.955255
95.567556
95.55868
95.548586
95.537406
95.525285
95.512383
95.49887
95.48492
95.470712
95.456414
95.442154
95.427928
95.413318
95.396675
95.37292
95.327977
95.22575
94.980111
94.400036
93.093348
90.320521
84.820761
74.71806
57.784475
32.902624
95.420736
95.412595
95.403341
95.393093
95.381988
95.370172
95.357801
95.345037
95.332045
95.318978
95.305951
95.292946
95.279527
95.264025
95.241324
95.197288
95.09572
94.850367
94.270149
92.963203
90.191339
84.696918
74.608273
57.694856
32.822137
95.276474
95.269024
95.260558
95.251186
95.241033
95.230235
95.218935
95.207284
95.195432
95.183522
95.171653
95.159796
95.147498
95.133068
95.111354
95.068152
94.967147
94.721905
94.141159
92.833113
90.06054
84.569016
74.494311
57.615872
32.791416
95.135323
95.128522
95.120796
95.112245
95.102985
95.093142
95.082847
95.072239
95.061458
95.050633
95.039853
95.029074
95.017831
95.004409
94.983622
94.941195
94.840684
94.595442
94.01394
92.704285
89.93005
84.440322
74.380317
57.54306
32.772707
94.997856
94.991665
94.984632
94.976852
94.968429
94.95948
94.950127
94.940497
94.930719
94.920912
94.911154
94.901388
94.891135
94.878661
94.858745
94.817044
94.716986
94.471699
93.88936
92.57791
89.801613
84.312991
74.265856
57.458819
32.701412
94.86459
94.85897
94.852586
94.845526
94.837886
94.829774
94.821301
94.812586
94.803747
94.794893
94.786091
94.777274
94.767949
94.756366
94.737268
94.69625
94.596615
94.351275
93.768106
92.454858
89.676389
84.188367
74.15336
57.383653
32.679284
94.735738
94.730651
94.724873
94.718485
94.711576
94.704244
94.696592
94.688731
94.680768
94.672803
94.664894
94.656963
94.648506
94.637754
94.619422
94.579044
94.479805
94.234406
93.650424
92.33541
89.554759
84.067092
74.044086
57.31577
32.550222
94.61051
94.60592
94.600707
94.594945
94.588715
94.582108
94.575221
94.568153
94.561005
94.553866
94.546787
94.53968
94.532029
94.52205
94.504431
94.464649
94.365774
94.120304
93.535519
92.218747
89.435797
83.94755
73.931062
57.21899
32.525133
94.485175
94.481047
94.47636
94.471179
94.465581
94.459648
94.453469
94.447136
94.440743
94.434371
94.42806
94.421715
94.414808
94.405542
94.38858
94.349346
94.250806
94.005265
93.419732
92.101332
89.316247
83.827135
73.81369
57.103857
32.396146
94.348044
94.344348
94.340153
94.335518
94.33051
94.325205
94.319686
94.314037
94.308345
94.302682
94.29708
94.291435
94.285209
94.276594
94.260228
94.221491
94.123258
93.877676
93.291546
91.971914
89.185546
83.697219
73.690216
56.992909
32.300893
94.167471
94.164187
94.160465
94.156355
94.151917
94.147215
94.142325
94.137326
94.132296
94.1273
94.122358
94.117355
94.111747
94.103712
94.08787
94.049565
93.951605
93.70603
93.119545
91.799358
89.013334
83.529389
73.535506
56.857005
32.04266
93.865474
93.862602
93.859366
93.855807
93.851969
93.8479
93.843664
93.839334
93.834978
93.830646
93.826345
93.821949
93.8169
93.809364
93.793947
93.755973
93.658221
93.412704
92.826205
91.506483
88.723313
83.249241
73.279387
56.641697
31.884619
93.26512
93.262693
93.260022
93.257146
93.25407
93.250807
93.247394
93.243896
93.240364
93.236817
93.233235
93.229473
93.224958
93.217832
93.20269
93.164872
93.067202
92.821822
92.235956
90.918732
88.143661
82.691653
72.771645
56.223835
31.606087
91.996821
91.994913
91.99301
91.991166
91.989308
91.987356
91.985283
91.983139
91.980939
91.978619
91.976092
91.973188
91.969304
91.962524
91.947438
91.90949
91.811721
91.566775
90.983142
89.673234
86.918568
81.517291
71.709539
55.379481
31.121961
89.35385
89.352564
89.351787
89.351714
89.352104
89.352643
89.353133
89.353623
89.354092
89.354212
89.353697
89.352364
89.349563
89.343213
89.327929
89.289504
89.191622
88.948292
88.371178
87.080195
84.374023
79.086169
69.52086
53.660406
30.186223
84.11386
84.113271
84.114033
84.116956
84.121486
84.126765
84.132152
84.13789
84.144081
84.149528
84.15321
84.155115
84.154604
84.149185
84.133623
84.094674
83.997663
83.759929
83.200456
81.95542
79.358815
74.313887
65.246019
50.311688
28.323517
74.415999
74.416391
74.418752
74.425911
74.436965
74.449999
74.463505
74.478721
74.496693
74.513365
74.525165
74.533043
74.536923
74.533607
74.518345
74.480123
74.387979
74.166703
73.651085
72.510898
70.147037
65.592495
57.488552
44.295666
25.037742
57.946795
57.950398
57.953724
57.96457
57.98228
58.003701
58.02649
58.054722
58.092163
58.127707
58.15136
58.166885
58.176434
58.176459
58.163359
58.130004
58.05259
57.870944
57.452462
56.536833
54.62753
50.982122
44.581507
34.334365
19.584682
32.975004
32.985821
32.989246
32.998848
33.015425
33.036101
33.059191
33.091511
33.139292
33.185115
33.213225
33.230155
33.240862
33.243156
33.235278
33.214489
33.167897
33.061479
32.825935
32.347596
31.225909
29.083366
25.376028
19.578009
11.564484
)
;

boundaryField
{
    Walls
    {
        Cmu             0.09;
        kappa           0.41;
        E               9.8;
        beta1           0.075;
        type            omegaWallFunction;
        value           nonuniform List<scalar> 
38
(
12058.19
12058.131
12058.179
12058.53
12061.544
12087.272
13479.944
13534.942
14920.445
15030.901
15114.998
15198.352
15271.262
15326.357
15374.066
15411.335
15446.513
15474.51
15492.662
15511.727
15521.136
15536.978
15550.588
15550.833
15557.239
15561.34
15564.964
15571.551
15577.004
15575.284
15575.465
15576.655
15573.58
15571.927
15570.212
15568.419
15558.417
15499.435
)
;
    }
    Inlet
    {
        type            turbulentMixingLengthDissipationRateInlet;
        mixingLength    0.03;
        phi             phi;
        k               k;
        value           nonuniform List<scalar> 3(0.0036052798 0.0048205701 0.004895929);
    }
    Outlet
    {
        type            inletOutlet;
        inletValue      uniform 1e-05;
        value           nonuniform List<scalar> 
86
(
32.904637
32.906999
32.912231
32.920733
32.938592
32.975004
32.985821
32.989246
32.998848
33.015425
33.036101
33.059191
33.091511
33.139292
33.185115
33.213225
33.230155
33.240862
33.243156
33.235278
33.214489
33.167897
33.061479
32.825935
32.347596
31.225909
29.083366
25.376028
19.578009
11.564484
233.33621
232.56666
202.23999
1e-05
1e-05
1e-05
1e-05
58.997555
62.817927
1e-05
1e-05
1e-05
1e-05
29.907056
31.545071
32.449169
32.57407
32.524572
32.722388
32.789688
32.869515
32.709472
32.765274
32.937819
33.101953
33.178975
33.226539
33.230286
33.193708
33.040641
32.955255
32.902624
32.822137
32.791416
32.772707
32.701412
32.679284
32.550222
32.525133
32.396146
32.300893
32.04266
31.884619
31.606087
31.121961
30.186223
28.323517
25.037742
19.584682
11.564484
1e-05
1e-05
1e-05
1e-05
199.46981
232.2648
)
;
    }
    Front
    {
        type            wedge;
    }
    Back
    {
        type            wedge;
    }
    defaultFaces
    {
        type            empty;
    }
}


// ************************************************************************* //
