/*--------------------------------*- C++ -*----------------------------------*\
| =========                 |                                                 |
| \\      /  F ield         | OpenFOAM: The Open Source CFD Toolbox           |
|  \\    /   O peration     | Version:  4.0                                   |
|   \\  /    A nd           | Web:      www.OpenFOAM.org                      |
|    \\/     M anipulation  |                                                 |
\*---------------------------------------------------------------------------*/
FoamFile
{
    version     2.0;
    format      ascii;
    class       volScalarField;
    location    "0.12";
    object      p;
}
// * * * * * * * * * * * * * * * * * * * * * * * * * * * * * * * * * * * * * //

dimensions      [0 2 -2 0 0 0 0];

internalField   nonuniform List<scalar> 
1740
(
491.62428
491.63386
491.66091
475.04113
474.77118
474.9861
458.32594
458.01785
458.42694
441.66685
441.76082
441.78825
425.68845
425.76645
425.31688
409.57605
409.48781
409.35763
392.865
392.88788
392.9614
376.17756
376.19778
376.07837
359.52671
359.4967
359.43766
342.74552
342.73366
342.9617
326.16854
326.10754
326.29266
309.48436
309.47255
309.34028
292.50834
292.49727
292.38855
275.32574
275.3648
275.32052
258.11702
258.12631
258.07367
241.48934
241.2581
241.14969
225.41811
225.19726
224.86435
209.24598
209.29265
209.24669
192.81782
193.10036
193.54398
176.37811
176.4177
176.81258
159.72892
159.57952
159.6494
143.22598
143.05052
142.74396
126.77832
126.65486
126.26559
110.23209
110.45545
110.5693
94.25168
94.432532
94.975766
78.584622
78.392078
78.639142
62.38996
62.36134
62.456449
46.380739
46.716274
46.701786
31.279473
31.407859
31.006419
16.806704
16.463202
15.831585
4.5315332
3.8267438
1.8945248
-0.30060077
-0.28681703
-0.1859378
0.08272088
0.067039635
0.045367563
0.15861456
0.14270711
0.1138093
0.12714242
0.1187147
0.10341889
0.099210339
0.094041036
0.085274429
0.078623165
0.075370489
0.070094285
0.064262177
0.062243899
0.058604422
0.053979764
0.052635509
0.050107821
0.046322927
0.045431561
0.043677016
0.040247811
0.039622359
0.038385436
0.035173081
0.034717903
0.033787519
0.030820479
0.030473261
0.029763081
0.027060916
0.026798832
0.026247193
0.023818443
0.023609599
0.023173042
0.021000361
0.020830986
0.020479707
0.018538764
0.018401049
0.018114522
0.016378516
0.016265955
0.016028984
0.01447489
0.01438196
0.014183359
0.012792875
0.012715124
0.012547666
0.011305262
0.011239588
0.011097665
0.0099895582
0.0099337318
0.0098128764
0.0088266966
0.0087790369
0.0086757151
0.007800223
0.0077594303
0.0076708385
0.0068957574
0.0068606692
0.0067843834
0.0060998974
0.0060696019
0.0060036993
0.0054004011
0.0053741691
0.005317075
0.0047860897
0.0047633455
0.0047137392
0.0042452118
0.0042255517
0.0041827619
0.0037720858
0.0037549821
0.0037177017
0.0033567082
0.0033417994
0.0033092835
0.0029916397
0.0029786253
0.0029502322
0.0026701948
0.0026588193
0.0026339957
0.0023863668
0.002376411
0.0023546813
0.0021347855
0.0021260616
0.0021070176
0.0019106785
0.0019030281
0.0018863252
0.0017098156
0.0017031048
0.0016884528
0.0015284645
0.0015225781
0.0015097264
0.0013633806
0.0013582215
0.0013469595
0.0012117646
0.0012072522
0.0011974074
0.0010712053
0.0010672735
0.001058703
0.00093963817
0.00093623875
0.00092882277
0.00081531651
0.00081240535
0.00080604819
0.00069676025
0.00069430037
0.00068892499
0.00058272022
0.00058068246
0.00057622732
0.00047215772
0.00047051941
0.00046693634
0.00036423075
0.00036297456
0.00036022669
0.00025831365
0.00025742656
0.00025548629
0.00015404927
0.00015352141
0.00015236804
5.0997356e-05
5.082227e-05
5.0440902e-05
-1.1326401
-0.80352502
-0.15945118
-0.13274787
0.022648353
0.0062416706
0.088772759
0.070098553
0.089025465
0.077390578
0.076487799
0.068763496
0.064301817
0.058870623
0.054511764
0.050493103
0.047025058
0.043945639
0.041430077
0.039024349
0.036733231
0.034860217
0.032530951
0.031030188
0.028772989
0.027587091
0.025463966
0.024513557
0.022547365
0.021777579
0.019975061
0.019343845
0.017701842
0.017174565
0.01568397
0.015242586
0.013892434
0.013520457
0.012301407
0.011985746
0.010888307
0.01061904
0.0096341448
0.0094035148
0.0085225445
0.0083242687
0.0075390953
0.007368073
0.0066707324
0.0065228146
0.0059053914
0.0057771799
0.0052318138
0.0051204842
0.0046395801
0.0045427599
0.0041187033
0.0040345317
0.0036618223
0.0035884242
0.003260512
0.0031964217
0.0029076196
0.0028515823
0.0025967199
0.0025476612
0.0023220347
0.0022790339
0.0020783905
0.0020406545
0.0018612042
0.0018280645
0.0016664065
0.0016373016
0.0014903803
0.0014648238
0.001329999
0.0013075811
0.0011825745
0.0011629588
0.0010457835
0.0010286888
0.00091764146
0.00090284036
0.00079646173
0.00078376713
0.00068081745
0.00067007761
0.0005695065
0.00056060089
0.00046153024
0.00045436495
0.00035608033
0.00035058367
0.00025255838
0.00024867642
0.00015062731
0.0001483192
4.9865547e-05
4.9102726e-05
0.046707094
0.04594217
0.044482062
0.042560009
0.040290472
0.037817533
0.035223224
0.032560595
0.029871368
0.027198879
0.024584651
0.022063643
0.019662126
0.017396296
0.015273172
0.013292558
0.011448718
0.0097303712
0.0081257112
0.0066405241
0.0052635393
0.0039772519
0.0027667039
0.0016194176
0.00052469149
0.047565127
0.046738265
0.045160002
0.043018235
0.040527674
0.037831537
0.03502363
0.032163042
0.02930893
0.026518214
0.023835432
0.021290722
0.018900386
0.016669041
0.014594421
0.01267107
0.010891615
0.009248923
0.0077347358
0.0063259083
0.0050128944
0.0037855265
0.0026315862
0.0015410262
0.00050444524
0.046175437
0.044903553
0.04265387
0.039837753
0.036582958
0.03306426
0.029460565
0.025962171
0.022753818
0.019860373
0.017272967
0.014972509
0.012928917
0.011112438
0.0095009205
0.008074696
0.0068136153
0.0056976218
0.0047063723
0.0038171094
0.0030097408
0.0022695854
0.0015841458
0.00094390444
0.00033224783
0.033336486
0.031191733
0.027483585
0.022878891
0.018205908
0.013968153
0.010404516
0.0075356257
0.0052358028
0.0034307424
0.002047258
0.0010016913
0.00022234911
-0.00033525672
-0.00069772336
-0.00090151486
-0.00098160817
-0.00096779604
-0.00088572643
-0.00075870456
-0.00060687179
-0.00044538724
-0.00028609615
-0.00013535982
-9.9488841e-06
-0.014291747
-0.017863178
-0.022244507
-0.02439296
-0.025454711
-0.025226296
-0.024224375
-0.02276665
-0.021009403
-0.019087438
-0.017134929
-0.01526767
-0.013471599
-0.011666536
-0.0099361795
-0.0083586234
-0.0069463071
-0.0056955703
-0.004596242
-0.0036338871
-0.0027910949
-0.0020501793
-0.001395566
-0.00080984149
-0.00028674903
-0.1719696
-0.13572224
-0.12238257
-0.096742008
-0.075728891
-0.057228114
-0.041599201
-0.029026746
-0.019161035
-0.011539478
-0.0057561555
-0.0014568417
0.001598111
0.0036486812
0.0049396288
0.0056315401
0.0058584509
0.0057283675
0.0053273091
0.0047243908
0.0039756917
0.0031288629
0.0022188701
0.0012830835
0.00030110518
-0.26331086
-0.076313596
-0.035032061
-0.0043645586
0.024181759
0.046578555
0.059856359
0.064971784
0.065066803
0.062659348
0.058955363
0.054492723
0.049630244
0.044630874
0.039663406
0.034836101
0.030211413
0.02582209
0.021679417
0.017780047
0.014109598
0.010649138
0.0073671202
0.0042537282
0.0011991556
-0.11891379
-0.11136622
-0.097473591
-0.080133188
-0.062396562
-0.046318279
-0.032688262
-0.021764938
-0.013258817
-0.0067619982
-0.0019182342
0.0015912219
0.0039442136
0.0054973884
0.0064078297
0.0068033157
0.0067944557
0.0064728857
0.0059142988
0.005180928
0.0043225324
0.0033812934
0.0023877819
0.0013773838
0.00032476885
-0.0090665933
-0.020316284
-0.02726983
-0.030807366
-0.031827775
-0.031118288
-0.029555602
-0.027486952
-0.025134607
-0.022738703
-0.02037115
-0.01800276
-0.015629296
-0.013441293
-0.011461532
-0.0096855452
-0.0080993533
-0.0066864822
-0.0054229778
-0.0043046539
-0.0033174765
-0.0024451108
-0.0016712656
-0.00097541844
-0.00034721395
0.053289118
0.039264646
0.027741901
0.01861737
0.011531284
0.0061869485
0.0022467557
-0.00055667565
-0.0024895814
-0.0037690074
-0.0045734225
-0.0050174648
-0.0051683923
-0.0050935753
-0.004850185
-0.0044873037
-0.0040450355
-0.0035546117
-0.0030478565
-0.0025308802
-0.002015044
-0.0015110053
-0.0010265474
-0.00056588196
-0.00014688074
0.067722535
0.058675984
0.050262709
0.042457989
0.035261099
0.029001315
0.023810129
0.019552935
0.01606764
0.013208214
0.010847608
0.0089050701
0.0073087091
0.0059976457
0.0049217301
0.0040367263
0.0033040526
0.0026949169
0.0021822445
0.0017441881
0.0013638583
0.0010270145
0.00072255188
0.00044412009
0.0001767777
0.062154846
0.056138083
0.050516137
0.045336245
0.040520801
0.035983774
0.031738626
0.027869486
0.024401342
0.021312414
0.018551183
0.01612435
0.01399725
0.01212213
0.010459422
0.0089791088
0.0076561458
0.0064652921
0.0053842436
0.0043938486
0.0034790747
0.0026271211
0.0018273257
0.0010728356
0.00035761474
0.054030439
0.04953897
0.045313743
0.041237475
0.037525477
0.034035217
0.030733568
0.027625003
0.024701922
0.021994623
0.019541849
0.017301346
0.015259854
0.013400483
0.01170713
0.010161182
0.0087442218
0.0074416856
0.0062377153
0.0051181005
0.004070613
0.0030843757
0.0021500241
0.0012600999
0.00040858008
0.046776032
0.043304897
0.040022778
0.036890363
0.03393396
0.031120824
0.028426333
0.02581736
0.023335967
0.02100947
0.0188421
0.016825241
0.014949322
0.013213182
0.011607308
0.010121375
0.0087443264
0.0074628213
0.0062678576
0.0051498305
0.0040992146
0.0031075697
0.0021669228
0.0012697318
0.00040938936
0.041040125
0.038272183
0.035637445
0.033111321
0.030697054
0.028385493
0.026156752
0.024001089
0.021921846
0.019928972
0.018030446
0.016240238
0.01454567
0.012947882
0.011444487
0.010031008
0.0087027655
0.0074538979
0.0062785585
0.0051703685
0.0041227822
0.0031293722
0.0021838141
0.0012800948
0.00041226616
0.036612766
0.034298707
0.032087785
0.029967309
0.027936808
0.025986231
0.024106868
0.022283012
0.020518461
0.018813043
0.017169204
0.015571701
0.014034463
0.01257209
0.011179204
0.0098510533
0.0085870313
0.0073858286
0.0062441186
0.0051579964
0.0041235615
0.003136614
0.0021927044
0.0012877081
0.00041633457
0.032878063
0.030920385
0.029031467
0.027215384
0.025470873
0.023795087
0.022177224
0.020607066
0.019080655
0.017596799
0.016155097
0.014752545
0.01339041
0.012063019
0.01077841
0.0095403536
0.0083505941
0.0072112629
0.0061186254
0.0050699167
0.0040634613
0.003097016
0.0021679852
0.0012739173
0.00041158367
0.029430151
0.027811243
0.026217417
0.02466632
0.023164869
0.021713501
0.020306461
0.018938226
0.017603171
0.016301383
0.015029475
0.013785153
0.012567424
0.011375624
0.010212017
0.009082169
0.0079854493
0.0069196336
0.005887682
0.0048908975
0.0039283283
0.0029989256
0.0021015567
0.0012353898
0.00039886404
0.026293063
0.024954289
0.023610924
0.022284935
0.02098761
0.019723239
0.018491814
0.017290668
0.016116878
0.014967358
0.013840016
0.012734255
0.0116478
0.010579441
0.0095309884
0.0085039409
0.0074994186
0.0065180551
0.0055613117
0.0046304777
0.0037262068
0.0028487894
0.0019983736
0.001175734
0.0003801195
0.023456469
0.022342354
0.021205839
0.02006922
0.018945469
0.017840872
0.016758992
0.015699646
0.014661622
0.013642557
0.012640894
0.011655529
0.010684716
0.0097278208
0.0087855045
0.0078580304
0.0069461819
0.0060509026
0.0051736634
0.0043156678
0.0034780777
0.0026618419
0.0018678013
0.0010994368
0.00035708254
0.02090384
0.019969876
0.019004034
0.018026474
0.017050391
0.016083649
0.015130506
0.014193019
0.01327125
0.012364385
0.011471434
0.010591351
0.0097230527
0.0088659378
0.0080199027
0.0071849878
0.0063615418
0.005550409
0.0047527581
0.0039698275
0.003202744
0.0024524795
0.0017186414
0.0010115414
0.0003342098
0.018614915
0.017826509
0.017001574
0.016157621
0.015307299
0.014458867
0.013617358
0.012785658
0.011965028
0.011155763
0.010357587
0.009569925
0.0087921643
0.008023789
0.0072645517
0.0065143506
0.0057733801
0.0050421616
0.0043216349
0.0036128926
0.0029170983
0.0022355201
0.001569653
0.00092548228
0.00030328296
0.016563823
0.01589475
0.015187029
0.014456012
0.013713199
0.012966878
0.012222435
0.011483292
0.010751488
0.010028063
0.0093133886
0.0086074445
0.0079100123
0.0072208159
0.0065396472
0.0058664214
0.0052012826
0.0045446014
0.0038970644
0.0032596055
0.0026333594
0.002019667
0.0014200656
0.00083737115
0.0002724125
0.014726861
0.014156112
0.013546616
0.012911515
0.01226123
0.011603578
0.010944074
0.010286484
0.0096332747
0.0089860319
0.0083456236
0.0077124961
0.0070868138
0.0064685734
0.0058577395
0.0052543174
0.0046584429
0.0040704074
0.0034907516
0.0029202524
0.0023598798
0.0018108079
0.001274209
0.00075155407
0.00024377019
0.01308242
0.012593297
0.012066652
0.01151356
0.010943343
0.01036318
0.0097784749
0.0091931451
0.008609964
0.0080307848
0.0074569001
0.0068890983
0.0063278652
0.0057734789
0.0052261034
0.0046858741
0.0041529599
0.0036276313
0.003110335
0.0026016621
0.0021023632
0.0016133048
0.0011353146
0.00066963146
0.00021721889
0.011611698
0.011190938
0.010734529
0.010252005
0.0097513941
0.0092392797
0.0087207877
0.0081998229
0.0076792958
0.0071612636
0.0066472446
0.0061383102
0.005635197
0.0051384151
0.0046483209
0.0041651863
0.0036892561
0.0032208024
0.0027602114
0.0023079152
0.0018644448
0.0014304072
0.0010063638
0.00059345546
0.0001923977
0.010298234
0.009935207
0.0095387499
0.0091171385
0.0086773016
0.0082251561
0.0077654948
0.0073020582
0.0068377601
0.0063748313
0.0059148615
0.0054591316
0.0050085538
0.0045638131
0.0041254238
0.0036937824
0.0032692238
0.0028520578
0.0024425858
0.002041168
0.0016481807
0.0012640219
0.00088905789
0.00052418752
0.00016990521
0.0091274312
0.0088133149
0.0084684284
0.0080996287
0.0077130248
0.0073138624
0.0069065739
0.0064946501
0.0060809375
0.0056676771
0.0052566028
0.0048490131
0.0044459692
0.0040482789
0.0036565599
0.0032713117
0.0028929351
0.002521773
0.0021580981
0.0018022106
0.0014543838
0.0011148894
0.0007839492
0.00046220239
0.00014995958
0.0080860007
0.0078136588
0.0075131996
0.0071903957
0.0068505335
0.0064982844
0.0061376431
0.0057718316
0.005403629
0.0050351898
0.0046682749
0.0043042457
0.0039442006
0.0035890155
0.0032393914
0.0028958806
0.002558925
0.0022288786
0.0019060181
0.0015905827
0.0012827914
0.00098284227
0.00069087416
0.00040735799
0.00013241473
0.0071618758
0.0069253208
0.0066632967
0.00638065
0.0060819251
0.005771223
0.0054520447
0.0051274984
0.0048001731
0.0044721024
0.0041450041
0.0038203117
0.0034990785
0.0031822189
0.0028704733
0.0025644175
0.0022645088
0.0019710987
0.001684457
0.0014047949
0.001132284
0.0008670776
0.00060925704
0.00035920477
0.00011691626
0.0063439986
0.0061381939
0.0059094772
0.0056618842
0.005399306
0.0051252919
0.0048430351
0.0045553883
0.0042646372
0.0039728152
0.0036815432
0.0033922139
0.0031058937
0.002823466
0.0025456903
0.0022731274
0.0020062347
0.0017453639
0.0014907721
0.0012426458
0.0010011295
0.00076631567
0.00053822833
0.00031726111
0.00010328175
0.0056218378
0.0054425542
0.0052427177
0.0050257221
0.0047948819
0.0045533035
0.0043038246
0.0040489966
0.0037909566
0.0035315909
0.0032724542
0.0030147969
0.002759732
0.0025081179
0.0022606759
0.0020179395
0.0017803623
0.0015482879
0.0013219731
0.0011015734
0.00088720282
0.00067891935
0.00047670801
0.00028098945
9.1538604e-05
0.0049853307
0.0048289751
0.0046542411
0.0044639756
0.0042610217
0.0040480666
0.0038276301
0.0036019768
0.0033730899
0.0031426876
0.0029122294
0.0026828986
0.0024557413
0.0022315951
0.0020110994
0.0017948322
0.0015832023
0.0013765364
0.0011750798
0.00097897405
0.0007883167
0.00060314741
0.00042343594
0.00024963463
8.1454034e-05
0.0044250203
0.0042885253
0.0041356333
0.0039687768
0.003790336
0.0036026057
0.0034078433
0.0032080921
0.003005126
0.0028005064
0.0025955895
0.0023914923
0.00218918
0.0019894243
0.0017928506
0.001599996
0.0014112694
0.0012269728
0.0010473124
0.00087245566
0.00070248409
0.00053743516
0.00037727794
0.00022248614
7.2737803e-05
0.0039319741
0.0038128042
0.0036789973
0.0035326644
0.0033758465
0.0032102856
0.0030381704
0.0028613504
0.0026814022
0.0024997034
0.002317486
0.0021358028
0.0019555498
0.0017774198
0.0016020272
0.0014298643
0.0012613182
0.001096675
0.00093614053
0.00077986801
0.00062794529
0.0004804141
0.00033725036
0.00019894656
6.5171229e-05
0.0034988396
0.0033945513
0.0032771963
0.0031484893
0.0030102284
0.0028644493
0.0027125786
0.0025561329
0.0023965828
0.002235232
0.0020731642
0.0019113741
0.0017506772
0.0015916879
0.001435017
0.0012811192
0.0011303528
0.00098299383
0.00083924392
0.00069924646
0.00056309386
0.00043083935
0.00030246564
0.00017849068
5.8589915e-05
0.0031180996
0.003026775
0.00292383
0.002810749
0.0026890768
0.0025603897
0.0024260892
0.0022875141
0.0021459422
0.002002523
0.0018582739
0.0017140536
0.0015705791
0.0014285664
0.0012884767
0.0011507258
0.0010156511
0.00088351452
0.00075451801
0.00062880492
0.00050647329
0.0003875815
0.00027212411
0.00016064488
5.2844194e-05
0.002783027
0.0027029731
0.0026125948
0.002513152
0.0024059534
0.0022923166
0.0021734936
0.0020506752
0.0019249803
0.0017974283
0.0016689271
0.0015402628
0.0014121116
0.0012850668
0.0011595946
0.0010360809
0.00091484003
0.00079612145
0.00068011903
0.00056697741
0.00045679919
0.00034965066
0.00024552528
0.00014499659
4.7801343e-05
0.0024875797
0.0024173305
0.0023379054
0.0022503703
0.0021558355
0.0020554215
0.0019502238
0.0018412912
0.0017296067
0.0016160739
0.0015015018
0.0013866033
0.0012719959
0.0011582089
0.0010456791
0.0009347662
0.00082576549
0.00071891345
0.00061439949
0.00051236957
0.00041293264
0.00031616228
0.00022204778
0.00013117663
4.3339447e-05
0.0022263138
0.0021646038
0.0020947349
0.0020176087
0.0019341695
0.001845374
0.0017521747
0.0016554875
0.0015561769
0.0014550423
0.0013528032
0.0012501022
0.0011474995
0.0010454752
0.00094443228
0.00084470695
0.00074657497
0.00065026258
0.00055595293
0.00046379415
0.00037390287
0.00028636416
0.00020116031
0.00011887302
3.9361213e-05
0.0019943498
0.0019400923
0.0018785747
0.0018105618
0.0017368598
0.0016582872
0.0015756686
0.0014898002
0.0014014405
0.0013112923
0.0012199978
0.0011281346
0.0010362088
0.00094465678
0.0008538499
0.00076410081
0.00067566838
0.00058876801
0.00050357792
0.000420246
0.00033889688
0.00025963184
0.0001824251
0.00010783304
3.57913e-05
0.001787363
0.0017396197
0.0016854146
0.0016253959
0.0015602525
0.0014907031
0.0014174425
0.001341159
0.0012625166
0.0011821381
0.0011005929
0.0010183997
0.00093601376
0.00085383102
0.00077219333
0.00069139153
0.00061166958
0.00053323217
0.00045625241
0.00038087758
0.00030723682
0.00023545039
0.00016549146
9.7846818e-05
3.2531381e-05
0.0016015136
0.0015594871
0.0015117155
0.0014587495
0.0014011729
0.0013396053
0.0012746397
0.0012068723
0.0011368827
0.0010652224
0.00099241169
0.00091889733
0.00084508513
0.00077133617
0.00069796501
0.00062524196
0.00055339811
0.0004826284
0.00041310059
0.00034495864
0.00027833103
0.00021334171
0.00014997887
8.8670678e-05
2.949039e-05
0.0014333736
0.0013964041
0.0013543375
0.001307639
0.0012568032
0.0012023292
0.0011447556
0.0010846045
0.0010223786
0.00095855974
0.00089360993
0.00082792205
0.00076186043
0.00069575273
0.0006298863
0.00056451108
0.00049984576
0.00043607969
0.00037336996
0.00031185341
0.00025165431
0.00019289996
0.00013553001
8.0088081e-05
2.6658166e-05
0.001279978
0.0012475057
0.0012105165
0.0011694003
0.0011245778
0.001076478
0.0010255642
0.00097229051
0.00091709608
0.0008603963
0.00080256769
0.00074398941
0.00068499374
0.00062587554
0.00056689405
0.00050827698
0.0004502256
0.00039291618
0.00033649395
0.0002810856
0.00022680566
0.00017377288
0.00012188166
7.1967886e-05
2.4076001e-05
0.0011387888
0.0011103338
0.0010778934
0.0010417825
0.0010023651
0.00096002519
0.00091514522
0.00086811299
0.00081930869
0.00076909395
0.00071780178
0.00066576703
0.00061328936
0.00056063424
0.00050803704
0.00045570433
0.00040381359
0.00035251544
0.00030194694
0.00025222451
0.00020344357
0.00015568543
0.00010871567
6.4142249e-05
2.1875651e-05
0.0010076079
0.00098277464
0.00095446248
0.00092288478
0.00088837978
0.00085127385
0.000811892
0.00077056378
0.00072761539
0.00068336313
0.00063811412
0.00059214764
0.00054572603
0.00049908668
0.00045244168
0.00040597693
0.00035985141
0.00031420096
0.00026914788
0.00022479456
0.00018121807
0.00013846829
9.5932016e-05
5.665513e-05
1.9985321e-05
0.00088457865
0.00086304939
0.00083847467
0.00081105313
0.00078105672
0.00074876127
0.00071444433
0.00067838728
0.00064086982
0.00060216597
0.00056254058
0.00052223793
0.00048148573
0.00044049264
0.00039944618
0.00035851204
0.00031783549
0.00027754365
0.00023774386
0.00019852746
0.00015996703
0.00012217967
8.4029469e-05
4.9965585e-05
1.781331e-05
0.0007680975
0.00074960988
0.00072848137
0.00070489876
0.0006790782
0.00065124913
0.00062164658
0.00059050909
0.00055807464
0.00052457771
0.00049024354
0.00045528362
0.00041989501
0.00038425913
0.00034854014
0.00031288473
0.00027742296
0.00024226888
0.00020751972
0.0001732577
0.00013954853
0.00010643628
7.3463105e-05
4.3542904e-05
1.5556565e-05
0.00065681475
0.00064115648
0.00062324786
0.00060324822
0.00058133391
0.00055769396
0.00053252423
0.0005060241
0.00047839347
0.00044982945
0.00042052197
0.00039065106
0.00036038499
0.00032987939
0.00029927583
0.00026870239
0.00023827339
0.00020809
0.00017824067
0.00014880309
0.00011984549
9.1430356e-05
6.3434994e-05
3.7536473e-05
1.3179846e-05
0.00054959866
0.0005366025
0.00052173001
0.00050511208
0.00048689099
0.0004672205
0.00044626067
0.000424175
0.00040112791
0.00037728172
0.00035279382
0.00032781409
0.00030248342
0.00027693263
0.00025128135
0.00022563891
0.0002001035
0.00017476327
0.00014969732
0.00012497768
0.00010067254
7.6853072e-05
5.3491722e-05
3.1653205e-05
1.0988372e-05
0.00044550979
0.00043504549
0.00042306488
0.00040967194
0.00039497867
0.00037910688
0.00036218375
0.00034433951
0.00032570543
0.00030641144
0.00028658401
0.0002663442
0.00024580629
0.00022507679
0.00020425436
0.00018342862
0.00016268138
0.00014208653
0.00012171201
0.00010162077
8.1873768e-05
6.2535003e-05
4.359644e-05
2.5806606e-05
8.9151681e-06
0.00034378893
0.00033575697
0.0003265578
0.00031626991
0.00030497841
0.0002927752
0.00027975681
0.00026602235
0.00025167188
0.00023680467
0.00022151767
0.00020590401
0.00019005196
0.00017404421
0.00015795769
0.00014186266
0.00012582374
0.0001098994
9.4144064e-05
7.8608349e-05
6.334083e-05
4.8390284e-05
3.3744383e-05
1.9982275e-05
6.9053142e-06
0.00024387682
0.000238202
0.00023170071
0.00022442765
0.00021644259
0.00020780962
0.00019859625
0.00018887207
0.0001787074
0.00016817217
0.00015733478
0.00014626119
0.00013501406
0.00012365235
0.00011223089
0.0001008003
8.940703e-05
7.8094144e-05
6.6900218e-05
5.586164e-05
4.5012184e-05
3.4382315e-05
2.3935873e-05
1.4186277e-05
4.9392374e-06
0.00014546515
0.00014209014
0.00013822285
0.00013389548
0.00012914343
0.00012400448
0.00011851842
0.00011272646
0.00010667028
0.00010039137
9.3930376e-05
8.7326567e-05
8.0617342e-05
7.3837933e-05
6.7021173e-05
6.0197503e-05
5.3394981e-05
4.6639596e-05
3.9954802e-05
3.3361962e-05
2.6880348e-05
2.0527322e-05
1.419168e-05
8.4569216e-06
3.0075197e-06
4.8159477e-05
4.7043968e-05
4.5765617e-05
4.4335021e-05
4.2763821e-05
4.1064457e-05
3.9250005e-05
3.7334037e-05
3.533032e-05
3.325256e-05
3.1114178e-05
2.892815e-05
2.6706849e-05
2.4461935e-05
2.2204298e-05
1.994405e-05
1.7690536e-05
1.5452319e-05
1.3237259e-05
1.1052477e-05
8.9038367e-06
6.7967218e-06
4.7268873e-06
2.8073283e-06
9.7073811e-07
)
;

boundaryField
{
    Walls
    {
        type            zeroGradient;
    }
    Inlet
    {
        type            fixedValue;
        value           uniform 500;
    }
    Outlet
    {
        type            fixedValue;
        value           uniform 0;
    }
    Front
    {
        type            wedge;
    }
    Back
    {
        type            wedge;
    }
    defaultFaces
    {
        type            empty;
    }
}


// ************************************************************************* //
