/*--------------------------------*- C++ -*----------------------------------*\
| =========                 |                                                 |
| \\      /  F ield         | OpenFOAM: The Open Source CFD Toolbox           |
|  \\    /   O peration     | Version:  4.0                                   |
|   \\  /    A nd           | Web:      www.OpenFOAM.org                      |
|    \\/     M anipulation  |                                                 |
\*---------------------------------------------------------------------------*/
FoamFile
{
    version     2.0;
    format      ascii;
    class       surfaceScalarField;
    location    "0.12";
    object      phi;
}
// * * * * * * * * * * * * * * * * * * * * * * * * * * * * * * * * * * * * * //

dimensions      [0 3 -1 0 0 0 0];

internalField   nonuniform List<scalar> 
3364
(
-1.0904443e-10
1.7583739e-08
-4.8677525e-10
4.8978931e-08
8.7419555e-08
1.2488878e-10
1.7458826e-08
-1.9416609e-09
5.1045504e-08
8.5477912e-08
3.3585573e-10
1.7122962e-08
-2.5649577e-09
5.3946368e-08
8.2912945e-08
-2.028839e-10
1.7325831e-08
6.5401352e-10
5.3089444e-08
8.3566906e-08
2.8898245e-11
1.7296895e-08
2.6787544e-09
5.0439515e-08
8.6245593e-08
3.9364591e-10
1.6903226e-08
7.5651575e-10
5.0076576e-08
8.7002047e-08
-1.7259652e-10
1.7075789e-08
-1.1202453e-09
5.1024179e-08
8.588177e-08
-3.5125935e-10
1.7426998e-08
-1.11819e-10
5.078471e-08
8.5769943e-08
-6.1352893e-11
1.7488311e-08
5.1890158e-10
5.0204423e-08
8.6288833e-08
-5.3412151e-11
1.7541712e-08
-1.0405236e-09
5.1191501e-08
8.5248276e-08
1.6136618e-10
1.7380322e-08
-1.3110737e-09
5.2663914e-08
8.3937174e-08
-3.6460224e-11
1.7416728e-08
2.9780107e-10
5.2329619e-08
8.4234963e-08
-3.1760367e-10
1.7734299e-08
4.1934241e-10
5.1592638e-08
8.4654279e-08
6.6307727e-12
1.7727644e-08
2.0643408e-10
5.1392796e-08
8.4860671e-08
2.5922586e-10
1.7468357e-08
-3.6810364e-11
5.1688779e-08
8.4823825e-08
3.2368578e-10
1.7144626e-08
2.0231478e-10
5.1810105e-08
8.5026108e-08
1.0457685e-10
1.7040034e-08
1.097675e-09
5.0816988e-08
8.6123754e-08
1.9241769e-11
1.7020767e-08
1.8709341e-10
5.0649129e-08
8.6310822e-08
-2.2726742e-10
1.7248012e-08
-6.435051e-10
5.1065321e-08
8.5667272e-08
1.7841371e-10
1.706958e-08
-5.5540231e-10
5.1799058e-08
8.5111803e-08
1.7413398e-10
1.6895403e-08
-4.6845932e-10
5.2441553e-08
8.4643289e-08
-2.2515777e-10
1.7120508e-08
1.4523669e-10
5.2071139e-08
8.4788507e-08
-6.5215435e-11
1.7185712e-08
9.3773925e-10
5.1068227e-08
8.5726237e-08
-2.9747562e-10
1.7483194e-08
-4.1797471e-11
5.081251e-08
8.5684411e-08
9.0988116e-11
1.7392168e-08
-1.7827936e-09
5.2686236e-08
8.390158e-08
7.5297217e-10
1.6639147e-08
-4.5974845e-10
5.3898927e-08
8.3441794e-08
1.628445e-10
1.6476253e-08
3.562395e-10
5.3705488e-08
8.3797985e-08
-8.7557885e-10
1.7351802e-08
1.8595522e-11
5.2811273e-08
8.3816538e-08
-5.696694e-10
1.7921517e-08
9.0738045e-10
5.133429e-08
8.472392e-08
1.8977457e-09
1.6023973e-08
5.2981309e-09
4.7934033e-08
9.0022047e-08
1.1616798e-08
4.406518e-09
4.8550042e-08
1.099893e-08
1.1011979e-08
1.2755754e-07
4.8338971e-09
-4.2784738e-10
1.7017939e-08
-1.1865911e-09
-1.2880339e-09
2.9316086e-08
-3.7989441e-10
-4.7917616e-11
-1.4072654e-09
-1.5914676e-10
-2.8148943e-10
-2.4137045e-09
-8.4589742e-11
3.6687239e-11
-3.2802839e-10
8.4328567e-11
6.1089086e-11
-6.7056313e-10
2.6816771e-12
3.4007253e-11
8.9518396e-13
8.6119721e-11
1.053773e-10
-4.3386223e-11
9.3795038e-12
2.4627805e-11
3.0424269e-11
6.5075178e-11
9.0743627e-11
4.5058425e-11
7.7725272e-12
1.6855022e-11
2.6404381e-11
4.6442992e-11
6.8489046e-11
4.8658065e-11
5.3624077e-12
1.1492507e-11
1.933675e-11
3.2468232e-11
4.9335146e-11
3.8490092e-11
2.9972542e-12
8.495288e-12
1.1345888e-11
2.411955e-11
3.6580264e-11
2.4100649e-11
1.6938259e-12
6.8015307e-12
6.0895091e-12
1.9723925e-11
3.0049699e-11
1.2620208e-11
9.9243986e-13
5.8091698e-12
3.7994508e-12
1.6916962e-11
2.6538208e-11
7.3110414e-12
7.5157335e-13
5.0576613e-12
2.8836899e-12
1.4784892e-11
2.3513124e-11
5.9088226e-12
6.7959993e-13
4.3781121e-12
2.5312178e-12
1.2933312e-11
2.0703057e-11
5.3413075e-12
5.770466e-13
3.801106e-12
2.2355321e-12
1.1274862e-11
1.8136289e-11
4.8023152e-12
5.0089141e-13
3.3002456e-12
1.9666072e-12
9.8091818e-12
1.5852902e-11
4.2500097e-12
4.2356578e-13
2.8767026e-12
1.6771579e-12
8.5556211e-12
1.3894108e-11
3.6359711e-12
3.5534139e-13
2.5213774e-12
1.4066237e-12
7.5043634e-12
1.2222533e-11
3.0782176e-12
3.0020071e-13
2.2211878e-12
1.1862028e-12
6.6183787e-12
1.081063e-11
2.5981208e-12
2.5848126e-13
1.9627139e-12
1.0223548e-12
5.8545158e-12
9.5755946e-12
2.2573987e-12
2.2837356e-13
1.7343448e-12
9.0151564e-13
5.1813786e-12
8.485442e-12
1.991671e-12
2.0193027e-13
1.5324168e-12
8.0196e-13
4.5813494e-12
7.5142322e-12
1.7731671e-12
1.7891727e-13
1.3535003e-12
7.1375728e-13
4.0465067e-12
6.6412226e-12
1.5867596e-12
1.5893719e-13
1.1945627e-12
6.3447093e-13
3.5709679e-12
5.8488573e-12
1.4268257e-12
1.4450755e-13
1.050054e-12
5.7379895e-13
3.1416699e-12
5.1623419e-12
1.2603017e-12
1.2655708e-13
9.2349527e-13
5.0333293e-13
2.7648865e-12
4.5513132e-12
1.114348e-12
1.1156063e-13
8.1193269e-13
4.4538675e-13
2.4310524e-12
4.0038541e-12
9.928315e-13
9.8858846e-14
7.1307172e-13
3.9540862e-13
2.1344944e-12
3.5167006e-12
8.8254769e-13
8.7375663e-14
6.2569388e-13
3.4864896e-13
1.8732131e-12
3.0862637e-12
7.7907191e-13
7.6674428e-14
5.4901728e-13
3.0567532e-13
1.6442045e-12
2.7090484e-12
6.8287717e-13
6.7140152e-14
4.8187505e-13
2.6799801e-13
1.4433393e-12
2.3786119e-12
5.984218e-13
5.8515364e-14
4.2335772e-13
2.3366304e-13
1.2681847e-12
2.090337e-12
5.2192621e-13
5.0728428e-14
3.7262747e-13
2.026011e-13
1.1163058e-12
1.8403702e-12
4.5255724e-13
4.373175e-14
3.2889407e-13
1.7466935e-13
9.8536253e-13
1.6248403e-12
3.9018956e-13
3.7479345e-14
2.9141325e-13
1.4971402e-13
8.7312278e-13
1.4400348e-12
3.3451092e-13
3.1910508e-14
2.5950145e-13
1.274724e-13
7.7755642e-13
1.2826896e-12
2.8481005e-13
2.6974093e-14
2.3252623e-13
1.077409e-13
6.9678573e-13
1.1497177e-12
2.4070626e-13
2.2614313e-14
2.0991096e-13
9.031816e-14
6.2907854e-13
1.0383099e-12
2.0172045e-13
1.8841903e-14
1.9106825e-13
7.5249857e-14
5.7266777e-13
9.4539214e-13
1.6816307e-13
1.5590604e-14
1.7547698e-13
6.2287781e-14
5.2596827e-13
8.6858364e-13
1.3909252e-13
1.2787216e-14
1.6268923e-13
5.1053917e-14
4.8769969e-13
8.056057e-13
1.1402883e-13
1.0389179e-14
1.5229963e-13
4.151129e-14
4.5657609e-13
7.5441584e-13
9.2698789e-14
8.3701611e-15
1.4392916e-13
3.3421072e-14
4.3152405e-13
7.1320645e-13
7.4628691e-14
6.6709751e-15
1.3725796e-13
2.6618868e-14
4.1157533e-13
6.8039651e-13
5.9427531e-14
5.2533263e-15
1.3200449e-13
2.0954864e-14
3.9587322e-13
6.5458066e-13
4.6769873e-14
4.0859091e-15
1.279185e-13
1.6307916e-14
3.8365085e-13
6.344876e-13
3.640048e-14
3.1389423e-15
1.2477952e-13
1.2575873e-14
3.7421373e-13
6.1896407e-13
2.8099197e-14
2.3779097e-15
1.2240162e-13
9.6174242e-15
3.6697415e-13
6.0703578e-13
2.1545732e-14
1.7784129e-15
1.2062324e-13
7.2372903e-15
3.6151531e-13
5.9801913e-13
1.6254116e-14
1.3230852e-15
1.1930021e-13
5.1431419e-15
3.5769535e-13
5.917543e-13
1.1408249e-14
7.2477465e-16
2.7160255e-15
5.9599247e-15
1.3693454e-07
-9.3822845e-09
-8.6642296e-09
1.455925e-07
2.1360749e-08
-1.4281432e-09
-1.3297212e-09
1.4025708e-08
-3.4321629e-09
-4.0955097e-10
-5.2213496e-10
-4.2396033e-09
-1.0791098e-09
-9.5300681e-13
-6.6750744e-11
-1.5344313e-09
-1.460442e-10
1.0171179e-10
8.9934829e-11
-3.027142e-10
3.9267243e-11
1.0750317e-10
1.1516655e-10
1.4038706e-11
7.184626e-11
8.4314112e-11
9.3957979e-11
9.3054563e-11
6.2647142e-11
6.0156451e-11
6.7674685e-11
8.8929632e-11
3.8784914e-11
4.5471949e-11
5.1384443e-11
5.5074787e-11
1.9911394e-11
3.8180857e-11
4.3495709e-11
2.7800181e-11
1.1338059e-11
3.4154015e-11
3.9277728e-11
1.5556225e-11
9.4283362e-12
3.0634595e-11
3.6186005e-11
1.25202e-11
8.6914411e-12
2.7284488e-11
3.2689053e-11
1.2188434e-11
8.0510187e-12
2.4035784e-11
2.9134007e-11
1.1606055e-11
7.112464e-12
2.1173326e-11
2.5779072e-11
1.046738e-11
6.1175038e-12
1.8691795e-11
2.2785102e-11
9.1114597e-12
5.219333e-12
1.6550686e-11
2.0332175e-11
7.6722532e-12
4.4631357e-12
1.4685677e-11
1.81472e-11
6.6481075e-12
3.9018141e-12
1.3041264e-11
1.6168375e-11
5.880632e-12
3.4547157e-12
1.1578216e-11
1.4396831e-11
5.2262487e-12
3.0843031e-12
1.0267071e-11
1.2791601e-11
4.6895169e-12
2.7663141e-12
9.0875029e-12
1.1347183e-11
4.2107109e-12
2.5001497e-12
8.0141615e-12
1.0050812e-11
3.796496e-12
2.1912847e-12
7.083159e-12
8.8771273e-12
3.3649424e-12
1.9482046e-12
6.2492818e-12
7.8290409e-12
2.9962633e-12
1.741045e-12
5.5010473e-12
6.8959832e-12
2.6740748e-12
1.5500413e-12
4.8335328e-12
6.0650081e-12
2.3809889e-12
1.3698375e-12
4.242747e-12
5.3277663e-12
2.1070527e-12
1.2001803e-12
3.7254246e-12
4.6776905e-12
1.850231e-12
1.0516594e-12
3.2721689e-12
4.1090558e-12
1.6202708e-12
9.1757706e-13
2.8765014e-12
3.6137947e-12
1.4128165e-12
7.9576489e-13
2.5332786e-12
3.1839645e-12
1.2255755e-12
6.8609971e-13
2.2373548e-12
2.8135875e-12
1.0564592e-12
5.8840956e-13
1.9834441e-12
2.4948766e-12
9.0710506e-13
5.0090148e-13
1.7673422e-12
2.2242632e-12
7.7150162e-13
4.2329998e-13
1.5847395e-12
1.9960849e-12
6.5146702e-13
3.5452679e-13
1.4319257e-12
1.8045224e-12
5.4607981e-13
2.9587121e-13
1.3042113e-12
1.6439514e-12
4.5643437e-13
2.4447837e-13
1.1988203e-12
1.5121124e-12
3.7631093e-13
2.0047091e-13
1.1123742e-12
1.4038473e-12
3.0873101e-13
1.6295505e-13
1.0421147e-12
1.3159028e-12
2.5089567e-13
1.3114755e-13
9.8559354e-13
1.245212e-12
2.0183544e-13
1.0442094e-13
9.4059848e-13
1.1889411e-12
1.6068991e-13
8.2161406e-14
9.0520589e-13
1.1446848e-12
1.2641645e-13
6.3942941e-14
8.7766287e-13
1.1102644e-12
9.8362751e-14
4.9391418e-14
8.5637047e-13
1.0836551e-12
7.6000567e-14
3.7934563e-14
8.3998177e-13
1.0631596e-12
5.8430384e-14
2.860546e-14
8.2763079e-13
1.0477122e-12
4.4053369e-14
1.9992846e-14
8.1904672e-13
1.0369751e-12
3.073081e-14
1.0416474e-14
1.6028036e-14
1.0922933e-11
-1.0923789e-11
2.2943913e-11
-1.202488e-11
3.4761015e-11
-1.1822207e-11
4.3823663e-11
-9.0681624e-12
4.9094453e-11
-5.276209e-12
4.9507809e-11
-4.182942e-13
4.4295256e-11
5.208315e-12
3.2922565e-11
1.1369284e-11
1.5502862e-11
1.7417115e-11
-7.1684329e-12
2.266949e-11
-3.3864747e-11
2.6695178e-11
-6.3198516e-11
2.9333179e-11
-9.3872592e-11
3.0673867e-11
-1.2484132e-10
3.0968811e-11
-1.5531483e-10
3.0473765e-11
-1.8465459e-10
2.9340118e-11
-2.1224184e-10
2.7587614e-11
-2.3771912e-10
2.5477629e-11
-2.6175728e-10
2.4038462e-11
-2.8319988e-10
2.1442853e-11
-3.0157223e-10
1.837252e-11
-3.1639627e-10
1.4824148e-11
-3.2729437e-10
1.0898134e-11
-3.3383743e-10
6.5430312e-12
1.6186642e-12
-2.7008916e-11
1.6087555e-11
-6.1550844e-11
2.2520848e-11
-1.0745256e-10
3.4083956e-11
-1.6781559e-10
5.1299528e-11
-2.4432203e-10
7.1234884e-11
-3.3807108e-10
9.3335228e-11
-4.4951888e-10
1.166603e-10
-5.7844094e-10
1.4029513e-10
-7.2212534e-10
1.6110485e-10
-8.7723986e-10
1.7778686e-10
-1.0404888e-09
1.8994649e-10
-1.2086855e-09
1.9753168e-10
-1.3789834e-09
2.0097324e-10
-1.5488907e-09
2.0087713e-10
-1.7159864e-09
1.9757013e-10
-1.8778189e-09
1.9117289e-10
-2.0320755e-09
1.8184415e-10
-2.1765019e-09
1.6990368e-10
-2.3083201e-09
1.5585615e-10
-2.4267767e-09
1.3989858e-10
-2.5322715e-09
1.2386634e-10
-2.6167478e-09
9.9299389e-11
-2.6772075e-09
7.1356602e-11
-2.7097742e-09
3.910836e-11
1.0136748e-11
-1.111852e-10
1.2727884e-10
-2.4884233e-10
1.6018745e-10
-4.1893623e-10
2.0418875e-10
-6.2555497e-10
2.5792921e-10
-8.7146886e-10
3.1715909e-10
-1.1570649e-09
3.7894061e-10
-1.4828007e-09
4.4240423e-10
-1.9052458e-09
5.62747e-10
-2.3707038e-09
6.2656831e-10
-2.8468302e-09
6.5391729e-10
-3.3184719e-09
6.6159088e-10
-3.7765123e-09
6.5557377e-10
-4.2149676e-09
6.3942919e-10
-4.6290341e-09
6.1494327e-10
-5.0133795e-09
5.8191441e-10
-5.3637773e-09
5.4156885e-10
-5.6773776e-09
4.9544207e-10
-5.9522889e-09
4.4481201e-10
-6.1871156e-09
3.9067935e-10
-6.3810604e-09
3.3383958e-10
-6.5321577e-09
2.7495955e-10
-6.6475093e-09
2.1464672e-10
-6.7296033e-09
1.5344617e-10
-6.7821127e-09
9.161325e-11
2.9796112e-11
-3.541055e-10
4.8139739e-10
-7.6919822e-10
5.7529991e-10
-1.2660163e-09
7.0102805e-10
-2.081054e-09
1.0729853e-09
-2.9656043e-09
1.2017241e-09
-3.8142965e-09
1.2276437e-09
-4.5766637e-09
1.2047792e-09
-5.1652466e-09
1.151335e-09
-5.6153882e-09
1.0767131e-09
-5.9497457e-09
9.8827639e-10
-6.1816324e-09
8.9347783e-10
-6.3248822e-09
7.988229e-10
-6.3900714e-09
7.0461697e-10
-6.3832143e-09
6.0808411e-10
-6.3159415e-09
5.1463918e-10
-6.2034895e-09
4.2911404e-10
-6.0608991e-09
3.5284861e-10
-5.9022952e-09
2.862048e-10
-5.7406143e-09
2.2899503e-10
-5.5872819e-09
1.8050363e-10
-5.4518251e-09
1.3949913e-10
-5.3417983e-09
1.0461627e-10
-5.2628687e-09
7.4512784e-11
-5.2188494e-09
4.7590218e-11
2.2348275e-11
-2.1866153e-09
2.6680341e-09
-3.9347701e-09
2.323478e-09
-5.4529757e-09
2.2192557e-09
-6.1525997e-09
1.7726235e-09
-6.2521735e-09
1.3013089e-09
-5.8036764e-09
7.7915532e-10
-5.0558504e-09
4.569604e-10
-4.0834623e-09
1.7895332e-10
-2.9497468e-09
-5.6996435e-11
-1.7113423e-09
-2.5012251e-10
-4.7668159e-10
-3.4117794e-10
7.3778283e-10
-4.1563944e-10
1.9463894e-09
-5.0398892e-10
3.2918807e-09
-7.3740565e-10
4.6181389e-09
-8.1161598e-10
5.8734303e-09
-8.2617265e-10
7.0317417e-09
-8.0545649e-10
8.0770604e-09
-7.5910605e-10
8.999023e-09
-6.9295841e-10
9.790628e-09
-6.1109081e-10
1.0446624e-08
-5.1648507e-10
1.0962959e-08
-4.1170501e-10
1.1335945e-08
-2.9846009e-10
1.1562836e-08
-1.7928642e-10
-5.2445587e-11
1.0855593e-09
1.582559e-09
4.2946364e-09
-8.855481e-10
8.0139236e-09
-1.4999597e-09
1.1715375e-08
-1.9287957e-09
1.5462217e-08
-2.4455055e-09
1.9132151e-08
-2.890749e-09
2.2739232e-08
-3.1500865e-09
2.6131415e-08
-3.2131901e-09
2.9215895e-08
-3.1414317e-09
3.1964405e-08
-2.998584e-09
3.4440199e-08
-2.8169203e-09
3.662653e-08
-2.6019163e-09
3.8502857e-08
-2.3802591e-09
3.9930648e-08
-2.1651396e-09
4.1064446e-08
-1.9453564e-09
4.1965458e-08
-1.7271265e-09
4.2676069e-08
-1.5160099e-09
4.3230339e-08
-1.3133181e-09
4.3656929e-08
-1.1194911e-09
4.3980081e-08
-9.3418676e-10
4.4219969e-08
-7.5631648e-10
4.4392568e-08
-5.8424861e-10
4.450972e-08
-4.1555629e-10
4.4579102e-08
-2.4861353e-10
-7.7518861e-11
1.495336e-07
-2.3573259e-09
1.4812991e-07
5.1906653e-10
1.4556092e-07
1.0698199e-09
1.4209845e-07
1.5343676e-09
1.3756085e-07
2.0927031e-09
1.3210276e-07
2.567874e-09
1.2609347e-07
2.8596506e-09
1.1992618e-07
2.9544815e-09
1.1387184e-07
2.913237e-09
1.0808296e-07
2.7905916e-09
1.0262891e-07
2.6373742e-09
9.7562509e-08
2.4647117e-09
9.2911154e-08
2.2712957e-09
8.8678948e-08
2.0672462e-09
8.487356e-08
1.8601942e-09
8.1491379e-08
1.655202e-09
7.8520146e-08
1.4553593e-09
7.5944468e-08
1.2624845e-09
7.3747859e-08
1.0772339e-09
7.191421e-08
8.995709e-10
7.0429324e-08
7.2867096e-10
6.9282014e-08
5.6315754e-10
6.8465731e-08
4.0081832e-10
6.7977137e-08
2.4006792e-10
7.5303344e-11
1.3293365e-08
-1.6248605e-09
1.5605331e-08
-1.7927856e-09
1.8242176e-08
-1.5669108e-09
2.0982559e-08
-1.2059045e-09
2.3823085e-08
-7.4771649e-10
2.6755864e-08
-3.6480233e-10
2.9697987e-08
-8.237852e-11
3.2489108e-08
1.634502e-10
3.5073755e-08
3.2867852e-10
3.7436873e-08
4.2756215e-10
3.9541386e-08
5.3294925e-10
4.1254768e-08
7.5141486e-10
4.2594524e-08
9.3162458e-10
4.3668672e-08
9.9318104e-10
4.452044e-08
1.0085063e-09
4.518544e-08
9.9028024e-10
4.5695553e-08
9.4532247e-10
4.6079666e-08
8.7844482e-10
4.6363985e-08
7.9298604e-10
4.6570324e-08
6.9330118e-10
4.671687e-08
5.8219178e-10
4.6818467e-08
4.6162505e-10
4.6885319e-08
3.3402907e-10
4.6924452e-08
2.0099661e-10
5.9701334e-11
-5.0711191e-09
-7.9335775e-10
-5.813271e-09
-1.0506455e-09
-6.2075736e-09
-1.1726201e-09
-6.1810355e-09
-1.232454e-09
-5.6959013e-09
-1.23286e-09
-4.8749549e-09
-1.1857557e-09
-3.843499e-09
-1.1138386e-09
-2.654965e-09
-1.0250849e-09
-1.3999766e-09
-9.2630824e-10
-1.4650447e-10
-8.2590575e-10
1.1120339e-09
-7.2558261e-10
2.4875603e-09
-6.2410269e-10
3.9416013e-09
-5.224054e-10
5.3639129e-09
-4.2911732e-10
6.7184989e-09
-3.4606471e-10
7.9823417e-09
-2.7354607e-10
9.1388201e-09
-2.1113812e-10
1.0178283e-08
-1.6099944e-10
1.1098812e-08
-1.2752361e-10
1.1891426e-08
-9.9292504e-11
1.2549529e-08
-7.5890654e-11
1.3067712e-08
-5.6538091e-11
1.3442259e-08
-4.0498343e-11
1.3669953e-08
-2.6677828e-11
-1.4735755e-11
-2.1948949e-09
-1.3289776e-10
-3.0290161e-09
-2.1652924e-10
-3.8958409e-09
-3.0580273e-10
-4.7369432e-09
-3.9136146e-10
-5.4979701e-09
-4.7184465e-10
-6.0744117e-09
-6.0932681e-10
-6.520902e-09
-6.6736159e-10
-6.8496165e-09
-6.9638388e-10
-7.0680625e-09
-7.0787559e-10
-7.1885513e-09
-7.0542997e-10
-7.221553e-09
-6.9259355e-10
-7.1733957e-09
-6.7227191e-10
-7.0512467e-09
-6.4456566e-10
-6.8706302e-09
-6.0974435e-10
-6.6475845e-09
-5.6912012e-10
-6.3971705e-09
-5.2396905e-10
-6.1330977e-09
-4.7521916e-10
-5.870093e-09
-4.2401173e-10
-5.6261123e-09
-3.7151127e-10
-5.408244e-09
-3.1716721e-10
-5.2228753e-09
-2.6126539e-10
-5.0752884e-09
-2.0413071e-10
-4.9697481e-09
-1.4604413e-10
-4.9091428e-09
-8.7288478e-11
-2.8743697e-11
-5.0672184e-10
7.1110758e-11
-7.6190831e-10
3.8657927e-11
-1.0641283e-09
-3.582779e-12
-1.4106735e-09
-4.4817115e-11
-1.7991434e-09
-8.3376572e-11
-2.2839054e-09
-1.2456767e-10
-2.7901187e-09
-1.6115246e-10
-3.296281e-09
-1.9022695e-10
-3.792686e-09
-2.1147683e-10
-4.2724693e-09
-2.2565383e-10
-4.7313578e-09
-2.3371294e-10
-5.1659197e-09
-2.3771847e-10
-5.5712881e-09
-2.3920621e-10
-5.9421619e-09
-2.388799e-10
-6.2724368e-09
-2.3885492e-10
-6.5484912e-09
-2.4792449e-10
-6.7873525e-09
-2.3636784e-10
-6.9930571e-09
-2.1831704e-10
-7.1685901e-09
-1.9598824e-10
-7.3152341e-09
-1.7053323e-10
-7.43399e-09
-1.4251929e-10
-7.5257345e-09
-1.1239606e-10
-7.5913514e-09
-8.0436757e-11
-7.6319669e-09
-4.6682135e-11
-1.0922404e-11
-3.159471e-11
1.1674492e-10
-1.0536084e-10
1.1242482e-10
-2.0828613e-10
9.934314e-11
-3.3368814e-10
8.0585267e-11
-4.8298011e-10
6.5915437e-11
-6.5508679e-10
4.7538639e-11
-8.4331289e-10
2.7072826e-11
-1.0410392e-09
7.4981152e-12
-1.2436502e-09
-8.8675282e-12
-1.4474107e-09
-2.1895386e-11
-1.6516427e-09
-2.9483327e-11
-1.8535449e-09
-3.5819034e-11
-2.0522888e-09
-4.0465303e-11
-2.248012e-09
-4.3159983e-11
-2.4426228e-09
-4.4247702e-11
-2.6466351e-09
-4.3916012e-11
-2.8407106e-09
-4.2296305e-11
-3.0193307e-09
-3.9701119e-11
-3.1791137e-09
-3.6209571e-11
-3.3176677e-09
-3.1983617e-11
-3.4330476e-09
-2.7143947e-11
-3.5236884e-09
-2.1759804e-11
-3.5882377e-09
-1.5891902e-11
-3.6254019e-09
-9.5222861e-12
-2.6804003e-12
1.0944998e-10
1.0035012e-10
1.1973456e-10
1.0214087e-10
1.1906694e-10
1.0001134e-10
1.060624e-10
9.3590285e-11
8.4365984e-11
8.7612241e-11
5.3004724e-11
7.8900177e-11
1.2790375e-11
6.7287343e-11
-3.4235412e-11
5.4523959e-11
-8.5882615e-11
4.2779626e-11
-1.4097086e-10
3.3192714e-11
-1.9571724e-10
2.5262807e-11
-2.4990147e-10
1.8364864e-11
-3.0314801e-10
1.2780831e-11
-3.5453926e-10
8.2307962e-12
-4.0350018e-10
4.7126763e-12
-4.4962347e-10
2.2066943e-12
-4.9258569e-10
6.6526824e-13
-5.3181941e-10
-4.6808388e-13
-5.6691197e-10
-1.1177253e-12
-5.9749754e-10
-1.3987937e-12
-6.2320514e-10
-1.4371168e-12
-6.4368395e-10
-1.2817821e-12
-6.5858947e-10
-9.8717956e-13
-6.6753114e-10
-5.8142672e-13
-4.8489639e-14
1.1646036e-10
7.2819921e-11
1.4278941e-10
7.5812436e-11
1.6653123e-10
7.6270157e-11
1.8684697e-10
7.3275175e-11
2.0175117e-10
7.2708658e-11
2.1319314e-10
6.7458803e-11
2.1958737e-10
6.089368e-11
2.2023408e-10
5.387779e-11
2.1816014e-10
4.4854083e-11
2.1415803e-10
3.7195308e-11
2.0973579e-10
2.9685495e-11
2.0534616e-10
2.2754924e-11
2.0150008e-10
1.6627318e-11
1.9846564e-10
1.1265617e-11
1.9639881e-10
6.7798757e-12
1.9522359e-10
3.3822598e-12
1.9490327e-10
9.8591823e-13
1.9510054e-10
-6.6504386e-13
1.9565158e-10
-1.6684623e-12
1.9639939e-10
-2.1463187e-12
1.9718929e-10
-2.2267336e-12
1.9789335e-10
-1.985582e-12
1.9838236e-10
-1.4759366e-12
1.9859902e-10
-7.9784516e-13
-1.6888533e-13
7.3626912e-11
5.4268024e-11
9.248572e-11
5.695396e-11
1.1015612e-10
5.8600134e-11
1.2439123e-10
5.9040459e-11
1.3894396e-10
5.8156326e-11
1.5002155e-10
5.6381604e-11
1.5818013e-10
5.2735482e-11
1.6345454e-10
4.8603741e-11
1.6532753e-10
4.2981426e-11
1.660171e-10
3.6506057e-11
1.6470213e-10
3.1000765e-11
1.6286869e-10
2.4588634e-11
1.6062718e-10
1.8869085e-11
1.5817637e-10
1.3716662e-11
1.5570527e-10
9.2512016e-12
1.5348994e-10
5.5977917e-12
1.5174021e-10
2.7358525e-12
1.5051361e-10
5.6174033e-13
1.4980298e-10
-9.5765732e-13
1.4953735e-10
-1.8805177e-12
1.4961262e-10
-2.3018396e-12
1.4993918e-10
-2.3119748e-12
1.5046032e-10
-1.996922e-12
1.5111515e-10
-1.4525203e-12
-6.7098484e-13
3.5600832e-11
4.6467264e-11
4.3741661e-11
4.8813115e-11
5.159034e-11
5.0751493e-11
5.8662169e-11
5.1968693e-11
6.4008389e-11
5.2810176e-11
6.8149616e-11
5.2240445e-11
7.0547575e-11
5.0337582e-11
7.1882103e-11
4.7269262e-11
7.0321727e-11
4.4541837e-11
6.6646845e-11
4.0180957e-11
6.1665923e-11
3.5981691e-11
5.5599936e-11
3.065461e-11
4.8292481e-11
2.6176515e-11
4.0682354e-11
2.1326751e-11
3.315983e-11
1.6773678e-11
2.5721574e-11
1.3035992e-11
1.8592085e-11
9.8652809e-12
1.2025835e-11
7.1279237e-12
6.1623963e-12
4.9057135e-12
1.0724783e-12
3.2093307e-12
-3.204832e-12
1.9754013e-12
-6.6574413e-12
1.1405666e-12
-9.2864186e-12
6.319892e-13
-1.1121387e-11
3.8239033e-13
2.4834267e-13
1.9097887e-11
4.2925419e-11
2.2226099e-11
4.5684717e-11
2.5167889e-11
4.7809541e-11
2.7755776e-11
4.9380664e-11
3.0246394e-11
5.0319427e-11
3.141624e-11
5.1070474e-11
3.1321535e-11
5.0432161e-11
3.0036459e-11
4.8554209e-11
2.8071588e-11
4.6506576e-11
2.4277886e-11
4.3974522e-11
1.8710159e-11
4.1549276e-11
1.2051184e-11
3.7313438e-11
4.9271882e-12
3.3300359e-11
-3.3428447e-12
2.9596628e-11
-1.1723109e-11
2.5153783e-11
-2.0166402e-11
2.1479125e-11
-2.8535898e-11
1.8234617e-11
-3.6355261e-11
1.4947129e-11
-4.3500108e-11
1.2050405e-11
-4.9859199e-11
9.5682686e-12
-5.5299331e-11
7.4153827e-12
-5.9702407e-11
5.5434963e-12
-6.2961797e-11
3.8912364e-12
-6.4961971e-11
2.3824305e-12
9.2106498e-13
1.531244e-11
4.0133038e-11
1.7758448e-11
4.3238559e-11
1.9919069e-11
4.5648764e-11
2.1868503e-11
4.7431074e-11
2.3561093e-11
4.8626688e-11
2.5210654e-11
4.9420767e-11
2.6155297e-11
4.9487374e-11
2.5407108e-11
4.9302254e-11
2.4222614e-11
4.7690926e-11
2.2077736e-11
4.6119256e-11
1.9545633e-11
4.4081234e-11
1.5495764e-11
4.1363162e-11
1.0433821e-11
3.8362158e-11
4.6193834e-12
3.5410921e-11
-1.7006631e-12
3.1473685e-11
-8.1434011e-12
2.7921719e-11
-1.4400972e-11
2.4492045e-11
-2.0610036e-11
2.1156052e-11
-2.6544765e-11
1.7984994e-11
-3.1807221e-11
1.4830586e-11
-3.6321824e-11
1.1929849e-11
-3.9953935e-11
9.1754744e-12
-4.2573563e-11
6.5107342e-12
-4.4068023e-11
3.8767678e-12
1.2654374e-12
1.5424297e-11
3.6897043e-11
1.8466687e-11
4.0196038e-11
2.1333524e-11
4.2781794e-11
2.4037968e-11
4.4726501e-11
2.6651099e-11
4.6013438e-11
2.9036378e-11
4.7035374e-11
3.0985183e-11
4.7538459e-11
3.2679117e-11
4.7608212e-11
3.3330336e-11
4.7039601e-11
3.3400815e-11
4.6048671e-11
3.2890364e-11
4.459158e-11
3.1514136e-11
4.2739287e-11
2.9387623e-11
4.0488568e-11
2.6947088e-11
3.7851355e-11
2.3581834e-11
3.4838837e-11
1.9850096e-11
3.1653356e-11
1.6026263e-11
2.8315777e-11
1.2077717e-11
2.5104498e-11
8.3386438e-12
2.1723967e-11
4.820566e-12
1.8348565e-11
1.7221385e-12
1.5028179e-11
-8.5657916e-13
1.1754096e-11
-2.8640389e-12
8.5180998e-12
-4.1690611e-12
5.1817033e-12
1.6192162e-12
1.5218021e-11
3.3284951e-11
1.8808011e-11
3.6605923e-11
2.2362814e-11
3.9226869e-11
2.5808304e-11
4.1280899e-11
2.9016759e-11
4.2804882e-11
3.2227261e-11
4.3824782e-11
3.5153416e-11
4.461222e-11
3.7844997e-11
4.4916551e-11
4.0059998e-11
4.4824524e-11
4.1804186e-11
4.4304409e-11
4.3032902e-11
4.3362793e-11
4.3714312e-11
4.2057807e-11
4.3861571e-11
4.0341242e-11
4.348577e-11
3.8227088e-11
4.2539901e-11
3.5784641e-11
4.1151732e-11
3.3041459e-11
3.9398672e-11
3.0068771e-11
3.7564541e-11
2.6938564e-11
3.5644239e-11
2.3644204e-11
3.3749156e-11
2.0243583e-11
3.2009463e-11
1.6767808e-11
3.0515735e-11
1.3247761e-11
2.9261925e-11
9.7718458e-12
2.8464227e-11
5.9793455e-12
1.6448584e-12
1.4010754e-11
2.9741452e-11
1.7663579e-11
3.295298e-11
2.1356286e-11
3.5534052e-11
2.5014731e-11
3.7622357e-11
2.8578789e-11
3.9240739e-11
3.1977475e-11
4.0426021e-11
3.533563e-11
4.1253997e-11
3.8493108e-11
4.175901e-11
4.141078e-11
4.1906794e-11
4.4028597e-11
4.1686537e-11
4.6296173e-11
4.1095166e-11
4.8194502e-11
4.0159429e-11
4.9680066e-11
3.8855629e-11
5.071307e-11
3.7194038e-11
5.1318788e-11
3.5178877e-11
5.149685e-11
3.2863353e-11
5.1369272e-11
3.0196304e-11
5.1006013e-11
2.7301778e-11
5.0468774e-11
2.4181398e-11
4.9844562e-11
2.0867751e-11
4.923184e-11
1.7380486e-11
4.8744818e-11
1.3734739e-11
4.8611111e-11
9.9055092e-12
4.8685558e-11
5.9048607e-12
2.0311742e-12
1.2288021e-11
2.6564773e-11
1.5659565e-11
2.9581326e-11
1.9121844e-11
3.2071672e-11
2.2652497e-11
3.4091616e-11
2.614583e-11
3.574733e-11
2.9586739e-11
3.6985045e-11
3.2952367e-11
3.7888309e-11
3.6218507e-11
3.8492815e-11
3.9355548e-11
3.8769703e-11
4.2315687e-11
3.8726351e-11
4.5045851e-11
3.8364957e-11
4.7529823e-11
3.7675417e-11
4.9732954e-11
3.665246e-11
5.1633637e-11
3.5293318e-11
5.319405e-11
3.3618429e-11
5.4418965e-11
3.1638404e-11
5.5312325e-11
2.9302909e-11
5.5952808e-11
2.6661261e-11
5.6367896e-11
2.3766277e-11
5.6617409e-11
2.0618204e-11
5.6765488e-11
1.7232374e-11
5.6899309e-11
1.3600885e-11
5.7193863e-11
9.6109217e-12
5.7182839e-11
5.9158573e-12
2.3172781e-12
1.0554409e-11
2.3682508e-11
1.358568e-11
2.6549954e-11
1.6755225e-11
2.8902037e-11
1.9987895e-11
3.0858866e-11
2.3281708e-11
3.2453446e-11
2.6561755e-11
3.3704935e-11
2.9811275e-11
3.4638733e-11
3.3022195e-11
3.5281844e-11
3.6160645e-11
3.5631207e-11
3.9202187e-11
3.5684767e-11
4.2114932e-11
3.5452174e-11
4.4862078e-11
3.4928234e-11
4.7415456e-11
3.4099048e-11
4.9742365e-11
3.2966378e-11
5.1834308e-11
3.1526455e-11
5.3693421e-11
2.9779263e-11
5.5293819e-11
2.7702484e-11
5.6608575e-11
2.5346477e-11
5.7667406e-11
2.2707419e-11
5.8511762e-11
1.9773822e-11
5.915046e-11
1.6593649e-11
5.9571896e-11
1.3179423e-11
5.9506146e-11
9.6766445e-12
5.9578297e-11
5.8436854e-12
1.8296569e-12
9.1809086e-12
2.1149615e-11
1.1900178e-11
2.3830594e-11
1.4753918e-11
2.6048215e-11
1.7716628e-11
2.7896081e-11
2.0760828e-11
2.940918e-11
2.3848723e-11
3.0616981e-11
2.6949977e-11
3.1537427e-11
3.0030322e-11
3.2201452e-11
3.3105128e-11
3.2556357e-11
3.611755e-11
3.2672305e-11
3.9059906e-11
3.2509783e-11
4.190624e-11
3.2081866e-11
4.4621072e-11
3.1384187e-11
4.7184121e-11
3.0403301e-11
4.9572698e-11
2.9137852e-11
5.1773034e-11
2.7578903e-11
5.3749348e-11
2.5726146e-11
5.5506729e-11
2.3589074e-11
5.7047859e-11
2.1166267e-11
5.8350475e-11
1.8471185e-11
5.9409265e-11
1.5534838e-11
6.0220364e-11
1.2368303e-11
6.1002677e-11
8.8943096e-12
6.1338678e-11
5.5076685e-12
1.9094429e-12
8.1020728e-12
1.8928099e-11
1.0593479e-11
2.1339114e-11
1.3186397e-11
2.3455227e-11
1.5929168e-11
2.5153245e-11
1.8752255e-11
2.6586032e-11
2.1645334e-11
2.7723848e-11
2.4587968e-11
2.8594743e-11
2.7562099e-11
2.9227277e-11
3.0520658e-11
2.9597759e-11
3.3483194e-11
2.9709734e-11
3.6398283e-11
2.959466e-11
3.9250422e-11
2.9229698e-11
4.2018123e-11
2.8616459e-11
4.4672837e-11
2.7748562e-11
4.7193982e-11
2.6616684e-11
4.9556889e-11
2.5215975e-11
5.1746155e-11
2.3536861e-11
5.3761271e-11
2.1573939e-11
5.5561938e-11
1.9365583e-11
5.7124855e-11
1.690825e-11
5.8395494e-11
1.4264182e-11
5.9372802e-11
1.1390979e-11
5.9922406e-11
8.3446885e-12
6.0327274e-11
5.1027882e-12
1.7587267e-12
7.2406691e-12
1.6913615e-11
9.5267954e-12
1.9052924e-11
1.1954137e-11
2.1027825e-11
1.4487148e-11
2.2620177e-11
1.712627e-11
2.3946858e-11
1.9842338e-11
2.5007731e-11
2.2627205e-11
2.5809831e-11
2.5464888e-11
2.6389553e-11
2.8304872e-11
2.6757738e-11
3.1161264e-11
2.6853308e-11
3.40051e-11
2.6750794e-11
3.6813952e-11
2.6420819e-11
3.9565001e-11
2.5865385e-11
4.2230785e-11
2.5082755e-11
4.4785322e-11
2.4062127e-11
4.7201661e-11
2.2799618e-11
4.9458803e-11
2.1279702e-11
5.1599524e-11
1.9433202e-11
5.3501572e-11
1.7463521e-11
5.5121717e-11
1.5288092e-11
5.6461519e-11
1.2924367e-11
5.7488481e-11
1.0364004e-11
5.8245756e-11
7.587401e-12
5.8702984e-11
4.6455521e-12
1.5558281e-12
6.5546786e-12
1.5048397e-11
8.5808086e-12
1.7026739e-11
1.0838997e-11
1.8769583e-11
1.3199627e-11
2.0259496e-11
1.5669588e-11
2.1476849e-11
1.8228443e-11
2.2448831e-11
2.0850832e-11
2.3187401e-11
2.353202e-11
2.3708328e-11
2.6265178e-11
2.4024546e-11
2.8972988e-11
2.4145468e-11
3.1710684e-11
2.401307e-11
3.4421531e-11
2.3709947e-11
3.7089482e-11
2.3197412e-11
3.9694379e-11
2.2477839e-11
4.2205693e-11
2.1550796e-11
4.4599148e-11
2.0406146e-11
4.6842738e-11
1.9036099e-11
4.8886845e-11
1.7389082e-11
5.0768819e-11
1.5581535e-11
5.2414893e-11
1.3642007e-11
5.3775311e-11
1.1563939e-11
5.4854615e-11
9.2846909e-12
5.5642745e-11
6.7992611e-12
5.6137363e-11
4.1509287e-12
1.3593487e-12
5.889573e-12
1.3369483e-11
7.7662637e-12
1.5149998e-11
9.8050049e-12
1.6730793e-11
1.1987506e-11
1.8076948e-11
1.4277774e-11
1.9186539e-11
1.6684065e-11
2.00425e-11
1.9141716e-11
2.0729713e-11
2.1651202e-11
2.1198808e-11
2.4208982e-11
2.1466735e-11
2.6799949e-11
2.1554473e-11
2.9366438e-11
2.1446555e-11
3.1935445e-11
2.1140918e-11
3.4477164e-11
2.0655673e-11
3.695665e-11
1.9998335e-11
3.9361121e-11
1.9146309e-11
4.1655368e-11
1.8111885e-11
4.3806787e-11
1.6884668e-11
4.573714e-11
1.5458718e-11
4.7496566e-11
1.38221e-11
4.9072061e-11
1.2066503e-11
5.0438904e-11
1.0197089e-11
5.153363e-11
8.1899575e-12
5.2311e-11
6.0218838e-12
5.2789313e-11
3.6726126e-12
1.1591259e-12
5.2963897e-12
1.1869541e-11
6.962334e-12
1.3484007e-11
8.8028834e-12
1.4890199e-11
1.0793829e-11
1.6085961e-11
1.2921042e-11
1.7059286e-11
1.5180462e-11
1.7783042e-11
1.7436329e-11
1.8473811e-11
1.9778057e-11
1.8857049e-11
2.2152174e-11
1.9092589e-11
2.4558182e-11
1.9148439e-11
2.695376e-11
1.9050953e-11
2.9343946e-11
1.8750711e-11
3.1705864e-11
1.8293736e-11
3.4023746e-11
1.7680436e-11
3.6268078e-11
1.6901963e-11
3.8413567e-11
1.5966383e-11
4.042974e-11
1.4868485e-11
4.2274087e-11
1.3614362e-11
4.3903777e-11
1.2192403e-11
4.5340024e-11
1.063025e-11
4.6600067e-11
8.9370406e-12
4.7655425e-11
7.134594e-12
4.8417377e-11