/*--------------------------------*- C++ -*----------------------------------*\
| =========                 |                                                 |
| \\      /  F ield         | OpenFOAM: The Open Source CFD Toolbox           |
|  \\    /   O peration     | Version:  4.0                                   |
|   \\  /    A nd           | Web:      www.OpenFOAM.org                      |
|    \\/     M anipulation  |                                                 |
\*---------------------------------------------------------------------------*/
FoamFile
{
    version     2.0;
    format      ascii;
    class       volVectorField;
    location    "0.12";
    object      U;
}
// * * * * * * * * * * * * * * * * * * * * * * * * * * * * * * * * * * * * * //

dimensions      [0 1 -1 0 0 0 0];

internalField   nonuniform List<vector> 
1740
(
(1.5950246 -0.0014477922 4.5672361e-06)
(1.4912974 -0.010539751 7.4612686e-07)
(1.6120479 -0.0054948543 1.0552843e-08)
(1.6646611 0.0051927053 8.0337891e-06)
(1.5189504 -0.029772216 1.5763698e-06)
(1.6174272 -0.026738458 3.1150143e-07)
(1.5448687 0.0099383106 1.1203648e-05)
(1.5995126 -0.03124813 2.3464056e-06)
(1.5031792 -0.024994238 4.5527063e-07)
(1.5469587 -0.013929767 1.3429368e-05)
(1.6880657 0.0092680565 3.4424137e-06)
(1.496992 0.0091968622 5.5289785e-07)
(1.6484091 -0.0027235436 1.4758296e-05)
(1.56538 0.03876424 4.3106583e-06)
(1.5732014 0.030291894 7.8498461e-07)
(1.5744864 0.012500684 1.6669342e-05)
(1.5267791 0.017456918 5.0098062e-06)
(1.6467604 0.0045076316 9.5944008e-07)
(1.5027986 -0.0011973553 1.7320026e-05)
(1.5439912 -0.019679294 5.9107435e-06)
(1.573141 -0.016314968 1.1695716e-06)
(1.6038978 -0.0082710996 1.7763547e-05)
(1.5553492 -0.01027819 6.3671428e-06)
(1.5194365 -0.0061995895 1.3458795e-06)
(1.6072878 -0.0083118723 1.8823205e-05)
(1.5588448 0.0095831463 7.3045144e-06)
(1.6089727 0.0035029418 1.5055411e-06)
(1.6013377 -0.0060237507 1.9417665e-05)
(1.5082026 -0.012334167 7.9028318e-06)
(1.6090672 -0.0098337441 1.7674859e-06)
(1.635372 0.0088007822 1.9503524e-05)
(1.6131528 -0.015253576 8.3613609e-06)
(1.517095 -0.016242045 1.9430565e-06)
(1.539022 -0.0023697517 1.9718035e-05)
(1.6298614 0.0045091423 9.0313974e-06)
(1.5328073 -0.0016059127 2.1186075e-06)
(1.625691 -0.016857565 2.012487e-05)
(1.5465452 0.002906074 9.5574797e-06)
(1.544779 0.0051927246 2.3423433e-06)
(1.6410827 0.0017860633 2.020858e-05)
(1.5922572 0.0003883738 9.9185108e-06)
(1.5672592 0.00015016315 2.45859e-06)
(1.6350948 0.016315285 2.0337762e-05)
(1.5760273 9.3905881e-05 1.0439394e-05)
(1.5789961 -0.004808175 2.7425442e-06)
(1.5683629 0.0098270333 2.0747914e-05)
(1.5937673 0.010482199 1.0845326e-05)
(1.5250354 -4.7101426e-05 2.9257351e-06)
(1.5506215 0.0013859486 2.0967484e-05)
(1.5446457 0.01659402 1.1358454e-05)
(1.5462498 0.011364113 3.0625076e-06)
(1.5674943 0.0041227617 2.1564587e-05)
(1.5513263 -0.0011813304 1.1655899e-05)
(1.6294735 0.00088166395 3.2623344e-06)
(1.5785415 -0.013119446 2.2322364e-05)
(1.5909996 -0.0061135821 1.2235797e-05)
(1.5771287 -0.0014922004 3.454745e-06)
(1.5976668 0.0016875215 2.2192196e-05)
(1.5156618 0.0016690125 1.2602709e-05)
(1.5520561 0.00066694185 3.6428936e-06)
(1.4930825 0.0024305608 2.1856392e-05)
(1.6221119 0.00019433556 1.2829826e-05)
(1.5601711 -0.0052347056 3.7682481e-06)
(1.5936173 -0.0094480929 2.175377e-05)
(1.5968975 -0.0072156987 1.3316899e-05)
(1.5230656 0.00034504032 3.9512464e-06)
(1.5830508 -0.0052210796 2.2416499e-05)
(1.58069 0.003151487 1.3559413e-05)
(1.5560067 0.0090351483 4.0880592e-06)
(1.5570494 -0.013325333 2.2324219e-05)
(1.5595136 -0.00088540116 1.3881329e-05)
(1.6412708 -0.0023813683 4.313321e-06)
(1.6495184 0.0053116858 2.2211033e-05)
(1.5477699 -0.021419213 1.4123978e-05)
(1.5392214 -0.017913163 4.4643812e-06)
(1.5310115 0.024973563 2.2289311e-05)
(1.6286919 0.0082695546 1.4441907e-05)
(1.4554132 -0.0043392334 4.5754772e-06)
(1.4424247 0.0001779145 2.2444393e-05)
(1.6068434 0.0098162286 1.4726704e-05)
(1.5444308 0.0074182818 4.6972746e-06)
(1.4892296 -0.028440862 2.2786181e-05)
(1.6261276 -0.012376695 1.5003333e-05)
(1.526248 -0.0035146954 4.8417294e-06)
(1.5336745 -0.01386939 2.2118967e-05)
(1.4767322 -0.0012178571 1.520882e-05)
(1.4767583 0.0072513575 4.8320942e-06)
(1.3344797 0.056094919 2.3358323e-05)
(1.2817246 0.10161926 1.5734411e-05)
(1.4045908 0.059420825 5.5180191e-06)
(0.83716612 0.37907455 1.173182e-05)
(0.81342234 0.93394584 9.9484786e-06)
(0.74306402 1.2572771 5.3689339e-06)
(0.2289819 0.11194185 1.4337774e-06)
(0.19274632 0.36623074 3.0418754e-06)
(0.093481885 0.50145269 6.8690035e-07)
(-0.023635512 -0.013292219 1.2528231e-06)
(-0.022305451 -0.027307795 1.7445753e-06)
(-0.015640029 -0.031371968 6.6203121e-07)
(-0.0022344271 -0.0024461754 4.8291725e-07)
(-0.0026508496 -0.0066024971 8.0966873e-07)
(-0.0030193441 -0.0090089922 4.4211413e-07)
(0.0031652287 0.0001533754 1.4664068e-07)
(0.0026042361 0.00010828189 3.1238391e-07)
(0.0015260647 -0.00019566721 2.1299124e-07)
(0.0025761962 0.00027915679 4.4954093e-08)
(0.0023103595 0.00057405549 1.1278981e-07)
(0.0017736171 0.00071986201 8.608138e-08)
(0.001854325 0.00022485005 1.1057113e-08)
(0.0016935419 0.00048082421 3.4956621e-08)
(0.0014188843 0.00066491337 2.7322752e-08)
(0.0013076864 0.00015307042 -2.1276351e-11)
(0.001210916 0.00034891495 6.7403446e-09)
(0.0010637434 0.00050975429 4.0362285e-09)
(0.00095213215 8.8451109e-05 -1.4568656e-09)
(0.00089557394 0.00019843794 -2.1605073e-10)
(0.00079485677 0.00031063244 -1.6882708e-09)
(0.00072890045 5.118022e-05 -4.4219811e-10)
(0.0006932099 0.00011109835 -2.7072782e-10)
(0.00062435822 0.00016558715 -1.2089451e-09)
(0.00059171263 2.7964363e-05 3.1941429e-10)
(0.00057056487 6.8942197e-05 4.9773444e-10)
(0.00052665946 0.00010019125 -3.9972712e-11)
(0.00050011589 2.264152e-05 3.0302909e-10)
(0.00048706373 5.236964e-05 6.0144325e-10)
(0.00045904273 7.93486e-05 3.8977481e-10)
(0.00043018728 2.134534e-05 4.6962801e-11)
(0.00042143314 4.7236883e-05 3.3879903e-10)
(0.000401324 7.0992547e-05 3.2417538e-10)
(0.00037119493 1.7687054e-05 -1.1678146e-10)
(0.00036515591 4.1838875e-05 6.9821199e-11)
(0.00035065897 6.3885163e-05 1.2864739e-10)
(0.00032119697 1.5000607e-05 -1.8097597e-10)
(0.00031741873 3.5813386e-05 -8.0436589e-11)
(0.00030682765 5.6303246e-05 -1.2144803e-11)
(0.00027974962 1.2661593e-05 -1.70459e-10)
(0.0002769772 2.9717755e-05 -1.1304102e-10)
(0.00026906585 4.7671306e-05 -6.1241681e-11)
(0.00024484865 1.0618998e-05 -1.3098835e-10)
(0.00024271626 2.4837744e-05 -8.9634478e-11)
(0.00023670404 4.0155419e-05 -5.4093618e-11)
(0.00021525781 8.9798089e-06 -9.6899375e-11)
(0.00021366112 2.1128456e-05 -6.1136498e-11)
(0.00020904944 3.4251669e-05 -3.3965023e-11)
(0.00018990585 7.7304389e-06 -7.4756462e-11)
(0.00018874949 1.8376311e-05 -4.3388061e-11)
(0.00018511327 2.9673274e-05 -2.07039e-11)
(0.00016786088 6.8324168e-06 -6.8073653e-11)
(0.00016702714 1.6250822e-05 -3.9941369e-11)
(0.00016406889 2.6071716e-05 -1.7092889e-11)
(0.00014845682 6.0309233e-06 -6.0345322e-11)
(0.0001478364 1.4441617e-05 -4.0054729e-11)
(0.00014540926 2.3148653e-05 -1.8022379e-11)
(0.0001312603 5.3365633e-06 -5.3198803e-11)
(0.00013078521 1.282315e-05 -3.9521516e-11)
(0.00012877885 2.0644004e-05 -2.0006475e-11)
(0.00011594991 4.7381304e-06 -4.7404736e-11)
(0.00011557728 1.1374465e-05 -3.8346631e-11)
(0.00011390322 1.8477481e-05 -2.1512596e-11)
(0.00010227603 4.310541e-06 -4.3740955e-11)
(0.00010198401 1.0311613e-05 -3.7146307e-11)
(0.00010058341 1.6434428e-05 -2.1757405e-11)
(9.0075688e-05 3.771182e-06 -4.0225115e-11)
(8.9848876e-05 9.0426998e-06 -3.5809742e-11)
(8.8675114e-05 1.4494898e-05 -2.174251e-11)
(7.9234318e-05 3.3201589e-06 -3.6685401e-11)
(7.9054573e-05 7.9840995e-06 -3.3446076e-11)
(7.8062788e-05 1.2887828e-05 -2.1419923e-11)
(6.9633222e-05 2.940499e-06 -3.4159217e-11)
(6.9487178e-05 7.084245e-06 -3.1724012e-11)
(6.86457e-05 1.1441829e-05 -2.0814742e-11)
(6.1246003e-05 2.5982275e-06 -3.1946158e-11)
(6.1120795e-05 6.2506753e-06 -2.9586309e-11)
(6.0381939e-05 1.0089238e-05 -1.9924885e-11)
(5.3781023e-05 2.2776961e-06 -3.0504294e-11)
(5.3677499e-05 5.4824667e-06 -2.8450221e-11)
(5.3040862e-05 8.8494215e-06 -1.9490852e-11)
(4.714553e-05 1.9918805e-06 -2.943565e-11)
(4.7064513e-05 4.8058419e-06 -2.7437409e-11)
(4.6534319e-05 7.7564957e-06 -1.9048902e-11)
(4.1432675e-05 1.7334441e-06 -2.864871e-11)
(4.1365489e-05 4.1901307e-06 -2.6466833e-11)
(4.0906672e-05 6.7608973e-06 -1.8570748e-11)
(3.6466505e-05 1.5001649e-06 -2.8034269e-11)
(3.6410304e-05 3.6332353e-06 -2.5536065e-11)
(3.6012954e-05 5.8605737e-06 -1.8064379e-11)
(3.2171121e-05 1.2907129e-06 -2.7524714e-11)
(3.2124095e-05 3.1327037e-06 -2.4621371e-11)
(3.1779643e-05 5.0519536e-06 -1.7543944e-11)
(2.8476889e-05 1.1037031e-06 -2.7106092e-11)
(2.8437674e-05 2.6854701e-06 -2.3741732e-11)
(2.8138673e-05 4.3302842e-06 -1.7043617e-11)
(2.5318505e-05 9.37333e-07 -2.6792794e-11)
(2.528589e-05 2.2870398e-06 -2.2964222e-11)
(2.502559e-05 3.6866565e-06 -1.6606644e-11)
(2.2635697e-05 7.9007995e-07 -2.6555765e-11)
(2.2608604e-05 1.9336774e-06 -2.2287613e-11)
(2.2380936e-05 3.1155927e-06 -1.6239708e-11)
(2.0373479e-05 6.60296e-07 -2.6342159e-11)
(2.0351193e-05 1.6214922e-06 -2.166857e-11)
(2.0151346e-05 2.6108394e-06 -1.5924425e-11)
(1.8479786e-05 5.4833665e-07 -2.6216225e-11)
(1.8461748e-05 1.3513274e-06 -2.1185772e-11)
(1.8285649e-05 2.1753368e-06 -1.570336e-11)
(1.6905374e-05 4.5225688e-07 -2.6157782e-11)
(1.6890946e-05 1.1185876e-06 -2.081981e-11)
(1.6734593e-05 1.7989203e-06 -1.5557302e-11)
(1.5606265e-05 3.6901567e-07 -2.6118199e-11)
(1.5594832e-05 9.1812268e-07 -2.0509186e-11)
(1.5454739e-05 1.4755375e-06 -1.5428687e-11)
(1.4543672e-05 2.9848629e-07 -2.6077471e-11)
(1.4534409e-05 7.4699125e-07 -2.0208086e-11)
(1.4407876e-05 1.1997427e-06 -1.5311913e-11)
(1.3682543e-05 2.3877853e-07 -2.6053263e-11)
(1.3675044e-05 6.0187409e-07 -1.9954543e-11)
(1.3559655e-05 9.6595079e-07 -1.5234432e-11)
(1.2992075e-05 1.8887397e-07 -2.6055028e-11)
(1.2986373e-05 4.7978606e-07 -1.9777223e-11)
(1.2879934e-05 7.6931627e-07 -1.5223435e-11)
(1.2446029e-05 1.4762559e-07 -2.6103603e-11)
(1.2441868e-05 3.7801053e-07 -1.9712309e-11)
(1.2342619e-05 6.0554574e-07 -1.5312736e-11)
(1.2021136e-05 1.1394849e-07 -2.6230829e-11)
(1.2018207e-05 2.9433272e-07 -1.9807715e-11)
(1.192466e-05 4.7128298e-07 -1.5538204e-11)
(1.1695949e-05 8.6872283e-08 -2.6451437e-11)
(1.1693986e-05 2.26819e-07 -2.0067312e-11)
(1.1604868e-05 3.6364989e-07 -1.5876981e-11)
(1.1448707e-05 6.5353379e-08 -2.6703717e-11)
(1.144748e-05 1.7294793e-07 -2.0328428e-11)
(1.1361718e-05 2.7853016e-07 -1.6124871e-11)
(1.1253902e-05 4.8745993e-08 -2.6837173e-11)
(1.125319e-05 1.2990922e-07 -2.0189158e-11)
(1.1169938e-05 2.0992308e-07 -1.581806e-11)
(1.1101955e-05 3.6605055e-08 -2.6524974e-11)
(1.1101555e-05 9.3878269e-08 -1.8800146e-11)
(1.1020143e-05 1.4799054e-07 -1.4093905e-11)
(1.0925683e-05 2.0329375e-08 -2.4069731e-11)
(1.0925073e-05 5.0268058e-08 -1.4172485e-11)
(1.0845228e-05 7.7686798e-08 -9.5676292e-12)
(-0.045084091 1.9564045 -3.7368989e-07)
(-0.032624967 1.6999007 -3.4633771e-06)
(-0.059076452 0.34563794 -2.4506566e-07)
(-0.042249524 0.1547502 -9.8502093e-07)
(-0.012956216 -0.039138349 -1.0190143e-07)
(-0.010613241 -0.041821072 -5.0938015e-07)
(-0.0034744481 -0.011676537 3.1821095e-08)
(-0.0037288574 -0.013476187 -2.4284049e-07)
(0.00065963478 -0.0011402052 3.0789082e-08)
(8.0544776e-05 -0.0022385597 -1.2425453e-07)
(0.0013132483 0.0005849099 8.4824139e-09)
(0.0009827314 0.00029902995 -7.1326013e-08)
(0.0011673989 0.00078391655 -5.5627882e-09)
(0.00096930765 0.00084500576 -4.4282937e-08)
(0.00091845767 0.00065121173 -9.5739669e-09)
(0.00079258309 0.00076699433 -2.7263803e-08)
(0.00069600331 0.00040631664 -7.3240064e-09)
(0.0006096702 0.00047252445 -1.4886628e-08)
(0.00054783981 0.00021021996 -3.6229907e-09)
(0.00048328899 0.00024089148 -6.7494478e-09)
(0.00047371536 0.0001207744 -1.103323e-09)
(0.00042531344 0.00013629258 -2.3819518e-09)
(0.00042365232 9.948298e-05 -4.9756143e-11)
(0.00038691422 0.00011116077 -5.6000202e-10)
(0.0003760355 9.0620989e-05 1.7716529e-10)
(0.00034662276 0.00010569836 -1.169606e-11)
(0.00033120445 8.3221541e-05 1.0901363e-10)
(0.00030897054 9.9384916e-05 5.8372832e-11)
(0.00029196505 7.357246e-05 1.5117999e-11)
(0.00027491395 8.8432883e-05 1.9628943e-11)
(0.0002577091 6.2812352e-05 -2.6268688e-11)
(0.0002447573 7.6272488e-05 -6.1142783e-12)
(0.00022819778 5.4060201e-05 -2.604247e-11)
(0.00021806236 6.5152042e-05 -6.7826478e-12)
(0.00020256571 4.6212716e-05 -1.3013881e-11)
(0.00019427733 5.6255096e-05 1.8293231e-12)
(0.00017985795 4.0293472e-05 -3.9598093e-12)
(0.00017315051 4.9632174e-05 8.1326634e-12)
(0.00015973126 3.5632861e-05 -1.2926559e-12)
(0.00015425345 4.4114451e-05 9.8319138e-12)
(0.00014182043 3.1833742e-05 -2.7117638e-12)
(0.00013728712 3.9589707e-05 7.900925e-12)
(0.00012579435 2.860331e-05 -5.7471566e-12)
(0.00012201083 3.5634736e-05 4.4255896e-12)
(0.00011140865 2.5777965e-05 -8.4459815e-12)
(0.00010823277 3.2152547e-05 1.2492673e-12)
(9.8486296e-05 2.2629065e-05 -9.812201e-12)
(9.580394e-05 2.8361399e-05 -8.9861096e-13)
(8.6901528e-05 2.0034038e-05 -1.0474183e-11)
(8.4621667e-05 2.5210913e-05 -2.2084809e-12)
(7.6557296e-05 1.7816758e-05 -1.114112e-11)
(7.4609153e-05 2.2451965e-05 -3.2965465e-12)
(6.7365409e-05 1.581922e-05 -1.152225e-11)
(6.5694207e-05 1.9976688e-05 -4.2522841e-12)
(5.9257916e-05 1.3951207e-05 -1.1495737e-11)
(5.7812225e-05 1.7669124e-05 -4.8495053e-12)
(5.2071877e-05 1.2212868e-05 -1.143888e-11)
(5.0825108e-05 1.5488497e-05 -5.134425e-12)
(4.5724087e-05 1.0697358e-05 -1.142205e-11)
(4.4655132e-05 1.3572597e-05 -5.3854625e-12)
(4.0203452e-05 9.3254473e-06 -1.1369482e-11)
(3.9279247e-05 1.1867166e-05 -5.6250389e-12)
(3.5403522e-05 8.0822664e-06 -1.1239086e-11)
(3.4603213e-05 1.0307943e-05 -5.7738118e-12)
(3.1251203e-05 6.9656451e-06 -1.1072353e-11)
(3.0556974e-05 8.8833713e-06 -5.8729426e-12)
(2.7679959e-05 5.9716675e-06 -1.0912411e-11)
(2.707683e-05 7.592573e-06 -5.9615819e-12)
(2.4626304e-05 5.0825742e-06 -1.0783404e-11)
(2.4100863e-05 6.4483912e-06 -6.0603068e-12)
(2.2031661e-05 4.2944574e-06 -1.0699206e-11)
(2.1571613e-05 5.4421109e-06 -6.1810322e-12)
(1.984472e-05 3.5970017e-06 -1.0654265e-11)
(1.9440366e-05 4.5554312e-06 -6.3192276e-12)
(1.8015477e-05 2.9995135e-06 -1.0663946e-11)
(1.7658735e-05 3.7936647e-06 -6.484431e-12)
(1.6494726e-05 2.4796142e-06 -1.0707921e-11)
(1.6177649e-05 3.138788e-06 -6.6615635e-12)
(1.5239873e-05 2.0331479e-06 -1.074299e-11)
(1.4955617e-05 2.574458e-06 -6.8228623e-12)
(1.4213635e-05 1.6526561e-06 -1.0788872e-11)
(1.395642e-05 2.0920854e-06 -6.984141e-12)
(1.3382287e-05 1.3301104e-06 -1.0860185e-11)
(1.314712e-05 1.6830823e-06 -7.1524537e-12)
(1.2716305e-05 1.0589585e-06 -1.0976706e-11)
(1.2499159e-05 1.33984e-06 -7.3463833e-12)
(1.2190024e-05 8.3324618e-07 -1.1170545e-11)
(1.1987367e-05 1.0540402e-06 -7.5971307e-12)
(1.1780775e-05 6.4842543e-07 -1.146874e-11)
(1.1589532e-05 8.2013647e-07 -7.9278272e-12)
(1.1467722e-05 5.0068892e-07 -1.1839489e-11)
(1.1285297e-05 6.3356613e-07 -8.3100929e-12)
(1.1229682e-05 3.8429809e-07 -1.2090827e-11)
(1.1053948e-05 4.8688992e-07 -8.5863893e-12)
(1.1041752e-05 2.899106e-07 -1.180708e-11)
(1.0871064e-05 3.6712116e-07 -8.4207508e-12)
(1.0894767e-05 2.0298556e-07 -1.0306883e-11)
(1.0727769e-05 2.5630022e-07 -7.3124001e-12)
(1.0722346e-05 1.0597879e-07 -6.7052337e-12)
(1.0558676e-05 1.3377709e-07 -4.6861833e-12)
(-0.0049955066 5.989231e-05 -3.2110363e-08)
(-0.0049270069 0.00010654753 -7.4536081e-08)
(-0.0047652314 0.00018439773 -1.024602e-07)
(-0.004548575 0.00021174659 -1.1757509e-07)
(-0.0042948299 0.00023048217 -1.225223e-07)
(-0.0040195945 0.0002142681 -1.2025672e-07)
(-0.0037322748 0.00018690791 -1.1359909e-07)
(-0.0034387406 0.00014192526 -1.0471231e-07)
(-0.0031442662 8.2041693e-05 -9.4955626e-08)
(-0.0028541197 1.3580656e-05 -8.5129935e-08)
(-0.0025728347 -5.9954969e-05 -7.5715238e-08)
(-0.002303842 -0.00013447486 -6.6918654e-08)
(-0.0020493862 -0.00020533608 -5.8777376e-08)
(-0.0018105626 -0.00027089507 -5.1224153e-08)
(-0.0015876177 -0.00032930175 -4.4190185e-08)
(-0.0013802483 -0.00038027438 -3.7646567e-08)
(-0.0011877572 -0.00042371124 -3.1599388e-08)
(-0.001009167 -0.00045872814 -2.6076002e-08)
(-0.00084341419 -0.00048744189 -2.1088941e-08)
(-0.00068958047 -0.00051033172 -1.6668671e-08)
(-0.00054656373 -0.00052633366 -1.2827548e-08)
(-0.00041289905 -0.00053533297 -9.5346852e-09)
(-0.00028714809 -0.00053818422 -6.697456e-09)
(-0.00016811829 -0.00052859244 -4.1706195e-09)
(-5.460409e-05 -0.00051047951 -1.9757414e-09)
(2.6906732e-05 -5.8376075e-05 -4.8289651e-08)
(5.35543e-05 -0.00033539977 -1.0997798e-07)
(9.546009e-05 -0.00047583637 -1.4797741e-07)
(0.00014268995 -0.00074689352 -1.6568178e-07)
(0.0001945755 -0.00098753831 -1.6868446e-07)
(0.00024962148 -0.0012689371 -1.6306185e-07)
(0.00030280408 -0.001559324 -1.5303625e-07)
(0.00034689068 -0.0018739238 -1.4118827e-07)
(0.0003743209 -0.0022064353 -1.2878977e-07)
(0.00038604857 -0.0025314955 -1.1653591e-07)
(0.00038472021 -0.0028407145 -1.0497098e-07)
(0.0003731797 -0.0031301827 -9.4264042e-08)
(0.00035439376 -0.003395976 -8.4403141e-08)
(0.00033078495 -0.0036347706 -7.5203606e-08)
(0.00030389239 -0.0038453053 -6.6520922e-08)
(0.00027474227 -0.0040261473 -5.8295183e-08)
(0.00024409233 -0.0041763313 -5.0520842e-08)
(0.00021240072 -0.004295012 -4.3243407e-08)
(0.00018011368 -0.0043815222 -3.6431877e-08)
(0.00014874385 -0.0044364399 -3.0117126e-08)
(0.0001187533 -0.0044629305 -2.4350162e-08)
(8.9991888e-05 -0.0044593917 -1.9068487e-08)
(6.2329342e-05 -0.0044246096 -1.4104187e-08)
(3.5603295e-05 -0.0043434811 -9.0021154e-09)
(1.0141199e-05 -0.0041520975 -3.6824395e-09)
(0.00074782543 -0.00026580344 -8.7261827e-08)
(0.00081841973 -0.0014162966 -1.9086963e-07)
(0.00093055399 -0.0019249895 -2.4613799e-07)
(0.001059388 -0.0028392599 -2.6314107e-07)
(0.0011734691 -0.0036182704 -2.5854163e-07)
(0.0012541947 -0.0044437027 -2.447626e-07)
(0.0012938516 -0.0052622805 -2.2756083e-07)
(0.0012943105 -0.00621051 -2.0994157e-07)
(0.0012652228 -0.0072714693 -1.9251653e-07)
(0.0012134344 -0.0082677864 -1.755571e-07)
(0.0011451398 -0.0091386492 -1.5999825e-07)
(0.0010663346 -0.0098765292 -1.4584526e-07)
(0.00098165415 -0.010486989 -1.3305075e-07)
(0.00089369101 -0.010973318 -1.21104e-07)
(0.00080372696 -0.011346261 -1.0970724e-07)
(0.00071338968 -0.011612107 -9.8756939e-08)
(0.00062412566 -0.011778132 -8.8211318e-08)
(0.00053712034 -0.011852064 -7.8196415e-08)
(0.00045326365 -0.011843291 -6.8508885e-08)
(0.00037258742 -0.011759837 -5.9097848e-08)
(0.00029561747 -0.011608433 -5.0057934e-08)
(0.00022261143 -0.011403334 -4.1311348e-08)
(0.00015355284 -0.011161167 -3.2494887e-08)
(8.8205173e-05 -0.010844998 -2.2443459e-08)
(2.7070742e-05 -0.010395291 -1.076671e-08)
(0.0031828961 -0.00096126373 -1.7066327e-07)
(0.0033081664 -0.0045538243 -3.433197e-07)
(0.0034165638 -0.0058949535 -4.1178478e-07)
(0.003377122 -0.0092246124 -4.1484902e-07)
(0.0032599484 -0.012243657 -3.9275568e-07)
(0.0030620885 -0.014926439 -3.6485869e-07)
(0.0028189056 -0.016855648 -3.3634582e-07)
(0.0025563579 -0.01795144 -3.1157529e-07)
(0.0022963391 -0.018345561 -2.881187e-07)
(0.0020445424 -0.018309487 -2.6426354e-07)
(0.0018060184 -0.017950615 -2.4303001e-07)
(0.0015870709 -0.017384065 -2.2382918e-07)
(0.0013853994 -0.016672059 -2.0709428e-07)
(0.0011952502 -0.015827936 -1.9140092e-07)
(0.0010198311 -0.014914518 -1.7626122e-07)
(0.00086219951 -0.013977089 -1.6162566e-07)
(0.00072194054 -0.013049243 -1.4743516e-07)
(0.00059779807 -0.012157624 -1.3362915e-07)
(0.00048813981 -0.011325807 -1.2003233e-07)
(0.00039104261 -0.010567345 -1.0681885e-07)
(0.00030450102 -0.0098932829 -9.3842438e-08)
(0.0002268107 -0.0093092151 -8.0976791e-08)
(0.00015649669 -0.0088192988 -6.7902631e-08)
(9.2108951e-05 -0.0083662401 -5.301844e-08)
(3.2535291e-05 -0.0079679073 -3.2721996e-08)
(0.010789384 -0.0085901637 -3.5942618e-07)
(0.0087811987 -0.025468099 -6.0673273e-07)
(0.0078609931 -0.028046266 -6.5854579e-07)
(0.0062690292 -0.032456384 -6.3566847e-07)
(0.0049294208 -0.030037609 -5.9167109e-07)
(0.0037354665 -0.026332432 -5.4360669e-07)
(0.0027281453 -0.021671401 -4.9801235e-07)
(0.0019174683 -0.016767338 -4.558498e-07)
(0.0012793835 -0.011847539 -4.1998158e-07)
(0.00078502268 -0.0072781152 -3.8722901e-07)
(0.00040927269 -0.0031505001 -3.5751925e-07)
(0.0001291366 0.00042057954 -3.2951421e-07)
(-7.1748622e-05 0.0035475811 -3.0726423e-07)
(-0.00020835186 0.0065666545 -2.8600715e-07)
(-0.00029491323 0.0093593641 -2.6519642e-07)
(-0.00034178592 0.011792902 -2.4519108e-07)
(-0.00035784278 0.013818943 -2.2590009e-07)
(-0.00035031309 0.015448241 -2.0719777e-07)
(-0.00032504965 0.016707427 -1.8896053e-07)
(-0.00028688815 0.01762623 -1.7114256e-07)
(-0.00023980806 0.018232715 -1.5364017e-07)
(-0.0001870833 0.018561346 -1.3633033e-07)
(-0.00013101713 0.018608933 -1.1915776e-07)
(-7.416841e-05 0.018476539 -1.0362398e-07)
(-1.6335017e-05 0.017783835 -8.9301519e-08)
(0.013068593 0.02365161 -7.5418509e-07)
(0.0030591747 -0.0010172059 -1.0514806e-06)
(0.00066467821 0.048782719 -1.0440253e-06)
(-0.0010516124 0.05149578 -9.6508583e-07)
(-0.0025987149 0.065764862 -8.8629015e-07)
(-0.0037622247 0.076133711 -7.995738e-07)
(-0.004404328 0.08332018 -7.2173226e-07)
(-0.0045954335 0.089331748 -6.5368177e-07)
(-0.0045079737 0.093761426 -5.9400489e-07)
(-0.0042806946 0.096525925 -5.4221572e-07)
(-0.0039839349 0.098057284 -4.9761447e-07)
(-0.0036339347 0.098552306 -4.5029569e-07)
(-0.0032799236 0.098314608 -4.2232825e-07)
(-0.0029396904 0.097193852 -3.9164893e-07)
(-0.0025950631 0.095145678 -3.6104344e-07)
(-0.0022595336 0.092753737 -3.3310598e-07)
(-0.0019434033 0.090155252 -3.068779e-07)
(-0.0016481907 0.087437911 -2.8192714e-07)
(-0.0013739381 0.084673329 -2.5800462e-07)
(-0.0011196883 0.081920137 -2.3496344e-07)
(-0.00088374016 0.079210765 -2.1269438e-07)
(-0.00066413249 0.076598216 -1.9106537e-07)
(-0.00045835133 0.074011685 -1.7022185e-07)
(-0.00026492696 0.07176961 -1.5035246e-07)
(-7.7821503e-05 0.068169803 -1.3075167e-07)
(-0.0027930322 1.1770258 -2.5196213e-06)
(-0.0012844021 0.96359644 -1.997087e-06)
(-0.0013097008 0.86761852 -1.6145042e-06)
(-0.00087287462 0.77527625 -1.3208853e-06)
(-0.00070005996 0.67927527 -1.1011402e-06)
(-0.00057248007 0.58794984 -9.3816586e-07)
(-0.00046735124 0.50958174 -8.1527863e-07)
(-0.000380694 0.44589118 -7.2259498e-07)
(-0.0003093022 0.39337902 -6.473605e-07)
(-0.00025022726 0.34859186 -5.8897422e-07)
(-0.00020092324 0.30995453 -5.4250746e-07)
(-0.0001594868 0.27673347 -5.0037618e-07)
(-0.00012266832 0.24834806 -4.6355435e-07)
(-9.6576362e-05 0.22408954 -4.2996058e-07)
(-7.6628478e-05 0.2032733 -3.9864587e-07)
(-6.1099478e-05 0.18541662 -3.6919443e-07)
(-4.875937e-05 0.17009777 -3.4114244e-07)
(-3.874897e-05 0.1569509 -3.1418894e-07)
(-3.0522761e-05 0.14566638 -2.8818556e-07)
(-2.3719935e-05 0.13599286 -2.6306758e-07)
(-1.800845e-05 0.12769947 -2.3881438e-07)
(-1.3100305e-05 0.12066397 -2.153192e-07)
(-8.7633457e-06 0.11454994 -1.9280282e-07)
(-4.8914524e-06 0.10988584 -1.7139223e-07)
(-1.2226246e-06 0.10366135 -1.4790689e-07)
(-0.013227656 0.092419353 -1.1796184e-06)
(-0.0029179406 0.099642856 -1.2111181e-06)
(-0.00040715134 0.1052593 -1.1597537e-06)
(0.0013830209 0.10680485 -1.0665304e-06)
(0.002930589 0.10888716 -9.6291561e-07)
(0.0040661991 0.1105404 -8.6216949e-07)
(0.0046800896 0.11214955 -7.7209759e-07)
(0.0048401142 0.11365189 -6.9374112e-07)
(0.0047222747 0.11440427 -6.1106047e-07)
(0.0044491578 0.11442164 -5.6530739e-07)
(0.0041327647 0.11369511 -5.2168122e-07)
(0.0037938693 0.11209583 -4.7515231e-07)
(0.003415804 0.1097226 -4.3520189e-07)
(0.0030392138 0.10677394 -3.9993499e-07)
(0.0026752461 0.1035503 -3.6813923e-07)
(0.0023293681 0.10019353 -3.3893367e-07)
(0.0020041393 0.096788321 -3.1168388e-07)
(0.0017004183 0.093399635 -2.8595398e-07)
(0.0014175399 0.09007818 -2.6144974e-07)
(0.0011550832 0.08686362 -2.3796745e-07)
(0.00091152866 0.083772886 -2.1534385e-07)
(0.00068498842 0.080846318 -1.9331875e-07)
(0.00047291316 0.078002347 -1.7265066e-07)
(0.00027367155 0.075569985 -1.5238663e-07)
(8.0997937e-05 0.071739961 -1.321533e-07)
(-0.009026559 -0.039979503 -7.1860992e-07)
(-0.007897035 -0.038252961 -7.7656719e-07)
(-0.0065648203 -0.036823394 -7.6115819e-07)
(-0.0051771734 -0.033563581 -7.158212e-07)
(-0.0038758328 -0.028722993 -6.5975815e-07)
(-0.0027518746 -0.023178637 -6.007244e-07)
(-0.001830946 -0.017454405 -5.4704738e-07)
(-0.0011113648 -0.01184204 -4.9814127e-07)
(-0.00056413872 -0.0068203406 -4.525222e-07)
(-0.00015660897 -0.0023608311 -4.1831779e-07)
(0.00013935703 0.0014606314 -3.8618005e-07)
(0.00034644377 0.0050598029 -3.557104e-07)
(0.00047752138 0.0084899227 -3.2786534e-07)
(0.00055484908 0.011590647 -3.023251e-07)
(0.00058967725 0.014262083 -2.7864803e-07)
(0.00059129068 0.016493632 -2.563994e-07)
(0.00056759918 0.018305976 -2.3532141e-07)
(0.00052504588 0.019727599 -2.1517457e-07)
(0.00046925672 0.020797684 -1.9577894e-07)
(0.00040381111 0.021550261 -1.7698003e-07)
(0.00033189507 0.022007864 -1.5855647e-07)
(0.00025596292 0.022191648 -1.3985474e-07)
(0.00017861877 0.022121739 -1.2427518e-07)
(0.00010176573 0.02186038 -1.0655449e-07)
(2.4792241e-05 0.021003594 -9.1246786e-08)
(-0.0040275366 -0.015407573 -3.9816782e-07)
(-0.004144765 -0.018285298 -4.6226715e-07)
(-0.0040687949 -0.021281501 -4.7128228e-07)
(-0.0038434837 -0.023448502 -4.5375453e-07)
(-0.0035161928 -0.024824886 -4.2653744e-07)
(-0.0031515441 -0.025330202 -3.9892787e-07)
(-0.0028000317 -0.025164442 -3.6481829e-07)
(-0.0024680313 -0.024534205 -3.3320163e-07)
(-0.0021616161 -0.023637445 -3.0485541e-07)
(-0.0018857033 -0.022539723 -2.8089025e-07)
(-0.0016374827 -0.021329947 -2.5889658e-07)
(-0.0014111924 -0.020008511 -2.3838674e-07)
(-0.0012028398 -0.018624454 -2.1936444e-07)
(-0.001019234 -0.017231566 -2.0163576e-07)
(-0.00085893198 -0.015866067 -1.8498437e-07)
(-0.00071937154 -0.014556044 -1.6899535e-07)
(-0.00059775601 -0.013326553 -1.5377244e-07)
(-0.00049177498 -0.012193666 -1.3913699e-07)
(-0.00039870005 -0.011177889 -1.2494237e-07)
(-0.00031715025 -0.010288285 -1.1110747e-07)
(-0.00024549558 -0.0095224417 -9.752935e-08)
(-0.00018212617 -0.0088785721 -8.4072028e-08)
(-0.00012560304 -0.0083487775 -7.0871118e-08)
(-7.4486989e-05 -0.0078777512 -5.5081097e-08)
(-2.7526407e-05 -0.0074856327 -3.3965274e-08)
(-0.00045834381 -0.0033578227 -2.2661174e-07)
(-0.00088103328 -0.0044692071 -2.7927091e-07)
(-0.0011923993 -0.0056043785 -2.9580207e-07)
(-0.0014005625 -0.0066836637 -2.9155166e-07)
(-0.0015205925 -0.007737919 -2.7701385e-07)
(-0.0015636141 -0.0089015141 -2.5811925e-07)
(-0.0015480643 -0.010123361 -2.362456e-07)
(-0.0014923799 -0.011176913 -2.1513749e-07)
(-0.0014119321 -0.012057049 -1.9601762e-07)
(-0.0013169934 -0.01276887 -1.7911012e-07)
(-0.0012142531 -0.01333523 -1.6369881e-07)
(-0.0011101337 -0.013766633 -1.4941878e-07)
(-0.0010063682 -0.014077213 -1.3611467e-07)
(-0.00090397175 -0.01427735 -1.2361457e-07)
(-0.00080391293 -0.014365267 -1.1212999e-07)
(-0.00070718463 -0.014340013 -1.0112568e-07)
(-0.00061451009 -0.014218843 -9.0435378e-08)
(-0.0005262916 -0.014037389 -8.008165e-08)
(-0.00044297245 -0.013810826 -7.0102143e-08)
(-0.00036386167 -0.013548014 -6.0529594e-08)
(-0.00028875718 -0.013255402 -5.1319194e-08)
(-0.00021754209 -0.012940981 -4.2376039e-08)
(-0.00015006748 -0.012609898 -3.3369362e-08)
(-8.6143402e-05 -0.012211699 -2.2903268e-08)
(-2.6532052e-05 -0.011692615 -1.1010275e-08)
(0.00072693976 -5.6272377e-05 -1.3103065e-07)
(0.00048591564 -0.00047899356 -1.6599114e-07)
(0.00026452591 -0.00096585182 -1.8012136e-07)
(6.7912534e-05 -0.0014644373 -1.8041504e-07)
(-0.00011595253 -0.0019597592 -1.7278047e-07)
(-0.00026217827 -0.0024721307 -1.6112121e-07)
(-0.00036203965 -0.0029859255 -1.47501e-07)
(-0.00042288038 -0.0034582609 -1.3382489e-07)
(-0.00045276064 -0.0038838961 -1.2104217e-07)
(-0.00046099275 -0.0042594216 -1.0941487e-07)
(-0.00045636461 -0.0045891742 -9.875887e-08)
(-0.00044088176 -0.004876061 -8.8892323e-08)
(-0.00041763372 -0.0051226004 -7.9703098e-08)
(-0.0003889343 -0.0053346977 -7.1104167e-08)
(-0.00035658068 -0.005520591 -6.3083923e-08)
(-0.00032192389 -0.0056971402 -5.5510618e-08)
(-0.00028602419 -0.0058567758 -4.8305375e-08)
(-0.00024963019 -0.005976894 -4.1456841e-08)
(-0.00021332992 -0.0060531819 -3.499323e-08)
(-0.00017752371 -0.0060847437 -2.9075285e-08)
(-0.00014245519 -0.0060737081 -2.360526e-08)
(-0.00010830174 -0.0060239659 -1.8510394e-08)
(-7.5158225e-05 -0.0059425523 -1.3682007e-08)
(-4.2956735e-05 -0.0058111971 -8.6180367e-09)
(-1.2203482e-05 -0.0055520145 -3.4720214e-09)
(0.00081534044 0.00084940761 -7.5920651e-08)
(0.0006801121 0.00081209124 -9.6002004e-08)
(0.00055602982 0.00073347088 -1.0506727e-07)
(0.00044764283 0.00060920375 -1.0595814e-07)
(0.00034934844 0.00046167028 -1.0171798e-07)
(0.00025824354 0.00030227142 -9.4663571e-08)
(0.00017627934 0.00013197729 -8.6293821e-08)
(0.00010968245 -3.87331e-05 -7.7707797e-08)
(5.7522371e-05 -0.00020372361 -6.9522899e-08)
(1.7184527e-05 -0.0003587582 -6.1967328e-08)
(-1.4284245e-05 -0.00049831193 -5.5025769e-08)
(-3.6045852e-05 -0.0006195634 -4.8625946e-08)
(-4.941369e-05 -0.00072510349 -4.2707364e-08)
(-5.6858222e-05 -0.00081572902 -3.7224759e-08)
(-5.9964216e-05 -0.00089162038 -3.2151666e-08)
(-5.9768094e-05 -0.00095502367 -2.745489e-08)
(-5.7005974e-05 -0.0010067998 -2.3107976e-08)
(-5.2302977e-05 -0.0010464015 -1.9107224e-08)
(-4.6362251e-05 -0.0010746578 -1.54777e-08)
(-3.9688148e-05 -0.0010921345 -1.2274492e-08)
(-3.2571524e-05 -0.0010995399 -9.4755342e-09)
(-2.524375e-05 -0.0010976739 -7.0543197e-09)
(-1.7848197e-05 -0.0010890084 -4.9414151e-09)
(-1.0348984e-05 -0.0010726464 -2.9705726e-09)
(-2.7211532e-06 -0.0010223812 -1.0869726e-09)
(0.00068929038 0.00085318008 -4.2570589e-08)
(0.00059752904 0.00091418473 -5.2576211e-08)
(0.00051308724 0.00094755509 -5.719155e-08)
(0.00043080399 0.0009549465 -5.7508732e-08)
(0.00036202216 0.00093933498 -5.4970309e-08)
(0.00029961421 0.00090865073 -5.0806619e-08)
(0.00024283172 0.00086506962 -4.5897381e-08)