/*--------------------------------*- C++ -*----------------------------------*\
| =========                 |                                                 |
| \\      /  F ield         | OpenFOAM: The Open Source CFD Toolbox           |
|  \\    /   O peration     | Version:  4.0                                   |
|   \\  /    A nd           | Web:      www.OpenFOAM.org                      |
|    \\/     M anipulation  |                                                 |
\*---------------------------------------------------------------------------*/
FoamFile
{
    version     2.0;
    format      ascii;
    class       volScalarField;
    location    "0.49";
    object      nut;
}
// * * * * * * * * * * * * * * * * * * * * * * * * * * * * * * * * * * * * * //

dimensions      [0 2 -1 0 0 0 0];

internalField   nonuniform List<scalar> 
1740
(
1.953457e-05
1.4189722e-05
1.2266063e-06
1.3151903e-05
7.405913e-06
1.8130033e-06
2.1082924e-05
5.5103511e-06
2.3144116e-06
2.4741035e-05
4.7359815e-06
2.7368254e-06
1.9645852e-05
4.325114e-06
3.086818e-06
1.6216804e-05
4.0415013e-06
3.4085157e-06
1.3565527e-05
3.8387235e-06
3.6791645e-06
1.1584213e-05
3.7042965e-06
3.8671635e-06
1.0572117e-05
3.6161815e-06
4.0355391e-06
9.6199739e-06
3.5536964e-06
4.1774184e-06
8.7025555e-06
3.5227375e-06
4.2944912e-06
7.928768e-06
3.5119266e-06
4.3817439e-06
7.2683247e-06
3.4999114e-06
4.4393613e-06
6.8239108e-06
3.5030001e-06
4.5025251e-06
6.5201591e-06
3.5166792e-06
4.5180474e-06
6.2295144e-06
3.5263856e-06
4.5819141e-06
5.9031085e-06
3.54871e-06
4.6485202e-06
5.6273165e-06
3.5656533e-06
4.6244145e-06
5.4162297e-06
3.5482335e-06
4.6379845e-06
5.2214765e-06
3.5458386e-06
4.6252647e-06
5.0494828e-06
3.5357031e-06
4.6478264e-06
4.8792847e-06
3.5385572e-06
4.6833835e-06
4.7452199e-06
3.5536118e-06
4.6753123e-06
4.6356838e-06
3.5741656e-06
4.6842307e-06
4.5149133e-06
3.5824585e-06
4.6904326e-06
4.3926724e-06
3.5697365e-06
4.6812426e-06
4.2994921e-06
3.5643758e-06
4.6452991e-06
4.2181401e-06
3.5612218e-06
4.6282779e-06
4.1709321e-06
3.5687716e-06
4.5866727e-06
3.0902291e-06
3.4232016e-06
4.2831461e-06
1.8563459e-06
2.174405e-06
4.4015304e-06
7.193682e-06
7.3723039e-06
6.7339551e-06
6.5450413e-06
6.7503679e-06
6.3827392e-06
5.177987e-06
5.1157686e-06
4.8706973e-06
4.3408346e-06
4.2688571e-06
4.1328416e-06
3.7968708e-06
3.7537865e-06
3.6931327e-06
3.4266347e-06
3.4090625e-06
3.3937759e-06
3.1548494e-06
3.1529341e-06
3.1619323e-06
2.9297225e-06
2.9358019e-06
2.9560568e-06
2.7151543e-06
2.7244775e-06
2.7484001e-06
2.4865997e-06
2.4964972e-06
2.5199161e-06
2.2301405e-06
2.2392366e-06
2.2600327e-06
1.9426495e-06
1.9503283e-06
1.9675917e-06
1.631714e-06
1.6377889e-06
1.6513263e-06
1.3140521e-06
1.3185794e-06
1.3286208e-06
1.0114082e-06
1.014584e-06
1.0216102e-06
7.4430021e-07
7.4639262e-07
7.5101585e-07
5.2608943e-07
5.2738267e-07
5.3023998e-07
3.6036776e-07
3.6111769e-07
3.6277878e-07
2.425041e-07
2.4291441e-07
2.4382919e-07
1.6360173e-07
1.6382355e-07
1.6431509e-07
1.1341625e-07
1.1353457e-07
1.137954e-07
8.2850134e-08
8.2914724e-08
8.3056905e-08
6.5101311e-08
6.513986e-08
6.5224854e-08
5.54349e-08
5.5461548e-08
5.5520634e-08
5.0709963e-08
5.0731315e-08
5.0779125e-08
4.8920883e-08
4.8939742e-08
4.8982447e-08
4.8825786e-08
4.884323e-08
4.88831e-08
4.9675028e-08
4.969144e-08
4.9729136e-08
5.1026432e-08
5.1041931e-08
5.107754e-08
5.2625257e-08
5.2639865e-08
5.2673328e-08
5.432828e-08
5.4341989e-08
5.4373249e-08
5.6056656e-08
5.6069463e-08
5.6098515e-08
5.776732e-08
5.7779233e-08
5.7806125e-08
5.9436154e-08
5.9447198e-08
5.9472016e-08
6.1048496e-08
6.1058708e-08
6.1081567e-08
6.2594079e-08
6.2603505e-08
6.2624537e-08
6.4064542e-08
6.4073235e-08
6.409258e-08
6.5452387e-08
6.5460406e-08
6.547821e-08
6.6750686e-08
6.6758092e-08
6.6774504e-08
6.7953162e-08
6.7960017e-08
6.7975189e-08
6.9054417e-08
6.9060789e-08
6.9074872e-08
7.0050244e-08
7.0056202e-08
7.0069352e-08
7.0937841e-08
7.0943477e-08
7.095586e-08
7.1700721e-08
7.1706074e-08
7.1717801e-08
7.2326823e-08
7.2331929e-08
7.2343107e-08
7.2801279e-08
7.2806182e-08
7.2816913e-08
7.3097181e-08
7.3101922e-08
7.3112295e-08
7.3158596e-08
7.3163203e-08
7.3173283e-08
7.2817565e-08
7.2822044e-08
7.2831844e-08
4.1730327e-06
4.509911e-06
6.7616291e-06
8.4738278e-06
5.9969994e-06
6.0359611e-06
4.7241635e-06
4.8281021e-06
4.0837138e-06
4.1914803e-06
3.6950949e-06
3.796217e-06
3.4225606e-06
3.5154318e-06
3.2030202e-06
3.2870968e-06
3.0007948e-06
3.0757279e-06
2.791673e-06
2.8571134e-06
2.5588551e-06
2.6146022e-06
2.2932284e-06
2.3393568e-06
1.9945825e-06
2.031485e-06
1.6722605e-06
1.7006346e-06
1.3440552e-06
1.3648788e-06
1.0323753e-06
1.0468577e-06
7.5808715e-07
7.6758251e-07
5.3460751e-07
5.4046715e-07
3.6532028e-07
3.6872996e-07
2.4523232e-07
2.4711509e-07
1.6506613e-07
1.6607106e-07
1.1419261e-07
1.1472275e-07
8.3273204e-08
8.3561666e-08
6.5354359e-08
6.5527391e-08
5.561108e-08
5.5732474e-08
5.0852815e-08
5.0952283e-08
4.9048741e-08
4.913866e-08
4.894532e-08
4.9029962e-08
4.9788099e-08
4.9868378e-08
5.1133212e-08
5.1208936e-08
5.272551e-08
5.2796326e-08
5.4421818e-08
5.4487538e-08
5.6143472e-08
5.6204117e-08
5.7847576e-08
5.7903326e-08
5.9510138e-08
5.956127e-08
6.1116574e-08
6.1163415e-08
6.2656661e-08
6.2699558e-08
6.4122063e-08
6.4161367e-08
6.5505295e-08
6.5541351e-08
6.6799436e-08
6.6832583e-08
6.7998207e-08
6.8028779e-08
6.9096214e-08
6.9124532e-08
7.0089251e-08
7.0115625e-08
7.0974546e-08
7.0999269e-08
7.1735465e-08
7.1758805e-08
7.2359929e-08
7.238214e-08
7.2833057e-08
7.2854366e-08
7.3127899e-08
7.3148502e-08
7.3188451e-08
7.3208529e-08
7.2846629e-08
7.2866454e-08
4.7555846e-10
1.3285582e-08
1.9304168e-07
8.2653941e-07
1.6438112e-06
2.2304254e-06
2.5752739e-06
2.7835326e-06
2.9275366e-06
3.0428829e-06
3.1466654e-06
3.2526992e-06
3.3580493e-06
3.4615793e-06
3.5624835e-06
3.659406e-06
3.7498916e-06
3.8298073e-06
3.8924585e-06
3.9272628e-06
3.9176085e-06
3.8372456e-06
3.643632e-06
3.2598999e-06
2.4493556e-06
2.163968e-10
2.6890604e-08
3.5997443e-07
1.3776941e-06
2.5711626e-06
3.3795017e-06
3.8524325e-06
4.1589317e-06
4.3934781e-06
4.5987853e-06
4.7953746e-06
4.9956192e-06
5.1974813e-06
5.3998936e-06
5.6011878e-06
5.7986206e-06
5.9874527e-06
6.1599152e-06
6.3033096e-06
6.3973463e-06
6.4097003e-06
6.2880309e-06
5.944582e-06
5.2184608e-06
3.6808402e-06
6.6267384e-10
7.881732e-08
8.5753697e-07
2.5077461e-06
3.793231e-06
4.5296718e-06
4.9932028e-06
5.3387849e-06
5.6389828e-06
5.9261582e-06
6.2156041e-06
6.5140316e-06
6.8200299e-06
7.132434e-06
7.4498155e-06
7.7691079e-06
8.0840909e-06
8.3848019e-06
8.6536018e-06
8.8617805e-06
8.9627048e-06
8.8787789e-06
8.4745993e-06
7.4917409e-06
5.2867864e-06
3.1282866e-09
2.8518701e-07
2.0618216e-06
4.0022776e-06
5.0428693e-06
5.630619e-06
6.0374716e-06
6.3801464e-06
6.7087554e-06
7.0419017e-06
7.3904273e-06
7.7573326e-06
8.1391739e-06
8.5346408e-06
8.9435936e-06
9.3646615e-06
9.7928757e-06
1.0218718e-05
1.0625542e-05
1.0985462e-05
1.1252264e-05
1.1347523e-05
1.1127593e-05
1.0283536e-05
7.8859422e-06
2.3403232e-08
1.1381721e-06
3.9862539e-06
5.5946181e-06
6.4465085e-06
6.9677645e-06
7.3516136e-06
7.6984113e-06
8.0481754e-06
8.4029501e-06
8.7765001e-06
9.1751342e-06
9.5889045e-06
1.0012988e-05
1.0450352e-05
1.0905537e-05
1.1377838e-05
1.1862653e-05
1.2350053e-05
1.2821822e-05
1.3246862e-05
1.3575019e-05
1.3729684e-05
1.3615126e-05
1.3202989e-05
1.9613382e-07
2.759422e-06
5.9030503e-06
7.705592e-06
8.6201275e-06
9.0370834e-06
9.2332387e-06
9.3698757e-06
9.5085354e-06
9.6674305e-06
9.8544925e-06
1.0075889e-05
1.0332034e-05
1.0623111e-05
1.0950336e-05
1.1314732e-05
1.171645e-05
1.2153505e-05
1.2620844e-05
1.3108623e-05
1.3599179e-05
1.4063716e-05
1.445918e-05
1.4737011e-05
1.4839873e-05
4.3571371e-06
4.3368289e-06
4.3835867e-06
4.4939151e-06
4.6672045e-06
4.8936505e-06
5.1637258e-06
5.4750131e-06
5.8297232e-06
6.2296429e-06
6.6741581e-06
7.159982e-06
7.6810229e-06
8.2297336e-06
8.7989838e-06
9.3837715e-06
9.981532e-06
1.0590872e-05
1.1209852e-05
1.1833861e-05
1.2452649e-05
1.3047233e-05
1.3587096e-05
1.4035648e-05
1.4325421e-05
9.131606e-06
9.3803577e-06
9.7723296e-06
1.0187216e-05
1.0362666e-05
1.0326736e-05
1.0209997e-05
1.0113257e-05
1.0076628e-05
1.0101913e-05
1.0184846e-05
1.0320717e-05
1.0507554e-05
1.0745063e-05
1.1033104e-05
1.1371121e-05
1.1757189e-05
1.2187376e-05
1.2654629e-05
1.314673e-05
1.3643206e-05
1.4112167e-05
1.4507463e-05
1.4779162e-05
1.487336e-05
6.4072294e-06
6.8154303e-06
7.2462945e-06
7.6466984e-06
7.949731e-06
8.1680561e-06
8.3615848e-06
8.5693785e-06
8.8003568e-06
9.0692419e-06
9.3723393e-06
9.7008448e-06
1.0049893e-05
1.0425811e-05
1.0832468e-05
1.127044e-05
1.1736794e-05
1.2224308e-05
1.2719532e-05
1.3199815e-05
1.3628738e-05
1.3950213e-05
1.4081969e-05
1.3925313e-05
1.3458853e-05
5.1412644e-06
5.4983427e-06
5.849489e-06
6.1669692e-06
6.4339091e-06
6.662871e-06
6.884034e-06
7.1177456e-06
7.3751931e-06
7.6629929e-06
7.9790406e-06
8.3207252e-06
8.6878968e-06
9.0816829e-06
9.5016488e-06
9.9441581e-06
1.040114e-05
1.0858392e-05
1.1292979e-05
1.1669095e-05
1.1931121e-05
1.1990407e-05
1.1693509e-05
1.0721256e-05
8.1187981e-06
4.4347287e-06
4.7252317e-06
5.0165132e-06
5.2880947e-06
5.5341704e-06
5.7629098e-06
5.9888073e-06
6.2246293e-06
6.4789229e-06
6.7558314e-06
7.0550393e-06
7.3753679e-06
7.7164995e-06
8.077434e-06
8.4553656e-06
8.8434189e-06
9.2295861e-06
9.5948262e-06
9.910341e-06
1.0133464e-05
1.0201096e-05
1.0018181e-05
9.434265e-06
8.183963e-06
5.6315545e-06
3.9847015e-06
4.2147309e-06
4.4534602e-06
4.6850033e-06
4.9057138e-06
5.1203016e-06
5.3368517e-06
5.5631109e-06
5.8047669e-06
6.064682e-06
6.3431049e-06
6.6391989e-06
6.9517563e-06
7.2781442e-06
7.6131186e-06
7.9477212e-06
8.2678978e-06
8.5528667e-06
8.7730159e-06
8.8870409e-06
8.8378595e-06
8.5460982e-06
7.897188e-06
6.703757e-06
4.4831691e-06
3.6660965e-06
3.8503399e-06
4.0470751e-06
4.24464e-06
4.4397098e-06
4.6344306e-06
4.833392e-06
5.0413836e-06
5.2621269e-06
5.4976098e-06
5.7481068e-06
6.0127456e-06
6.2896695e-06
6.5753373e-06
6.8635686e-06
7.1446547e-06
7.4043928e-06
7.6229487e-06
7.773605e-06
7.8213985e-06
7.7216052e-06
7.4176378e-06
6.8355968e-06
5.8580425e-06
4.1148486e-06
3.4108478e-06
3.5611461e-06
3.7249137e-06
3.8939014e-06
4.0650514e-06
4.2389926e-06
4.4181956e-06
4.6055383e-06
4.8033499e-06
5.0128669e-06
5.2340908e-06
5.4659168e-06
5.7060243e-06
5.9503791e-06
6.1925717e-06
6.4231555e-06
6.6289938e-06
6.7926439e-06
6.8919091e-06
6.8997585e-06
6.7850289e-06
6.5148618e-06
6.0617661e-06
5.4270526e-06
4.7091649e-06
3.179006e-06
3.3032844e-06
3.4404988e-06
3.584938e-06
3.7339532e-06
3.8873385e-06
4.0462886e-06
4.2124069e-06
4.3870327e-06
4.5707786e-06
4.7633214e-06
4.9633094e-06
5.1681763e-06
5.3737725e-06
5.5739079e-06
5.7599092e-06
5.9202556e-06
6.0403767e-06
6.1027601e-06
6.0876573e-06
5.9749522e-06
5.7485471e-06
5.4069811e-06
4.9906462e-06
4.64264e-06
2.9435712e-06
3.0467788e-06
3.1616998e-06
3.284382e-06
3.4126331e-06
3.54585e-06
3.6844359e-06
3.8291741e-06
3.9807141e-06
4.1392019e-06
4.3040458e-06
4.4737462e-06
4.6457059e-06
4.8159498e-06
4.9788283e-06
5.1267481e-06
5.2500248e-06
5.3369243e-06
5.3740351e-06
5.3471852e-06
5.2432962e-06
5.0540107e-06
4.7831177e-06
4.4620954e-06
4.1401254e-06
2.6863625e-06
2.7715526e-06
2.8669616e-06
2.9698251e-06
3.0783727e-06
3.1918355e-06
3.3101605e-06
3.4336049e-06
3.5623642e-06
3.696272e-06
3.8345824e-06
3.9757903e-06
4.1174552e-06
4.2560031e-06
4.3865419e-06
4.5027217e-06
4.5967048e-06
4.6593118e-06
4.6804101e-06
4.6496202e-06
4.557362e-06
4.3960034e-06
4.1596603e-06
3.8349616e-06
3.316499e-06
2.3978366e-06
2.4670476e-06
2.5448895e-06
2.6294106e-06
2.7191983e-06
2.8134645e-06
2.91191e-06
3.0144753e-06
3.1210809e-06
3.2313907e-06
3.3446205e-06
3.4593834e-06
3.5735447e-06
3.6840878e-06
3.7870004e-06
3.8772177e-06
3.9486471e-06
3.994317e-06
4.0066527e-06
3.9778329e-06
3.8999897e-06
3.76446e-06
3.5575551e-06
3.2439876e-06
2.6821749e-06
2.0778705e-06
2.1326968e-06
2.194566e-06
2.2620935e-06
2.3341739e-06
2.4100762e-06
2.4893987e-06
2.5719166e-06
2.6574047e-06
2.745465e-06
2.835372e-06
2.9259487e-06
3.0154572e-06
3.101512e-06
3.181018e-06
3.2501523e-06
3.3044058e-06
3.338685e-06
3.3474494e-06
3.3247747e-06
3.2640446e-06
3.1564983e-06
2.9865919e-06
2.7179822e-06
2.2297082e-06
1.7361383e-06
1.778093e-06
1.8255633e-06
1.8775717e-06
1.9332746e-06
1.9920456e-06
2.0534706e-06
2.1172597e-06
2.1831386e-06
2.25072e-06
2.3193963e-06
2.3882466e-06
2.4559613e-06
2.5207876e-06
2.5805018e-06
2.6324097e-06
2.6733782e-06
2.6998867e-06
2.7080506e-06
2.6935094e-06
2.6509399e-06
2.5726752e-06
2.4452141e-06
2.23995e-06
1.8696095e-06
1.3908707e-06
1.4215929e-06
1.4564265e-06
1.4946904e-06
1.5357612e-06
1.5791352e-06
1.6244385e-06
1.6713852e-06
1.7197064e-06
1.7690738e-06
1.8190213e-06
1.8688849e-06
1.9177571e-06
1.9644552e-06
2.0075118e-06
2.0451818e-06
2.0754605e-06
2.0960935e-06
2.1045332e-06
2.0977599e-06
2.0718175e-06
2.020784e-06
1.93458e-06
1.7936777e-06
1.5462146e-06
1.0649125e-06
1.0862567e-06
1.1104911e-06
1.1371528e-06
1.1657971e-06
1.1960414e-06
1.2275794e-06
1.2601629e-06
1.2935645e-06
1.3275285e-06
1.361727e-06
1.3957234e-06
1.4289428e-06
1.460661e-06
1.490003e-06
1.5159487e-06
1.5373399e-06
1.5528671e-06
1.5610059e-06
1.5598472e-06
1.5467462e-06
1.5176699e-06
1.4659886e-06
1.379741e-06
1.2291133e-06
7.7941382e-07
7.9339854e-07
8.092838e-07
8.2676804e-07
8.4554462e-07
8.6533859e-07
8.8591709e-07
9.0708484e-07
9.2866696e-07
9.5048165e-07
9.7231527e-07
9.9390409e-07
1.014921e-06
1.0349705e-06
1.0535894e-06
1.0702488e-06
1.0843536e-06
1.0952244e-06
1.1020438e-06
1.1037368e-06
1.0987508e-06
1.0846991e-06
1.057762e-06
1.011274e-06
9.2878068e-07
5.4776369e-07
5.5638612e-07
5.6617577e-07
5.7694278e-07
5.8848452e-07
6.0061288e-07
6.1316261e-07
6.2599185e-07
6.3897583e-07
6.519948e-07
6.6492068e-07
6.7760906e-07
6.8989438e-07
7.0158879e-07
7.1248099e-07
7.2233442e-07
7.3087943e-07
7.377986e-07
7.4269808e-07
7.4504388e-07
7.4404577e-07
7.3848634e-07
7.2644669e-07
7.045507e-07
6.6375544e-07
3.7297345e-07
3.7798708e-07
3.8367317e-07
3.8991479e-07
3.9658484e-07
4.0356017e-07
4.1073018e-07
4.1799872e-07
4.2528275e-07
4.3250814e-07
4.3960414e-07
4.4650007e-07
4.531244e-07
4.5940569e-07
4.6526944e-07
4.7062973e-07
4.7537746e-07
4.7936995e-07
4.8242626e-07
4.8430842e-07
4.8466582e-07
4.8295601e-07
4.7832057e-07
4.6918205e-07
4.5097619e-07
2.4945695e-07
2.5222125e-07
2.5535117e-07
2.5877644e-07
2.6242089e-07
2.6620863e-07
2.7006989e-07
2.7394381e-07
2.7777872e-07
2.8153121e-07
2.8516488e-07
2.886499e-07
2.9196366e-07
2.9509248e-07
2.9802838e-07
3.007517e-07
3.0321917e-07
3.0535433e-07
3.070629e-07
3.0824542e-07
3.0876513e-07
3.0840219e-07
3.0679137e-07
3.032176e-07
2.9548107e-07
1.673174e-07
1.6878291e-07
1.7043494e-07
1.7223232e-07
1.7413031e-07
1.7608417e-07
1.7805214e-07
1.7999784e-07
1.8189128e-07
1.8370912e-07
1.8543475e-07
1.8705963e-07
1.8858549e-07
1.9002848e-07
1.9141787e-07
1.9277102e-07
1.9404898e-07
1.9517937e-07
1.9609204e-07
1.9674939e-07
1.9710847e-07
1.9708537e-07
1.9651994e-07
1.950825e-07
1.9178506e-07
1.1537852e-07
1.1614698e-07
1.1700942e-07
1.1794261e-07
1.1892054e-07
1.1991718e-07
1.2090822e-07
1.2187227e-07
1.2279206e-07
1.2365492e-07
1.24453e-07
1.2518416e-07
1.2585313e-07
1.2647362e-07
1.2707028e-07
1.2768099e-07
1.2835078e-07
1.2900623e-07
1.2952721e-07
1.2989888e-07
1.301169e-07
1.3015196e-07
1.2993147e-07
1.2930522e-07
1.2784527e-07
8.3918196e-08
8.4335598e-08
8.4803418e-08
8.5308533e-08
8.5836263e-08
8.6371557e-08
8.6900322e-08
8.7410177e-08
8.789116e-08
8.833618e-08
8.8741321e-08
8.9106238e-08
8.9434765e-08
8.9735958e-08
9.0025622e-08
9.0328787e-08
9.0680192e-08
9.1109089e-08
9.1465657e-08
9.1720824e-08
9.1880374e-08
9.1934941e-08
9.1848417e-08
9.1543833e-08
9.0816088e-08
6.5741778e-08
6.5993621e-08
6.6277147e-08
6.6584966e-08
6.6908709e-08
6.7239684e-08
6.7569556e-08
6.7890964e-08
6.8197894e-08
6.8485966e-08
6.8752692e-08
6.8997676e-08
6.9223028e-08
6.943395e-08
6.9639848e-08
6.9856135e-08
7.0107361e-08
7.0429707e-08
7.0733454e-08
7.0961488e-08
7.1118144e-08
7.1200157e-08
7.1185611e-08
7.1021774e-08
7.0567013e-08
5.5883742e-08
5.6062816e-08
5.626647e-08
5.6490455e-08
5.6729816e-08
5.6979301e-08
5.7233729e-08
5.7488326e-08
5.7739015e-08
5.798258e-08
5.8216834e-08
5.84408e-08
5.8655032e-08
5.8862067e-08
5.9067257e-08
5.9280158e-08
5.9517428e-08
5.9805093e-08
6.0104685e-08
6.034076e-08
6.0515625e-08
6.0627524e-08
6.0660473e-08
6.0573412e-08
6.0253848e-08
5.1077044e-08
5.1226024e-08
5.1397333e-08
5.1588343e-08
5.1795878e-08
5.2016433e-08
5.224641e-08
5.2482315e-08
5.272093e-08
5.2959458e-08
5.3195671e-08
5.3428079e-08
5.3656214e-08
5.3881004e-08
5.4105386e-08
5.4335256e-08
5.4581334e-08
5.4863435e-08
5.5171249e-08
5.5421195e-08
5.5614798e-08
5.5750163e-08
5.5813462e-08
5.5769639e-08
5.5519305e-08
4.9252012e-08
4.9388244e-08
4.9546119e-08
4.9723796e-08
4.9918951e-08
5.0128923e-08
5.0350859e-08
5.0581856e-08
5.0819093e-08
5.1059958e-08
5.1302193e-08
5.1544069e-08
5.1784618e-08
5.2023945e-08
5.2263686e-08
5.2507694e-08
5.2763324e-08
5.3044686e-08
5.3356452e-08
5.3614376e-08
5.3819513e-08
5.3968985e-08
5.4049386e-08
5.4029244e-08
5.3819391e-08
4.9136953e-08
4.926598e-08
4.9416097e-08
4.9585811e-08
4.9773189e-08
4.9975963e-08
5.0191645e-08
5.0417646e-08
5.0651397e-08
5.0890469e-08
5.1132716e-08
5.1376429e-08
5.1620524e-08
5.1864783e-08
5.2110197e-08
5.2359492e-08
5.2618071e-08
5.2896178e-08
5.3203849e-08
5.3462055e-08
5.3670936e-08
5.3826115e-08
5.3913544e-08
5.3902533e-08
5.3708745e-08
4.9969913e-08
5.0092468e-08
5.0235206e-08
5.0396788e-08
5.0575469e-08
5.0769198e-08
5.0975724e-08
5.1192702e-08
5.1417813e-08
5.164888e-08
5.1883996e-08
5.212165e-08
5.2360874e-08
5.2601406e-08
5.2843944e-08
5.3090533e-08
5.3345276e-08
5.361569e-08
5.3913545e-08
5.4166386e-08
5.4373221e-08
5.4528036e-08
5.4615569e-08
5.4604241e-08
5.4407956e-08
5.1304606e-08
5.1419977e-08
5.1554246e-08
5.1706154e-08
5.1874088e-08
5.2056171e-08
5.2250364e-08
5.2454576e-08
5.266677e-08
5.288508e-08
5.3107913e-08
5.3334052e-08
5.3562753e-08
5.3793856e-08
5.4027948e-08
5.4266649e-08
5.451317e-08
5.4773421e-08
5.5057587e-08
5.5301602e-08
5.5502808e-08
5.5653474e-08
5.5736838e-08
5.571969e-08
5.5512177e-08
5.2885607e-08
5.2993058e-08
5.3117885e-08
5.3258902e-08
5.3414619e-08
5.3583334e-08
5.3763234e-08
5.3952496e-08
5.414939e-08
5.435238e-08
5.4560216e-08
5.4772005e-08
5.4987273e-08
5.5206019e-08
5.5428813e-08
5.5656987e-08
5.5893064e-08
5.6141679e-08
5.6410985e-08
5.6644643e-08
5.6838418e-08
5.6982934e-08
5.7059819e-08
5.7033768e-08
5.6809015e-08
5.4570175e-08
5.4669376e-08
5.4784363e-08
5.4914023e-08
5.5056998e-08
5.5211769e-08
5.5376754e-08
5.5550399e-08
5.573128e-08
5.5918192e-08
5.6110217e-08
5.6306784e-08
5.6507686e-08
5.6713105e-08
5.6923633e-08
5.7140396e-08
5.7365349e-08
5.7602023e-08
5.7856671e-08
5.8079697e-08
5.8265407e-08
5.840293e-08
5.8472302e-08
5.8435972e-08
5.8193345e-08
5.6280158e-08
5.6371196e-08
5.6476476e-08
5.6594967e-08
5.6725445e-08
5.6866572e-08
5.701699e-08
5.7175403e-08
5.7340678e-08
5.7511913e-08
5.7688503e-08
5.7870172e-08
5.805697e-08
5.8249252e-08
5.8447656e-08
5.8653145e-08
5.8867201e-08
5.9092397e-08
5.9333312e-08
5.9546051e-08
5.9723701e-08
5.985405e-08
5.9915724e-08
5.9869276e-08
5.961037e-08
5.797304e-08
5.8056289e-08
5.8152349e-08
5.8260274e-08
5.8378969e-08
5.850727e-08
5.8644025e-08
5.8788177e-08
5.8938853e-08
5.9095428e-08
5.9257575e-08
5.9425286e-08
5.9598842e-08
5.9778761e-08
5.9965732e-08
6.0160589e-08
6.0364411e-08
6.057894e-08
6.0807295e-08
6.1010402e-08
6.1180293e-08
6.1303586e-08
6.1357679e-08
6.1301469e-08
6.102755e-08
5.9625054e-08
5.9701043e-08
5.9788552e-08
5.9886717e-08
5.9994567e-08
6.0111094e-08
6.0235333e-08
6.0366441e-08
6.0503774e-08
6.0646951e-08
6.0795893e-08
6.0950826e-08
6.1112237e-08
6.1280793e-08
6.1457232e-08
6.1642282e-08
6.1836678e-08
6.2041444e-08
6.2258433e-08
6.2452629e-08
6.2615144e-08
6.2731546e-08
6.2778085e-08
6.2711836e-08
6.2420214e-08
6.1221722e-08
6.1291045e-08
6.1370737e-08
6.1460015e-08
6.1558021e-08
6.1663886e-08
6.1776812e-08
6.1896141e-08
6.202143e-08
6.2152513e-08
6.2289524e-08
6.2432895e-08
6.2583294e-08
6.2741516e-08
6.2908349e-08
6.3084429e-08
6.3270196e-08
6.3466058e-08
6.3672769e-08
6.3858714e-08
6.4014192e-08
6.4123802e-08
6.4162622e-08
6.4085676e-08
6.3771456e-08
6.2752858e-08
6.2816115e-08
6.2888727e-08
6.2969985e-08
6.3059128e-08
6.3155416e-08
6.3258191e-08
6.3366958e-08
6.3481451e-08
6.3601684e-08
6.3727979e-08
6.3860945e-08
6.4001403e-08
6.4150265e-08
6.4308354e-08
6.4476233e-08
6.4654087e-08
6.4841793e-08
6.5039154e-08
6.5217382e-08
6.5366067e-08
6.5468918e-08
6.549986e-08
6.5411996e-08
6.5079085e-08
6.4210124e-08
6.4267904e-08
6.4334146e-08
6.4408209e-08
6.4489421e-08
6.4577149e-08
6.4670863e-08
6.4770205e-08
6.4875058e-08
6.4985596e-08
6.5102296e-08
6.522592e-08
6.535742e-08
6.5497802e-08
6.5647921e-08
6.5808273e-08
6.5978823e-08
6.6159019e-08
6.6347748e-08
6.6518636e-08
6.6660659e-08
6.6756738e-08
6.6779721e-08
6.6680739e-08
6.6328248e-08
6.5586019e-08
6.5638888e-08
6.5699435e-08
6.5767081e-08
6.5841232e-08
6.592135e-08
6.600701e-08
6.6097976e-08
6.6194257e-08
6.6296157e-08
6.640429e-08
6.651954e-08
6.6642971e-08
6.6775662e-08
6.6918492e-08
6.70719e-08
6.7235681e-08
6.7409028e-08
6.7589495e-08
6.7753218e-08
6.7888574e-08
6.7977806e-08
6.7992817e-08
6.788281e-08
6.7510317e-08
6.6873603e-08
6.6922101e-08
6.6977593e-08
6.7039553e-08
6.7107457e-08
6.7180847e-08
6.7259389e-08
6.7342946e-08
6.7431635e-08
6.7525871e-08
6.7626376e-08
6.7734138e-08
6.7850304e-08
6.7976013e-08
6.811216e-08
6.8259145e-08
6.8416692e-08
6.8583999e-08
6.8756073e-08
6.8912508e-08
6.9041018e-08
6.9123239e-08
6.9130293e-08
6.9009716e-08
6.8618504e-08
6.8066575e-08
6.8111218e-08
6.816226e-08
6.8219222e-08
6.8281638e-08
6.8349118e-08
6.8421406e-08
6.8498449e-08
6.8580451e-08
6.8667917e-08
6.8761657e-08
6.8862737e-08
6.8972373e-08
6.909174e-08
6.9221748e-08
6.9362794e-08
6.9514628e-08
6.967652e-08
6.9839788e-08
6.9988518e-08
7.0109806e-08
7.0184742e-08
7.0183866e-08
7.005347e-08
6.9646161e-08
6.915951e-08
6.9200787e-08
6.9247947e-08
6.9300548e-08
6.9358177e-08
6.9420501e-08
6.9487327e-08
6.9558672e-08
6.9634811e-08
6.971632e-08
6.9804078e-08
6.9899212e-08
7.000298e-08
7.0116582e-08
7.0240927e-08
7.0376432e-08
7.0522919e-08
7.0679008e-08
7.0833186e-08
7.0973719e-08
7.108728e-08
7.1154551e-08
7.1145818e-08
7.1007328e-08
7.0594963e-08
7.0148167e-08
7.0186533e-08
7.0230328e-08
7.0279146e-08
7.0332616e-08
7.0390453e-08
7.0452518e-08
7.0518884e-08
7.0589883e-08
7.0666148e-08
7.0748609e-08
7.0838437e-08
7.0936916e-08
7.1045244e-08
7.1164301e-08
7.1294536e-08
7.1436445e-08
7.1584009e-08
7.1728869e-08
7.1860785e-08
7.1966074e-08
7.2025182e-08
7.2008502e-08
7.1863302e-08
7.145214e-08
7.1029731e-08
7.106559e-08
7.1106471e-08
7.1151998e-08
7.1201833e-08
7.1255733e-08
7.1313606e-08
7.137557e-08
7.1442005e-08
7.1513589e-08
7.1591292e-08
7.1676316e-08
7.1769956e-08
7.1873379e-08
7.1987318e-08
7.2111716e-08
7.2245218e-08
7.2383468e-08
7.2519172e-08
7.2642214e-08
7.2738698e-08
7.2788973e-08
7.2763564e-08
7.2610144e-08
7.2191548e-08
7.1787529e-08
7.1821301e-08
7.1859762e-08
7.1902555e-08
7.1949372e-08
7.1999999e-08
7.2054377e-08
7.2112653e-08
7.2175236e-08
7.2242818e-08
7.2316373e-08
7.2397092e-08
7.2486228e-08
7.2584862e-08
7.2693569e-08
7.2812e-08
7.2938332e-08
7.3068464e-08
7.3195546e-08
7.330964e-08
7.3396872e-08
7.343767e-08
7.340279e-08
7.3240161e-08
7.2811676e-08
7.2409454e-08
7.2441547e-08
7.2478069e-08
7.2518679e-08
7.2563086e-08
7.2611099e-08
7.2662677e-08
7.2717991e-08
7.2777458e-08
7.2841772e-08
7.2911893e-08
7.2988982e-08
7.3074235e-08
7.3168637e-08
7.3272633e-08
7.3385676e-08
7.3505697e-08
7.3628524e-08
7.3747416e-08
7.3852561e-08
7.3930218e-08
7.3961054e-08
7.3916253e-08
7.3744302e-08
7.3306879e-08
7.2880568e-08
7.2911352e-08
7.2946381e-08
7.2985312e-08
7.3027856e-08
7.3073834e-08
7.3123222e-08
7.3176204e-08
7.3233201e-08
7.3294896e-08
7.336223e-08
7.3436331e-08
7.3518339e-08
7.3609137e-08
7.3709083e-08
7.3817487e-08
7.393205e-08
7.4048318e-08
7.415949e-08
7.4255833e-08
7.4323817e-08
7.4344486e-08
7.4289637e-08
7.4108783e-08
7.3665156e-08
7.3173867e-08
7.3203693e-08
7.3237665e-08
7.3275408e-08
7.3316588e-08
7.3361038e-08
7.3408756e-08
7.3459939e-08
7.3515011e-08
7.3574645e-08
7.3639773e-08
7.3711517e-08
7.3790981e-08
7.3878923e-08
7.3975739e-08
7.4080722e-08
7.4191277e-08
7.4302154e-08
7.4406417e-08
7.4494455e-08
7.4553093e-08
7.4563909e-08
7.4499496e-08
7.4311242e-08
7.3868086e-08
7.3233394e-08
7.3262626e-08
7.3296013e-08
7.3333087e-08
7.3373364e-08
7.3416701e-08
7.3463147e-08
7.351293e-08
7.3566482e-08
7.3624489e-08
7.368791e-08
7.3757956e-08
7.3835747e-08
7.3921812e-08
7.4016964e-08
7.4121097e-08
7.4231404e-08
7.4339285e-08
7.4438204e-08
7.4519037e-08
7.4569345e-08
7.4571481e-08
7.449892e-08
7.4306384e-08
7.3873102e-08
7.2891572e-08
7.2920658e-08
7.2953945e-08
7.2990867e-08
7.3030573e-08
7.3072989e-08
7.3118294e-08
7.3166776e-08
7.321889e-08
7.3275399e-08
7.333738e-08
7.3406346e-08
7.348356e-08
7.356893e-08
7.3664826e-08
7.3776439e-08
7.3903688e-08
7.4014397e-08
7.4110715e-08
7.4186177e-08
7.4230103e-08
7.4226e-08
7.4147919e-08
7.3958185e-08
7.3554074e-08
)
;

boundaryField
{
    Walls
    {
        type            nutUWallFunction;
        Cmu             0.09;
        kappa           0.41;
        E               9.8;
        value           uniform 0;
    }
    Inlet
    {
        type            calculated;
        value           nonuniform List<scalar> 3(3.1258407e-05 1.8863496e-05 8.1688002e-07);
    }
    Outlet
    {
        type            calculated;
        value           nonuniform List<scalar> 
86
(
0
0
0
0
0
0
0
0
0
0
0
0
0
0
0
0
0
0
0
0
0
0
0
0
0
0
0
0
0
0
1.4325421e-05
1.487336e-05
1.3458853e-05
0
0
0
0
0
4.64264e-06
4.1401254e-06
0
0
0
0
0
1.2291133e-06
9.2878068e-07
6.6375544e-07
4.5097619e-07
2.9548107e-07
1.9178506e-07
1.2784527e-07
9.0816088e-08
7.0567013e-08
6.0253848e-08
0
0
0
0
0
0
0
0
0
0
0
0
0
0
0
0
0
0
0
0
0
0
0
0
0
0
0
0
0
1.3202989e-05
1.4839873e-05
)
;
    }
    Front
    {
        type            wedge;
    }
    Back
    {
        type            wedge;
    }
    defaultFaces
    {
        type            empty;
    }
}


// ************************************************************************* //
