/*--------------------------------*- C++ -*----------------------------------*\
| =========                 |                                                 |
| \\      /  F ield         | OpenFOAM: The Open Source CFD Toolbox           |
|  \\    /   O peration     | Version:  4.0                                   |
|   \\  /    A nd           | Web:      www.OpenFOAM.org                      |
|    \\/     M anipulation  |                                                 |
\*---------------------------------------------------------------------------*/
FoamFile
{
    version     2.0;
    format      ascii;
    class       volScalarField;
    location    "0.49";
    object      omega;
}
// * * * * * * * * * * * * * * * * * * * * * * * * * * * * * * * * * * * * * //

dimensions      [0 0 -1 0 0 0 0];

internalField   nonuniform List<scalar> 
1740
(
65.700406
641.3869
14919.312
152.71958
1331.8037
15026.977
265.91223
1910.9732
15121.837
393.58012
2315.781
15202.208
510.6164
2567.4672
15269.113
620.60189
2797.6149
15328.751
744.90539
3022.8229
15380.036
875.75053
3256.4961
15415.302
954.00924
3418.4869
15447.448
1040.669
3505.4091
15477.931
1143.8455
3621.3943
15497.201
1248.2875
3757.1995
15513.465
1356.6985
3847.2042
15526.919
1436.5731
3917.5933
15538.794
1492.7039
3967.3852
15541.756
1545.1404
4000.5331
15554.646
1616.3959
4079.2555
15566.421
1680.4729
4154.8764
15562.708
1722.7208
4119.1818
15565.952
1763.7155
4116.752
15564.158
1797.7053
4096.2578
15566.721
1845.0195
4099.2281
15573.548
1876.9213
4131.0485
15572.774
1893.1511
4174.3307
15574.456
1921.6117
4191.1652
15576.822
1966.3619
4167.8309
15575.536
1977.7505
4176.9443
15568.402
2000.6861
4183.2512
15565.243
2011.9399
4194.6655
15557.43
2122.9189
4278.3554
15497.528
3181.3771
4549.9558
10708.697
3322.3054
4229.5161
5921.8927
1570.8333
1859.8387
2154.96
823.14603
898.25368
956.9753
478.8397
497.03949
507.03046
301.03894
304.73446
304.74146
201.41382
201.69668
200.20334
142.00863
141.65973
140.3784
104.65846
104.31231
103.45015
80.155528
79.914497
79.379193
63.526276
63.374922
63.053593
51.939967
51.848416
51.657746
43.723115
43.668332
43.554875
37.854104
37.821118
37.752692
33.683196
33.66292
33.620621
30.772084
30.759234
30.732166
28.802412
28.794016
28.776045
27.52712
27.521566
27.509317
26.747746
26.744199
26.735809
26.300157
26.297982
26.292088
26.023635
26.021435
26.016161
25.816854
25.814815
25.81014
25.649196
25.647418
25.643348
25.502613
25.501119
25.497632
25.366305
25.365129
25.362225
25.234455
25.233632
25.231329
25.105249
25.104776
25.103051
24.980196
24.980006
24.978774
24.862662
24.862652
24.861787
24.755859
24.755933
24.755314
24.661331
24.661426
24.660964
24.578435
24.57852
24.578159
24.504493
24.504557
24.504263
24.43506
24.435102
24.434856
24.363951
24.363975
24.363765
24.282888
24.282898
24.282717
24.180755
24.180757
24.180602
24.042502
24.0425
24.042369
23.847736
23.847733
23.847628
23.569095
23.569096
23.569017
23.170524
23.170532
23.170485
22.605689
22.605708
22.605696
21.816933
21.816964
21.816989
20.735504
20.735538
20.735593
19.288137
19.28818
19.288265
17.396809
17.396857
17.396963
14.990851
14.990898
14.991009
12.022245
12.022282
12.022376
8.4832549
8.4832745
8.4833216
4.4282258
4.4282285
4.4282376
13480.991
13537.195
5995.536
5336.9621
2085.4868
1882.8179
921.47696
853.25464
490.11922
462.89995
296.39466
284.33515
195.84935
190.07842
137.99023
135.03111
102.10307
100.50829
78.608535
77.719343
62.608177
62.100235
51.39748
51.101363
43.400618
43.224324
37.659261
37.551355
33.562213
33.49357
30.694132
30.648248
28.750151
28.717842
27.491013
27.467228
26.722529
26.704417
26.282076
26.2678
26.007568
25.995397
25.802652
25.792054
25.6368
25.627448
25.491905
25.483579
25.357259
25.349834
25.227097
25.220517
25.099524
25.093771
24.975891
24.97095
24.859459
24.855299
24.753447
24.750008
24.65947
24.656668
24.576961
24.574701
24.5033
24.501483
24.434077
24.432615
24.36313
24.361946
24.282196
24.281231
24.180171
24.179379
24.042015
24.041361
23.84734
23.846804
23.568793
23.568362
23.170324
23.169994
22.605602
22.605372
21.816963
21.816837
20.735633
20.735612
19.288367
19.288449
17.397116
17.397291
14.99119
14.991439
12.022539
12.022831
8.4834247
8.4839043
4.4283889
4.4296544
12058.195
2043.7078
696.69807
369.10646
281.25244
257.02547
249.89293
246.85727
244.51761
242.12926
239.61323
236.87393
234.04688
231.14403
228.13143
224.94484
221.47049
217.51152
212.73387
206.58141
198.13003
185.82306
166.95947
136.50297
82.690811
12058.133
2037.3387
697.72426
374.65651
283.20173
254.37429
242.84502
235.63693
229.53661
223.74831
218.0774
212.46051
206.96194
201.56332
196.2434
190.97399
185.69833
180.31192
174.62683
168.31943
160.83692
151.21066
137.64239
116.43485
78.159091
12058.179
2030.4482
718.56526
430.67512
359.31866
332.39542
315.03694
300.55035
287.32359
274.78384
262.81528
251.23815
240.27113
229.81787
219.81731
210.2557
201.11208
192.3401
183.83879
175.42921
166.79718
157.36091
145.91585
129.51012
98.840666
12058.527
2031.7818
817.56917
608.80834
549.93573
512.73479
479.72845
449.23811
421.27253
394.97269
370.30891
347.31614
326.12123
306.2671
287.61329
270.1659
253.91229
238.82066
224.83579
211.86639
199.77168
188.32551
177.08851
164.88338
146.47509
12061.539
2151.3575
1232.9281
1078.8106
989.93238
906.99559
828.455
757.05959
693.15001
634.01469
579.65954
530.04862
485.97633
445.68444
408.70807
375.04419
344.55284
317.06326
292.39398
270.35124
250.73889
233.38232
218.16838
205.27057
195.76686
12087.395
3826.2747
2812.4396
2407.0844
2097.7076
1828.0189
1592.1204
1388.3671
1212.1069
1060.0816
929.17199
816.52307
719.57431
635.88738
563.53701
501.00348
446.98462
400.34766
360.11661
325.45762
295.6636
270.16129
248.5475
230.91891
218.51172
10367.336
7909.1299
6104.1211
4793.7588
3822.6916
3086.1661
2516.008
2068.1244
1712.8051
1428.7346
1200.0516
1014.8537
864.15188
740.99426
639.86603
556.38831
487.10709
429.31399
380.89005
340.1747
305.86476
276.95692
252.73794
233.08937
219.29186
4094.7663
3309.9627
2846.1596
2470.3139
2150.2004
1868.9704
1623.6572
1411.6538
1229.9975
1074.337
940.8359
826.05543
727.00756
641.52338
567.75249
504.09521
449.17192
401.80449
360.99062
325.87985
295.75541
270.0389
248.31761
230.66851
218.27963
1595.4278
1400.4965
1270.058
1161.6522
1059.3112
961.95746
873.2738
794.15175
722.05911
656.75475
598.38242
546.74425
499.30909
455.96921
416.60602
381.01799
348.9746
320.2442
294.59487
271.81055
251.69392
234.07756
218.8515
206.16995
196.99363
770.76163
707.58332
661.393
620.83034
580.4918
540.37571
502.81626
468.17406
436.0602
406.44575
379.38031
354.58116
331.36471
309.63409
289.38274
270.59601
253.24488
237.28879
222.67742
209.34727
197.20499
186.08521
175.62215
164.75716
148.68932
433.58921
409.89895
391.20433
373.98029
356.22428
337.92167
320.04493
303.01952
286.92818
271.82382
257.71768
244.4855
231.92066
219.97942
208.69305
198.05812
188.06836
178.70355
169.9194
161.62478
153.62739
145.49962
136.21286
122.99277
96.7401
271.9442
261.49414
252.81233
244.62891
236.09335
227.13603
218.11833
209.30488
200.81751
192.7149
185.00617
177.64293
170.55352
163.71543
157.14188
150.83713
144.79286
138.97941
133.33042
127.71063
121.84779
115.18219
106.51207
93.062667
67.316197
184.24627
179.14987
174.72848
170.48843
166.05535
161.36163
156.54268
151.73857
147.03804
142.48741
138.09778
133.85077
129.7178
125.68424
121.74603
117.89401
114.10632
110.33819
106.50547
102.45468
97.906642
92.347596
84.806388
73.312198
52.685147
132.06369
129.39791
127.00802
124.68854
122.26629
119.69239
117.01479
114.30395
111.61434
108.97773
106.40355
103.8847
101.40637
98.955088
96.517969
94.075926
91.596769
89.026213
86.274395
83.194708
79.551689
74.980102
68.967873
61.042803
51.398084
98.912268
97.446354
96.099295
94.782071
93.410711
91.953311
90.425085
88.859335
87.286407
85.725859
84.184182
82.657227
81.134293
79.601394
78.040689
76.426712
74.72123
72.866399
70.775541
68.321454
65.325576
61.563658
56.844521
51.338765
46.52934
76.826885
75.991997
75.210742
74.442535
73.6458
72.800793
71.910661
70.990213
70.055106
69.115826
68.175298
67.229177
66.267315
65.274661
64.230466
63.105727
61.859547
60.434253
58.749583
56.696927
54.137702
50.918705
46.940554
42.361866
37.593747
61.586884
61.098724
60.635544
60.178295
59.705928
59.206362
58.678683
58.128697
57.563474
56.987447
56.400353
55.796657
55.16556
54.490918
53.750267
52.912884
51.936964
50.766135
49.325287
47.516087
45.212688
42.256421
38.433395
33.323278
25.13869
50.799089
50.507264
50.226907
49.949111
49.66295
49.361098
49.041457
48.705471
48.355411
47.991872
47.61212
47.209252
46.771618
46.282177
45.717405
45.045655
44.224885
43.199773
41.897968
40.224783
38.053861
35.205322
31.382346
25.966898
17.236588
43.04198
42.862997
42.688678
42.514914
42.335933
42.147185
41.946457
41.733159
41.506878
41.265852
41.005657
40.718252
40.391187
40.006696
39.540545
38.960505
38.224368
37.277363
36.048565
34.445209
32.341925
29.557068
25.796175
20.517091
12.561494
37.437758
37.323895
37.210915
37.096941
36.978866
36.853797
36.71971
36.575075
36.418081
36.245538
36.051897
35.828297
35.561636
35.233562
34.819267
34.28603
33.591403
32.680933
31.485036
29.91421
27.850659
25.132148
21.519351
16.630886
9.7552965
33.419485
33.343106
33.265297
33.185168
33.100981
33.010816
32.912869
32.805248
32.68539
32.54932
32.390767
32.20027
31.964209
31.66372
31.273466
30.760226
30.081267
29.182448
27.995915
26.437097
24.400403
21.7525
18.320819
13.871944
8.0418689
30.597109
30.542423
30.484758
30.423645
30.358028
30.286541
30.207587
30.11913
30.018255
29.900523
29.759208
29.584418
29.362081
29.072843
28.690842
28.182345
27.504327
26.60301
25.412486
23.853661
21.833857
19.247663
15.979353
11.904123
6.8692295
28.680416
28.638662
28.592842
28.542656
28.487374
28.425943
28.356912
28.278212
28.18675
28.077822
27.944379
27.776164
27.558685
27.2721
26.890007
26.378188
25.693385
24.782234
23.580655
22.014347
20.001273
17.457234
14.304946
10.48136
5.9312396
27.43843
27.404835
27.366431
27.322944
27.273799
27.218108
27.154517
27.080952
26.994217
26.88943
26.759294
26.593211
26.376256
26.088053
25.701636
25.182375
24.486967
23.562631
22.346873
20.768915
18.754049
16.231952
13.149022
9.4777239
5.2077448
26.681437
26.653395
26.62007
26.581142
26.536095
26.484104
26.423858
26.353271
26.269073
26.166242
26.037266
25.871221
25.652709
25.360715
24.967578
24.438338
23.730019
22.79093
21.560158
19.969197
17.947652
15.43343
12.387305
8.8051588
4.7253316
26.248981
26.225166
26.195989
26.161029
26.11971
26.071157
26.014006
25.946107
25.864107
25.762869
25.634693
25.468345
25.247876
24.951377
24.550049
24.008519
23.284878
22.329707
21.084186
19.481015
17.451768
14.938825
11.911867
8.3842383
4.42595
25.979322
25.95895
25.933875
25.903613
25.86751
25.824603
25.773421
25.711683
25.635876
25.540668
25.418105
25.256547
25.039275
24.742851
24.336103
23.781795
23.040509
22.067699
20.808414
19.195347
17.160155
14.647375
11.632257
8.13959
4.2583083
25.777998
25.760094
25.737914
25.710942
25.678492
25.639572
25.592681
25.53551
25.464527
25.374401
25.257222
25.101497
24.890848
24.602452
24.205343
23.658421
22.910453
21.921846
20.651651
19.032323
16.994335
14.482905
11.476093
8.003988
4.1650399
25.614918
25.598802
25.578649
25.553923
25.523921
25.487638
25.443561
25.389382
25.321583
25.234878
25.121466
24.970055
24.764624
24.482897
24.094552
23.559255
22.825686
21.834331
20.559568
18.938698
16.901403
14.393008
11.392356
7.9306418
4.1336667
25.472248
25.457477
25.438793
25.41565
25.38734
25.352856
25.310698
25.258584
25.193054
25.108922
24.998553
24.850905
24.650309
24.374943
23.99505
23.47097
22.751236
21.772354
20.50008
18.882152
16.848558
14.344932
11.351035
7.8988563
4.1137593
25.339513
25.325828
25.308293
25.286361
25.259337
25.22624
25.185612
25.13524
25.071764
24.990146
24.88294
24.739333
24.543914
24.275159
23.90367
23.39027
22.684035
21.722045
20.45656
18.844734
16.816926
14.319281
11.332663
7.889527
4.1218052
25.21113
25.198433
25.181942
25.161132
25.135347
25.103662
25.064697
25.016341
24.955358
24.876853
24.773526
24.634702
24.445095
24.183305
23.82013
23.316806
22.623367
21.67735
20.421056
18.817191
16.796361
14.305657
11.328303
7.9013546
4.1339634
25.085327
25.07367
25.058338
25.038848
25.014606
24.984766
24.948038
24.902407
24.84474
24.770226
24.671629
24.538304
24.354969
24.100235
23.744976
23.250685
22.568053
21.635923
20.390205
18.795079
16.781601
14.298146
11.330232
7.918134
4.164614
24.963504
24.953037
24.939123
24.921335
24.899141
24.871768
24.837992
24.795861
24.742284
24.672464
24.579148
24.451645
24.274613
24.026625
23.678591
23.192188
22.518579
21.597729
20.362877
18.776311
16.769903
14.293505
11.334703
7.9359755
4.2094241
24.848894
24.839762
24.827521
24.811793
24.792091
24.767683
24.737375
24.699226
24.65013
24.585254
24.497278
24.37543
24.204292
23.962397
23.620692
23.141034
22.47499
21.563432
20.338553
18.759695
16.759622
14.289522
11.338489
7.9493291
4.2276962
24.744633
24.736892
24.726444
24.712942
24.695924
24.674662
24.647957
24.61384
24.569158
24.509008
24.42599
24.30925
24.143299
23.906644
23.570284
23.096244
22.436431
21.532284
20.316389
18.744247
16.749593
14.28469
11.33975
7.9574846
4.2372757
24.652249
24.645838
24.63713
24.625794
24.61137
24.593115
24.569797
24.539401
24.498711
24.442751
24.364044
24.251663
24.090067
23.857753
23.525779
23.056332
22.401624
21.503576
20.295381
18.728985
16.73889
14.278111
11.337738
7.9600889
4.2298953
24.571117
24.56589
24.558739
24.549342
24.537225
24.521621
24.501258
24.474065
24.436768
24.384323
24.309186
24.200372
24.042308
23.813492
23.485047
23.019315
22.368781
21.4758
20.274141
18.712682
16.726497
14.269015
11.33156
7.955948
4.2239597
24.498596
24.494363
24.488525
24.480759
24.470577
24.45718
24.439258
24.414693
24.380153
24.330541
24.258259
24.152281
23.997012
23.770964
23.445327
22.982586
22.335477
21.446743
20.250666
18.693582
16.710993
14.256577
11.32174
7.9488579
4.2221436
24.430288
24.426858
24.422081
24.415631
24.407004
24.395375
24.379398
24.356915
24.32455
24.27716
24.207108
24.10334
23.950249
23.72637
23.40296
22.942642
22.298385
21.413287
20.2221
18.669097
16.690182
14.239351
11.308282
7.9407563
4.2306877
24.360061
24.357263
24.35332
24.347903
24.340494
24.330246
24.315784
24.294916
24.264232
24.218556
24.150221
24.048154
23.896748
23.674566
23.352938
22.894626
22.252823
21.370971
20.184276
18.635384
16.660647
14.21453
11.289185
7.9288812
4.231046
24.279689
24.277383
24.274087
24.26947
24.263001
24.253816
24.240518
24.220889
24.191492
24.147125
24.080103
23.979342
23.829245
23.608411
23.288253
22.831681
22.192124
21.313378
20.131122
18.586779
16.617207
14.177409
11.259852
7.9069824
4.1946641
24.178106
24.176183
24.173388
24.169387
24.163641
24.155273
24.142866
24.124184
24.09577
24.052404
23.98639
23.886643
23.737586
23.517871
23.19901
22.744083
22.106792
21.231326
20.053898
18.515093
16.552338
14.121173
11.214404
7.8739892
4.1743456
24.040303
24.03868
24.036277
24.032755
24.02757
24.019832
24.008113
23.99016
23.962504
23.919915
23.854692
23.755765
23.607589
23.388891
23.071315
22.618155
21.983443
21.111845
19.940246
18.408761
16.455524
14.036634
11.145023
7.8221355
4.1428213
23.845922
23.844543
23.842453
23.839313
23.83457
23.827329
23.81615
23.798772
23.771718
23.729756
23.665196
23.566991
23.41966
23.202033
22.885938
22.434955
21.803542
20.936943
19.773061
18.251817
16.312333
13.911455
11.042083
7.7441265
4.0923368
23.567633
23.56646
23.564631
23.561804
23.557425
23.550589
23.539853
23.522952
23.496409
23.455001
23.391063
23.293602
23.147229
22.930937
22.61681
22.16882
21.541981
20.682272
19.529261
18.022792
16.103417
13.729111
10.892883
7.6326912
4.0227114
23.169405
23.168417
23.166818
23.164265
23.1602
23.153718
23.143373
23.126905
23.100847
23.060004
22.99676
22.900212
22.755121
22.540721
22.229465
21.785869
21.165705
20.315988
19.178636
17.693656
15.803587
13.468085
10.680585
7.4767977
3.9295501
22.604921
22.604112
22.60273
22.600435
22.596666
22.590522
22.580563
22.564544
22.539026
22.498865
22.436534
22.341276
22.198085
21.986556
21.679679
21.242736
20.632562
19.797836
18.683014
17.229073
15.381172
13.101284
10.383556
7.2605189
3.8013603
21.816528
21.815899
21.81474
21.812708
21.809249
21.803469
21.793947
21.778469
21.753651
21.714437
21.653445
21.56015
21.419901
21.212826
20.912693
20.485865
19.890506
19.078557
17.995951
16.58625
14.798007
12.596267
9.9768153
6.9709311
3.6438615
20.735451
20.735018
20.734103
20.732368
20.72927
20.723933
20.714974
20.700234
20.676422
20.638626
20.579693
20.489449
20.353774
20.15357
19.863735
19.452285
18.879926
18.100707
17.063552
15.715884
14.010478
11.916137
9.4307343
6.5849065
3.4399588
19.288437
19.288208
19.28755
19.286135
19.283437
19.27862
19.270361
19.256602
19.234201
19.198476
19.142625
19.05701
18.928285
18.738447
18.463941
18.07491
17.534888
16.801311
15.82722
14.564877
12.972175
11.022378
8.7157238
6.081886
3.1765937
17.397434
17.39744
17.397104
17.396095
17.39391
17.389766
17.382438
17.370032
17.349639
17.316917
17.265585
17.186777
17.068231
16.893417
16.640853
16.283462
15.78839
15.117529
14.229194
13.081557
11.63857
9.8786292
7.8045393
5.4444322
2.8457546
14.991764
14.992125
14.992342
14.992029
14.990643
14.987474
14.981455
14.970942
14.953379
14.92493
14.880065
14.811028
14.70703
14.553375
14.331331
14.017369
13.583193
12.996326
12.221531
11.223884
9.9741966
8.4563519
6.6753923
4.6573077
2.4401636
12.023476
12.02447
12.025804
12.026869
12.026812
12.025046
12.020785
12.012763
11.998935
11.97623
11.9402
11.884708
11.800961
11.676204
11.495357
11.239163
10.884714
10.406697
9.7775185
8.9697689
7.9617176
6.7426708
5.3188785
3.714157
1.95957
8.4856721
8.4877621
8.4909268
8.4942249
8.4959765
8.4958539
8.4935735
8.4883884
8.4789251
8.4632573
8.4384557
8.4007446
8.3440553
8.2571914
8.1299722
7.9477945
7.6930836
7.3507137
6.9017008
6.3258054
5.6092025
4.7461743
3.7421288
2.6186643
1.3996815
4.4340159
4.4371153
4.4411813
4.4456268
4.4482522
4.4490807
4.4483617
4.4458596
4.4409461
4.4330094
4.4208892
4.403525
4.3782054
4.3360502
4.2726731
4.1784642
4.0405375
3.8592144
3.6235224
3.319809
2.9420955
2.4885567
1.9612845
1.3791178
0.75468611
)
;

boundaryField
{
    Walls
    {
        Cmu             0.09;
        kappa           0.41;
        E               9.8;
        beta1           0.075;
        type            omegaWallFunction;
        value           nonuniform List<scalar> 
38
(
12058.195
12058.133
12058.179
12058.527
12061.539
12087.395
13480.991
13537.195
14919.312
15026.977
15121.837
15202.208
15269.113
15328.751
15380.036
15415.302
15447.448
15477.931
15497.201
15513.465
15526.919
15538.794
15541.756
15554.646
15566.421
15562.708
15565.952
15564.158
15566.721
15573.548
15572.774
15574.456
15576.822
15575.536
15568.402
15565.243
15557.43
15497.528
)
;
    }
    Inlet
    {
        type            turbulentMixingLengthDissipationRateInlet;
        mixingLength    0.03;
        phi             phi;
        k               k;
        value           nonuniform List<scalar> 3(0.0031752934 0.0042989485 0.0054545042);
    }
    Outlet
    {
        type            inletOutlet;
        inletValue      uniform 1e-05;
        value           nonuniform List<scalar> 
86
(
1e-05
1e-05
1e-05
1e-05
1e-05
1e-05
1e-05
1e-05
1e-05
1e-05
1e-05
1e-05
1e-05
1e-05
1e-05
1e-05
1e-05
1e-05
1e-05
1e-05
1e-05
1e-05
1e-05
1e-05
1e-05
1e-05
1e-05
1e-05
1e-05
1e-05
219.29186
218.27963
196.99363
1e-05
1e-05
1e-05
1e-05
1e-05
46.52934
37.593747
1e-05
1e-05
1e-05
1e-05
1e-05
6.8692295
5.9312396
5.2077448
4.7253316
4.42595
4.2583083
4.1650399
4.1336667
4.1137593
4.1218052
1e-05
1e-05
1e-05
1e-05
1e-05
1e-05
1e-05
1e-05
1e-05
1e-05
1e-05
1e-05
1e-05
1e-05
1e-05
1e-05
1e-05
1e-05
1e-05
1e-05
1e-05
1e-05
1e-05
1e-05
1e-05
1e-05
1e-05
1e-05
1e-05
195.76686
218.51172
)
;
    }
    Front
    {
        type            wedge;
    }
    Back
    {
        type            wedge;
    }
    defaultFaces
    {
        type            empty;
    }
}


// ************************************************************************* //
