/*--------------------------------*- C++ -*----------------------------------*\
| =========                 |                                                 |
| \\      /  F ield         | OpenFOAM: The Open Source CFD Toolbox           |
|  \\    /   O peration     | Version:  4.0                                   |
|   \\  /    A nd           | Web:      www.OpenFOAM.org                      |
|    \\/     M anipulation  |                                                 |
\*---------------------------------------------------------------------------*/
FoamFile
{
    version     2.0;
    format      ascii;
    class       surfaceScalarField;
    location    "0.49";
    object      phi;
}
// * * * * * * * * * * * * * * * * * * * * * * * * * * * * * * * * * * * * * //

dimensions      [0 3 -1 0 0 0 0];

internalField   nonuniform List<scalar> 
3364
(
-3.0400361e-10
1.6335301e-08
1.3034376e-10
4.7273349e-08
8.7945569e-08
-3.8697893e-10
1.6722256e-08
-8.5298971e-10
4.7739367e-08
8.7092583e-08
-1.8418533e-11
1.6740648e-08
-1.8677046e-09
4.9588674e-08
8.5224856e-08
2.0841647e-10
1.65322e-08
-9.4883709e-10
5.0745923e-08
8.4275982e-08
7.4246639e-11
1.6457921e-08
5.2229943e-10
5.0297841e-08
8.4798231e-08
1.1565616e-10
1.6342237e-08
8.217366e-10
4.9591687e-08
8.5619907e-08
-6.8764045e-11
1.6410966e-08
9.5657443e-11
4.9427182e-08
8.571552e-08
-3.9102903e-10
1.6801973e-08
-1.1455751e-10
4.9150688e-08
8.5600934e-08
4.7051552e-11
1.67549e-08
-4.2849352e-10
4.9626228e-08
8.517242e-08
4.0776293e-10
1.6347115e-08
1.2460051e-10
4.9909365e-08
8.5297004e-08
2.2472504e-10
1.6122361e-08
4.2419747e-10
4.970985e-08
8.5721179e-08
-2.7602391e-10
1.6398348e-08
-5.0483661e-10
4.9938621e-08
8.5216309e-08
-3.3453232e-10
1.6732835e-08
-7.9327275e-10
5.0397324e-08
8.4423e-08
-2.1675848e-10
1.6949588e-08
-7.1419855e-10
5.089474e-08
8.3708764e-08
-2.1966397e-11
1.6971522e-08
-3.2272576e-11
5.0905024e-08
8.3676456e-08
-4.5961651e-11
1.7017404e-08
1.1319256e-09
4.9727065e-08
8.4808344e-08
-2.0035498e-10
1.7217687e-08
-3.096506e-10
4.9836293e-08
8.4498663e-08
3.4657431e-10
1.6871097e-08
-1.6108706e-09
5.179371e-08
8.2887767e-08
2.444723e-10
1.6626612e-08
-5.6225449e-10
5.260042e-08
8.2325488e-08
-1.102593e-10
1.6736828e-08
7.7923158e-10
5.1710911e-08
8.3104685e-08
-7.762125e-11
1.6814385e-08
5.9295623e-10
5.1040316e-08
8.3697607e-08
-4.5944469e-10
1.7273804e-08
1.4988323e-10
5.043093e-08
8.3847442e-08
-3.6989924e-10
1.7643684e-08
-2.589644e-10
5.0319943e-08
8.3588428e-08
1.3585301e-10
1.7507784e-08
-9.6652841e-10
5.1422286e-08
8.2621861e-08
7.551425e-10
1.6752589e-08
-1.5743232e-09
5.3751715e-08
8.1047512e-08
4.5411094e-10
1.6298461e-08
-3.5961921e-10
5.4565417e-08
8.0687861e-08
1.8656401e-11
1.6279791e-08
5.7214439e-10
5.4011893e-08
8.1259963e-08
-9.1707195e-11
1.6371476e-08
3.2665885e-10
5.359347e-08
8.1586581e-08
-3.2305525e-10
1.6694544e-08
9.3193355e-10
5.2338548e-08
8.2518508e-08
1.1238696e-09
1.5570877e-08
5.4458442e-09
4.8016698e-08
8.7964351e-08
1.135571e-08
4.2145199e-09
4.8853272e-08
1.0517261e-08
1.0168115e-08
1.2664691e-07
4.7978379e-09
-5.8378811e-10
1.6893839e-08
-1.5802275e-09
-1.7751468e-09
2.8835228e-08
-4.1432424e-10
-1.6942967e-10
-1.5418713e-09
-4.5260961e-10
-6.0125751e-10
-2.7156579e-09
-1.2385653e-10
-4.5558029e-11
-4.5346999e-10
-1.2296e-10
-1.8037671e-10
-8.7431099e-10
-2.2200063e-11
-2.3356226e-11
-8.2153288e-11
-6.3002164e-11
-8.1786148e-11
-1.807389e-10
-7.9939103e-12
-1.5362281e-11
-3.0189706e-11
-4.0806175e-11
-5.3473323e-11
-5.850263e-11
-4.222501e-12
-1.1139753e-11
-1.4902948e-11
-3.0125818e-11
-4.0795368e-11
-2.7580293e-11
-2.234624e-12
-8.9049943e-12
-7.2946541e-12
-2.5065626e-11
-3.5478569e-11
-1.2611321e-11
-1.6275833e-12
-7.2773108e-12
-5.6997433e-12
-2.0993323e-11
-3.190406e-11
-9.2741136e-12
-1.346758e-12
-5.9304538e-12
-5.0635556e-12
-1.7276346e-11
-2.7047652e-11
-9.9197204e-12
-1.2642925e-12
-4.6660593e-12
-4.8633928e-12
-1.3677046e-11
-2.1497347e-11
-1.0413398e-11
-1.082255e-12
-3.5837196e-12
-4.2026793e-12
-1.055645e-11
-1.6632246e-11
-9.0675132e-12
-8.029388e-13
-2.7807208e-12
-3.1487497e-12
-8.2105152e-12
-1.3104555e-11
-6.6762511e-12
-5.543422e-13
-2.22634e-12
-2.1595047e-12
-6.6052764e-12
-1.072344e-11
-4.5405031e-12
-3.6356894e-13
-1.8627471e-12
-1.4195776e-12
-5.5492249e-12
-9.0491616e-12
-3.0937912e-12
-2.5367276e-13
-1.6090591e-12
-1.0070114e-12
-4.7958616e-12
-7.8149819e-12
-2.241155e-12
-1.9396691e-13
-1.415082e-12
-7.707722e-13
-4.219042e-12
-6.8805212e-12
-1.7052132e-12
-1.5933921e-13
-1.255736e-12
-6.3094206e-13
-3.7474313e-12
-6.1138148e-12
-1.3976391e-12
-1.3242175e-13
-1.12331e-12
-5.2450972e-13
-3.3553406e-12
-5.4884805e-12
-1.1498424e-12
-1.0832307e-13
-1.0149847e-12
-4.2983526e-13
-3.0338297e-12
-4.9748356e-12
-9.4348475e-13
-8.7173367e-14
-9.2781068e-13
-3.4579593e-13
-2.7752117e-12
-4.5611424e-12
-7.5949873e-13
-7.0261928e-14
-8.5754922e-13
-2.7822383e-13
-2.5672566e-12
-4.2278086e-12
-6.1157044e-13
-5.7716627e-14
-7.9983381e-13
-2.2843925e-13
-2.396542e-12
-3.9530421e-12
-5.0322076e-13
-4.8503427e-14
-7.5133209e-13
-1.9211794e-13
-2.2529363e-12
-3.7211046e-12
-4.2407189e-13
-4.1789944e-14
-7.0954413e-13
-1.6576396e-13
-2.1289715e-12
-3.5203612e-12
-3.6652402e-13
-3.7028049e-14
-6.7251819e-13
-1.4726726e-13
-2.0187413e-12
-3.3409087e-12
-3.2673605e-13
-3.3605823e-14
-6.3891453e-13
-1.3387637e-13
-1.9184795e-12
-3.1772112e-12
-2.9758938e-13
-3.1187785e-14
-6.0772887e-13
-1.2440254e-13
-1.8252731e-12
-3.0242463e-12
-2.7738203e-13
-2.9636371e-14
-5.7809454e-13
-1.1839042e-13
-1.7365268e-12
-2.877914e-12
-2.6473613e-13
-2.8785246e-14
-5.4931121e-13
-1.1501802e-13
-1.6503011e-12
-2.7358075e-12
-2.5713682e-13
-2.8004663e-14
-5.2130833e-13
-1.1191493e-13
-1.5663973e-12
-2.5971514e-12
-2.5058209e-13
-2.7698689e-14
-4.9361124e-13
-1.1104352e-13
-1.4830582e-12
-2.4597208e-12
-2.48484e-13
-2.7277912e-14
-4.6633476e-13
-1.09462e-13
-1.4008793e-12
-2.3235995e-12
-2.455919e-13
-2.6836232e-14
-4.3949978e-13
-1.0734545e-13
-1.3203745e-12
-2.1899295e-12
-2.4102305e-13
-2.6247595e-14
-4.1325324e-13
-1.0514266e-13
-1.2414833e-12
-2.0590365e-12
-2.3604202e-13
-2.5619414e-14
-3.8763471e-13
-1.0261669e-13
-1.1644892e-12
-1.9312984e-12
-2.3036016e-13
-2.4836662e-14
-3.6279873e-13
-9.9403093e-14
-1.0899253e-12
-1.8075679e-12
-2.2313785e-13
-2.3856037e-14
-3.3894321e-13
-9.5505064e-14
-1.0182783e-12
-1.6886783e-12
-2.1439797e-13
-2.2704036e-14
-3.1623953e-13
-9.0914376e-14
-9.500694e-13
-1.575504e-12
-2.0409092e-13
-2.1366319e-14
-2.9487341e-13
-8.5572516e-14
-8.8586413e-13
-1.4689481e-12
-1.9212995e-13
-1.9844971e-14
-2.7502849e-13
-7.9482114e-14
-8.2622745e-13
-1.3700097e-12
-1.7842112e-13
-1.8160754e-14
-2.5686767e-13
-7.2714342e-14
-7.7167392e-13
-1.2794542e-12
-1.6326992e-13
-1.6336971e-14
-2.4053052e-13
-6.5428476e-14
-7.2258211e-13
-1.1980145e-12
-1.4686756e-13
-1.4390665e-14
-2.2613959e-13
-5.7629878e-14
-6.7934228e-13
-1.126277e-12
-1.293662e-13
-1.2315996e-14
-2.1382325e-13
-4.9303583e-14
-6.4235382e-13
-1.0649286e-12
-1.106504e-13
-1.0121695e-14
-2.0370114e-13
-4.0464086e-14
-6.1201034e-13
-1.0146257e-12
-9.0765126e-14
-7.8297178e-15
-1.9587097e-13
-3.122125e-14
-5.8861758e-13
-9.758659e-13
-6.9978896e-14
-5.4510335e-15
-1.9041946e-13
-2.1716623e-14
-5.7235068e-13
-9.4890087e-13
-4.8679352e-14
-2.9907848e-15
-1.8742819e-13
-1.2142855e-14
-5.6319725e-13
-9.336686e-13
-2.7372729e-14
-6.9544651e-16
-2.9752283e-15
-6.8226906e-15
1.363708e-07
-9.7291846e-09
-8.7907668e-09
1.4515529e-07
2.0808804e-08
-1.7039598e-09
-1.5199884e-09
1.3537493e-08
-3.7609634e-09
-6.5852372e-10
-7.1923288e-10
-4.5615734e-09
-1.31297e-09
-2.1981169e-10
-2.5085497e-10
-1.7812841e-09
-3.1358678e-10
-8.6953372e-11
-8.747401e-11
-4.7695193e-10
-9.2797543e-11
-5.2656005e-11
-4.2713256e-11
-1.3755486e-10
-3.7967952e-11
-4.2267876e-11
-3.7523861e-11
-4.3157e-11
-1.4756198e-11
-4.01231e-11
-4.0702863e-11
-1.1577568e-11
-1.0623325e-11
-3.8773875e-11
-4.1173714e-11
-1.0152621e-11
-1.4672675e-11
-3.4020672e-11
-3.7605815e-11
-1.8240345e-11
-1.6777937e-11
-2.7655757e-11
-3.1638389e-11
-2.2744941e-11
-1.5059386e-11
-2.1663539e-11
-2.5334804e-11
-2.1362567e-11
-1.1142002e-11
-1.7197545e-11
-2.048357e-11
-1.599295e-11
-7.5415074e-12
-1.4196392e-11
-1.7045788e-11
-1.0979115e-11
-5.2005481e-12
-1.208955e-11
-1.4665386e-11
-7.5808516e-12
-3.7605205e-12
-1.0570138e-11
-1.2955619e-11
-5.4702356e-12
-2.9533234e-12
-9.3220037e-12
-1.1497514e-11
-4.4114019e-12
-2.4315364e-12
-8.2880963e-12
-1.0280956e-11
-3.6480845e-12
-1.9700166e-12
-7.4679225e-12
-9.2707827e-12
-2.9801931e-12
-1.6170059e-12
-6.7944099e-12
-8.457795e-12
-2.4300071e-12
-1.3041536e-12
-6.2497701e-12
-7.809159e-12
-1.9528108e-12
-1.0527479e-12
-5.8086121e-12
-7.284557e-12
-1.5773762e-12
-8.6703576e-13
-5.4448198e-12
-6.8478104e-12
-1.3038129e-12
-7.3404664e-13
-5.1348696e-12
-6.4773393e-12
-1.1045507e-12
-6.3487748e-13
-4.8665409e-12
-6.1502369e-12
-9.6201277e-13
-5.6972279e-13
-4.6235781e-12
-5.855491e-12
-8.6450032e-13
-5.1883141e-13
-4.4023586e-12
-5.5802277e-12
-7.9412424e-13
-4.8642527e-13
-4.1933364e-12
-5.3209707e-12
-7.4570966e-13
-4.6614486e-13
-3.9919468e-12
-5.0675849e-12
-7.1955565e-13
-4.5161008e-13
-3.797491e-12
-4.8240172e-12
-6.9520036e-13
-4.4312024e-13
-3.6049685e-12
-4.5817691e-12
-6.8538843e-13
-4.3824397e-13
-3.4152224e-12
-4.3405131e-12
-6.7951771e-13
-4.3375992e-13
-3.2270665e-12
-4.1033826e-12
-6.7090595e-13
-4.2671826e-13
-3.0413818e-12
-3.8678832e-12
-6.6223097e-13
-4.1812847e-13
-2.8593042e-12
-3.6358153e-12
-6.502076e-13
-4.0790384e-13
-2.6817679e-12
-3.4096291e-12
-6.3409933e-13
-3.9512227e-13
-2.5097893e-12
-3.1906008e-12
-6.1415783e-13
-3.7965255e-13
-2.3445391e-12
-2.9802211e-12
-5.9003776e-13
-3.6136456e-13
-2.1872686e-12
-2.7800027e-12
-5.6158687e-13
-3.4029417e-13
-2.0391063e-12
-2.5916236e-12
-5.2867561e-13
-3.1587518e-13
-1.9016531e-12
-2.4163748e-12
-4.9112497e-13
-2.8914615e-13
-1.7757767e-12
-2.2563258e-12
-4.4919496e-13
-2.600378e-13
-1.6626055e-12
-2.1122466e-12
-4.0411562e-13
-2.290381e-13
-1.562932e-12
-1.9853977e-12
-3.5588484e-13
-1.9584825e-13
-1.4777318e-12
-1.8770785e-12
-3.0416445e-13
-1.6060232e-13
-1.4078919e-12
-1.7883102e-12
-2.4936696e-13
-1.2379129e-13
-1.3540764e-12
-1.7199094e-12
-1.9218809e-13
-8.6137278e-14
-1.3166151e-12
-1.6723042e-12
-1.3373815e-13
-4.856783e-14
-1.2954166e-12
-1.6452734e-12
-7.5594036e-14
-1.2217144e-14
-1.9242388e-14
-1.5530133e-11
1.5526063e-11
-3.1868433e-11
1.6328746e-11
-4.7944773e-11
1.6067892e-11
-6.2819437e-11
1.4869006e-11
-7.7165075e-11
1.4342249e-11
-9.280794e-11
1.5641355e-11
-1.1174389e-10
1.8936016e-11
-1.3552865e-10
2.378604e-11
-1.649314e-10
2.9404931e-11
-1.9959271e-10
3.4664098e-11
-2.3803691e-10
3.8447389e-11
-2.8026408e-10
4.2230512e-11
-3.2538638e-10
4.5125651e-11
-3.7132562e-10
4.5942438e-11
-4.1689995e-10
4.5577247e-11
-4.6150441e-10
4.4607019e-11
-5.0422292e-10
4.2720636e-11
-5.4382199e-10
3.960074e-11
-5.7943334e-10
3.5612552e-11
-6.1039693e-10
3.0964365e-11
-6.3618993e-10
2.5793421e-11
-6.5654206e-10
2.0352267e-11
-6.7124901e-10
1.4706907e-11
-6.7993351e-10
8.6843452e-12
2.3270769e-12
-5.4920869e-11
7.0451486e-11
-1.1887976e-10
8.0294815e-11
-1.9069608e-10
8.7892626e-11
-2.7128677e-10
9.5468605e-11
-3.6272912e-10
1.0579365e-10
-4.6695437e-10
1.1987555e-10
-5.8618805e-10
1.3817836e-10
-7.2227074e-10
1.5987694e-10
-8.7376701e-10
1.8090882e-10
-1.0381308e-09
1.9903486e-10
-1.2128445e-09
2.1316731e-10
-1.3940541e-09
2.2344559e-10
-1.5789021e-09
2.2997849e-10
-1.7661819e-09
2.3322637e-10
-1.9541219e-09
2.3352074e-10
-2.1416073e-09
2.3209523e-10
-2.3381443e-09
2.392598e-10
-2.5254997e-09
2.2695775e-10
-2.6960963e-09
2.062101e-10
-2.8450838e-09
1.7995219e-10
-2.9688874e-09
1.4959699e-10
-3.0647576e-09
1.1622181e-10
-3.1302285e-09
8.0176922e-11
-3.1615111e-09
3.9965712e-11
1.0244104e-11
-1.3701864e-10
2.074793e-10
-2.9673269e-10
2.4002328e-10
-4.7921998e-10
2.703968e-10
-6.8894699e-10
3.0521319e-10
-9.3165979e-10
3.4852382e-10
-1.2120942e-09
4.003265e-10
-1.5352453e-09
4.6134473e-10
-1.9616693e-09
5.8631466e-10
-2.4207989e-09
6.400505e-10
-2.8875261e-09
6.6577242e-10
-3.3480251e-09
6.7367507e-10
-3.7939331e-09
6.6936077e-10
-4.2196166e-09
6.5566779e-10
-4.6195304e-09
6.3314457e-10
-4.9878694e-09
6.01863e-10
-5.3190394e-09
5.632673e-10
-5.5981853e-09
5.1840672e-10
-5.8392008e-09
4.6797336e-10
-6.0461768e-09
4.1318544e-10
-6.2214848e-09
3.5525868e-10
-6.3672909e-09
2.9540085e-10
-6.4843328e-09
2.3326089e-10
-6.5726045e-09
1.6844541e-10
-6.6339216e-09
1.0127912e-10
3.363286e-11
-3.9381533e-10
6.0131202e-10
-8.2897092e-10
6.7520498e-10
-1.3239791e-09
7.6543376e-10
-2.1235841e-09
1.1048446e-09
-2.9885746e-09
1.2135373e-09
-3.8120521e-09
1.2238232e-09
-4.5407252e-09
1.1900335e-09
-5.0819197e-09
1.1275217e-09
-5.4869195e-09
1.0450605e-09
-5.7711915e-09
9.5005246e-10
-5.9495725e-09
8.5206239e-10
-6.0346076e-09
7.5440071e-10
-6.0369803e-09
6.5804409e-10
-5.9587517e-09
5.5491855e-10
-5.8161185e-09
4.5923152e-10
-5.6265113e-09
3.736611e-10
-5.4073717e-09
2.9926751e-10
-5.1759509e-09
2.3655249e-10
-4.9482092e-09
1.8544312e-10
-4.7377242e-09
1.4477277e-10
-4.5572853e-09
1.1496074e-10
-4.4138274e-09
8.9801356e-11
-4.3124984e-09
6.7114601e-11
-4.2566322e-09
4.5410848e-11
2.4590125e-11
-2.2556053e-09
2.8569451e-09
-4.0272333e-09
2.4468638e-09
-5.5385322e-09
2.2767625e-09
-6.22242e-09
1.7887538e-09
-6.2922841e-09
1.2834189e-09
-5.8202402e-09
7.5179361e-10
-5.0513129e-09
4.211179e-10
-4.0534372e-09
1.2965586e-10
-2.8925264e-09
-1.1584186e-10
-1.6356277e-09
-3.068394e-10
-3.8924854e-10
-3.9431271e-10
8.5123804e-10
-4.8608706e-10
2.1653285e-09
-6.5604759e-10
3.5845809e-09
-8.6433388e-10
4.9712601e-09
-9.2744604e-10
6.2852733e-09
-9.4034862e-10
7.5042584e-09
-9.1971229e-10
8.613904e-09
-8.73086e-10
9.6041853e-09
-8.0482944e-10
1.0466474e-08
-7.175061e-10
1.1194217e-08
-6.1276943e-10
1.177743e-08
-4.9339822e-10
1.2206078e-08
-3.6151813e-10
1.2471029e-08
-2.1952543e-10
-6.5772085e-11
9.3179339e-10
1.925238e-09
4.1254208e-09
-7.4671153e-10
7.8535002e-09
-1.451246e-09
1.155838e-08
-1.9160958e-09
1.5297764e-08
-2.4559403e-09
1.89667e-08
-2.9171152e-09
2.2574016e-08
-3.1861664e-09
2.5960128e-08
-3.2564186e-09
2.9034781e-08
-3.1904532e-09
3.1780657e-08
-3.0526692e-09
3.426019e-08
-2.8737972e-09
3.6435759e-08
-2.6616032e-09
3.8221864e-08
-2.4420988e-09
3.9591744e-08
-2.2341596e-09
4.0682261e-08
-2.0179076e-09
4.1544294e-08
-1.8023268e-09
4.2217843e-08
-1.5932056e-09
4.2736425e-08
-1.3916126e-09
4.3129214e-08
-1.1975639e-09
4.3421864e-08
-1.010101e-09
4.3636444e-08
-8.2729468e-10
4.3790004e-08
-6.4690383e-10
4.3894659e-08
-4.6611969e-10
4.3957564e-08
-2.8237673e-10
-8.9724364e-11
1.4937839e-07
-2.2966435e-09
1.4804068e-07
5.9192079e-10
1.4546679e-07
1.1234258e-09
1.4197526e-07
1.5761336e-09
1.3739325e-07
2.1266805e-09
1.3187967e-07
2.5969962e-09
1.258093e-07
2.8846506e-09
1.1957693e-07
2.9763334e-09
1.134525e-07
2.9343049e-09
1.075888e-07
2.8113243e-09
1.0205444e-07
2.6608078e-09
9.6898901e-08
2.4941608e-09
9.2152834e-08
2.3041661e-09
8.7815654e-08
2.1031982e-09
8.3897989e-08
1.8999184e-09
8.0396978e-08
1.6988305e-09
7.7301458e-08
1.5024478e-09
7.4597659e-08
1.3123088e-09
7.227142e-08
1.1287884e-09
7.0310097e-08
9.5132722e-10
6.8704239e-08
7.7866198e-10
6.7448573e-08
6.0885574e-10
6.6543545e-08
4.3899705e-10
6.5994882e-08
2.6637062e-10
8.513581e-11
1.2927365e-08
-1.6863925e-09
1.5313918e-08
-1.7945186e-09
1.7988083e-08
-1.5506244e-09
2.0746931e-08
-1.1826043e-09
2.3588515e-08
-7.147967e-10
2.6530825e-08
-3.452117e-10
2.9473448e-08
-5.7880192e-11
3.2257199e-08
1.9267174e-10
3.484779e-08
3.4380132e-10
3.7207574e-08
4.5162817e-10
3.9292225e-08
5.7624355e-10
4.0914339e-08
8.7213194e-10
4.2203588e-08
1.0149995e-09
4.3227731e-08
1.0791372e-09
4.4029082e-08
1.0986455e-09
4.4643956e-08
1.0840336e-09
4.5106217e-08
1.0402615e-09
4.5445378e-08
9.7322018e-10
4.5687643e-08
8.8659292e-10
4.5855967e-08
7.8307074e-10
4.5969926e-08
6.64769e-10
4.6045538e-08
5.3330684e-10
4.6094219e-08
3.9037791e-10
4.6123138e-08
2.3751094e-10
7.2159464e-11
-5.3435412e-09
-9.0443521e-10
-6.0227385e-09
-1.1153308e-09
-6.3680112e-09
-1.2053616e-09
-6.3025167e-09
-1.2481083e-09
-5.7763432e-09
-1.2409779e-09
-4.9317805e-09
-1.18978e-09
-3.8761912e-09
-1.1134724e-09
-2.6640001e-09
-1.0195195e-09
-1.4053379e-09
-9.1485833e-10
-1.446662e-10
-8.0903867e-10
1.1346072e-09
-7.0302274e-10
2.5993249e-09
-5.9257633e-10
4.1001987e-09
-4.8586255e-10
5.567126e-09
-3.8777617e-10
6.9653672e-09
-2.9958003e-10
8.2735524e-09
-2.2413437e-10
9.4915559e-09
-1.7772342e-10
1.0602866e-08
-1.380702e-10
1.1595106e-08
-1.056262e-10
1.2458348e-08
-8.0150932e-11
1.3184119e-08
-6.0979694e-11
1.3764437e-08
-4.6990463e-11
1.4191546e-08
-3.6709061e-11
1.4456873e-08
-2.7794898e-11
-1.6690219e-11
-2.3936214e-09
-2.9209869e-10
-3.1779435e-09
-3.3101097e-10
-4.0012309e-09
-3.8207893e-10
-4.8031009e-09
-4.4624537e-10
-5.5175532e-09
-5.2653467e-10
-6.0471942e-09
-6.6014918e-10
-6.4488613e-09
-7.118161e-10
-6.7298291e-09
-7.3856271e-10
-6.8967815e-09
-7.4791691e-10
-6.961217e-09
-7.4461391e-10
-6.9334613e-09
-7.3078883e-10
-6.8160567e-09
-7.0999056e-10
-6.6204686e-09
-6.8145965e-10
-6.3623821e-09
-6.4587088e-10
-6.0574651e-09
-6.045045e-10
-5.7229752e-09
-5.5863093e-10
-5.3898885e-09
-5.1081596e-10
-5.0676825e-09
-4.6028136e-10
-4.7662907e-09
-4.070226e-10
-4.4953223e-09
-3.511234e-10
-4.2636817e-09
-2.9262393e-10
-4.0791643e-09
-2.3151118e-10
-3.948089e-09
-1.677874e-10
-3.8742575e-09
-1.0162936e-10
-3.4279795e-11
-6.7763566e-10
-9.1411972e-11
-9.1160207e-10
-9.7041779e-11
-1.1806135e-09
-1.1306542e-10
-1.4965742e-09
-1.3028343e-10
-1.8648875e-09
-1.582211e-10
-2.3348414e-09
-1.9019609e-10
-2.8231063e-09
-2.2355341e-10
-3.3099826e-09
-2.5168968e-10
-3.7863407e-09
-2.7156316e-10
-4.2453222e-09
-2.8563765e-10
-4.6811319e-09
-2.9498513e-10
-5.0890003e-09
-3.0212889e-10
-5.4595788e-09
-3.1088831e-10
-5.7716087e-09
-3.3384855e-10
-6.0460936e-09
-3.300274e-10
-6.2873414e-09
-3.1739115e-10
-6.499601e-09
-2.9856453e-10
-6.685263e-09
-2.7462759e-10
-6.8461863e-09
-2.4610757e-10
-6.9838814e-09
-2.1343655e-10
-7.0994531e-09
-1.7706043e-10
-7.1934424e-09
-1.3753008e-10
-7.2656621e-09
-9.5575841e-11
-7.3159988e-09
-5.1300692e-11
-1.1998499e-11
-1.9851616e-10
-3.0448914e-11
-2.7548239e-10
-2.0073723e-11
-3.749464e-10
-1.3599678e-11
-4.9194933e-10
-1.3279e-11
-6.3368298e-10
-1.6486267e-11
-8.0009453e-10
-2.3783776e-11
-9.8715197e-10
-3.6495661e-11
-1.1868805e-09
-5.196136e-11
-1.3940729e-09
-6.4371387e-11
-1.605387e-09
-7.4324626e-11
-1.8192354e-09
-8.1138185e-11
-2.0353086e-09
-8.605765e-11
-2.2572691e-09
-8.893014e-11
-2.501378e-09
-8.974232e-11
-2.7429427e-09
-8.846577e-11
-2.975119e-09
-8.5218271e-11
-3.1932504e-09
-8.0436956e-11
-3.3936078e-09
-7.4274181e-11
-3.5728717e-09
-6.6847888e-11
-3.7280168e-09
-5.8295867e-11
-3.8563128e-09
-4.8768976e-11
-3.9553902e-09
-3.8457382e-11
-4.0234221e-09
-2.7548578e-11
-4.0585595e-09
-1.616781e-11
-4.6025366e-12
-4.621251e-11
-2.7392857e-11
-5.0512375e-11
-1.5773388e-11
-6.0827241e-11
-3.2844334e-12
-7.8986862e-11
4.8809057e-12
-1.0698279e-10
1.1509847e-11
-1.4472648e-10
1.3959986e-11
-1.9326006e-10
1.2037883e-11
-2.5197709e-10
6.7555069e-12
-3.1540115e-10
-9.4760669e-13
-3.8351838e-10
-6.2077927e-12
-4.5434026e-10
-1.0316814e-11
-5.2637135e-10
-1.4027188e-11
-5.9843558e-10
-1.6866634e-11
-6.6951588e-10
-1.866285e-11
-7.386506e-10
-1.9331985e-11
-8.0490347e-10
-1.896644e-11
-8.6715681e-10
-1.8184742e-11
-9.2443118e-10
-1.7001026e-11
-9.7580033e-10
-1.5480003e-11
-1.020403e-09
-1.3694488e-11
-1.0574473e-09
-1.1726031e-11
-1.0863131e-09
-9.5929386e-12
-1.1065601e-09
-7.3028578e-12
-1.1179866e-09
-4.7426613e-12
-1.5564534e-12
-2.3146498e-12
-3.6655476e-11
1.0525434e-11
-2.8613243e-11
2.6614703e-11
-1.9373527e-11
4.0810939e-11
-9.3151863e-12
5.3530974e-11
-1.2100601e-12
6.3963372e-11
3.5277035e-12
6.9286866e-11
6.7144937e-12
6.8698442e-11
7.3440258e-12
6.3670335e-11
4.0805833e-12
5.6419395e-11
1.043217e-12
4.7831086e-11
-1.7284464e-12
3.8895002e-11
-5.0910545e-12
3.0752324e-11
-8.7239148e-12
2.3432797e-11
-1.1343288e-11
1.7002798e-11
-1.290195e-11
1.1513609e-11
-1.3477214e-11
7.52291e-12
-1.4194002e-11
4.7014184e-12
-1.4179488e-11
2.7056933e-12
-1.3484224e-11
1.2323366e-12
-1.222107e-11
4.7370717e-14
-1.0540995e-11
-8.9961713e-13
-8.6458714e-12
-1.7051083e-12
-6.4972761e-12
-2.311977e-12
-4.1356903e-12
-1.6838239e-12
-6.4321263e-12
-4.037568e-11
2.6982563e-12
-3.7743364e-11
1.5461684e-11
-3.2136718e-11
3.1007451e-11
-2.4860731e-11
4.7935365e-11
-1.8137754e-11
6.3854399e-11
-1.2391106e-11
7.8266685e-11
-7.6975599e-12
9.0716841e-11
-5.1058893e-12
9.9604441e-11
-4.8067684e-12
1.0577415e-10
-5.1262402e-12
1.1112574e-10
-7.0797682e-12
1.1543552e-10
-9.4005683e-12
1.1780234e-10
-1.1090467e-11
1.1893754e-10
-1.2478218e-11
1.2058209e-10
-1.4546219e-11
1.2282834e-10
-1.5723171e-11
1.2509028e-10
-1.6455648e-11
1.2741266e-10
-1.6501571e-11
1.2977096e-10
-1.5842223e-11
1.3210058e-10
-1.455038e-11
1.3428095e-10
-1.2721056e-11
1.3605632e-10
-1.0420929e-11
1.3727364e-10
-7.7142969e-12
1.3785092e-10
-4.7126713e-12
-1.4204695e-12
-2.0246255e-11
-3.8369526e-11
-1.9992014e-11
-3.7997373e-11
-1.6429014e-11
-3.5699494e-11
-9.8075892e-12
-3.1481936e-11
-1.7106734e-12
-2.6234452e-11
7.0440426e-12
-2.1145602e-11
1.4905026e-11
-1.555832e-11
2.1835262e-11
-1.20359e-11
2.7215013e-11
-1.0186295e-11
3.0360956e-11
-8.2719597e-12
3.1379238e-11
-8.0978285e-12
3.1027053e-11
-9.0481664e-12
2.983685e-11
-9.9000529e-12
2.780757e-11
-1.0448732e-11
2.4362682e-11
-1.1101131e-11
2.0601561e-11
-1.1961858e-11
1.7080104e-11
-1.2934004e-11
1.3809953e-11
-1.323124e-11
1.0860968e-11
-1.2893066e-11
8.3269377e-12
-1.2016184e-11
6.3342145e-12
-1.0728175e-11
4.9125516e-12
-8.9991164e-12
4.070882e-12
-6.8724852e-12
3.7456392e-12
-4.3872948e-12
-1.6117034e-12
-2.7997228e-11
-3.311707e-11
-3.2625668e-11
-3.3368767e-11
-3.544444e-11
-3.288056e-11
-3.6082874e-11
-3.0843341e-11
-3.6349143e-11
-2.5968025e-11
-3.5399123e-11
-2.2095465e-11
-3.3194858e-11
-1.7762431e-11
-3.1730772e-11
-1.3499836e-11
-3.220745e-11
-9.7094707e-12
-3.2715342e-11
-7.7639301e-12
-3.4322568e-11
-6.4904755e-12
-3.7974796e-11
-5.3958215e-12
-4.3044279e-11
-4.8304661e-12
-4.8543638e-11
-4.9492825e-12
-5.3989443e-11
-5.6552484e-12
-5.9897419e-11
-6.0538186e-12
-6.6363791e-11
-6.467582e-12
-7.3127483e-11
-6.4675107e-12
-7.9401071e-11
-6.6194508e-12
-8.5161087e-11
-6.2561521e-12
-9.0109593e-11
-5.7796634e-12
-9.4219662e-11
-4.8890506e-12
-9.7385247e-11
-3.7069115e-12
-9.9559212e-11
-2.213347e-12
-6.4486314e-13
-2.709348e-11
-2.7386056e-11
-3.2294718e-11
-2.816743e-11
-3.7448264e-11
-2.7726916e-11
-4.1756916e-11
-2.6534596e-11
-4.4198285e-11
-2.3526564e-11
-4.6149789e-11
-2.0143872e-11
-4.7808711e-11
-1.6103425e-11
-4.8852848e-11
-1.245562e-11
-4.9769361e-11
-8.7928861e-12
-5.1490013e-11
-6.0432136e-12
-5.437146e-11
-3.6089747e-12
-5.8099459e-11
-1.6677791e-12
-6.212315e-11
-8.067431e-13
-6.6791543e-11
-2.8087075e-13
-7.2240393e-11
-2.0639123e-13
-7.8177189e-11
-1.1702783e-13
-8.4528054e-11
-1.1673373e-13
-9.0480211e-11
-5.1538219e-13
-9.6164862e-11
-9.3483814e-13
-1.0130597e-10
-1.1150876e-12
-1.0587976e-10
-1.2059318e-12
-1.0962071e-10
-1.1481659e-12
-1.1235872e-10
-9.6896323e-13
-1.1390767e-10
-6.6447716e-13
-1.6580944e-13
-2.0913276e-11
-2.2465678e-11
-2.5846868e-11
-2.3233785e-11
-3.0377256e-11
-2.3196475e-11
-3.4589811e-11
-2.2321991e-11
-3.7574158e-11
-2.054217e-11
-3.9673587e-11
-1.8044398e-11
-4.1140272e-11
-1.4636698e-11
-4.2293128e-11
-1.1302726e-11
-4.3058699e-11
-8.0272808e-12
-4.4180769e-11
-4.9211158e-12
-4.5575421e-11
-2.2143004e-12
-4.7190014e-11
-5.3171656e-14
-4.9476154e-11
1.4794025e-12
-5.2309067e-11
2.55204e-12
-5.5709171e-11
3.1937012e-12
-5.9389244e-11
3.5630255e-12
-6.3110089e-11
3.6040833e-12
-6.6963172e-11
3.3376638e-12
-7.0815858e-11
2.9178053e-12
-7.436957e-11
2.4385738e-12
-7.7534609e-11
1.9590514e-12
-8.0164257e-11
1.4814217e-12
-8.2202127e-11
1.0688404e-12
-8.3435823e-11
5.6915051e-13
1.1706249e-13
-1.4648616e-11
-1.8796157e-11
-1.8199609e-11
-1.9682769e-11
-2.145095e-11
-1.9945111e-11
-2.4323568e-11
-1.9449348e-11
-2.6636912e-11
-1.8228802e-11
-2.8370815e-11
-1.6310473e-11
-2.9189438e-11
-1.3818053e-11
-2.9233196e-11
-1.1258949e-11
-2.89726e-11
-8.2878596e-12
-2.8788303e-11
-5.1053972e-12
-2.8518249e-11
-2.4843429e-12
-2.8385238e-11
-1.8617519e-13
-2.8635947e-11
1.7301141e-12
-2.9268231e-11
3.1843213e-12
-3.0283827e-11
4.2092894e-12
-3.1559326e-11
4.8385109e-12
-3.3060424e-11
5.1051626e-12
-3.4786888e-11
5.0641044e-12
-3.6631704e-11
4.762592e-12
-3.8395846e-11
4.2026836e-12
-4.0088307e-11
3.6514745e-12
-4.1557499e-11
2.9505731e-12
-4.2576328e-11
2.0876249e-12
-4.3231796e-11
1.2245705e-12
3.1306336e-13
-1.0071014e-11
-1.6306001e-11
-1.2425887e-11
-1.7327898e-11
-1.4585731e-11
-1.7785265e-11
-1.6412556e-11
-1.762252e-11
-1.7807342e-11
-1.6834012e-11
-1.8664543e-11
-1.5453265e-11
-1.8899527e-11
-1.3583063e-11
-1.8785645e-11
-1.1372825e-11
-1.8208726e-11
-8.8647726e-12
-1.6981817e-11
-6.3323016e-12
-1.5406635e-11
-4.0595203e-12
-1.3999002e-11
-1.5938058e-12
-1.2848537e-11
5.7964998e-13
-1.1848378e-11
2.1841597e-12
-1.1094586e-11
3.4554928e-12
-1.0643143e-11
4.3870602e-12
-1.0463452e-11
4.9254614e-12
-1.0521332e-11
5.1219701e-12
-1.0778188e-11
5.0194317e-12
-1.1228758e-11
4.6532349e-12
-1.1682724e-11
4.1054179e-12
-1.2111116e-11
3.3789401e-12
-1.2595454e-11
2.5719351e-12
-1.2906847e-11
1.535934e-12
3.6587714e-13
-7.2616694e-12
-1.4514598e-11
-8.9766001e-12
-1.5612991e-11
-1.0504908e-11
-1.6256976e-11
-1.1758875e-11
-1.6368568e-11
-1.2658747e-11
-1.5934152e-11
-1.3119298e-11
-1.4992725e-11
-1.309719e-11
-1.3605181e-11
-1.2626147e-11
-1.1843876e-11
-1.1670518e-11
-9.8204087e-12
-1.0321041e-11
-7.681786e-12
-8.87397e-12
-5.5065974e-12
-7.1264024e-12
-3.3413798e-12
-5.1572016e-12
-1.3895574e-12
-3.160194e-12
1.8714488e-13
-1.3491776e-12
1.6444683e-12
1.0848019e-13
2.9293933e-12
1.3452845e-12
3.6886467e-12
2.366576e-12
4.1006671e-12
3.1848038e-12
4.201191e-12
3.7866243e-12
4.0514003e-12
4.2282813e-12
3.663745e-12
4.5468826e-12
3.0603217e-12
4.9389932e-12
2.1798051e-12
5.1150838e-12
1.3598242e-12
6.3168073e-13
-5.7901948e-12
-1.3135856e-11
-7.1217587e-12
-1.4281471e-11
-8.3183608e-12
-1.5060413e-11
-9.3360619e-12
-1.5350901e-11
-1.0056399e-11
-1.5213846e-11
-1.0417839e-11
-1.4631312e-11
-1.0375661e-11
-1.3647383e-11
-9.904908e-12
-1.2314652e-11
-9.0072745e-12
-1.0718063e-11
-7.7586892e-12
-8.9303905e-12
-6.2204351e-12
-7.0448695e-12
-4.3847306e-12
-5.1771012e-12
-2.3741447e-12
-3.4001595e-12
-3.9967639e-13
-1.7873389e-12
1.5771105e-12
-3.3233365e-13
3.5999075e-12
9.0658153e-13
5.440676e-12
1.8478638e-12
7.0805839e-12
2.4607449e-12
8.5513649e-12
2.7303957e-12
9.7729457e-12
2.8298051e-12
1.0716536e-11
2.7201402e-12
1.1431599e-11
2.3452435e-12
1.1765076e-11
1.8463112e-12
1.1960848e-11
1.1640373e-12
3.1645587e-13
-4.7948328e-12
-1.1989172e-11
-5.9724274e-12
-1.3103935e-11
-7.061244e-12
-1.397165e-11
-7.954254e-12
-1.445794e-11
-8.6266155e-12
-1.4541529e-11
-8.9979514e-12
-1.4260017e-11
-9.0318092e-12
-1.3613564e-11
-8.693852e-12
-1.2652644e-11
-7.9724249e-12
-1.1439522e-11
-6.8904998e-12
-1.0012346e-11
-5.494485e-12
-8.4409122e-12
-3.853703e-12
-6.8179091e-12
-2.0111113e-12
-5.2427756e-12
-6.9107356e-14
-3.7293656e-12
1.9519235e-12
-2.3533859e-12
4.0159478e-12
-1.1574628e-12
6.0301089e-12
-1.6631626e-13
7.9041615e-12
5.8667469e-13
9.545951e-12
1.0885895e-12
1.0987867e-11
1.3878733e-12
1.222447e-11
1.4835219e-12
1.3178834e-11
1.3908654e-12
1.3931525e-11
1.0936048e-12
1.4384299e-11
7.1125068e-13
2.0505709e-13
-4.1173504e-12
-1.0852088e-11
-5.088961e-12
-1.2132392e-11
-6.0491175e-12
-1.3011556e-11
-6.8703444e-12
-1.3636772e-11
-7.5006206e-12
-1.3911307e-11
-7.9014656e-12
-1.3859222e-11
-8.0128655e-12
-1.350221e-11
-7.8093551e-12
-1.2856197e-11
-7.2874942e-12
-1.1961423e-11
-6.4246845e-12
-1.0875192e-11
-5.2401938e-12
-9.6254369e-12
-3.7918662e-12
-8.2662681e-12
-2.1454538e-12
-6.889217e-12
-3.3805781e-13
-5.5367883e-12
1.5740343e-12
-4.2655026e-12
3.5287431e-12
-3.1121942e-12
5.4658613e-12
-2.1034552e-12
7.3162186e-12
-1.2637015e-12
9.0008561e-12
-5.9606513e-13
1.0512156e-11
-1.2344191e-13
1.1819585e-11
1.760781e-13
1.2897707e-11
3.1273025e-13
1.3679471e-11
3.118272e-13
1.4178546e-11
2.1216489e-13
1.3731827e-13
-3.3548978e-12
-9.9272706e-12
-4.2568812e-12
-1.1230479e-11
-5.0561282e-12
-1.2212375e-11
-5.8001933e-12
-1.2892768e-11
-6.3857534e-12
-1.3325804e-11
-6.7807978e-12
-1.3464231e-11
-6.9494594e-12
-1.3333598e-11
-6.8547323e-12
-1.295097e-11
-6.4754857e-12
-1.2340712e-11
-5.8166861e-12
-1.1534031e-11
-4.8605247e-12
-1.0581634e-11
-3.6325798e-12
-9.4942458e-12
-2.1906673e-12
-8.3311596e-12
-5.775483e-13
-7.1499347e-12
1.1478219e-12
-5.9908976e-12
2.9233658e-12
-4.8877605e-12
4.6983637e-12
-3.8784732e-12
6.4142496e-12
-2.9796053e-12
8.0305181e-12
-2.2123496e-12
9.4846973e-12
-1.5776353e-12
1.07416e-11
-1.0808378e-12
1.1761786e-11
-7.0746675e-13
1.2499328e-11
-4.2572531e-13
1.2937288e-11
-2.2580329e-13
-6.8898478e-14
-2.6754551e-12
-9.2046972e-12
-3.4696612e-12
-1.043634e-11
-4.1944268e-12
-1.1487673e-11
-4.7878405e-12
-1.2299415e-11
-5.3352859e-12
-1.2778415e-11
-5.7032766e-12
-1.3096293e-11
-5.8882257e-12
-1.3148697e-11
-5.8597471e-12
-1.2979493e-11
-5.5996222e-12
-1.2600878e-11
-5.0982818e-12
-1.2035409e-11
-4.3666278e-12
-1.1313323e-11
-3.3878222e-12
-1.0473083e-11
-2.1736125e-12
-9.5453977e-12
-7.8553054e-13
-8.5380423e-12
7.1042672e-13
-7.4868777e-12
2.2759709e-12
-6.453325e-12
3.8552409e-12
-5.457761e-12
5.3986985e-12
-4.5230785e-12
6.8616954e-12
-3.67536e-12
8.1975616e-12
-2.9135132e-12
9.3545372e-12
-2.2378237e-12
1.0290863e-11
-1.6438012e-12
1.0975067e-11
-1.1099373e-12
1.1419122e-11
-6.6986481e-13
-2.4974401e-13
-2.1576818e-12
-8.6244572e-12
-2.7794751e-12
-9.8146097e-12
-3.4159473e-12
-1.085126e-11
-4.0181864e-12
-1.1697231e-11
-4.4483136e-12
-1.234834e-11
-4.7852109e-12
-1.2759444e-11
-4.9905332e-12
-1.294342e-11
-5.0064124e-12
-1.2963655e-11
-4.845037e-12
-1.2762291e-11
-4.4867581e-12
-1.2393722e-11
-3.9237776e-12
-1.1876334e-11
-3.1554925e-12
-1.1241396e-11
-2.1761851e-12
-1.052473e-11
-1.064428e-12
-9.6498219e-12
1.61105e-13