/*--------------------------------*- C++ -*----------------------------------*\
| =========                 |                                                 |
| \\      /  F ield         | OpenFOAM: The Open Source CFD Toolbox           |
|  \\    /   O peration     | Version:  4.0                                   |
|   \\  /    A nd           | Web:      www.OpenFOAM.org                      |
|    \\/     M anipulation  |                                                 |
\*---------------------------------------------------------------------------*/
FoamFile
{
    version     2.0;
    format      ascii;
    class       volVectorField;
    location    "0.49";
    object      U;
}
// * * * * * * * * * * * * * * * * * * * * * * * * * * * * * * * * * * * * * //

dimensions      [0 1 -1 0 0 0 0];

internalField   nonuniform List<vector> 
1740
(
(1.4637057 -0.00917173 7.1696653e-06)
(1.4552944 -0.0039959781 1.0498914e-06)
(1.5809259 -0.00048451466 7.8482276e-08)
(1.5617662 -0.010346146 9.2786591e-06)
(1.4610623 -0.019698021 1.7405232e-06)
(1.6744597 -0.01478654 2.7320512e-07)
(1.5736072 0.0010968314 1.1873337e-05)
(1.5093661 -0.029204758 2.5965726e-06)
(1.5868217 -0.021663356 4.2128933e-07)
(1.4933999 0.0031278542 1.3463588e-05)
(1.5298993 -0.010447053 3.3660118e-06)
(1.5310361 -0.0083952004 6.1361652e-07)
(1.4971659 -0.0011420888 1.4992119e-05)
(1.5355768 0.0091903182 4.2220453e-06)
(1.5096455 0.0079650481 7.5433294e-07)
(1.5161549 0.00098743513 1.6274757e-05)
(1.517987 0.017816169 4.9326714e-06)
(1.5939174 0.010124274 9.3360104e-07)
(1.4914539 -0.0062493676 1.7296889e-05)
(1.5391835 0.0045777868 5.7300326e-06)
(1.5890917 -0.00075825473 1.1415235e-06)
(1.5387064 -0.018003135 1.7874383e-05)
(1.5178035 -0.0096054014 6.4326702e-06)
(1.5663109 -0.00026443717 1.3412572e-06)
(1.5604156 0.00021249994 1.8382537e-05)
(1.4830922 -0.0098178052 7.0711772e-06)
(1.5829449 -0.0069976439 1.4949785e-06)
(1.4901415 0.011104602 1.8729311e-05)
(1.5168681 0.0075829353 7.5871785e-06)
(1.5090181 -0.0055315429 1.7136428e-06)
(1.4979393 0.0065408764 1.9226248e-05)
(1.5358968 0.010212638 8.2585042e-06)
(1.5997636 -0.00062096198 1.8954634e-06)
(1.4788526 -0.0068261961 1.9603738e-05)
(1.5288668 -0.010737085 8.8009539e-06)
(1.592297 -0.0083756169 2.1075484e-06)
(1.5157966 -0.013314 2.0301577e-05)
(1.5199444 -0.014836146 9.4451544e-06)
(1.5215654 -0.0074135689 2.2826928e-06)
(1.5283888 -0.0086705319 2.078105e-05)
(1.5175195 -0.013204026 9.9473276e-06)
(1.5448822 -0.0057848727 2.4956088e-06)
(1.5819385 0.0025266883 2.038429e-05)
(1.5909859 -0.0013005486 1.0297585e-05)
(1.5099341 0.00073329364 2.7171232e-06)
(1.5634402 -0.00091128777 2.0121144e-05)
(1.5788513 0.018833143 1.0814008e-05)
(1.582679 0.012371494 2.8502815e-06)
(1.5709046 -0.0061040363 2.0539292e-05)
(1.48565 -0.004267331 1.1191962e-05)
(1.5885143 -0.0046920746 3.1393009e-06)
(1.5821687 0.01106864 2.1448655e-05)
(1.515773 -0.014936049 1.1784113e-05)
(1.4895791 -0.019221748 3.2643227e-06)
(1.4831795 0.012064207 2.1602065e-05)
(1.6257529 -0.004757929 1.2190637e-05)
(1.5074173 -0.0085410517 3.426473e-06)
(1.5429854 0.00090421229 2.1491739e-05)
(1.589714 0.0054853263 1.2625229e-05)
(1.4933951 0.0065359869 3.6115707e-06)
(1.5415943 0.0011649635 2.1683647e-05)
(1.5772578 0.0045762343 1.290599e-05)
(1.5610601 0.0085768049 3.7552056e-06)
(1.5783525 -0.016272135 2.2032434e-05)
(1.5816652 -0.002413715 1.3269248e-05)
(1.5658744 0.00030313069 3.9828638e-06)
(1.5918498 -0.010108591 2.2010839e-05)
(1.5074917 -0.0094785268 1.3548006e-05)
(1.506909 -0.0015832751 4.134551e-06)
(1.6008078 0.0083467122 2.1780866e-05)
(1.5216679 -0.014223923 1.3808584e-05)
(1.5224861 -0.012308791 4.2763521e-06)
(1.5979066 0.022401364 2.2031537e-05)
(1.5969593 -0.01038539 1.4115944e-05)
(1.4943855 -0.017753666 4.4277054e-06)
(1.4849398 0.0089801517 2.2532087e-05)
(1.7006556 0.0030736614 1.4446179e-05)
(1.469804 -0.0025176678 4.5699118e-06)
(1.4652999 -0.0048147417 2.2633501e-05)
(1.6094605 0.0082603366 1.4783375e-05)
(1.4648105 0.0092627444 4.7117613e-06)
(1.4390424 -0.0073857083 2.2717669e-05)
(1.5937136 0.0055865397 1.501558e-05)
(1.4650326 0.006807969 4.8460908e-06)
(1.388199 -0.0065772832 2.2159646e-05)
(1.5293745 0.0027456083 1.5138275e-05)
(1.4551345 0.011961468 4.8970752e-06)
(1.2816297 0.026137766 2.3328567e-05)
(1.2963899 0.097145177 1.566499e-05)
(1.3580048 0.058020475 5.521301e-06)
(0.83589099 0.37088699 1.1591882e-05)
(0.8043767 0.93334129 9.9233303e-06)
(0.73421707 1.2518884 5.3977493e-06)
(0.2109471 0.11034003 1.5413996e-06)
(0.1808199 0.36450297 3.0869889e-06)
(0.081190725 0.49627316 7.0710122e-07)
(-0.03506992 -0.014342194 1.2263265e-06)
(-0.032134688 -0.0295572 1.6816808e-06)
(-0.023114533 -0.035349209 5.8398902e-07)
(-0.010309045 -0.0036573967 4.5781209e-07)
(-0.0096430236 -0.0090296792 7.3439325e-07)
(-0.0082333479 -0.012067032 3.2932148e-07)
(-0.0032080469 -0.00062760015 1.1875396e-07)
(-0.0028418566 -0.0015000674 2.3834699e-07)
(-0.0024038953 -0.0022158827 1.003691e-07)
(-0.0018472888 -0.0002404064 2.1346485e-08)
(-0.0016061144 -0.00052605715 4.8068951e-08)
(-0.0012401702 -0.00076022167 -1.5306292e-08)
(-0.0012403648 -0.00013411636 -6.9921157e-09)
(-0.0011122315 -0.0002669302 -1.8262673e-08)
(-0.00087510545 -0.00037624513 -5.996627e-08)
(-0.00091914648 -7.4114524e-05 -1.546817e-08)
(-0.00084909702 -0.00013427738 -3.8491958e-08)
(-0.00071011302 -0.00018293867 -7.0862239e-08)
(-0.00072820169 -5.2015435e-05 -1.5508339e-08)
(-0.00068886554 -0.00010584871 -3.9282157e-08)
(-0.00060754094 -0.00013998786 -6.5496781e-08)
(-0.00058131869 -4.1579421e-05 -1.2445051e-08)
(-0.00056105963 -9.1987129e-05 -3.2865697e-08)
(-0.00051829303 -0.00013629907 -5.3964693e-08)
(-0.00046632141 -3.9936765e-05 -8.9705234e-09)
(-0.00045411582 -8.6381603e-05 -2.5117635e-08)
(-0.00042603712 -0.00013563502 -4.1711565e-08)
(-0.0003692887 -3.3479587e-05 -6.4163442e-09)
(-0.00036139365 -7.4271709e-05 -1.8568802e-08)
(-0.00034160397 -0.00011792727 -3.1195593e-08)
(-0.000292736 -2.4269983e-05 -4.7309012e-09)
(-0.00028756213 -5.6128645e-05 -1.3641863e-08)
(-0.00027398221 -8.8029502e-05 -2.2939437e-08)
(-0.00023386996 -1.6666217e-05 -3.5718914e-09)
(-0.00023024979 -3.8002436e-05 -1.0004486e-08)
(-0.00022096015 -5.9993556e-05 -1.6646852e-08)
(-0.00019063115 -1.1261019e-05 -2.6746206e-09)
(-0.00018795903 -2.4572165e-05 -7.2483054e-09)
(-0.0001815754 -3.934547e-05 -1.1871934e-08)
(-0.00016167259 -8.0115718e-06 -1.942395e-09)
(-0.00015991835 -1.7972445e-05 -5.1110882e-09)
(-0.00015518162 -2.8515738e-05 -8.2545923e-09)
(-0.00014093217 -6.1751075e-06 -1.3448845e-09)
(-0.00013984664 -1.3848889e-05 -3.4748534e-09)
(-0.00013614535 -2.1978239e-05 -5.5607787e-09)
(-0.0001242817 -5.0781201e-06 -8.9058132e-10)
(-0.00012358244 -1.1373656e-05 -2.2745368e-09)
(-0.00012079028 -1.7841741e-05 -3.6219699e-09)
(-0.00011054826 -4.2188106e-06 -5.7350086e-10)
(-0.00011005338 -9.3703756e-06 -1.4408503e-09)
(-0.0001078325 -1.4628686e-05 -2.2842593e-09)
(-9.9324469e-05 -3.4603605e-06 -3.673349e-10)
(-9.8960813e-05 -7.6111989e-06 -8.9355418e-10)
(-9.7238378e-05 -1.1897442e-05 -1.4026297e-09)
(-9.021593e-05 -2.8030387e-06 -2.3935493e-10)
(-8.9953721e-05 -6.083622e-06 -5.5032924e-10)
(-8.8610601e-05 -9.5932836e-06 -8.4516503e-10)
(-8.2821332e-05 -2.2771126e-06 -1.6074735e-10)
(-8.2642031e-05 -4.8829569e-06 -3.4106508e-10)
(-8.1581651e-05 -7.7910343e-06 -5.038591e-10)
(-7.676474e-05 -1.8834541e-06 -1.1203362e-10)
(-7.665314e-05 -4.0083162e-06 -2.1527696e-10)
(-7.5804691e-05 -6.4451018e-06 -2.9983968e-10)
(-7.1725847e-05 -1.5914808e-06 -8.1826243e-11)
(-7.166707e-05 -3.3723832e-06 -1.4030587e-10)
(-7.097838e-05 -5.4529669e-06 -1.8012692e-10)
(-6.7445713e-05 -1.3763555e-06 -6.2916579e-11)
(-6.7426449e-05 -2.9112735e-06 -9.5492023e-11)
(-6.6858348e-05 -4.7235587e-06 -1.1061845e-10)
(-6.3719157e-05 -1.2215522e-06 -5.0966461e-11)
(-6.3728447e-05 -2.5868069e-06 -6.8625073e-11)
(-6.3251244e-05 -4.2128016e-06 -7.0627988e-11)
(-6.0388255e-05 -1.1091838e-06 -4.3855964e-11)
(-6.0417546e-05 -2.3527836e-06 -5.3129514e-11)
(-6.000909e-05 -3.8377504e-06 -4.835665e-11)
(-5.7334471e-05 -1.0287874e-06 -3.98562e-11)
(-5.7377327e-05 -2.1878754e-06 -4.441045e-11)
(-5.7021347e-05 -3.5772037e-06 -3.6358191e-11)
(-5.4470287e-05 -9.7515817e-07 -3.7238491e-11)
(-5.4522017e-05 -2.0840099e-06 -3.8960631e-11)
(-5.4207152e-05 -3.4142383e-06 -2.9664071e-11)
(-5.1733091e-05 -9.4289395e-07 -3.4952694e-11)
(-5.1790115e-05 -2.0288455e-06 -3.488178e-11)
(-5.1507666e-05 -3.3210888e-06 -2.5670923e-11)
(-4.9080899e-05 -9.1362874e-07 -3.4101897e-11)
(-4.9140211e-05 -1.9767317e-06 -3.2793797e-11)
(-4.8883454e-05 -3.2411017e-06 -2.379598e-11)
(-4.6488008e-05 -8.9791709e-07 -3.3065936e-11)
(-4.6547353e-05 -1.9635125e-06 -3.0660446e-11)
(-4.6311525e-05 -3.2187321e-06 -2.2260628e-11)
(-4.3941881e-05 -8.7960279e-07 -3.2816575e-11)
(-4.3999387e-05 -1.9343502e-06 -2.9672833e-11)
(-4.3781362e-05 -3.1748978e-06 -2.1634692e-11)
(-4.1438251e-05 -8.5908987e-07 -3.2898467e-11)
(-4.1495935e-05 -1.8976739e-06 -2.9259223e-11)
(-4.1291888e-05 -3.1127951e-06 -2.1599506e-11)
(-3.8986416e-05 -8.4143917e-07 -3.3008326e-11)
(-3.9043359e-05 -1.8603077e-06 -2.896346e-11)
(-3.88513e-05 -3.0472881e-06 -2.1706378e-11)
(-3.6597443e-05 -8.1952829e-07 -3.3011729e-11)
(-3.664994e-05 -1.81723e-06 -2.8561435e-11)
(-3.6469673e-05 -2.9744042e-06 -2.1724544e-11)
(-3.4274566e-05 -7.924233e-07 -3.296868e-11)
(-3.4323065e-05 -1.7617294e-06 -2.8104336e-11)
(-3.4153508e-05 -2.8813622e-06 -2.1672847e-11)
(-3.2032525e-05 -7.5922046e-07 -3.2914392e-11)
(-3.207737e-05 -1.6933378e-06 -2.7640653e-11)
(-3.1917972e-05 -2.7685635e-06 -2.1584969e-11)
(-2.9894121e-05 -7.2086139e-07 -3.2840227e-11)
(-2.9935568e-05 -1.6125331e-06 -2.7186633e-11)
(-2.978562e-05 -2.6356187e-06 -2.1483914e-11)
(-2.7875986e-05 -6.7696582e-07 -3.2811038e-11)
(-2.7914219e-05 -1.5182041e-06 -2.6847492e-11)
(-2.7773063e-05 -2.4810445e-06 -2.1448601e-11)
(-2.5991465e-05 -6.2761574e-07 -3.2825765e-11)
(-2.6026706e-05 -1.4106614e-06 -2.6606763e-11)
(-2.5893818e-05 -2.3047249e-06 -2.147689e-11)
(-2.4254688e-05 -5.7342448e-07 -3.2864689e-11)
(-2.4287219e-05 -1.2914368e-06 -2.6425852e-11)
(-2.4162056e-05 -2.1093018e-06 -2.1545822e-11)
(-2.2678382e-05 -5.1543809e-07 -3.2914573e-11)
(-2.2708505e-05 -1.1616288e-06 -2.6304619e-11)
(-2.2590463e-05 -1.8966805e-06 -2.1641601e-11)
(-2.1273756e-05 -4.5367228e-07 -3.295472e-11)
(-2.1301773e-05 -1.0232432e-06 -2.6191253e-11)
(-2.1190175e-05 -1.6704473e-06 -2.1711116e-11)
(-2.0051175e-05 -3.8811381e-07 -3.3065347e-11)
(-2.0077388e-05 -8.7559922e-07 -2.6186858e-11)
(-1.9971475e-05 -1.4289006e-06 -2.1822367e-11)
(-1.9021495e-05 -3.1909094e-07 -3.3270718e-11)
(-1.9046205e-05 -7.1901462e-07 -2.6304049e-11)
(-1.8945132e-05 -1.172337e-06 -2.194038e-11)
(-1.8197631e-05 -2.4719605e-07 -3.3480418e-11)
(-1.8221144e-05 -5.5525043e-07 -2.6321719e-11)
(-1.8123967e-05 -9.0410809e-07 -2.178251e-11)
(-1.7598978e-05 -1.7262918e-07 -3.3510383e-11)
(-1.7621614e-05 -3.8608271e-07 -2.5741145e-11)
(-1.7527255e-05 -6.2892932e-07 -2.0773078e-11)
(-1.7241038e-05 -9.5528057e-08 -3.2970853e-11)
(-1.7263127e-05 -2.1386295e-07 -2.3607055e-11)
(-1.7170383e-05 -3.5285119e-07 -1.7985834e-11)
(-1.712023e-05 -2.3177597e-08 -2.9823844e-11)
(-1.7142162e-05 -5.082627e-08 -1.7674944e-11)
(-1.7049808e-05 -8.7204669e-08 -1.197107e-11)
(-0.04715992 1.9471869 -3.5778473e-07)
(-0.033201917 1.6946815 -3.448487e-06)
(-0.064342573 0.33886189 -2.3892146e-07)
(-0.044304743 0.14937195 -1.0023596e-06)
(-0.017770053 -0.043209796 -2.0540681e-07)
(-0.012973941 -0.045161892 -6.3205122e-07)
(-0.0067129817 -0.014561161 -1.1238581e-07)
(-0.0057559746 -0.015934949 -4.1041708e-07)
(-0.0020961676 -0.0031072185 -1.1497678e-07)
(-0.0019295919 -0.0039568463 -2.9752257e-07)
(-0.00091433373 -0.0009377765 -1.2597676e-07)
(-0.0006773249 -0.0011221445 -2.3514556e-07)
(-0.00063973441 -0.0004193471 -1.2460861e-07)
(-0.00044674221 -0.00040169114 -1.922332e-07)
(-0.00056051087 -0.00018120844 -1.1298348e-07)
(-0.00042048709 -0.00013298979 -1.5725131e-07)
(-0.00051300175 -0.00013096813 -9.5355466e-08)
(-0.00041519805 -0.00010671565 -1.2591367e-07)
(-0.00045992127 -0.0001592852 -7.6149499e-08)
(-0.00039534108 -0.0001676037 -9.813277e-08)
(-0.00038673662 -0.0001761848 -5.8449812e-08)
(-0.00034152392 -0.00020086083 -7.4636291e-08)
(-0.00031456958 -0.0001563252 -4.3708027e-08)
(-0.00028372494 -0.00018487474 -5.5631852e-08)
(-0.00025449355 -0.00011517734 -3.2088283e-08)
(-0.00023215438 -0.00013717136 -4.0749771e-08)
(-0.00020817843 -7.7253487e-05 -2.3160761e-08)
(-0.0001911581 -9.2783025e-05 -2.9313797e-08)
(-0.00017323282 -5.3511625e-05 -1.6387861e-08)
(-0.00016152215 -6.4727086e-05 -2.0652043e-08)
(-0.00014839416 -3.9247522e-05 -1.1310556e-08)
(-0.00014068815 -4.7368977e-05 -1.4192568e-08)
(-0.00013072595 -2.9794366e-05 -7.5800472e-09)
(-0.00012455209 -3.7477811e-05 -9.4789103e-09)
(-0.00011644088 -2.4332796e-05 -4.9219077e-09)
(-0.00011104332 -3.0865254e-05 -6.1408666e-09)
(-0.00010448466 -1.9790028e-05 -3.0978861e-09)
(-0.00010023109 -2.4988622e-05 -3.8594031e-09)
(-9.4642378e-05 -1.6183858e-05 -1.8956708e-09)
(-9.1400424e-05 -2.0391312e-05 -2.3574196e-09)
(-8.6561625e-05 -1.3026137e-05 -1.1332194e-09)
(-8.3956398e-05 -1.6380628e-05 -1.4038019e-09)
(-7.9956343e-05 -1.0493967e-05 -6.6504566e-10)
(-7.7855491e-05 -1.3206156e-05 -8.1737295e-10)
(-7.449572e-05 -8.5846085e-06 -3.8514773e-10)
(-7.2784525e-05 -1.0832131e-05 -4.6671045e-10)
(-6.9905339e-05 -7.1826392e-06 -2.2160705e-10)
(-6.8489415e-05 -9.0901275e-06 -2.6211083e-10)
(-6.5963305e-05 -6.2236402e-06 -1.2772603e-10)
(-6.4772792e-05 -7.8894998e-06 -1.4522706e-10)
(-6.2492038e-05 -5.5970358e-06 -7.4692336e-11)
(-6.1476149e-05 -7.0940413e-06 -7.9797707e-11)
(-5.9354425e-05 -5.1922036e-06 -4.5625824e-11)
(-5.8475235e-05 -6.5547807e-06 -4.4282967e-11)
(-5.6447451e-05 -4.8987392e-06 -3.0308711e-11)
(-5.5675736e-05 -6.1421487e-06 -2.580846e-11)
(-5.3696928e-05 -4.7107001e-06 -2.2252342e-11)
(-5.3008968e-05 -5.8659992e-06 -1.6396479e-11)
(-5.104764e-05 -4.5834346e-06 -1.8064906e-11)
(-5.0425904e-05 -5.737002e-06 -1.184456e-11)
(-4.8463056e-05 -4.4824881e-06 -1.6262116e-11)
(-4.7893972e-05 -5.6803688e-06 -9.9406219e-12)
(-4.5923564e-05 -4.4381932e-06 -1.5318725e-11)
(-4.5398117e-05 -5.6368718e-06 -9.3569783e-12)
(-4.3420636e-05 -4.3924036e-06 -1.5024937e-11)
(-4.2932023e-05 -5.5789293e-06 -9.4011342e-12)
(-4.0954821e-05 -4.3146066e-06 -1.5280685e-11)
(-4.0497922e-05 -5.5035072e-06 -9.8551609e-12)
(-3.853501e-05 -4.2260678e-06 -1.5697578e-11)
(-3.8106348e-05 -5.3973559e-06 -1.0505055e-11)
(-3.6171702e-05 -4.1245273e-06 -1.605436e-11)
(-3.5768163e-05 -5.2631755e-06 -1.1133859e-11)
(-3.3872785e-05 -3.9961639e-06 -1.6331618e-11)
(-3.3492659e-05 -5.098543e-06 -1.1672565e-11)
(-3.1653853e-05 -3.839991e-06 -1.6555784e-11)
(-3.1296197e-05 -4.9001247e-06 -1.2134398e-11)
(-2.9537045e-05 -3.6553059e-06 -1.6745377e-11)
(-2.9200513e-05 -4.6649317e-06 -1.2541376e-11)
(-2.7539006e-05 -3.4420777e-06 -1.6947453e-11)
(-2.7222269e-05 -4.393796e-06 -1.2925431e-11)
(-2.5673437e-05 -3.1991141e-06 -1.7192377e-11)
(-2.5375337e-05 -4.0826567e-06 -1.3332903e-11)
(-2.3954444e-05 -2.9249126e-06 -1.7471307e-11)
(-2.3673726e-05 -3.7317373e-06 -1.3758853e-11)
(-2.2394611e-05 -2.6299879e-06 -1.7731989e-11)
(-2.2129885e-05 -3.3562854e-06 -1.4131314e-11)
(-2.1004955e-05 -2.3164276e-06 -1.7938932e-11)
(-2.0754663e-05 -2.9560414e-06 -1.4438147e-11)
(-1.9795631e-05 -1.9811445e-06 -1.8129668e-11)
(-1.9558067e-05 -2.5272634e-06 -1.4694966e-11)
(-1.8777266e-05 -1.6249532e-06 -1.823432e-11)
(-1.8550525e-05 -2.0722189e-06 -1.4811312e-11)
(-1.7962509e-05 -1.2526751e-06 -1.7970353e-11)
(-1.7744444e-05 -1.5967961e-06 -1.4535167e-11)
(-1.7370405e-05 -8.7139972e-07 -1.6824009e-11)
(-1.7158579e-05 -1.110449e-06 -1.3449614e-11)
(-1.7016197e-05 -4.9055149e-07 -1.4072738e-11)
(-1.6808e-05 -6.2687681e-07 -1.1018865e-11)
(-1.6896328e-05 -1.2254103e-07 -8.840053e-12)
(-1.6689138e-05 -1.5858312e-07 -6.7111111e-12)
(0.0027602829 -4.3746847e-05 -1.0982196e-07)
(0.0026929914 -0.00017751425 -2.6023757e-07)
(0.002553112 -0.00023197872 -3.6783703e-07)
(0.00236598 -0.00030109538 -4.3543322e-07)
(0.0021540119 -0.000334486 -4.7159142e-07)
(0.0019360821 -0.00037111189 -4.8601395e-07)
(0.001727828 -0.00040653704 -4.8603723e-07)
(0.0015394792 -0.00045216084 -4.7682858e-07)
(0.0013752277 -0.00051002595 -4.6198797e-07)
(0.0012340474 -0.00057569161 -4.4400225e-07)
(0.0011124997 -0.00064606721 -4.2459288e-07)
(0.0010064221 -0.00071926832 -4.0479143e-07)
(0.00091160058 -0.00079268473 -3.8508708e-07)
(0.00082446 -0.00086274203 -3.6555925e-07)
(0.00074244146 -0.00092621171 -3.4605929e-07)
(0.00066383856 -0.00098164747 -3.2630515e-07)
(0.00058749473 -0.0010296702 -3.0590472e-07)
(0.00051280317 -0.0010691819 -2.843035e-07)
(0.00043972321 -0.00109782 -2.6089002e-07)
(0.00036810163 -0.0011161015 -2.3495616e-07)
(0.00029779173 -0.0011236674 -2.0573721e-07)
(0.00022898869 -0.0011218686 -1.7210714e-07)
(0.000161789 -0.0011110884 -1.3307605e-07)
(9.6005045e-05 -0.0010962492 -8.8070943e-08)
(3.109801e-05 -0.0010426223 -3.6609484e-08)
(0.00040606766 -0.00017070237 -1.2586057e-07)
(0.00038866451 -0.00063037152 -2.9418765e-07)
(0.00036035428 -0.0008999279 -4.0811306e-07)
(0.00033740477 -0.0012447998 -4.7342601e-07)
(0.00033256037 -0.0015178738 -5.0371384e-07)
(0.00034867698 -0.0018079329 -5.121586e-07)
(0.00037900835 -0.0020866929 -5.0715335e-07)
(0.00041131505 -0.0023870385 -4.9409139e-07)
(0.00043261476 -0.002708061 -4.7635745e-07)
(0.00044068648 -0.0030243057 -4.5615914e-07)
(0.00043602703 -0.0033318736 -4.3517886e-07)
(0.0004196999 -0.0036257503 -4.1431606e-07)
(0.00039565314 -0.0038988796 -3.9393962e-07)
(0.00036803179 -0.0041497885 -3.7397712e-07)
(0.00033840533 -0.0043782989 -3.541925e-07)
(0.00030748615 -0.0045856206 -3.3427727e-07)
(0.00027552863 -0.0047823487 -3.1389016e-07)
(0.00024271163 -0.0049617585 -2.9234773e-07)
(0.00020898805 -0.0051010803 -2.6908218e-07)
(0.00017461581 -0.005193028 -2.4332273e-07)
(0.00014015355 -0.0052352397 -2.1459636e-07)
(0.00010615485 -0.0052301226 -1.8113205e-07)
(7.2925681e-05 -0.0051809864 -1.4157916e-07)
(4.0908728e-05 -0.0050734772 -9.4346215e-08)
(1.1193913e-05 -0.0048443203 -4.0815796e-08)
(0.0013817438 -0.00037885891 -1.6428125e-07)
(0.0013439522 -0.0016736149 -3.7009655e-07)
(0.0013069245 -0.0022565815 -4.9284428e-07)
(0.0013075841 -0.0031725499 -5.4874121e-07)
(0.0013339616 -0.0039138396 -5.654229e-07)
(0.0013607853 -0.00469313 -5.6157719e-07)
(0.001369214 -0.0054736615 -5.4664484e-07)
(0.0013520971 -0.0064074076 -5.2638261e-07)
(0.0013136312 -0.0074546239 -5.0338708e-07)
(0.0012572995 -0.0084130823 -4.7900617e-07)
(0.0011872051 -0.009244361 -4.5515686e-07)
(0.0011088761 -0.0099461939 -4.3240189e-07)
(0.0010255186 -0.010518407 -4.1094076e-07)
(0.00093752546 -0.010970645 -3.903266e-07)
(0.00084700227 -0.011310016 -3.7015842e-07)
(0.00075560514 -0.011538259 -3.5006827e-07)
(0.00066489173 -0.01164791 -3.3010847e-07)
(0.00057569287 -0.011657275 -3.089375e-07)
(0.00048836207 -0.011594942 -2.8641687e-07)
(0.00040359074 -0.011476297 -2.6179471e-07)
(0.00032208481 -0.011311453 -2.3417418e-07)
(0.00024392959 -0.011109099 -2.0210508e-07)
(0.00016872156 -0.010875542 -1.6356803e-07)
(9.6764413e-05 -0.010581201 -1.1513726e-07)
(2.9757772e-05 -0.010178991 -5.6598787e-08)
(0.0040514955 -0.00114066 -2.4687473e-07)
(0.0039329993 -0.0049012442 -5.1086673e-07)
(0.0038059703 -0.0062556404 -6.3236336e-07)
(0.0035983341 -0.0094974859 -6.6296846e-07)
(0.0033725533 -0.012398961 -6.5519664e-07)
(0.0031097037 -0.014971978 -6.3210515e-07)
(0.0028290247 -0.016786441 -6.0245978e-07)
(0.0025424644 -0.017729571 -5.7320369e-07)
(0.0022679805 -0.017989678 -5.4418865e-07)
(0.002008505 -0.017826359 -5.1394267e-07)
(0.0017696373 -0.017348345 -4.863931e-07)
(0.0015523396 -0.016677104 -4.6110209e-07)
(0.0013542992 -0.015831435 -4.3850783e-07)
(0.0011616425 -0.014866029 -4.1721028e-07)
(0.00098872908 -0.013833522 -3.9665356e-07)
(0.00083561007 -0.012779291 -3.7657006e-07)
(0.00070082555 -0.01174272 -3.5662555e-07)
(0.00058253742 -0.010757377 -3.3634372e-07)
(0.00047896667 -0.009846647 -3.1521003e-07)
(0.00038764664 -0.0090297888 -2.9257733e-07)
(0.00030594292 -0.0083191265 -2.6761021e-07)
(0.00023151192 -0.0077186372 -2.3909192e-07)
(0.00016305135 -0.0072279174 -2.0519102e-07)
(9.8717897e-05 -0.0068049888 -1.6284195e-07)
(3.647896e-05 -0.006498845 -1.0236734e-07)
(0.012118652 -0.0088922991 -4.3453711e-07)
(0.0095970543 -0.026019829 -7.4902194e-07)
(0.0082821624 -0.02860569 -8.3338728e-07)
(0.0064663382 -0.032871598 -8.2098418e-07)
(0.0049858467 -0.030290059 -7.8147559e-07)
(0.0037040386 -0.026458515 -7.3348092e-07)
(0.0026405878 -0.021707319 -6.8599056e-07)
(0.0017974348 -0.01669413 -6.4176111e-07)
(0.0011408301 -0.011693628 -6.0242803e-07)
(0.0006358565 -0.0070779078 -5.6630861e-07)
(0.00025238584 -0.0029065309 -5.3379947e-07)
(-3.014936e-05 0.00067041232 -5.0361789e-07)
(-0.00023218378 0.0040129174 -4.7946158e-07)
(-0.00036053098 0.0071986827 -4.5663157e-07)
(-0.00044076581 0.010115972 -4.3465949e-07)
(-0.00048041425 0.01264625 -4.1370538e-07)
(-0.00048795995 0.014759059 -3.9345605e-07)
(-0.00047021421 0.016473292 -3.7350567e-07)
(-0.00043272004 0.017817977 -3.5339363e-07)
(-0.00038039901 0.018822269 -3.3259505e-07)
(-0.00031760074 0.019511587 -3.1045952e-07)
(-0.0002480054 0.019911815 -2.8607763e-07)
(-0.00017371513 0.020020474 -2.5798127e-07)
(-9.7984103e-05 0.019895574 -2.3054529e-07)
(-2.250554e-05 0.019195872 -2.0318207e-07)
(0.015367754 0.022988807 -7.944137e-07)
(0.0040294304 -0.0019052745 -1.1237039e-06)
(0.0010972454 0.047652812 -1.1260731e-06)
(-0.0008800483 0.050699682 -1.0536303e-06)
(-0.0025724308 0.06502723 -9.766413e-07)
(-0.0038208975 0.075382438 -8.9112721e-07)
(-0.0045150769 0.082654762 -8.1424168e-07)
(-0.004735056 0.088707861 -7.4738486e-07)
(-0.0046629871 0.093164557 -6.8931009e-07)
(-0.0044452006 0.095938489 -6.3963276e-07)
(-0.0041562524 0.097525928 -5.9766861e-07)
(-0.0038080897 0.098020608 -5.5400325e-07)
(-0.0034556322 0.097755404 -5.2898596e-07)
(-0.0031096304 0.096436779 -5.0194865e-07)
(-0.0027607486 0.094281059 -4.7533273e-07)
(-0.0024207362 0.091854554 -4.5146308e-07)
(-0.0020996743 0.08922364 -4.2932537e-07)
(-0.0017983695 0.086473633 -4.0832979e-07)
(-0.0015159706 0.083681794 -3.8798418e-07)
(-0.0012504628 0.080906556 -3.6780153e-07)
(-0.00099932324 0.078185307 -3.4725445e-07)
(-0.00076029687 0.075560515 -3.2570751e-07)
(-0.00053138951 0.073004026 -3.0250977e-07)
(-0.00031081349 0.070703629 -2.7852413e-07)
(-9.309138e-05 0.067220255 -2.5501323e-07)
(-0.0010775261 1.1748084 -2.5185432e-06)
(-0.00053758222 0.96252875 -1.9988195e-06)
(-0.00094099233 0.86693699 -1.6165828e-06)
(-0.00069420545 0.77474382 -1.3254445e-06)
(-0.00061786271 0.67858809 -1.1106599e-06)
(-0.00054564091 0.58706217 -9.5521255e-07)
(-0.00047242492 0.50855118 -8.4058864e-07)
(-0.00040581856 0.44472274 -7.5518803e-07)
(-0.00034502746 0.39207693 -6.8613188e-07)
(-0.00029283408 0.34715167 -6.3344641e-07)
(-0.00024242009 0.30838483 -5.9288324e-07)
(-0.00019724759 0.27502639 -5.5736178e-07)
(-0.00015827377 0.24650293 -5.2762703e-07)
(-0.0001347049 0.22208558 -5.0143581e-07)
(-0.00011275687 0.20111692 -4.7758113e-07)
(-9.4125943e-05 0.18311376 -4.5550506e-07)
(-7.8629425e-05 0.16764554 -4.3470165e-07)
(-6.54857e-05 0.15434912 -4.1480711e-07)
(-5.4137185e-05 0.14292157 -3.9551231e-07)
(-4.4114452e-05 0.13311328 -3.7648105e-07)
(-3.4999835e-05 0.12470802 -3.5731898e-07)
(-2.63459e-05 0.11756374 -3.3749755e-07)
(-1.8125707e-05 0.11143845 -3.1670125e-07)
(-1.0366156e-05 0.10661527 -2.9469235e-07)
(-2.9382966e-06 0.10059978 -2.7088696e-07)
(-0.013354064 0.088762622 -1.2253414e-06)
(-0.0027194127 0.097360352 -1.267826e-06)
(-0.00022960985 0.10359475 -1.222891e-06)
(0.0015147171 0.1055165 -1.1327563e-06)
(0.0030373173 0.10773282 -1.0305756e-06)
(0.0041579591 0.10953112 -9.3111466e-07)
(0.0047631589 0.11124631 -8.4215333e-07)
(0.00491776 0.11280285 -7.6539786e-07)
(0.0047967402 0.11362002 -6.8471594e-07)
(0.0045254962 0.11370128 -6.4053741e-07)
(0.0042122525 0.11299472 -5.9995553e-07)
(0.0038761455 0.11131011 -5.5715739e-07)
(0.0035057211 0.10877059 -5.2116702e-07)
(0.0031349383 0.10573808 -4.9025135e-07)
(0.0027756057 0.10245469 -4.6308201e-07)
(0.0024336304 0.099043551 -4.3871414e-07)
(0.0021091284 0.095588919 -4.1644711e-07)
(0.0018041875 0.092159095 -3.9570899e-07)
(0.0015184333 0.088804954 -3.7597984e-07)
(0.0012503763 0.085564274 -3.567389e-07)
(0.00099796532 0.082458753 -3.374012e-07)
(0.00075895238 0.079518135 -3.1721371e-07)
(0.00053065955 0.076705038 -2.9649662e-07)
(0.00031086418 0.074211486 -2.7404415e-07)
(9.3702155e-05 0.070513743 -2.5147073e-07)
(-0.0098879157 -0.042474426 -8.5529129e-07)
(-0.0082031941 -0.039954543 -9.2048937e-07)
(-0.0066703659 -0.037965057 -9.0761904e-07)
(-0.0052059153 -0.034322533 -8.615378e-07)
(-0.0038742075 -0.029217718 -8.0326151e-07)
(-0.0027320234 -0.023487179 -7.4194013e-07)
(-0.0017963001 -0.017612814 -6.8500125e-07)
(-0.0010641856 -0.011923628 -6.3291595e-07)
(-0.00050781753 -0.0068476811 -5.8470494e-07)
(-8.9518076e-05 -0.0023633416 -5.4855823e-07)
(0.00021373529 0.0014862865 -5.1533532e-07)
(0.00042526663 0.0052467489 -4.843533e-07)
(0.00056415801 0.0088356522 -4.5650187e-07)
(0.00064676732 0.012036977 -4.3147686e-07)
(0.00068458504 0.014788641 -4.0871628e-07)
(0.00068618249 0.017093105 -3.8770884e-07)
(0.00066243369 0.018989508 -3.6804501e-07)
(0.00061785078 0.020516716 -3.4925162e-07)
(0.00055675824 0.021693751 -3.3083486e-07)
(0.00048292515 0.022542748 -3.1222807e-07)
(0.00039963696 0.023085673 -2.9264762e-07)
(0.00030981351 0.023343653 -2.7071683e-07)
(0.00021635067 0.023327595 -2.4929906e-07)
(0.00012246643 0.023080876 -2.233149e-07)
(2.9771741e-05 0.022229529 -1.9787059e-07)
(-0.0052158427 -0.01728087 -5.8319795e-07)
(-0.0047771716 -0.019508899 -6.5896301e-07)
(-0.0044116877 -0.022061754 -6.736322e-07)
(-0.0040439708 -0.023910994 -6.5673303e-07)
(-0.0036619945 -0.02502925 -6.2714004e-07)
(-0.0032661077 -0.025319019 -5.9459376e-07)
(-0.0028932318 -0.024964643 -5.5522282e-07)
(-0.002544125 -0.024186345 -5.183855e-07)
(-0.0022219373 -0.02314729 -4.8501355e-07)
(-0.0019352952 -0.021916812 -4.5650843e-07)
(-0.0016771979 -0.020579485 -4.306085e-07)
(-0.0014387485 -0.019116633 -4.0675585e-07)
(-0.0012247474 -0.017597036 -3.8491814e-07)
(-0.0010367324 -0.01607261 -3.6490715e-07)
(-0.00087289092 -0.014577769 -3.4620246e-07)
(-0.00073165576 -0.013147519 -3.2839172e-07)
(-0.00060753198 -0.011820196 -3.1136624e-07)
(-0.00049972343 -0.01062304 -2.9455856e-07)
(-0.00040646304 -0.0095587247 -2.7744566e-07)
(-0.00032571889 -0.0086286597 -2.5940233e-07)
(-0.00025538371 -0.0078333058 -2.395725e-07)
(-0.00019325728 -0.0071721859 -2.1678298e-07)
(-0.00013718074 -0.0066417301 -1.8982891e-07)
(-8.4725567e-05 -0.0062015277 -1.5336136e-07)
(-3.309625e-05 -0.0059027313 -9.848271e-08)
(-0.0018191339 -0.0047778164 -4.2223047e-07)
(-0.0017434048 -0.0055873595 -4.914481e-07)
(-0.0017506358 -0.0064187128 -5.1839316e-07)
(-0.0017955596 -0.0072295745 -5.1896974e-07)
(-0.0018102044 -0.0081028128 -5.0495176e-07)
(-0.001797742 -0.0091577898 -4.8343256e-07)
(-0.0017493163 -0.010292526 -4.5716726e-07)
(-0.0016703903 -0.011264559 -4.3061576e-07)
(-0.0015691643 -0.01207204 -4.0563424e-07)
(-0.0014600371 -0.012719372 -3.8290587e-07)
(-0.0013458651 -0.013226324 -3.6198613e-07)
(-0.001231686 -0.013595624 -3.4258215e-07)
(-0.0011185315 -0.013834959 -3.2454149e-07)
(-0.001007767 -0.013928069 -3.0800681e-07)
(-0.00090029271 -0.013901752 -2.9211155e-07)
(-0.00079572093 -0.013795896 -2.7691309e-07)
(-0.00069682855 -0.013634536 -2.6175788e-07)
(-0.00060208005 -0.013431458 -2.4634948e-07)
(-0.00051092255 -0.013195277 -2.3020089e-07)
(-0.000423033 -0.012932754 -2.1269183e-07)
(-0.00033818936 -0.01264925 -1.9289312e-07)
(-0.00025627705 -0.012350002 -1.6941959e-07)
(-0.00017736891 -0.01203811 -1.40254e-07)
(-0.00010183995 -0.011675728 -1.0116907e-07)
(-3.1516009e-05 -0.011221425 -5.1346232e-08)
(-0.00053904795 -0.0013785184 -3.1994679e-07)
(-0.00044757028 -0.0016694699 -3.7476533e-07)
(-0.00041135656 -0.00199588 -4.0289297e-07)
(-0.00043891136 -0.0023381223 -4.1146901e-07)
(-0.00049326418 -0.0027039218 -4.0720485e-07)
(-0.0005598452 -0.0031178217 -3.9508412e-07)
(-0.00061084681 -0.0035615428 -3.7834307e-07)
(-0.00064010637 -0.0039884837 -3.5982793e-07)
(-0.00065166455 -0.0043855277 -3.4125168e-07)
(-0.00064444491 -0.004745124 -3.2344253e-07)
(-0.00062493206 -0.0050681816 -3.0658013e-07)
(-0.00059610484 -0.0053578032 -2.9065918e-07)
(-0.00056037489 -0.0056265106 -2.7562665e-07)
(-0.00051997266 -0.0059003919 -2.6142258e-07)
(-0.00047630988 -0.0061706656 -2.4771941e-07)
(-0.00043006991 -0.0064012195 -2.3430644e-07)
(-0.00038274646 -0.0065844514 -2.2080237e-07)
(-0.0003348028 -0.0067185875 -2.068404e-07)
(-0.00028658344 -0.0068033951 -1.9195295e-07)
(-0.00023845172 -0.0068385984 -1.7569933e-07)
(-0.00019076749 -0.0068252065 -1.5729494e-07)
(-0.00014397108 -0.006766306 -1.3534682e-07)
(-9.8588794e-05 -0.0066663207 -1.0860337e-07)
(-5.5215344e-05 -0.0065073167 -7.4790417e-08)
(-1.5351183e-05 -0.0062154839 -3.438715e-08)
(-0.00030318924 -0.00036302262 -2.4932542e-07)
(-0.00019520006 -0.00033435371 -2.9038139e-07)
(-0.00011229442 -0.00033468418 -3.150956e-07)
(-5.464053e-05 -0.00037149679 -3.2620084e-07)
(-4.1563045e-05 -0.0004467464 -3.2722633e-07)
(-4.7008243e-05 -0.00055011165 -3.2135348e-07)
(-6.8618011e-05 -0.00067307299 -3.1110112e-07)
(-9.5525793e-05 -0.00081568546 -2.9851028e-07)
(-0.00012267852 -0.00096288309 -2.8498878e-07)
(-0.00014141476 -0.0011045852 -2.7136913e-07)
(-0.00015478326 -0.0012387156 -2.580448e-07)
(-0.0001613755 -0.0013611958 -2.4517602e-07)
(-0.00016182478 -0.0014711157 -2.3279938e-07)
(-0.00015727819 -0.0015699803 -2.208644e-07)
(-0.00014858302 -0.0016567395 -2.0920406e-07)
(-0.00013678416 -0.0017285714 -1.9761576e-07)
(-0.00012353874 -0.001786067 -1.8582576e-07)
(-0.00010927721 -0.0018293177 -1.7352267e-07)
(-9.4362688e-05 -0.0018583804 -1.6033955e-07)
(-7.9118046e-05 -0.0018732145 -1.4587109e-07)
(-6.3827543e-05 -0.0018739578 -1.2961459e-07)