/*--------------------------------*- C++ -*----------------------------------*\
| =========                 |                                                 |
| \\      /  F ield         | OpenFOAM: The Open Source CFD Toolbox           |
|  \\    /   O peration     | Version:  4.0                                   |
|   \\  /    A nd           | Web:      www.OpenFOAM.org                      |
|    \\/     M anipulation  |                                                 |
\*---------------------------------------------------------------------------*/
FoamFile
{
    version     2.0;
    format      ascii;
    class       volScalarField;
    location    "0.52";
    object      k;
}
// * * * * * * * * * * * * * * * * * * * * * * * * * * * * * * * * * * * * * //

dimensions      [0 2 -2 0 0 0 0];

internalField   nonuniform List<scalar> 
1740
(
0.0088239067
0.0094311552
0.018406759
0.0092391572
0.0098742628
0.027391564
0.0095622164
0.010473996
0.034757257
0.009836667
0.010824174
0.041575125
0.010020118
0.011026882
0.0474259
0.010098048
0.011269395
0.052334806
0.010172672
0.011667448
0.056600576
0.010171984
0.012221364
0.059881287
0.010190216
0.012458469
0.06266855
0.010063032
0.012763657
0.064703924
0.010006712
0.013121546
0.066372423
0.009946464
0.013386943
0.067896163
0.0099340555
0.013326501
0.068818518
0.0098263333
0.013445836
0.06976845
0.0097769629
0.013538813
0.070286858
0.0095877326
0.013719343
0.071540978
0.009424587
0.014214777
0.072567555
0.009281746
0.014310902
0.072004746
0.0091732181
0.014390288
0.072610007
0.0090852765
0.014817587
0.073051489
0.0089691264
0.014578112
0.072349141
0.0088081669
0.014362732
0.072958433
0.0087024066
0.014457978
0.073698289
0.0087095764
0.014738269
0.073436165
0.0086064182
0.014809832
0.07334393
0.0084257634
0.014872901
0.073242237
0.0083500526
0.014964334
0.073208579
0.0083819029
0.015214712
0.072997679
0.0084031535
0.015398336
0.072071903
0.0090181846
0.016457221
0.066878994
0.012754549
0.018299721
0.047567839
0.024024395
0.031252882
0.039998777
0.010288942
0.012558501
0.013758041
0.0042641464
0.0045962244
0.0046596706
0.0020764064
0.0021189491
0.0020928245
0.0011426887
0.0011436775
0.001125458
0.00069056087
0.00068810442
0.00068010111
0.00044872321
0.00044742299
0.00044474611
0.00030783134
0.00030749572
0.00030712893
0.00021940243
0.00021952137
0.00022001787
0.00016022409
0.0001604974
0.00016121975
0.00011847155
0.00011875946
0.00011945104
8.7813859e-05
8.8062223e-05
8.8635536e-05
6.4718207e-05
6.4912453e-05
6.5351784e-05
4.7122297e-05
4.7264566e-05
4.7582786e-05
3.3743301e-05
3.3842072e-05
3.406163e-05
2.3704905e-05
2.3770264e-05
2.3914894e-05
1.6336735e-05
1.6378015e-05
1.6469072e-05
1.107663e-05
1.1101542e-05
1.1156378e-05
7.4353737e-06
7.4497458e-06
7.4813635e-06
4.9949466e-06
5.0029249e-06
5.0204749e-06
3.4141475e-06
3.4184788e-06
3.4279885e-06
2.4252473e-06
2.4275942e-06
2.4327341e-06
1.8290023e-06
1.8303188e-06
1.8331975e-06
1.4852679e-06
1.4860769e-06
1.4878448e-06
1.2993611e-06
1.2999319e-06
1.30118e-06
1.2094624e-06
1.2099244e-06
1.2109358e-06
1.1764262e-06
1.1768364e-06
1.1777355e-06
1.1761413e-06
1.1765221e-06
1.1773569e-06
1.1941196e-06
1.1944779e-06
1.1952634e-06
1.2218338e-06
1.2221708e-06
1.2229096e-06
1.2543291e-06
1.2546444e-06
1.2553356e-06
1.2887113e-06
1.2890047e-06
1.2896476e-06
1.3232119e-06
1.3234836e-06
1.3240786e-06
1.3566147e-06
1.3568652e-06
1.3574137e-06
1.3878989e-06
1.3881293e-06
1.3886333e-06
1.4160062e-06
1.4162175e-06
1.4166797e-06
1.4396704e-06
1.4398639e-06
1.4402871e-06
1.4572783e-06
1.4574553e-06
1.4578422e-06
1.4667424e-06
1.4669041e-06
1.4672575e-06
1.4653861e-06
1.4655337e-06
1.465856e-06
1.4498498e-06
1.4499841e-06
1.4502775e-06
1.4160462e-06
1.416168e-06
1.4164341e-06
1.3592098e-06
1.3593196e-06
1.3595593e-06
1.2740972e-06
1.2741948e-06
1.2744082e-06
1.1554301e-06
1.1555152e-06
1.1557015e-06
9.9865646e-07
9.9872818e-07
9.9888608e-07
8.0114955e-07
8.0120676e-07
8.0133412e-07
5.6404063e-07
5.6408165e-07
5.6417456e-07
2.9567382e-07
2.9569608e-07
2.9574742e-07
0.056545591
0.061187429
0.046234866
0.046712376
0.012499733
0.011357472
0.0043547755
0.0041221421
0.0020008689
0.0019414716
0.0010955292
0.0010799847
0.00067102106
0.00066895346
0.00044296165
0.00044493529
0.000307811
0.0003106665
0.00022138055
0.00022408155
0.00016260488
0.00016485624
0.00012063511
0.00012239957
8.9567486e-05
9.089503e-05
6.6046627e-05
6.7011428e-05
4.8078191e-05
4.8755569e-05
3.4400176e-05
3.4858628e-05
2.4136551e-05
2.4434804e-05
1.660802e-05
1.6794132e-05
1.1239784e-05
1.1351104e-05
7.5293588e-06
7.593243e-06
5.047082e-06
5.082411e-06
3.4423751e-06
3.4614212e-06
2.4404887e-06
2.4507252e-06
1.8375306e-06
1.8432381e-06
1.4905029e-06
1.4940006e-06
1.3030571e-06
1.3055289e-06
1.2124587e-06
1.2144677e-06
1.1790907e-06
1.1808815e-06
1.1786161e-06
1.1802814e-06
1.1964484e-06
1.1980157e-06
1.2240236e-06
1.2254967e-06
1.2563773e-06
1.257754e-06
1.2906159e-06
1.2918946e-06
1.3249741e-06
1.3261558e-06
1.3582387e-06
1.3593263e-06
1.3893911e-06
1.3903891e-06
1.4173741e-06
1.4182879e-06
1.4409224e-06
1.4417576e-06
1.4584226e-06
1.4591849e-06
1.4677872e-06
1.4684822e-06
1.4663388e-06
1.4669715e-06
1.4507167e-06
1.4512916e-06
1.4168322e-06
1.4173528e-06
1.3599178e-06
1.3603864e-06
1.2747277e-06
1.2751458e-06
1.1559816e-06
1.1563501e-06
9.9912582e-07
9.994452e-07
8.0153128e-07
8.0180025e-07
5.643226e-07
5.6453107e-07
2.9583161e-07
2.9595349e-07
4.4663532e-06
2.7058326e-05
0.000134507
0.00030513543
0.00046242023
0.00057340113
0.00064368647
0.00068728917
0.00071599548
0.00073693941
0.0007541599
0.00077066946
0.00078614304
0.00080033688
0.00081293878
0.00082339906
0.00083073398
0.00083327809
0.00082831404
0.00081156046
0.00077646471
0.00071334135
0.00060870756
0.00044555332
0.00020336176
2.5454515e-06
5.4798053e-05
0.00025124966
0.00051628858
0.00072830179
0.00085982412
0.00093572594
0.00098019086
0.0010086651
0.0010291814
0.0010459872
0.0010616155
0.0010759457
0.0010887078
0.0010995067
0.00110772
0.0011122163
0.001111081
0.0011011151
0.0010771936
0.0010313159
0.00095122016
0.00081864247
0.00060805657
0.00028808272
7.9435587e-06
0.00016009196
0.0006165901
0.0010807447
0.0013638504
0.001506548
0.0015739218
0.0016053964
0.0016209706
0.0016291126
0.0016342075
0.0016371886
0.0016392462
0.0016397369
0.0016381722
0.0016340817
0.0016264075
0.0016133534
0.0015915051
0.0015552626
0.0014955996
0.001397802
0.001237171
0.00097077443
0.00052289037
3.754832e-05
0.00057964089
0.0016868561
0.0024384088
0.0027753393
0.0028892081
0.002898494
0.0028681959
0.0028280529
0.0027830543
0.0027382927
0.002695655
0.0026556359
0.0026150553
0.002573388
0.0025310507
0.00248755
0.0024414633
0.0023900431
0.0023285114
0.0022489545
0.0021380864
0.0019715821
0.0016964973
0.0011557926
0.00028108994
0.0024479609
0.0049166803
0.0060386026
0.0063853491
0.0063238988
0.0060947529
0.0058320863
0.0055827034
0.0053314885
0.0050910734
0.0048665565
0.0046629654
0.0044654303
0.004273662
0.0040923176
0.0039223267
0.0037631277
0.0036129135
0.003468188
0.0033232783
0.0031699236
0.0029970949
0.0027964258
0.0025862579
0.0023651481
0.010552768
0.016599806
0.018547879
0.018084475
0.016523922
0.014706369
0.013016139
0.011532811
0.010255727
0.0091636927
0.0082339239
0.0074409252
0.0067608313
0.0061759987
0.0056730978
0.0052407822
0.0048687724
0.0045476992
0.0042687462
0.0040230612
0.0038016537
0.0035959039
0.003405096
0.003244653
0.045227464
0.034255306
0.026681626
0.021472495
0.017788005
0.015066658
0.012970441
0.01131216
0.0099813799
0.0089008505
0.0080118762
0.0072699774
0.0066417737
0.0061026413
0.005634621
0.005225217
0.0048658295
0.0045500484
0.0042724895
0.0040279982
0.0038110276
0.0036156061
0.0034359925
0.0032735237
0.0031433557
0.037383133
0.031043323
0.027813071
0.025170291
0.022289332
0.019307819
0.01658577
0.014284709
0.012402451
0.010860758
0.0095898222
0.0085327156
0.0076459023
0.0068995316
0.0062697928
0.005737185
0.0052853945
0.0049007596
0.0045715757
0.0042873242
0.0040379268
0.0038135738
0.0036050792
0.003411582
0.0032489244
0.010219916
0.0095468568
0.0092074402
0.0088879588
0.0084260825
0.0078615669
0.0073052919
0.0068092188
0.0063580451
0.0059598485
0.0056117215
0.0053073235
0.0050214161
0.0047571552
0.00451598
0.0042971172
0.0040985459
0.0039173537
0.0037496341
0.0035903354
0.0034327142
0.0032678004
0.0030841021
0.0028730471
0.0026531968
0.0039654807
0.0038934108
0.0038718495
0.0038317454
0.0037378107
0.0036031941
0.0034638636
0.0033346758
0.0032182458
0.003116721
0.0030291384
0.0029523652
0.0028808159
0.0028139231
0.002751512
0.0026927427
0.0026359442
0.0025785076
0.0025166401
0.0024448312
0.0023547585
0.0022330014
0.0020552068
0.0017676823
0.0012080582
0.0019244237
0.0019383348
0.0019638629
0.0019790559
0.0019728748
0.0019488934
0.0019181499
0.0018876513
0.001860463
0.0018379047
0.0018197614
0.0018047795
0.0017912869
0.0017786112
0.0017663857
0.0017533847
0.0017377183
0.001716582
0.0016859044
0.0016397122
0.0015689551
0.0014592585
0.001286436
0.00100759
0.00054534923
0.0010843953
0.0011030607
0.0011268819
0.0011471373
0.0011593066
0.0011641646
0.0011652946
0.0011657002
0.001167115
0.0011702838
0.0011751657
0.0011811863
0.001187551
0.001193568
0.0011984663
0.0012010197
0.0011993923
0.0011909466
0.0011719548
0.0011371363
0.0010789082
0.00098619887
0.00084271138
0.00062503915
0.00030238469
0.00067627607
0.00069071699
0.00070817272
0.00072480261
0.00073848485
0.00074917763
0.0007581054
0.00076657746
0.00077548548
0.0007852521
0.00079587683
0.00080705
0.00081827685
0.0008289501
0.00083826076
0.00084504447
0.0008476663
0.00084388218
0.00083066491
0.00080397571
0.00075848385
0.00068727738
0.00058166988
0.00043093687
0.00021759222
0.00045162304
0.00046209242
0.00047450195
0.00048705901
0.00049868371
0.00050918164
0.00051895479
0.0005285577
0.00053842573
0.00054877703
0.00055959777
0.00057067888
0.00058165105
0.00059199438
0.0006009904
0.00060764533
0.00061061626
0.00060813596
0.00059794541
0.00057725699
0.00054282328
0.00049131239
0.00042053684
0.00033321937
0.00024939591
0.00031608384
0.00032365102
0.00033251703
0.00034181374
0.00035096661
0.00035979113
0.00036839849
0.00037701313
0.00038583131
0.00039494488
0.00040431618
0.00041377663
0.00042302887
0.00043163767
0.00043900072
0.00044430751
0.00044650089
0.00044425019
0.00043595235
0.00041979925
0.00039399545
0.0003573144
0.00031040181
0.0002586607
0.00021773003
0.0002282817
0.00023378609
0.00024018355
0.0002470358
0.00025402814
0.00026102225
0.00026802723
0.00027512128
0.00028237903
0.00028982289
0.00029739712
0.00030495556
0.0003122526
0.00031893068
0.00032450124
0.00032832337
0.00032958807
0.00032731746
0.00032039566
0.00030765839
0.00028809361
0.0002612442
0.00022796102
0.0001916629
0.00015772914
0.000168039
0.00017205463
0.00017669546
0.00018173157
0.00018698427
0.00019235699
0.00019782586
0.00020340651
0.00020911501
0.0002149384
0.00022081304
0.00022661198
0.00023213357
0.0002370899
0.00024109493
0.00024365347
0.00024415702
0.00024189294
0.00023607577
0.00022591221
0.00021070754
0.00018999605
0.00016355121
0.00013056731
8.4090839e-05
0.00012476847
0.00012768805
0.0001310486
0.00013472512
0.00013861256
0.00014264457
0.00014679043
0.00015104032
0.00015538456
0.00015979492
0.00016420922
0.00016852023
0.00017256571
0.00017611939
0.00017888323
0.00018048188
0.00018046292
0.00017830619
0.0001734451
0.00016529945
0.00015330724
0.00013690928
0.00011535135
8.6928812e-05
4.6654946e-05
9.2624772e-05
9.4725418e-05
9.713634e-05
9.9786831e-05
0.00010261349
0.00010557051
0.00010862959
0.0001117727
0.00011498077
0.00011822198
0.00012144118
0.00012455133
0.00012742577
0.00012989146
0.00013172367
0.0001326432
0.00013231734
0.00013036627
0.00012637468
0.00011990474
0.00011049805
9.7637771e-05
8.0622731e-05
5.8307639e-05
2.878077e-05
6.8245928e-05
6.973097e-05
7.1431682e-05
7.3306416e-05
7.5315739e-05
7.7428382e-05
7.9621037e-05
8.1874997e-05
8.4169933e-05
8.6476586e-05
8.8749541e-05
9.0921121e-05
9.289573e-05
9.4545014e-05
9.5704107e-05
9.6169805e-05
9.5701222e-05
9.4023344e-05
9.0832771e-05
8.5803164e-05
7.8584532e-05
6.8789255e-05
5.5966654e-05
3.9612302e-05
1.927347e-05
4.9612581e-05
5.0636863e-05
5.1807684e-05
5.3099797e-05
5.4488287e-05
5.5951535e-05
5.747171e-05
5.9032645e-05
6.0616334e-05
6.2198639e-05
6.3744496e-05
6.520364e-05
6.6506599e-05
6.7561337e-05
6.8250614e-05
6.8430529e-05
6.7930578e-05
6.655544e-05
6.4088054e-05
6.0293534e-05
5.4923609e-05
4.7725406e-05
3.8469999e-05
2.7036111e-05
1.3668721e-05
3.5434315e-05
3.6119145e-05
3.6900396e-05
3.7762543e-05
3.8689643e-05
3.9666914e-05
4.0681139e-05
4.1719597e-05
4.2768087e-05
4.3808117e-05
4.4814056e-05
4.5750226e-05
4.6568209e-05
4.7204526e-05
4.757868e-05
4.7592e-05
4.7127346e-05
4.6049852e-05
4.4208983e-05
4.1442459e-05
3.7584121e-05
3.2481697e-05
2.603683e-05
1.8282363e-05
9.5096351e-06
2.4807287e-05
2.5248748e-05
2.5751228e-05
2.6305067e-05
2.6900038e-05
2.7526198e-05
2.8174113e-05
2.8834407e-05
2.9496592e-05
3.0147413e-05
3.0769058e-05
3.133733e-05
3.1819893e-05
3.217467e-05
3.2348472e-05
3.227602e-05
3.1879524e-05
3.1068933e-05
2.9743452e-05
2.7795205e-05
2.5117334e-05
2.1620978e-05
1.7267677e-05
1.2119159e-05
6.3794076e-06
1.7025557e-05
1.7298929e-05
1.7609258e-05
1.7950495e-05
1.8316102e-05
1.8699523e-05
1.9094297e-05
1.9493867e-05
1.9890885e-05
2.0276311e-05
2.0638358e-05
2.0961305e-05
2.1224421e-05
2.1400887e-05
2.1456837e-05
2.1350597e-05
2.1032238e-05
2.044363e-05
1.9519532e-05
1.8190575e-05
1.6389772e-05
1.4065193e-05
1.1201745e-05
7.8507346e-06
4.1424266e-06
1.1489026e-05
1.1651405e-05
1.1835143e-05
1.2036476e-05
1.2251265e-05
1.2475266e-05
1.2704235e-05
1.2933764e-05
1.3158943e-05
1.3373872e-05
1.3571033e-05
1.3740607e-05
1.3869757e-05
1.3941953e-05
1.393631e-05
1.3827023e-05
1.3582974e-05
1.31677e-05
1.2540136e-05
1.1656783e-05
1.0476296e-05
8.9678178e-06
7.1243537e-06
4.9800464e-06
2.6291793e-06
7.6721525e-06
7.7647493e-06
7.869139e-06
7.9830115e-06
8.1037917e-06
8.2288041e-06
8.3553269e-06
8.4804991e-06
8.6011599e-06
8.713581e-06
8.8131072e-06
8.8937527e-06
8.94776e-06
8.9651651e-06
8.9333406e-06
8.8366033e-06
8.6559506e-06
8.3689265e-06
7.9501013e-06
7.372578e-06
6.611013e-06
5.6467919e-06
4.4759869e-06
3.1199852e-06
1.6391876e-06
5.1259176e-06
5.1767823e-06
5.2338667e-06
5.2957779e-06
5.360954e-06
5.4277541e-06
5.4944756e-06
5.5593243e-06
5.6203261e-06
5.6751836e-06
5.7210723e-06
5.7544e-06
5.7705319e-06
5.7634892e-06
5.7256039e-06
5.647207e-06
5.5166257e-06
5.320136e-06
5.0420101e-06
4.6655816e-06
4.175241e-06
3.559622e-06
2.8163816e-06
1.9589118e-06
1.026576e-06
3.4847945e-06
3.5119945e-06
3.5423452e-06
3.5750192e-06
3.6090855e-06
3.643552e-06
3.6773747e-06
3.7094464e-06
3.738548e-06
3.763266e-06
3.781877e-06
3.7921992e-06
3.7914203e-06
3.7758967e-06
3.7409265e-06
3.680513e-06
3.5871074e-06
3.4518633e-06
3.2648843e-06
3.0156149e-06
2.6942066e-06
2.2935335e-06
1.8121503e-06
1.2585354e-06
6.6091648e-07
2.4632419e-06
2.4777377e-06
2.4938129e-06
2.5109796e-06
2.5286836e-06
2.546323e-06
2.5632561e-06
2.5787912e-06
2.5921586e-06
2.602458e-06
2.6085865e-06
2.6091417e-06
2.6023081e-06
2.5857236e-06
2.5563373e-06
2.5102481e-06
2.4424567e-06
2.346828e-06
2.2166404e-06
2.044834e-06
1.824852e-06
1.5519845e-06
1.225324e-06
8.5049419e-07
4.4432726e-07
1.8501963e-06
1.8582268e-06
1.8670913e-06
1.8764999e-06
1.8861173e-06
1.8955718e-06
1.9044586e-06
1.912328e-06
1.9186675e-06
1.9228631e-06
1.924148e-06
1.9215333e-06
1.9137242e-06
1.8990209e-06
1.8752088e-06
1.8394466e-06
1.7881699e-06
1.7169526e-06
1.6207335e-06
1.4943418e-06
1.3330126e-06
1.1333495e-06
8.9471003e-07
6.2097156e-07
3.2336478e-07
1.4982617e-06
1.5031775e-06
1.5086026e-06
1.5143585e-06
1.5202344e-06
1.5259899e-06
1.5313537e-06
1.5360122e-06
1.539593e-06
1.5416342e-06
1.5415428e-06
1.5385385e-06
1.5315865e-06
1.5193167e-06
1.4999352e-06
1.4711371e-06
1.4300356e-06
1.3731335e-06
1.2963263e-06
1.1954208e-06
1.0665804e-06
9.0708146e-07
7.1635954e-07
4.9721626e-07
2.5803509e-07
1.3085461e-06
1.3120384e-06
1.3159123e-06
1.3200503e-06
1.3243103e-06
1.3285244e-06
1.332494e-06
1.3359789e-06
1.3386796e-06
1.3402109e-06
1.3400639e-06
1.3375572e-06
1.3317764e-06
1.3215042e-06
1.3051428e-06
1.2806406e-06
1.2454347e-06
1.1964463e-06
1.1300953e-06
1.0426766e-06
9.3081253e-07
7.9210936e-07
6.2603424e-07
4.3497845e-07
2.2624844e-07
1.2169279e-06
1.2197898e-06
1.2229874e-06
1.2264363e-06
1.2300314e-06
1.2336433e-06
1.2371121e-06
1.2402351e-06
1.2427497e-06
1.2443063e-06
1.2444336e-06
1.2424916e-06
1.2376151e-06
1.2286478e-06
1.2140707e-06
1.1919352e-06
1.1598135e-06
1.1147993e-06
1.0535548e-06
9.7259935e-07
8.6876365e-07
7.3979979e-07
5.8516004e-07
4.0694931e-07
2.1190492e-07
1.1830802e-06
1.1856485e-06
1.1885349e-06
1.1916722e-06
1.1949749e-06
1.198334e-06
1.2016094e-06
1.2046173e-06
1.207112e-06
1.2087594e-06
1.2091022e-06
1.2075133e-06
1.2031411e-06
1.1948443e-06
1.181123e-06
1.1600542e-06
1.1292468e-06
1.0858446e-06
1.0265939e-06
9.4809529e-07
8.4725452e-07
7.2187539e-07
5.7138734e-07
3.9772786e-07
2.0798974e-07
1.1823291e-06
1.1847266e-06
1.1874299e-06
1.1903811e-06
1.1935049e-06
1.1967031e-06
1.1998457e-06
1.2027581e-06
1.205202e-06
1.2068486e-06
1.2072428e-06
1.2057574e-06
1.2015369e-06
1.1934326e-06
1.1799342e-06
1.159106e-06
1.1285429e-06
1.085377e-06
1.0263562e-06
9.4808426e-07
8.4746989e-07
7.2231709e-07
5.7203834e-07
3.9852968e-07
2.0877542e-07
1.1999439e-06
1.2022032e-06
1.2047539e-06
1.2075431e-06
1.2105012e-06
1.2135358e-06
1.2165222e-06
1.2192903e-06
1.2216044e-06
1.2231363e-06
1.223428e-06
1.2218454e-06
1.2175212e-06
1.2092889e-06
1.1956137e-06
1.1745279e-06
1.1435884e-06
1.0998838e-06
1.0401215e-06
9.6086672e-07
8.5899197e-07
7.32273e-07
5.8010477e-07
4.0441197e-07
2.1300762e-07
1.2273084e-06
1.229431e-06
1.2318269e-06
1.2344466e-06
1.2372237e-06
1.2400692e-06
1.2428617e-06
1.245433e-06
1.247548e-06
1.2488764e-06
1.2489551e-06
1.2471404e-06
1.2425494e-06
1.2339931e-06
1.2199055e-06
1.1982785e-06
1.1666187e-06
1.1219562e-06
1.060937e-06
9.8006553e-07
8.7615744e-07
7.4694478e-07
5.9179875e-07
4.1267907e-07
2.1784253e-07
1.2594459e-06
1.2614265e-06
1.2636601e-06
1.2660992e-06
1.2686797e-06
1.2713151e-06
1.2738856e-06
1.2762242e-06
1.2780951e-06
1.279165e-06
1.2789644e-06
1.2768386e-06
1.2718877e-06
1.2628982e-06
1.2482703e-06
1.2259514e-06
1.193393e-06
1.1475599e-06
1.0850269e-06
1.0022272e-06
8.9591079e-07
7.6376204e-07
6.0512555e-07
4.2193457e-07
2.2258768e-07
1.2934647e-06
1.2953005e-06
1.2973679e-06
1.2996209e-06
1.3019973e-06
1.3044122e-06
1.3067471e-06
1.3088354e-06
1.3104401e-06
1.3112242e-06
1.3107114e-06
1.3082355e-06
1.302879e-06
1.293403e-06
1.2781732e-06
1.2550916e-06
1.2215531e-06
1.1744551e-06
1.1102984e-06
1.0254418e-06
9.1656941e-07
7.8132821e-07
6.1906891e-07
4.317428e-07
2.2779577e-07
1.3276051e-06
1.3292975e-06
1.3311998e-06
1.3332676e-06
1.3354403e-06
1.3376342e-06
1.3397318e-06
1.3415662e-06
1.3428991e-06
1.3433895e-06
1.3425539e-06
1.3397144e-06
1.3339358e-06
1.3239541e-06
1.3081005e-06
1.2842325e-06
1.249689e-06
1.201301e-06
1.1354966e-06
1.0485617e-06
9.3711829e-07
7.9878341e-07
6.329318e-07
4.4156024e-07
2.3312394e-07
1.3606587e-06
1.3622122e-06
1.3639548e-06
1.3658434e-06
1.3678185e-06
1.3697977e-06
1.371664e-06
1.3732502e-06
1.3743161e-06
1.3745166e-06
1.3733609e-06
1.3701594e-06
1.3639596e-06
1.3534729e-06
1.3369974e-06
1.3123475e-06
1.2768086e-06
1.227149e-06
1.159728e-06
1.0707636e-06
9.5681969e-07
8.1548036e-07
6.4611933e-07
4.5073506e-07
2.3787319e-07
1.3916103e-06
1.3930318e-06
1.3946227e-06
1.3963408e-06
1.3981281e-06
1.3999028e-06
1.4015484e-06
1.4028972e-06
1.4037067e-06
1.4036277e-06
1.4021622e-06
1.398609e-06
1.391999e-06
1.3810201e-06
1.3639393e-06
1.3385307e-06
1.3020307e-06
1.25115e-06
1.1821862e-06
1.091297e-06
9.7499446e-07
8.3082993e-07
6.5816301e-07
4.5898378e-07
2.4199308e-07
1.4194046e-06
1.4207021e-06
1.4221505e-06
1.4237087e-06
1.4253196e-06
1.426902e-06
1.4283398e-06
1.4294643e-06
1.430031e-06
1.4296864e-06
1.4279253e-06
1.4240358e-06
1.417033e-06
1.4055834e-06
1.3879252e-06
1.3617968e-06
1.3243915e-06
1.2723708e-06
1.2019802e-06
1.1093278e-06
9.9088325e-07
8.4416777e-07
6.6852483e-07
4.6596561e-07
2.4543717e-07
1.4427769e-06
1.4439589e-06
1.4452747e-06
1.446684e-06
1.4481304e-06
1.4495336e-06
1.4507772e-06
1.4516918e-06
1.4520307e-06
1.4514362e-06
1.4493965e-06
1.4451897e-06
1.4378168e-06
1.4259252e-06
1.4077291e-06
1.3809368e-06
1.342707e-06
1.2896632e-06
1.2180127e-06
1.1238295e-06
1.0035553e-06
8.5469331e-07
6.7658786e-07
4.7131456e-07
2.480808e-07
1.460114e-06
1.4611891e-06
1.462382e-06
1.4636533e-06
1.4649474e-06
1.4661843e-06
1.4672476e-06
1.467967e-06
1.4680937e-06
1.4672664e-06
1.4649673e-06
1.460466e-06
1.4527518e-06
1.4404569e-06
1.4217768e-06
1.3943986e-06
1.3554575e-06
1.301555e-06
1.228879e-06
1.133491e-06
1.0118269e-06
8.6139285e-07
6.8156304e-07
4.7453464e-07
2.4976438e-07
1.4693278e-06
1.4703041e-06
1.4713835e-06
1.4725275e-06
1.4736808e-06
1.4747641e-06
1.4756608e-06
1.4762e-06
1.4761309e-06
1.4750895e-06
1.4725534e-06
1.4677858e-06
1.4597678e-06
1.4471218e-06
1.4280327e-06
1.4001775e-06
1.3606842e-06
1.3061522e-06
1.2327765e-06
1.1366357e-06
1.0141914e-06
8.629792e-07
6.8242383e-07
4.7487959e-07
2.5012839e-07
1.4677401e-06
1.4686252e-06
1.4695998e-06
1.4706262e-06
1.4716498e-06
1.4725915e-06
1.4733351e-06
1.4737092e-06
1.4734623e-06
1.4722284e-06
1.4694826e-06
1.4644853e-06
1.4562143e-06
1.4432899e-06
1.4238973e-06
1.3957187e-06
1.3558957e-06
1.3010532e-06
1.2274268e-06
1.1311519e-06
1.0087561e-06
8.5783774e-07
6.7786811e-07
4.7123258e-07
2.4780063e-07
1.4519887e-06
1.4527892e-06
1.4536669e-06
1.4545846e-06
1.4554886e-06
1.4563004e-06
1.4569045e-06
1.4571298e-06
1.4567251e-06
1.4553248e-06
1.4524049e-06
1.4472274e-06
1.4387744e-06
1.4256745e-06
1.406128e-06
1.3778429e-06
1.3380014e-06
1.2832892e-06
1.210025e-06
1.1144506e-06
9.9321062e-07
8.4400904e-07
6.6638051e-07
4.6268691e-07
2.4170251e-07
1.4179829e-06
1.4187044e-06
1.4194919e-06
1.4203089e-06
1.4211027e-06
1.4217961e-06
1.4222746e-06
1.4223693e-06
1.4218313e-06
1.4202984e-06
1.4172522e-06
1.4119636e-06
1.4034292e-06
1.3903001e-06
1.3708115e-06
1.3427241e-06
1.303296e-06
1.2493162e-06
1.1772403e-06
1.0834757e-06
9.6484429e-07
8.1920849e-07
6.4620238e-07
4.481789e-07
2.3280911e-07
1.360953e-06
1.3616003e-06
1.3623036e-06
1.3630274e-06
1.3637201e-06
1.3643065e-06
1.3646753e-06
1.364661e-06
1.3640205e-06
1.3624e-06
1.3592937e-06
1.3539912e-06
1.3455174e-06
1.3325653e-06
1.313431e-06
1.2859618e-06
1.2475347e-06
1.1950968e-06
1.1253032e-06
1.0347945e-06
9.2063727e-07
7.809094e-07
6.1537534e-07
4.2637603e-07
2.2127858e-07
1.2756517e-06
1.2762292e-06
1.2768544e-06
1.2774927e-06
1.2780939e-06
1.278586e-06
1.2788631e-06
1.2787667e-06
1.2780641e-06
1.2764168e-06
1.2733416e-06
1.2681605e-06
1.2599452e-06
1.2474549e-06
1.2290799e-06
1.2027962e-06
1.1661536e-06
1.1163207e-06
1.050223e-06
9.6480834e-07
8.5745843e-07
7.2652285e-07
5.7191966e-07
3.9593011e-07
2.0540261e-07
1.156798e-06
1.1573108e-06
1.1578653e-06
1.1584266e-06
1.1589459e-06
1.1593564e-06
1.1595625e-06
1.1594169e-06
1.1587037e-06
1.15711e-06
1.1541887e-06
1.1493116e-06
1.1416205e-06
1.1299725e-06
1.1128916e-06
1.0885341e-06
1.0546842e-06
1.0088045e-06
9.4816894e-07
8.7010903e-07
7.7238719e-07
6.5366941e-07
5.1403113e-07
3.5560642e-07
1.8446388e-07
9.9983833e-07
1.0002919e-06
1.0007824e-06
1.001273e-06
1.0017147e-06
1.0020506e-06
1.0022059e-06
1.0020486e-06
1.001387e-06
9.9994786e-07
9.9733783e-07
9.9299802e-07
9.8616918e-07
9.7584399e-07
9.6072794e-07
9.3921516e-07
9.0939328e-07
8.6909741e-07
8.1603486e-07
7.4799411e-07
6.6316623e-07
5.6055688e-07
4.4038409e-07
3.0454559e-07
1.5806544e-07
8.0213813e-07
8.0253194e-07
8.0295642e-07
8.0336946e-07
8.0372029e-07
8.0397189e-07
8.0408882e-07
8.0395651e-07
8.0341433e-07
8.0224639e-07
8.0013293e-07
7.9660115e-07
7.9102501e-07
7.8258228e-07
7.7020653e-07
7.5259513e-07
7.2821017e-07
6.9534022e-07
6.5221995e-07
5.9716115e-07
5.2879841e-07
4.4646676e-07
3.5048735e-07
2.4243999e-07
1.2609167e-07
5.6479882e-07
5.6511239e-07
5.6544466e-07
5.6574883e-07
5.6597493e-07
5.6611631e-07
5.6619476e-07
5.6611361e-07
5.6574981e-07
5.6496165e-07
5.635212e-07
5.6105695e-07
5.5712113e-07
5.5119446e-07
5.4235139e-07
5.2971933e-07
5.1221225e-07
4.8864806e-07
4.5788503e-07
4.1880916e-07
3.7047454e-07
3.1249579e-07
2.452286e-07
1.6988403e-07
8.9248756e-08
2.9611233e-07
2.9629734e-07
2.964872e-07
2.9664464e-07
2.9673365e-07
2.967698e-07
2.9680647e-07
2.9677784e-07
2.9661089e-07
2.9624181e-07
2.9554863e-07
2.9430377e-07
2.9234249e-07
2.900772e-07
2.8545414e-07
2.786736e-07
2.6925703e-07
2.5661121e-07
2.4022546e-07
2.195602e-07
1.9407924e-07
1.6360643e-07
1.2842121e-07
8.9325434e-08
4.8150101e-08
)
;

boundaryField
{
    Walls
    {
        type            kqRWallFunction;
        value           nonuniform List<scalar> 
38
(
4.4663532e-06
2.5454515e-06
7.9435587e-06
3.754832e-05
0.00028108994
0.0023651481
0.056545591
0.061187429
0.018406759
0.027391564
0.034757257
0.041575125
0.0474259
0.052334806
0.056600576
0.059881287
0.06266855
0.064703924
0.066372423
0.067896163
0.068818518
0.06976845
0.070286858
0.071540978
0.072567555
0.072004746
0.072610007
0.073051489
0.072349141
0.072958433
0.073698289
0.073436165
0.07334393
0.073242237
0.073208579
0.072997679
0.072071903
0.066878994
)
;
    }
    Inlet
    {
        type            turbulentIntensityKineticEnergyInlet;
        intensity       0.05;
        value           nonuniform List<scalar> 3(0.0087933338 0.0099759413 0.009021608);
    }
    Outlet
    {
        type            inletOutlet;
        inletValue      uniform 0;
        value           nonuniform List<scalar> 
86
(
2.9567382e-07
2.9569608e-07
2.9574742e-07
2.9583161e-07
2.9595349e-07
2.9611233e-07
2.9629734e-07
2.964872e-07
2.9664464e-07
2.9673365e-07
2.967698e-07
2.9680647e-07
2.9677784e-07
2.9661089e-07
2.9624181e-07
2.9554863e-07
2.9430377e-07
2.9234249e-07
2.900772e-07
2.8545414e-07
2.786736e-07
2.6925703e-07
2.5661121e-07
2.4022546e-07
2.195602e-07
1.9407924e-07
1.6360643e-07
1.2842121e-07
8.9325434e-08
4.8150101e-08
0.0031433557
0.0032489244
0.0026531968
0
0
0
0
0.00024939591
0.00021773003
0.00015772914
0
0
0
0
1.3668721e-05
9.5096351e-06
6.3794076e-06
4.1424266e-06
2.6291793e-06
1.6391876e-06
1.026576e-06
6.6091648e-07
4.4432726e-07
3.2336478e-07
2.5803509e-07
0
0
0
0
0
0
0
0
0
0
0
0
0
0
0
0
0
0
0
0
0
0
0
0
0
0
0
0
0
0.0025862579
0.003244653
)
;
    }
    Front
    {
        type            wedge;
    }
    Back
    {
        type            wedge;
    }
    defaultFaces
    {
        type            empty;
    }
}


// ************************************************************************* //
