/*--------------------------------*- C++ -*----------------------------------*\
| =========                 |                                                 |
| \\      /  F ield         | OpenFOAM: The Open Source CFD Toolbox           |
|  \\    /   O peration     | Version:  4.0                                   |
|   \\  /    A nd           | Web:      www.OpenFOAM.org                      |
|    \\/     M anipulation  |                                                 |
\*---------------------------------------------------------------------------*/
FoamFile
{
    version     2.0;
    format      ascii;
    class       volScalarField;
    location    "0.52";
    object      omega;
}
// * * * * * * * * * * * * * * * * * * * * * * * * * * * * * * * * * * * * * //

dimensions      [0 0 -1 0 0 0 0];

internalField   nonuniform List<scalar> 
1740
(
59.390849
621.08172
14922.235
179.50343
1353.8393
15031.136
308.01192
1949.8319
15119.764
410.87033
2314.9986
15201.024
503.58844
2553.9339
15270.631
599.27639
2770.1697
15330.756
717.35001
3005.7959
15378.005
857.22042
3262.4952
15417.673
988.34473
3414.2174
15452.917
1068.1826
3555.9955
15475.634
1146.5964
3689.398
15495.758
1252.7633
3789.6429
15514.358
1368.7143
3817.8178
15526.442
1454.0201
3865.4066
15536.624
1523.8411
3892.9194
15541.068
1548.4161
3935.8168
15556.054
1594.9092
4040.6868
15567.322
1651.8697
4068.1272
15562.123
1710.3349
4082.8242
15568.051
1763.0578
4167.7041
15572.693
1799.6686
4122.9806
15566.486
1811.3749
4078.6688
15572.841
1845.293
4095.0319
15581.884
1913.2379
4152.1798
15577.451
1934.1621
4169.3389
15576.002
1927.0089
4181.3576
15577.416
1947.9973
4196.0519
15576.859
1998.2613
4239.9578
15572.27
2025.461
4268.4311
15562.27
2149.3682
4338.9337
15502.532
3208.1516
4596.0251
10750.243
3348.6118
4251.7526
5961.0415
1573.6592
1861.4028
2156.9824
823.71119
898.58615
957.0025
478.51424
496.55823
506.49599
300.93767
304.62485
304.64345
201.37078
201.67124
200.19575
141.89245
141.55577
140.28731
104.49898
104.1595
103.3047
79.967582
79.729264
79.198425
63.295034
63.144697
62.82541
51.64085
51.549723
51.359931
43.330708
43.276206
43.163458
37.344335
37.311648
37.244002
33.035492
33.015519
32.974007
29.973018
29.960405
29.933988
27.849377
27.8411
27.823519
26.429599
26.423995
26.411813
25.525555
25.521758
25.513124
24.983368
24.980906
24.974721
24.66669
24.664704
24.659642
24.445895
24.443904
24.439295
24.273767
24.271972
24.267888
24.129383
24.127819
24.124243
23.999719
23.998404
23.99532
23.877021
23.875984
23.873403
23.757297
23.756564
23.754498
23.639705
23.639265
23.63769
23.525903
23.525694
23.524532
23.418679
23.418616
23.417766
23.320269
23.320279
23.319645
23.231166
23.231199
23.23071
23.149674
23.149706
23.149315
23.071922
23.071944
23.071622
22.991888
22.991898
22.991628
22.901184
22.901184
22.900955
22.78849
22.788483
22.788287
22.638658
22.638648
22.638482
22.43154
22.431529
22.431392
22.140622
22.140615
22.140507
21.731634
21.731634
21.731556
21.161341
21.161349
21.161303
20.376915
20.376931
20.376917
19.31654
19.316555
19.316564
17.917272
17.917296
17.91734
16.110713
16.110751
16.110832
13.836492
13.836542
13.836665
11.056975
11.057038
11.057204
7.7790707
7.7791388
7.7793302
4.0968157
4.0968674
4.0970164
13483.777
13538.125
6010.4119
5343.7973
2085.9941
1882.7048
921.86951
853.67902
489.92403
463.05745
296.35284
284.34427
195.83746
190.05259
137.90599
134.95052
101.96736
100.38196
78.433555
77.550637
62.382681
61.877854
51.101049
50.806722
43.010375
42.835693
37.151904
37.045817
32.916972
32.850222
29.897127
29.852981
27.798433
27.767463
26.39388
26.370903
25.499823
25.482021
24.96456
24.950317
24.651237
24.639296
24.431905
24.421477
24.261374
24.252155
24.118485
24.110247
23.990241
23.982838
23.868969
23.862323
23.750697
23.744779
23.634495
23.629299
23.521893
23.51741
23.41561
23.411811
23.317893
23.314727
23.229289
23.226683
23.148162
23.146033
23.070683
23.068948
22.990859
22.989442
22.900321
22.899155
22.787762
22.786796
22.638045
22.637241
22.431031
22.43036
22.140215
22.139659
21.731329
21.730879
21.161141
21.160793
20.376819
20.376574
19.316529
19.316392
17.917375
17.917357
16.110948
16.111074
13.836878
13.837192
11.057528
11.058069
7.7797287
7.7804288
4.0973342
4.0978984
12058.179
2043.2545
696.56863
369.11248
281.2791
257.05328
249.91983
246.88359
244.54384
242.15582
239.64018
236.90109
234.07436
231.172
228.15999
224.97401
221.50027
217.54191
212.76503
206.61393
198.16575
185.86689
167.0238
136.6174
82.90006
12058.132
2037.2474
697.72835
374.68672
283.22673
254.39755
242.86864
235.65979
229.55862
223.76966
218.09791
212.48116
206.9826
201.58394
196.26406
190.99471
185.71913
180.33284
174.64798
168.34128
160.86067
151.23892
137.68033
116.49106
78.234686
12058.179
2030.6709
718.69129
430.78002
359.42818
332.50086
315.1339
300.63701
287.39957
274.8503
262.87331
251.28896
240.31563
229.85708
219.85218
210.28712
201.14083
192.36676
183.86386
175.45322
166.82088
157.38547
145.94293
129.54129
98.877021
12058.525
2032.0369
817.71199
608.98205
550.12761
512.93001
479.91425
449.40495
421.4224
395.10732
370.42914
347.42074
326.21207
306.34626
287.68165
270.22498
253.96388
238.86601
224.87608
211.90262
199.80478
188.3565
177.1187
164.91426
146.51528
12061.525
2151.4267
1232.9696
1078.9773
990.15362
907.24847
828.7165
757.2942
693.4013
634.24784
579.88383
530.2258
486.13787
445.83379
408.84024
375.15959
344.65346
317.14992
292.46815
270.41455
250.79313
233.42928
218.20986
205.30853
195.803
12087.317
3831.5957
2813.8364
2407.5832
2097.9474
1828.2056
1592.3911
1388.7258
1212.478
1060.4605
929.53297
816.85004
719.86634
636.14763
563.76452
501.19977
447.1524
400.48979
360.23571
325.55617
295.74419
270.22679
248.60092
230.96337
218.55035
10377.641
7914.0919
6104.7239
4793.1108
3822.178
3085.9744
2516.0437
2068.3221
1713.136
1429.1639
1200.5207
1015.3045
864.55098
741.33167
640.14585
556.61963
487.29891
429.4733
381.0217
340.28218
305.95109
277.02526
252.79172
233.13221
219.32752
4100.0316
3311.6767
2845.8474
2469.6736
2149.8211
1868.8079
1623.7411
1411.8637
1230.2738
1074.6418
941.14133
826.34403
727.2724
641.7612
567.96285
504.27866
449.32947
401.93783
361.10184
325.97133
295.82988
270.09944
248.36753
230.71105
218.31771
1595.3981
1400.5091
1270.15
1161.7974
1059.4689
962.11079
873.38874
794.32339
722.22518
656.91733
598.52581
546.87903
499.43814
456.09042
416.71352
381.10841
349.05016
320.30698
294.64665
271.8533
251.72975
234.1087
218.88016
206.19808
197.02249
771.10638
707.85296
661.64556
621.07212
580.7105
540.56423
502.97125
468.31246
436.1818
406.55267
379.46828
354.65422
331.42516
309.68319
289.4206
270.62422
253.26555
237.30386
222.68862
209.35625
197.21337
186.09463
175.63424
164.77336
148.72089
433.79781
410.06358
391.33735
374.10133
356.33714
338.02053
320.12588
303.08561
286.97967
271.86274
257.74447
244.50188
231.92803
219.97965
208.68732
198.04825
188.05596
178.68997
169.90588
161.61258
153.6179
145.49456
136.21446
123.00429
96.77122
271.97743
261.54025
252.85511
244.6653
236.12076
227.15419
218.12699
209.30454
200.8092
192.69928
184.98419
177.61561
170.5217
163.68035
157.1045
150.79866
144.75439
138.94203
133.29522
127.67887
121.82113
115.16302
106.50412
93.072222
67.356645
184.21259
179.11899
174.69793
170.45737
166.0221
161.32489
156.50069
151.69187
146.9876
142.43376
138.0413
133.7918
129.65674
125.62158
121.6824
117.83034
114.04364
110.27763
106.4484
102.40281
97.862209
92.313577
84.786124
73.30805
52.718048
131.98473
129.32235
126.93544
124.61747
122.19486
119.61978
116.94035
114.22709
111.53497
108.89573
106.31905
103.79793
101.31769
98.865053
96.427404
93.985868
91.508492
88.941267
86.194739
83.122841
79.490765
74.933311
68.933907
61.011748
52.170356
98.792214
97.330771
95.987564
94.672354
93.30157
91.843642
90.314127
88.746682
87.172114
85.609784
84.06634
82.537851
81.013796
79.480358
77.919952
76.307443
74.605016
72.755394
70.672629
68.23046
65.25143
61.511728
56.815385
51.310584
46.461368
76.662957
75.831533
75.053205
74.286781
73.491034
72.646285
71.755981
70.835152
69.899563
68.959669
68.018516
67.071934
66.109947
65.117704
64.074801
62.952753
61.711341
60.293792
58.621039
56.585971
54.051725
50.865939
46.923135
42.346749
37.557744
61.367286
60.881634
60.420759
59.965488
59.494776
58.996677
58.47027
57.921482
57.357381
56.782403
56.196243
55.593462
54.963457
54.290356
53.552156
52.718832
51.749595
50.589436
49.164986
47.380063
45.111311
42.20231
38.437636
33.3715
25.085589
50.506515
50.216929
49.939039
49.663952
49.380617
49.08172
48.765053
48.432047
48.084885
47.724098
47.346897
46.946405
46.511127
46.024345
45.463149
44.796843
43.984755
42.97341
41.692784
40.050944
37.924527
35.13629
31.38907
26.039612
17.172406
42.655498
42.479148
42.307984
42.137907
41.963031
41.778717
41.582583
41.373915
41.152176
40.915457
40.659216
40.375402
40.051725
39.67081
39.209169
38.635776
37.910175
36.979949
35.777086
34.212123
32.162933
29.450074
25.777693
20.582017
12.565719
36.934681
36.823963
36.714868
36.605468
36.492512
36.37302
36.244745
36.105972
35.954686
35.787527
35.598777
35.379515
35.116793
34.792725
34.383406
33.85758
33.174954
32.283953
31.118506
29.592963
27.593
24.958128
21.446602
16.661918
9.8247902
32.778791
32.70583
32.632252
32.557125
32.478574
32.394511
32.302938
32.20172
32.088044
31.957698
31.804218
31.61807
31.385784
31.089029
30.703527
30.197798
29.531668
28.654413
27.502342
25.995388
24.031941
21.480753
18.168211
13.854466
8.1954589
29.80432
29.752909
29.699317
29.643052
29.582932
29.5174
29.444628
29.362319
29.267279
29.154792
29.017905
28.846632
28.627079
28.340502
27.962244
27.460577
26.795419
25.916933
24.764049
23.262979
21.325871
18.850161
15.719568
11.804583
6.9506331
27.732023
27.693019
27.650709
27.604746
27.554291
27.498092
27.43445
27.361016
27.274389
27.169562
27.039243
26.87308
26.656784
26.37119
25.991242
25.48495
24.812324
23.924384
22.762522
21.258637
19.336711
16.916802
13.922681
10.290822
5.9562525
26.34347
26.311917
26.276252
26.23614
26.190893
26.139431
26.08015
26.010686
25.92752
25.825447
25.696914
25.531229
25.313691
25.024667
24.638677
24.1235
23.43931
22.537974
21.362936
19.850491
17.933322
15.547204
12.641886
9.1945216
5.1986504
25.459796
25.433082
25.401688
25.365245
25.323124
25.274326
25.217308
25.1497
25.067903
24.966558
24.837867
24.670787
24.45014
24.155741
23.76163
23.235448
22.537769
21.621486
20.431759
18.907896
16.988249
14.6186
11.764722
8.4283064
4.6646412
24.931782
24.908596
24.880422
24.84683
24.807184
24.760502
24.705241
24.639
24.558098
24.457025
24.327732
24.158778
23.93442
23.633781
23.230289
22.691509
21.978904
21.047023
19.842708
18.307086
16.38176
14.01856
11.193224
7.9235818
4.295589
24.623523
24.603503
24.578815
24.548931
24.513102
24.47022
24.418595
24.355663
24.277558
24.178547
24.050287
23.880913
23.654053
23.347953
22.935018
22.382194
21.652794
20.704638
19.486698
17.940767
16.009762
13.648898
10.840188
7.6120897
4.0723401
24.407694
24.390174
24.368473
24.342028
24.310061
24.27143
24.224419
24.166434
24.093585
24.00012
23.87768
23.714355
23.493527
23.19243
22.780399
22.219029
21.472707
20.507994
19.278326
17.724774
15.789954
13.430568
10.632132
7.4288696
3.9550897
24.239896
24.224208
24.204628
24.180575
24.15125
24.115495
24.071584
24.016921
23.94763
23.858
23.739757
23.581149
23.365815
23.071426
22.668125
22.117126
21.370322
20.393793
19.156474
17.599072
15.663244
13.306285
10.515837
7.3290236
3.8663946
24.099172
24.08485
24.066802
24.044433
24.016935
23.983144
23.941336
23.88893
23.822084
23.73516
23.620016
23.465121
23.254441
22.96612
22.570948
22.030808
21.297383
20.320194
19.081467
17.5245
15.590602
13.237457
10.453651
7.2755943
3.8154116
23.972725
23.959469
23.942575
23.921441
23.895258
23.862872
23.822579
23.771833
23.70686
23.622129
23.509668
23.358184
23.151963
22.869547
22.48221
21.952345
21.232074
20.264813
19.030521
17.47766
15.548136
13.200069
10.42194
7.2471207
3.7824456
23.853054
23.840698
23.824753
23.804619
23.779506
23.748289
23.709308
23.660088
23.596951
23.514501
23.404933
23.257159
23.055703
22.779385
22.399826
21.879852
21.172039
20.218516
18.991983
17.445582
15.5221
13.180247
10.408572
7.2405779
3.7844374
23.736317
23.724821
23.709792
23.690653
23.666652
23.636717
23.599258
23.551889
23.491039
23.411429
23.30538
23.161926
22.965714
22.695717
22.323781
21.813104
21.116791
20.1773
18.960136
17.421391
15.504786
13.169673
10.404427
7.2409725
3.7864966
23.621671
23.611108
23.597131
23.579202
23.556622
23.528384
23.492973
23.448083
23.39022
23.314176
23.212324
23.073734
22.883084
22.6194
22.254677
21.752437
21.066367
20.139658
18.932322
17.40153
15.49192
13.163568
10.404822
7.2460632
3.8042318
23.510668
23.501173
23.488478
23.47209
23.451361
23.425341
23.392568
23.35078
23.296517
23.224581
23.127336
22.993824
22.8087
22.551003
22.192828
21.697987
21.020744
20.105204
18.907252
17.384044
15.480975
13.1588
10.406084
7.2528484
3.8142341
23.405987
23.397675
23.386463
23.371897
23.353366
23.329949
23.300204
23.261878
23.211497
23.143833
23.051201
22.922591
22.742612
22.490301
22.137842
21.649289
20.979417
20.073155
18.883933
17.367628
15.470358
13.15349
10.405854
7.257806
3.8376929
23.309805
23.302708
23.293059
23.280429
23.264223
23.243525
23.216887
23.182029
23.135439
23.071837
22.983476
22.859286
22.683835
22.436162
22.088531
21.605212
20.941425
20.042875
18.861375
17.351136
15.458873
13.146458
10.40287
7.2586224
3.8471691
23.222595
23.216651
23.208505
23.197741
23.183764
23.165646
23.141911
23.110241
23.067075
23.007073
22.92243
22.802021
22.630384
22.386568
22.042916
21.563896
20.90512
20.013003
18.838182
17.33323
15.445366
13.136918
10.396926
7.2548553
3.843439
23.142673
23.137754
23.130949
23.121851
23.109854
23.094008
23.072804
23.043883
23.003632
22.946658
22.865105
22.747805
22.579279
22.338592
21.99817
21.522659
20.868029
19.981329
18.812284
17.312064
15.428344
13.124038
10.388753
7.2516112
3.8429084
23.066197
23.06214
23.056469
23.048775
23.038441
23.024494
23.005391
22.978732
22.940861
22.886339
22.807269
22.692456
22.526411
22.288226
21.950409
21.477779
20.826631
19.944591
18.780671
17.284914
15.405444
13.105813
10.376434
7.2465378
3.8433708
22.987184
22.983829
22.979079
22.972524
22.963535
22.951115
22.933695
22.908839
22.872856
22.82027
22.743154
22.630295
22.466206
22.230015
21.894318
21.424105
20.77598
19.898105
18.738969
17.247756
15.373022
13.07883
10.355932
7.2329471
3.8354498
22.897291
22.894492
22.890472
22.884818
22.87689
22.865673
22.849572
22.826125
22.791612
22.740531
22.664934
22.553602
22.391059
22.156483
21.822567
21.35448
20.709139
19.835228
18.680913
17.194762
15.325777
13.038445
10.323594
7.2090736
3.8198962
22.785241
22.78288
22.779433
22.774484
22.767383
22.7571
22.742022
22.719666
22.686289
22.636373
22.561961
22.451834
22.290546
22.057338
21.725022
21.258971
20.616435
19.746638
18.59767
17.11769
15.25619
12.97804
10.274063
7.1717922
3.7971978
22.635932
22.633917
22.630919
22.62652
22.620063
22.610506
22.596222
22.574712
22.54222
22.49322
22.419752
22.310619
22.15042
21.918484
21.587775
21.123912
20.484534
19.619461
18.477029
17.005169
15.153981
12.888808
10.200673
7.1174619
3.7664331
22.429252
22.427514
22.424874
22.420911
22.414962
22.405977
22.392319
22.37148
22.339698
22.291448
22.218786
22.110552
21.951417
21.720838
21.391985
20.930792
20.295377
19.436274
18.302473
16.841862
15.005354
12.758979
10.094346
7.0405464
3.7261176
22.138721
22.137214
22.134867
22.131261
22.125726
22.117207
22.104063
22.083785
22.052614
22.005038
21.933152
21.825859
21.667945
21.439051
21.112632
20.655048
20.025045
19.174055
18.05221
16.607587
14.792239
12.573169
9.9428064
6.9319863
3.6718339
21.730092
21.728787
21.726695
21.723395
21.718218
21.710106
21.69742
21.677658
21.647079
21.600207
21.529199
21.423068
21.266774
21.040228
20.717285
20.264892
19.642663
18.803237
17.698297
16.276529
14.491568
12.311739
9.7301695
6.7776361
3.5846299
21.160149
21.159034
21.157181
21.154169
21.149329
21.141611
21.129386
21.110171
21.080265
21.034256
20.964409
20.859905
20.705969
20.482902
20.165121
19.720352
19.109475
18.287
17.206061
15.816767
14.074916
11.950625
9.4378856
6.5666343
3.4501168
20.376076
20.375156
20.37355
20.370839
20.366363
20.359082
20.347392
20.328853
20.299829
20.255018
20.186855
20.084782
19.934412
19.716612
19.406566
18.972861
18.37863
17.581189
16.534135
15.190414
13.508732
11.461609
9.0443373
6.2863363
3.284368
19.316055
19.315357
19.31404
19.311691
19.307658
19.300928
19.289942
19.27233
19.244567
19.201526
19.1359
19.03752
18.892565
18.682722
18.384393
17.968111
17.398662
16.635715
15.635592
14.35474
12.755461
10.813299
8.525223
5.9202341
3.0904371
17.917201
17.916756
17.915767
17.913827
17.910298
17.904212
17.89409
17.877678
17.851632
17.811092
17.749149
17.656199
17.519222
17.32103
17.039584
16.647534
16.112242
15.396515
14.460419
13.264674
11.775908
9.973285
7.8557166
5.451261
2.8448518
16.111147
16.111029
16.110466
16.109042
16.106133
16.100843
16.091841
16.077048
16.053383
16.016392
15.95974
15.874608
15.749071
15.567435
15.309676
14.951099
14.462409
13.810471
12.960066
11.877045
10.533054
8.9113495
7.0128061
4.8634941
2.5380896
13.837577
13.837901
13.8379
13.837123
13.834937
13.830583
13.823018
13.81039
13.789983
13.757933
13.708704
13.634508
13.52487
13.366046
13.140589
12.827122
12.400523
11.83268
11.094104
10.156607
8.9973453
7.6038843
5.9788715
4.1453637
2.1647002
11.058825
11.059662
11.060278
11.060142
11.058596
11.055144
11.049284
11.039415
11.023277
10.997822
10.958573
10.898977
10.810433
10.681762
10.498629
10.243747
9.897039
9.4364179
8.8392478
8.0840404
7.1535517
6.0394737
4.7457512
3.2915369
1.7224542
7.7814399
7.7826078
7.7835953
7.7837966
7.7825548
7.7797827
7.775758
7.7691369
7.7581933
7.7409221
7.7141352
7.6727022
7.6104722
7.5203615
7.389877
7.2073743
6.9588838
6.6293283
6.2040467
5.6688062
5.0115788
4.2275251
3.3210692
2.3069844
1.2193127
4.0987117
4.0996424
4.1004164
4.1005419
4.0995399
4.0976221
4.0955034
4.0922699
4.0868966
4.0784687
4.0652738
4.0441659
4.012846
3.9768229
3.908145
3.8091112
3.6744255
3.4968799
3.2695791
2.9854776
2.637636
2.223806
1.7475259
1.2188112
0.66069911
)
;

boundaryField
{
    Walls
    {
        Cmu             0.09;
        kappa           0.41;
        E               9.8;
        beta1           0.075;
        type            omegaWallFunction;
        value           nonuniform List<scalar> 
38
(
12058.179
12058.132
12058.179
12058.525
12061.525
12087.317
13483.777
13538.125
14922.235
15031.136
15119.764
15201.024
15270.631
15330.756
15378.005
15417.673
15452.917
15475.634
15495.758
15514.358
15526.442
15536.624
15541.068
15556.054
15567.322
15562.123
15568.051
15572.693
15566.486
15572.841
15581.884
15577.451
15576.002
15577.416
15576.859
15572.27
15562.27
15502.532
)
;
    }
    Inlet
    {
        type            turbulentMixingLengthDissipationRateInlet;
        mixingLength    0.03;
        phi             phi;
        k               k;
        value           nonuniform List<scalar> 3(0.0038767614 0.0049629835 0.0050120867);
    }
    Outlet
    {
        type            inletOutlet;
        inletValue      uniform 1e-05;
        value           nonuniform List<scalar> 
86
(
4.0968157
4.0968674
4.0970164
4.0973342
4.0978984
4.0987117
4.0996424
4.1004164
4.1005419
4.0995399
4.0976221
4.0955034
4.0922699
4.0868966
4.0784687
4.0652738
4.0441659
4.012846
3.9768229
3.908145
3.8091112
3.6744255
3.4968799
3.2695791
2.9854776
2.637636
2.223806
1.7475259
1.2188112
0.66069911
219.32752
218.31771
197.02249
1e-05
1e-05
1e-05
1e-05
52.170356
46.461368
37.557744
1e-05
1e-05
1e-05
1e-05
8.1954589
6.9506331
5.9562525
5.1986504
4.6646412
4.295589
4.0723401
3.9550897
3.8663946
3.8154116
3.7824456
1e-05
1e-05
1e-05
1e-05
1e-05
1e-05
1e-05
1e-05
1e-05
1e-05
1e-05
1e-05
1e-05
1e-05
1e-05
1e-05
1e-05
1e-05
1e-05
1e-05
1e-05
1e-05
1e-05
1e-05
1e-05
1e-05
1e-05
1e-05
1e-05
195.803
218.55035
)
;
    }
    Front
    {
        type            wedge;
    }
    Back
    {
        type            wedge;
    }
    defaultFaces
    {
        type            empty;
    }
}


// ************************************************************************* //
