/*--------------------------------*- C++ -*----------------------------------*\
| =========                 |                                                 |
| \\      /  F ield         | OpenFOAM: The Open Source CFD Toolbox           |
|  \\    /   O peration     | Version:  4.0                                   |
|   \\  /    A nd           | Web:      www.OpenFOAM.org                      |
|    \\/     M anipulation  |                                                 |
\*---------------------------------------------------------------------------*/
FoamFile
{
    version     2.0;
    format      ascii;
    class       volScalarField;
    location    "0.52";
    object      p;
}
// * * * * * * * * * * * * * * * * * * * * * * * * * * * * * * * * * * * * * //

dimensions      [0 2 -2 0 0 0 0];

internalField   nonuniform List<scalar> 
1740
(
491.51492
491.4969
491.48006
474.88855
474.69771
474.49498
458.21987
458.06037
457.64591
441.47844
441.55991
441.22647
424.9498
425.06243
424.98173
408.3941
408.40141
408.29782
391.90866
391.8041
391.74642
375.24048
375.23812
375.52668
358.56478
358.61734
358.78376
341.66008
341.68502
341.70544
324.54992
324.58021
324.78958
307.95629
307.72126
307.92145
291.55835
291.35503
291.10908
275.0979
275.27663
274.81421
258.70941
258.93018
258.87995
242.62459
242.6494
242.68603
226.21233
226.17975
226.22036
209.48925
209.47889
209.65322
193.32417
193.13457
193.26463
176.92686
176.88914
176.96686
160.2975
160.5252
160.45335
144.09611
144.01235
143.95948
127.90815
127.62754
127.58486
111.45156
111.51384
111.3626
94.867678
95.208548
95.356918
78.609971
78.82874
78.925196
62.425487
62.384021
62.203859
46.462983
46.30219
46.306915
31.198618
31.057271
31.120418
16.468025
16.221068
15.859525
4.194476
3.5763793
1.6917712
-0.60929841
-0.55529587
-0.35723624
-0.14853152
-0.13347544
-0.094355743
-0.00011342263
0.0032144774
0.0075803717
0.029476817
0.030228244
0.029640612
0.035684689
0.034982119
0.032548358
0.035061105
0.033796007
0.030850172
0.032216636
0.030892925
0.028071216
0.029131266
0.027951345
0.025508163
0.026443547
0.02545244
0.023416259
0.024147232
0.023336003
0.021667288
0.022081643
0.021424765
0.02006772
0.020169767
0.019638817
0.0185359
0.01840558
0.017975142
0.017075813
0.016802417
0.016451265
0.015713822
0.015369234
0.0150807
0.014471691
0.014102294
0.013863169
0.013356158
0.012985265
0.012785197
0.012359288
0.011997114
0.011828138
0.011467175
0.011119203
0.010975329
0.010667221
0.010336654
0.01021336
0.0099487779
0.0096372839
0.0095310177
0.0093025451
0.0090107039
0.0089186349
0.0087203479
0.008447733
0.0083675828
0.0081947048
0.0079399922
0.0078698966
0.0077184978
0.0074797255
0.0074181494
0.0072849861
0.0070597772
0.0070054566
0.0068878532
0.0066736112
0.0066255016
0.0065212407
0.0063153225
0.0062725566
0.0061797921
0.0059796279
0.0059414829
0.0058586731
0.0056618479
0.0056277204
0.0055535756
0.0053578862
0.0053272717
0.005260712
0.0050642026
0.0050366787
0.0049767992
0.0047777794
0.0047529928
0.0046990358
0.004496085
0.0044737404
0.0044250722
0.0042170359
0.004196887
0.0041529791
0.0039389585
0.0039208006
0.003881213
0.0036605502
0.0036442136
0.0036085814
0.0033808391
0.0033661835
0.0033342052
0.0030991431
0.0030860524
0.0030574784
0.0028150212
0.0028033994
0.0027780238
0.0025282269
0.0025179956
0.0024956502
0.0022386744
0.0022297702
0.0022103186
0.0019464135
0.0019387853
0.0019221176
0.0016516084
0.0016452152
0.0016312437
0.0013545242
0.0013493338
0.0013379892
0.0010555302
0.0010515176
0.0010427462
0.00075509744
0.00075224388
0.00074600543
0.00045388012
0.00045217206
0.00044843691
0.00015163932
0.00015106998
0.00014982444
-1.2727762
-0.89638202
-0.2929321
-0.22523034
-0.072480579
-0.070164022
0.0049545293
-0.002704664
0.02514926
0.018754081
0.027937695
0.022490738
0.026440072
0.021539971
0.024202382
0.019969286
0.022235274
0.018646568
0.020692646
0.0176692
0.019420058
0.016882731
0.018221739
0.016101384
0.017019202
0.015249226
0.015825712
0.014346252
0.014679292
0.01343918
0.013610491
0.012565554
0.01263338
0.011746755
0.01174751
0.01099027
0.010945761
0.010295509
0.010220188
0.0096591028
0.0095633875
0.0090769936
0.0089685861
0.0085450727
0.0084296229
0.0080593362
0.0079405211
0.0076154924
0.0074953243
0.0072089374
0.0070882484
0.0068349961
0.0067137569
0.0064890277
0.0063666202
0.0061665314
0.0060419978
0.0058632767
0.0057354837
0.0055753732
0.0054431278
0.0052993049
0.0051614411
0.005031948
0.0048873912
0.0047705784
0.0046183881
0.0045128678
0.0043522615
0.0042568693
0.0040872342
0.0040009956
0.0038218914
0.003743994
0.00355515
0.0034849188
0.0032862232
0.0032230989
0.0030145805
0.0029581005
0.002739909
0.002689692
0.0024620724
0.0024178068
0.0021810785
0.0021425115
0.0018970546
0.0018639826
0.0016102294
0.0015824895
0.0013209222
0.0012983861
0.0010295481
0.0010121167
0.00073661734
0.00072421572
0.00044281517
0.00043538796
0.00014794957
0.00014547243
0.014842659
0.013962186
0.012645974
0.011326695
0.010205071
0.0093157205
0.0086370837
0.0080972284
0.0076187995
0.0071462282
0.0066500024
0.0061220288
0.0055705232
0.0050110365
0.004457704
0.003920185
0.0034040243
0.0029113999
0.0024429641
0.0019993619
0.0015820175
0.0011902922
0.00082227366
0.00047656512
0.00015272858
0.014633111
0.013647645
0.012271644
0.010966368
0.0098979798
0.0090294262
0.0083399094
0.0077428153
0.0071642453
0.0065722611
0.0059705271
0.0053720941
0.0047853486
0.0042162672
0.0036714238
0.0031574944
0.0026816388
0.0022482632
0.0018523443
0.0014914945
0.0011656015
0.00086944438
0.00059789696
0.00034936878
0.00012043481
0.010013542
0.0088194953
0.0073572874
0.0061319168
0.0051318884
0.0042359323
0.003249246
0.0021849635
0.0012060568
0.00037273011
-0.00029508633
-0.00080494463
-0.0011767586
-0.0014329896
-0.0015873543
-0.0016515929
-0.0016388991
-0.001563163
-0.0014314958
-0.0012543775
-0.0010379895
-0.0007963781
-0.00054249011
-0.00028807666
-5.5541975e-05
-0.0067416125
-0.0081987964
-0.0096313587
-0.010929665
-0.012249779
-0.013402913
-0.014303649
-0.014840298
-0.015061307
-0.014995452
-0.014653949
-0.014098247
-0.013381799
-0.012530805
-0.011573843
-0.010536533
-0.009439612
-0.0083004857
-0.0071372993
-0.0059774902
-0.004817783
-0.0036702504
-0.0025440401
-0.0014519198
-0.00043124848
-0.060263584
-0.05936859
-0.058815924
-0.056287193
-0.053324038
-0.049856802
-0.04633656
-0.04274803
-0.039142371
-0.035618262
-0.032163158
-0.028863445
-0.025721315
-0.0225758
-0.019667333
-0.017005253
-0.014575559
-0.012359465
-0.010331706
-0.0084542557
-0.0067184731
-0.0050993851
-0.0035774691
-0.0021302248
-0.00073913229
-0.22319653
-0.17711296
-0.15580348
-0.1248099
-0.099594271
-0.078037949
-0.059980761
-0.045474752
-0.03397443
-0.024853224
-0.01775328
-0.012290701
-0.0081284518
-0.0050963743
-0.0028076142
-0.0011590638
-1.9814245e-05
0.0007163396
0.0011322299
0.0012957192
0.0012576423
0.001070191
0.00077585356
0.00041737977
-7.0523379e-06
-0.31923414
-0.11330392
-0.064258221
-0.030078675
0.0014187976
0.026225499
0.041622866
0.048613636
0.050379487
0.049516777
0.047214183
0.044062095
0.040429752
0.036578455
0.032688882
0.028870203
0.025194329
0.021690843
0.018362987
0.015199178
0.012178118
0.0092786583
0.0064731216
0.0037490387
0.0010183597
-0.18128025
-0.15642796
-0.13143548
-0.10720152
-0.085300559
-0.066230696
-0.05029184
-0.037476816
-0.027418613
-0.019474153
-0.013355361
-0.0087074346
-0.0052087901
-0.0026003953
-0.00071650716
0.00057205845
0.0014167444
0.0019063594
0.0021092057
0.0020827064
0.0018756506
0.0015327428
0.0010929481
0.00059831123
4.3896458e-05
-0.07316913
-0.071100631
-0.067033975
-0.062673784
-0.058345298
-0.053887492
-0.04949262
-0.045158317
-0.040879826
-0.036920655
-0.033145317
-0.029451314
-0.02596822
-0.022754049
-0.019815554
-0.017189936
-0.014735177
-0.01247271
-0.010399204
-0.0084971346
-0.0067452658
-0.0051202275
-0.0035986019
-0.002151925
-0.00075576887
-0.0097821586
-0.013365421
-0.015390296
-0.01704808
-0.018413937
-0.019345593
-0.019894563
-0.020031608
-0.019790696
-0.019290245
-0.018569878
-0.017665368
-0.016608658
-0.015430548
-0.014152325
-0.012747703
-0.01136294
-0.0099745469
-0.0085775163
-0.007178055
-0.0057846345
-0.0044069857
-0.0030570055
-0.0017497903
-0.00052591289
0.013094219
0.0092751918
0.0070524091
0.0053079077
0.0035531393
0.0018898773
0.00036632921
-0.0009532417
-0.0020263828
-0.0028706472
-0.003502675
-0.0039446595
-0.0042067273
-0.0043102388
-0.004266647
-0.0040813998
-0.0038097045
-0.003467034
-0.0030637811
-0.0026126131
-0.00212701
-0.0016213226
-0.0011108386
-0.00061063604
-0.00015119501
0.017738191
0.014456588
0.012115013
0.010719017
0.0097625914
0.0088348474
0.0078841357
0.0069647604
0.0060259639
0.0051004805
0.00422218
0.0034013276
0.0026911347
0.002102538
0.0016282389
0.0012603338
0.00096305389
0.00072312135
0.00053408573
0.00038730313
0.00027480915
0.00018899686
0.00012325752
7.4305222e-05
3.7921088e-05
0.017051155
0.013658087
0.011405746
0.0099908709
0.0090642711
0.0083298969
0.0077296418
0.0071347322
0.0065439649
0.0059422685
0.0053244926
0.0047577619
0.0042118143
0.0036956668
0.0032176133
0.0027729662
0.0023638931
0.0019887488
0.0016458597
0.0013305518
0.0010403334
0.00077284982
0.00052616693
0.0003002274
9.6907877e-05
0.015992594
0.012674463
0.010236404
0.0086718898
0.0076923894
0.0069784621
0.0064364239
0.0059632932
0.0055143718
0.0050661236
0.0046357146
0.0042087878
0.0037870846
0.0033732372
0.0029772464
0.0025979915
0.0022362657
0.0018963723
0.0015778432
0.0012825691
0.0010095713
0.00075704759
0.0005224179
0.00030323055
9.7565041e-05
0.015203798
0.012225931
0.0098760648
0.0081400251
0.0069276842
0.0061321314
0.0055511357
0.0051084336
0.0047193597
0.004361145
0.00402322
0.0036902178
0.0033579749
0.0030208401
0.0026901834
0.0023714081
0.0020654482
0.0017705444
0.0014884845
0.001222245
0.00097169497
0.00073558736
0.00051264374
0.00030085408
9.797398e-05
0.014694105
0.012023459
0.0098009695
0.0080599128
0.0067661598
0.0058411448
0.0051722208
0.0046488465
0.0042350035
0.0038913999
0.0035936292
0.0033175135
0.0030503889
0.002785232
0.0025137745
0.0022431367
0.0019750028
0.0017107022
0.0014529453
0.001203745
0.00096428838
0.00073467213
0.00051462284
0.00030356542
9.9791174e-05
0.01432312
0.011945081
0.0098795099
0.0081816444
0.0068475266
0.0058340023
0.0050695382
0.0044838022
0.0040357756
0.0036814138
0.0033801233
0.0031094355
0.0028563902
0.002614376
0.0023730121
0.0021286441
0.0018864914
0.0016464846
0.0014102872
0.0011779415
0.00095033526
0.00072845061
0.00051288448
0.0003045118
0.00010194928
0.013909409
0.011811591
0.0099232304
0.00830581
0.0069756029
0.0059136032
0.0050796945
0.0044277682
0.0039181562
0.0035142666
0.0031871817
0.0029135528
0.0026686231
0.0024323825
0.0022040051
0.0019792302
0.0017579404
0.0015408638
0.001325325
0.0011116808
0.0009005581
0.00069276784
0.00048904121
0.00029071088
9.7282424e-05
0.013381298
0.011547608
0.0098461275
0.0083378016
0.0070490809
0.0059787598
0.0051072834
0.0044060111
0.0038446278
0.0033940833
0.0030286879
0.0027257003
0.0024634549
0.0022304856
0.0020105735
0.0017994069
0.0015951979
0.0013963768
0.001201102
0.0010082522
0.00081770315
0.00062981277
0.00044535918
0.0002654608
8.9234568e-05
0.012757272
0.011162648
0.0096443975
0.0082589755
0.0070377314
0.0059903404
0.0051104415
0.0043819671
0.0037837003
0.0032934585
0.0028894433
0.0025519168
0.0022681279
0.002028081
0.001813437
0.0016107919
0.0014195976
0.0012372283
0.0010608046
0.00088857886
0.00071986428
0.00055425229
0.00039190043
0.00023393748
7.9223285e-05
0.012084962
0.01069962
0.009351606
0.0080915784
0.0069517847
0.0059478006
0.0050816516
0.0043457343
0.0037274504
0.0032109297
0.0027792844
0.0024165708
0.0021096424
0.0018509054
0.001631852
0.0014358512
0.0012560163
0.0010861079
0.00092542826
0.00077151714
0.00062268894
0.00047821199
0.00033743428
0.00020110613
6.8463453e-05
0.011407304
0.010202586
0.0090084778
0.0078694798
0.0068165607
0.0058678981
0.0050306959
0.0043037957
0.003680459
0.0031503591
0.0027016598
0.0023219563
0.0019999356
0.0017257635
0.0014900213
0.0012892982
0.0011137324
0.00095601675
0.00080864751
0.00066929394
0.00053705934
0.00041069815
0.00028906474
0.00017208294
5.8587813e-05
0.010751707
0.0097019132
0.0086448154
0.0076189358
0.0066528919
0.0057655668
0.0049671398
0.0042606825
0.0036439324
0.0031110023
0.0026537678
0.0022632521
0.001930302
0.001646303
0.0014032376
0.001194646
0.0010130463
0.0008540731
0.00071290713
0.0005854301
0.00046731134
0.0003555783
0.00024942056
0.00014824177
5.0801807e-05
0.010131476
0.0092143598
0.0082782024
0.0073560895
0.0064738794
0.005650041
0.0048961866
0.0042179973
0.0036164021
0.0030888166
0.0026302691
0.0022344421
0.0018943533
0.0016029216
0.0013532413
0.0011390795
0.00095435873
0.0007940395
0.00065342646
0.0005283885
0.00041568148
0.00031329271
0.00021827749
0.00012952403
4.5108684e-05
0.0095512249
0.0087479423
0.0079181982
0.0070902938
0.0062872696
0.0055265654
0.0048202139
0.0041753781
0.0035951228
0.0030792833
0.0026253265
0.0022291268
0.0018856025
0.0015891438
0.0013340766
0.0011149294
0.00092639034
0.00076368623
0.00062239941
0.00049862698
0.00038902901
0.00029087911
0.00020147002
0.00011916858
4.1878042e-05
0.0090116329
0.0083062756
0.0075700704
0.0068271688
0.0060979063
0.005398376
0.0047404185
0.0041319098
0.0035772556
0.0030779877
0.0026333957
0.0022411139
0.001897642
0.0015987592
0.0013399224
0.0011165158
0.0009239557
0.00075782961
0.00061416081
0.00048918456
0.00037951865
0.00028232072
0.00019469136
0.00011489517
4.0183117e-05
0.0085117687
0.007890891
0.007236883
0.0065703442
0.005909098
0.0052677671
0.004657639
0.0040867924
0.0035603954
0.0030811098
0.0026495436
0.0022646957
0.0019243674
0.0016255264
0.001364642
0.0011379303
0.00094150714
0.00077152471
0.00062414684
0.00049611511
0.00038388698
0.00028487111
0.0001959093
0.00011554131
4.0571782e-05
0.0080499732
0.0075021537
0.0069203714
0.0063221865
0.0057231597
0.0051364369
0.0045725535
0.0040394519
0.0035426556
0.0030855275
0.0026695946
0.0022948795
0.0019602209
0.0016635769
0.0014023023
0.0011733704
0.00097353851
0.00079947358
0.00064786644
0.00051562557
0.00039879536
0.0002960304
0.00020323639
0.00012001608
4.2397504e-05
0.0076241126
0.0071395272
0.0066211901
0.0060840079
0.0055415403
0.0050055104
0.0044856015
0.003989412
0.0035225347
0.0030887237
0.0026901139
0.0023274696
0.0020004347
0.001707773
0.0014475924
0.0012175343
0.0010149446
0.00083698729
0.00068075113
0.00054332426
0.00042170368
0.00031345341
0.0002142133
0.00012724318
4.6169476e-05
0.0072315662
0.0068017001
0.0063390212
0.00585616
0.0053648636
0.0048755064
0.0043968916
0.0039361488
0.0034987555
0.0030886348
0.0027082952
0.0023590191
0.0020410548
0.0017538078
0.0014960017
0.0012658649
0.0010612672
0.00087984757
0.00071908896
0.00057640777
0.00044919672
0.00033498854
0.00023095614
0.00013690248
4.8197053e-05
0.0068691673
0.0064867844
0.006072873
0.0056382664
0.0051930609
0.0047463902
0.0043061775
0.0038790188
0.0034701565
0.0030835227
0.0027218302
0.0023867066
0.0020788383
0.0017981223
0.0015437827
0.0013145475
0.0011087569
0.00092446957
0.00075955707
0.00061177694
0.00047883853
0.00035850319
0.00024839618
0.00014718241
5.108123e-05
0.0065333725
0.0061923471
0.0058212685
0.0054294161
0.0050255472
0.0046176852
0.0042129094
0.0038172522
0.003435638
0.0030718895
0.0027288052
0.002408225
0.0021111394
0.0018378077
0.0015878663
0.001360452
0.0011543074
0.00096787408
0.00079938027
0.00064690807
0.00050845878
0.00038201993
0.00026548555
0.00015734486
5.4278637e-05
0.0062204428
0.005915514
0.0055821289
0.005228198
0.0048613453
0.0044886262
0.0041163595
0.0037500159
0.0033941605
0.0030524433
0.0027276458
0.0024217129
0.0021358345
0.0018705343
0.0016257822
0.0014010452
0.0011954055
0.0010076411
0.00083630269
0.00067977614
0.00053634384
0.00040423713
0.00028160006
0.00016693615
5.7278664e-05
0.0059266377
0.0056532569
0.0053530706
0.0050328431
0.004699175
0.0043582606
0.0040157276
0.0036765191
0.0033448407
0.0030241436
0.0027171127
0.0024257227
0.0021512862
0.001894513
0.0016556177
0.001434349
0.0012300739
0.0010418613
0.00086854801
0.00070879791
0.00056115788
0.00042410334
0.00029601702
0.00017552355
5.9936194e-05
0.005648383
0.005402649
0.0051317563
0.0048415105
0.0045376184
0.0042255031
0.0039101552
0.0035960263
0.0032869686
0.0029862017
0.0026962931
0.0024191998
0.0021563002
0.0019084367
0.0016759811
0.0014589157
0.0012568524
0.0010691128
0.00089478453
0.00073278165
0.00058189397
0.00044082764
0.00030818352
0.00018277033
6.2166809e-05
0.0053823505
0.0051609318
0.0049159626
0.00465243
0.0043752792
0.004089255
0.0037987721
0.003507823
0.0032199086
0.0029380013
0.0026645401
0.0024014324
0.00215008
0.0019114122
0.001685931
0.0014737732
0.0012747602
0.0010884314
0.00091409617
0.00075089404
0.00059783351
0.00045382864
0.00031769835
0.00018844541
6.3923458e-05
0.0051255005
0.0049255526
0.0047036031
0.0044639437
0.0042108635
0.0039485142
0.0036807984
0.0034112829
0.0031431362
0.0028790903
0.0026214324
0.0023719943
0.0021321701
0.0019029424
0.0016849152
0.0014783502
0.0012832208
0.001099246
0.00092593562
0.00076262702
0.00060852577
0.00046274044
0.00032429716
0.00019240248
6.5126785e-05
0.004875115
0.0046942138
0.0044927927
0.0042745516
0.0040432144
0.0038024144
0.0035555981
0.0033059468
0.0030563201
0.0028092199
0.0025667695
0.0023307089
0.0021024018
0.001882853
0.0016727341
0.0014724101
0.001281977
0.0011013015
0.00093005739
0.00076775289
0.00061377207
0.00046740598
0.00032786954
0.00019455709
6.5724312e-05
0.0046288167
0.0044649024
0.0042818816
0.0040829492
0.003871342
0.003650241
0.003422688
0.0031915172
0.0029593036
0.0027283274
0.002500551
0.0022776124
0.0020608263
0.0018511972
0.0016494359
0.0014559834
0.0012710373
0.001094586
0.00092643805
0.00076625048
0.00061356456
0.00046783285
0.00032843494
0.00019491075
6.5716895e-05
0.0043845737
0.0042359014
0.0040694717
0.0038880466
0.003694442
0.003491444
0.0032817371
0.0030678434
0.0028520764
0.0026365072
0.0024229416
0.0022129107
0.0020076694
0.001808204
0.0016152439
0.0014292814
0.0012505933
0.0010792655
0.00091522003
0.00075824082
0.00060800356
0.00046409874
0.00032604659
0.00019350494
6.5129087e-05
0.0041406935
0.004005791
0.0038544202
0.0036889725
0.0035118992
0.003325641
0.0031325658
0.0029349159
0.002734766
0.0025339912
0.0023342467
0.0021369556
0.0019433053
0.001754251
0.0015705253
0.0013926526
0.0012209667
0.0010556304
0.00089665693
0.00074393692
0.00059725832
0.00045632835
0.00032078716
0.000190394
6.3984042e-05
0.003895807
0.0037734371
0.0036358348
0.0034850728
0.0033232861
0.0031526124
0.0029751392
0.0027928573
0.0026076235
0.0024211314
0.0022348916
0.0020502195
0.0018682299
0.0016898385
0.0015157681
0.0013465594
0.0011825844
0.0010240639
0.00087108479
0.00072362212
0.00058155711
0.00044469536
0.00031277845
0.00018565021
6.230722e-05
0.003648848
0.0035379759
0.0034130611
0.0032759006
0.0031283542
0.0029722936
0.0028095572
0.0026419096
0.0024710089
0.0022983801
0.0021253966
0.0019532675
0.0017830321
0.0016155591
0.001451551
0.0012915515
0.0011359563
0.00098502744
0.00083890825
0.00069764023
0.00056118038
0.00042941629
0.00030217427
0.00017936518
6.012973e-05
0.0033990292
0.0032987929
0.0031856638
0.0030612001
0.0029270205
0.0027847622
0.0026360417
0.0024824203
0.0023253743
0.0021662722
0.0020063569
0.001846734
0.0016883654
0.0015320675
0.0013785133
0.0012282387
0.0010816504
0.00093903755
0.0008005839
0.00066638227
0.00053644979
0.00041074123
0.00028915381
0.00017164635
5.7488376e-05
0.0031458137
0.0030554976
0.0029534056
0.002840887
0.0027193489
0.0025902208
0.002454921
0.0023148264
0.0021712474
0.0020254068
0.0018784237
0.0017313028
0.0015849278
0.0014400584
0.0012973316
0.0011572661
0.0010202687
0.00088664281
0.00075659946
0.00063026881
0.00050771396
0.00038894268
0.00027391083
0.000162608
5.4422093e-05
0.0028888813
0.002807894
0.0027162203
0.0026150256
0.0025055305
0.0023889793
0.0022666117
0.0021396377
0.0020092155
0.0018764315
0.0017422875
0.0016076901
0.0014734443
0.0013402502
0.0012087031
0.001079297
0.00095242885
0.00082840623
0.0007074557
0.00058973261
0.00047533286
0.00036430312
0.00025664061
0.00015236546
5.096579e-05
0.0026280949
0.0025559497
0.0024741849
0.0023838042
0.0022858611
0.0021814339
0.0020716014
0.0019574212
0.0018399102
0.0017200278
0.0015986641
0.0014766306
0.0013546536
0.0012333709
0.001113332
0.00099499914
0.00087875188
0.00076489262
0.0006536534
0.0005452039
0.00043966095
0.00033709727
0.00023753538
0.00014103797
4.7164293e-05
0.0023634685
0.0022997669
0.0022274948
0.002147511
0.0020607196
0.001968049
0.0018704316
0.0017687845
0.0016639931
0.001556898
0.0014482829
0.0013388666
0.0012292968
0.0011201478
0.0010119187
0.00090503523
0.00079985249
0.00069665966
0.00059568531
0.00049710377
0.0004010431
0.00030759211
0.00021679359
0.00012873694
4.3047284e-05
0.0020951375
0.0020395561
0.0019764386
0.0019065137
0.0018305505
0.0017493409
0.0016636826
0.0015743627
0.0014821443
0.0013877552
0.0012918773
0.0011951387
0.0010981098
0.0010012991
0.00090515295
0.00081005589
0.00071633284
0.00062425278
0.00053403305
0.00044584467
0.00035981897
0.00027605425
0.00019460795
0.00011555659
3.8600998e-05
0.0018233354
0.0017756139
0.0017213793
0.0016612423
0.0015958484
0.0015258642
0.0014519625
0.0013748096
0.0012950539
0.0012133152
0.0011301772
0.0010461802
0.00096181691
0.00087752983
0.00079370972
0.00071069637
0.00062877979
0.000548203
0.00046916568
0.0003918286
0.00031631922
0.00024273664
0.00017114719
0.00010161488
3.3905116e-05
0.0015483797
0.0015083106
0.0014627428
0.0014121783
0.0013571489
0.0012982044
0.0012359015
0.0011707929
0.0011034177
0.001034293
0.0009639071
0.00089271415
0.0008211302
0.00074953054
0.00067824865
0.00060757647
0.00053776519
0.00046902736
0.00040153979
0.00033544723
0.00027086666
0.00020789068
0.00014658526
8.7026021e-05
2.902771e-05
0.0012706644
0.0012380844
0.0012010136
0.001159853
0.0011150279
0.0010669789
0.0010161532
0.00096299563
0.00090794086
0.00085140701
0.00079378994
0.00073545903
0.00067675386
0.00061798216
0.00055941861
0.00050130484
0.00044385017
0.00038723307
0.00033160351
0.00027708564
0.00022378114
0.00017177173
0.00012111863
7.1903411e-05
2.3979085e-05
0.00099066774
0.00096545061
0.00093674552
0.00090485839
0.00087011421
0.00083285017
0.00079340878
0.0007521314
0.00070935242
0.00066539405
0.00062056202
0.00057514214
0.0005293979
0.00048356887
0.00043786981
0.00039249033
0.00034759549
0.00030332697
0.00025980468
0.00021712889
0.00017538269
0.00013463407
9.4935608e-05
5.6357187e-05
1.8787454e-05
0.0007089525
0.00069100299
0.0006705644
0.00064785219
0.00062309545
0.00059653208
0.00056840404
0.00053895273
0.00050841498
0.00047701938
0.00044498326
0.00041251008
0.00037978771
0.00034698727
0.00031426262
0.00028175009
0.00024956876
0.00021782139
0.00018659548
0.00015596478
0.00012599106
9.6725752e-05
6.8208772e-05
4.048977e-05
1.3490543e-05
0.00042624562
0.00041549235
0.0004032454
0.00038963292
0.00037479125
0.00035886209
0.00034198961
0.00032431783
0.00030598811
0.00028713706
0.00026789472
0.00024838309
0.00022871494
0.00020899302
0.00018930973
0.00016974719
0.0001503774
0.00013126268
0.00011245639
9.4003664e-05
7.5942571e-05
5.8304992e-05
4.1116498e-05
2.44068e-05
8.1302792e-06
0.00014242307
0.00013883612
0.00013475054
0.00013020895
0.00012525667
0.00011994084
0.00011430942
0.00010841036
0.00010229071
9.5995985e-05
8.9569491e-05
8.3051968e-05
7.6481254e-05
6.9891451e-05
6.3313497e-05
5.6774732e-05
5.0299243e-05
4.3907968e-05
3.7618859e-05
3.1447127e-05
2.5405525e-05
1.9504648e-05
1.3753286e-05
8.1630799e-06
2.7196612e-06
)
;

boundaryField
{
    Walls
    {
        type            zeroGradient;
    }
    Inlet
    {
        type            fixedValue;
        value           uniform 500;
    }
    Outlet
    {
        type            fixedValue;
        value           uniform 0;
    }
    Front
    {
        type            wedge;
    }
    Back
    {
        type            wedge;
    }
    defaultFaces
    {
        type            empty;
    }
}


// ************************************************************************* //
