/*--------------------------------*- C++ -*----------------------------------*\
| =========                 |                                                 |
| \\      /  F ield         | OpenFOAM: The Open Source CFD Toolbox           |
|  \\    /   O peration     | Version:  4.0                                   |
|   \\  /    A nd           | Web:      www.OpenFOAM.org                      |
|    \\/     M anipulation  |                                                 |
\*---------------------------------------------------------------------------*/
FoamFile
{
    version     2.0;
    format      ascii;
    class       surfaceScalarField;
    location    "0.52";
    object      phi;
}
// * * * * * * * * * * * * * * * * * * * * * * * * * * * * * * * * * * * * * //

dimensions      [0 3 -1 0 0 0 0];

internalField   nonuniform List<scalar> 
3364
(
-2.9910324e-10
1.7000334e-08
-1.183212e-10
5.3185927e-08
8.4464921e-08
-3.6080921e-10
1.736114e-08
-2.9101563e-10
5.3116172e-08
8.4173901e-08
-2.6997681e-11
1.738815e-08
6.9470533e-10
5.2394535e-08
8.4868614e-08
-4.81892e-11
1.7436327e-08
1.5594898e-09
5.0786868e-08
8.642811e-08
-2.0938296e-11
1.7457215e-08
9.9555542e-10
4.9770311e-08
8.7423633e-08
1.6825533e-10
1.7288889e-08
5.9471697e-10
4.9343758e-08
8.80183e-08
3.0181583e-10
1.6987022e-08
6.2422157e-12
4.9639272e-08
8.8024518e-08
-2.0895213e-10
1.7195935e-08
-1.4782331e-09
5.0908523e-08
8.6546259e-08
-6.2253514e-10
1.7818455e-08
-9.8708326e-10
5.1273043e-08
8.5559139e-08
-2.3000747e-10
1.8048465e-08
-2.4108309e-10
5.1284087e-08
8.5318018e-08
3.8598753e-10
1.766242e-08
-8.57822e-10
5.252785e-08
8.4460179e-08
9.9093241e-10
1.6671419e-08
-7.4967265e-10
5.4268398e-08
8.3710489e-08
4.652774e-10
1.6206125e-08
1.0803903e-09
5.3653238e-08
8.4790839e-08
-6.8999095e-10
1.6896095e-08
1.8950955e-09
5.1068113e-08
8.668589e-08
-1.0253784e-09
1.7921454e-08
4.1867368e-10
4.9624016e-08
8.7104518e-08
-1.1132398e-10
1.8032748e-08
-6.1973829e-11
4.95746e-08
8.7042492e-08
3.2251981e-10
1.7710184e-08
-6.248508e-10
5.0521915e-08
8.6417602e-08
2.5569044e-10
1.745445e-08
-3.4893756e-10
5.1126517e-08
8.6068639e-08
5.9781338e-10
1.6856599e-08
1.7768885e-10
5.154661e-08
8.6246281e-08
-5.7218171e-11
1.6913782e-08
-8.0496167e-10
5.2294322e-08
8.5441276e-08
-6.3561751e-10
1.754935e-08
2.5924989e-10
5.1399438e-08
8.5700489e-08
3.4402624e-10
1.7205266e-08
8.6172755e-10
5.0881679e-08
8.6562159e-08
7.6035779e-10
1.6444856e-08
1.8066604e-10
5.1461267e-08
8.6742765e-08
-4.3225616e-10
1.6877099e-08
7.1470469e-11
5.0957512e-08
8.6814199e-08
-8.3680106e-10
1.7713889e-08
-8.7165325e-10
5.0992359e-08
8.5942514e-08
-1.3796246e-10
1.785181e-08
-7.065142e-10
5.1560859e-08
8.5235954e-08
2.2274652e-10
1.7629007e-08
3.1391755e-10
5.1469646e-08
8.5549837e-08
1.6017463e-10
1.7468809e-08
-3.6291663e-10
5.1992729e-08
8.5186887e-08
1.9658863e-10
1.7272263e-08
-5.5340315e-10
5.2742831e-08
8.4633495e-08
1.506564e-09
1.5765915e-08
5.2141913e-09
4.9035324e-08
8.984767e-08
1.1340657e-08
4.4246019e-09
4.9367086e-08
1.1007013e-08
1.1007844e-08
1.2820432e-07
4.9501227e-09
-5.260074e-10
1.7402847e-08
-1.4472275e-09
-1.4863452e-09
2.9895119e-08
-3.9128296e-10
-1.3469306e-10
-1.4684663e-09
-3.6998073e-10
-4.5834759e-10
-2.4963762e-09
-1.1246259e-10
-2.2216403e-11
-4.2496769e-10
-5.7442053e-11
-7.2509588e-11
-8.1076978e-10
-1.9341445e-11
-2.8733966e-12
-7.3165271e-11
-3.6138821e-12
2.7750443e-12
-1.484453e-10
-5.1440506e-12
2.270743e-12
-1.8035335e-11
9.2777307e-12
1.7967551e-11
-3.3226354e-11
-1.5401664e-12
3.8109595e-12
-4.5761686e-12
1.2313839e-11
1.9187622e-11
-5.7957374e-12
2.9273839e-13
3.5183059e-12
2.0580987e-12
1.0548599e-11
1.5162842e-11
6.0828758e-12
7.2525886e-13
2.793109e-12
3.5306142e-12
7.7432981e-12
1.0802392e-11
7.8910605e-12
4.2942804e-13
2.3637571e-12
1.6860951e-12
6.4867673e-12
8.8202028e-12
3.6684605e-12
4.8511978e-14
2.3153343e-12
1.34187e-13
6.4012812e-12
8.8787724e-12
7.5895067e-14
-3.6995834e-15
2.3191107e-12
-9.7327057e-14
6.4950787e-12
9.2828169e-12
-5.0111448e-13
1.1267785e-13
2.2064871e-12
3.1411308e-13
6.2937647e-12
9.2224909e-12
3.7462409e-13
1.9721822e-13
2.0093041e-12
6.9413597e-13
5.7969246e-12
8.5919895e-12
1.3247566e-12
2.1665781e-13
1.7926698e-12
8.9321398e-13
5.1204175e-12
7.6796243e-12
1.8056529e-12
2.3009678e-13
1.5625884e-12
8.7138388e-13
4.4791632e-12
6.8367056e-12
1.7143522e-12
2.0233409e-13
1.3602654e-12
7.3828425e-13
3.9432367e-12
6.0690533e-12
1.5059728e-12
1.6091028e-13
1.1993636e-12
6.0644717e-13
3.4977177e-12
5.3957616e-12
1.2797664e-12
1.3507864e-13
1.0642913e-12
5.2402468e-13
3.1087849e-12
4.8511731e-12
1.0686339e-12
1.1516024e-13
9.4913562e-13
4.4439445e-13
2.7795602e-12
4.3665353e-12
9.2904709e-13
1.0067323e-13
8.4846559e-13
3.8780068e-13
2.492439e-12
3.93658e-12
8.1776552e-13
8.7006766e-14
7.6146095e-13
3.3963837e-13
2.239811e-12
3.5481316e-12
7.280924e-13
7.664675e-14
6.8481555e-13
2.9933672e-13
2.0171228e-12
3.2056912e-12
6.417798e-13
6.7119757e-14
6.1769658e-13
2.6209919e-13
1.8221439e-12
2.9055883e-12
5.6220249e-13
5.8007423e-14
5.596896e-13
2.2677947e-13
1.6533716e-12
2.6448361e-12
4.8753063e-13
4.9355076e-14
5.1033479e-13
1.9314854e-13
1.5095775e-12
2.4221425e-12
4.1584065e-13
4.1353056e-14
4.6898193e-13
1.6196409e-13
1.3889659e-12
2.2343707e-12
3.497344e-13
3.4258444e-14
4.3472368e-13
1.3423426e-13
1.2889896e-12
2.0789484e-12
2.8965536e-13
2.7915008e-14
4.0680892e-13
1.0931141e-13
1.2075931e-12
1.9526018e-12
2.356575e-13
2.2210339e-14
3.8459893e-13
8.6861067e-14
1.1429426e-12
1.8527011e-12
1.8676192e-13
1.7261859e-14
3.6733752e-13
6.7379908e-14
1.0928253e-12
1.7756798e-12
1.4440214e-13
1.3015139e-14
3.5432294e-13
5.065374e-14
1.0551878e-12
1.7184452e-12
1.0789005e-13
9.3546343e-15
3.4496899e-13
3.6270053e-14
1.0282739e-12
1.6781679e-12
7.6549798e-14
6.2634065e-15
3.3870638e-13
2.4076766e-14
1.0104625e-12
1.6523118e-12
4.993597e-14
3.7189335e-15
3.3498835e-13
1.4015332e-14
1.0001684e-12
1.6383681e-12
2.7962719e-14
1.6479597e-15
3.3334138e-13
5.8483331e-15
9.9597063e-13
1.6340264e-12
1.0194304e-14
-1.9844591e-17
3.3336231e-13
-6.6577018e-16
9.9661945e-13
1.6374025e-12
-4.0370651e-15
-1.3394458e-15
3.3470291e-13
-5.9471116e-15
1.0012303e-12
1.6467814e-12
-1.5320665e-14
-2.1092771e-15
3.3681341e-13
-8.9536115e-15
1.008078e-12
1.6593852e-12
-2.1551728e-14
-2.5474894e-15
3.3936218e-13
-1.0618039e-14
1.0161522e-12
1.6744119e-12
-2.5638616e-14
-2.9351752e-15
3.4229868e-13
-1.1968775e-14
1.0251896e-12
1.6905935e-12
-2.8143944e-14
-3.0963476e-15
3.453964e-13
-1.2635099e-14
1.0347323e-12
1.7073761e-12
-2.9411131e-14
-3.0576101e-15
3.4845541e-13
-1.2475042e-14
1.0441538e-12
1.723761e-12
-2.8853017e-14
-2.8639887e-15
3.5132084e-13
-1.1665958e-14
1.0529599e-12
1.7389809e-12
-2.6878874e-14
-2.5501482e-15
3.5387246e-13
-1.0355538e-14
1.0607696e-12
1.7524299e-12
-2.3797288e-14
-2.1386677e-15
3.5601263e-13
-8.628045e-15
1.0672634e-12
1.7635754e-12
-1.9766252e-14
-1.6395425e-15
3.5765369e-13
-6.5299833e-15
1.0721582e-12
1.7719511e-12
-1.4898214e-14
-1.0492177e-15
3.5870444e-13
-4.1417701e-15
1.0752553e-12
1.777272e-12
-9.4550977e-15
-3.7018249e-16
3.5907617e-13
-1.6517866e-15
1.0765414e-12
1.779568e-12
-3.9402928e-15
1.5536783e-16
4.3662437e-16
8.0904289e-16
1.3780036e-07
-9.6013743e-09
-8.7993986e-09
1.4659342e-07
2.1745674e-08
-1.4531565e-09
-1.3860525e-09
1.4331771e-08
-3.4649101e-09
-4.8450384e-10
-5.8602288e-10
-4.2647995e-09
-1.1931992e-09
-1.0202541e-10
-1.6221168e-10
-1.6169506e-09
-2.5389808e-10
3.4368661e-12
-1.2002779e-11
-4.0409229e-10
-5.7276963e-11
2.7489583e-11
2.6400978e-11
-9.5677767e-11
-3.4639124e-12
2.5157869e-11
2.5381615e-11
-2.4447058e-12
1.4790499e-11
1.644987e-11
1.4474263e-11
2.5697107e-11
1.2604776e-11
1.1735984e-11
7.760617e-12
1.9318033e-11
5.9023e-12
9.5022986e-12
7.1409201e-12
6.5220854e-12
7.6139158e-14
9.5023816e-12
8.2751625e-12
-1.0577619e-12
-1.24847e-12
1.0250056e-11
9.4952653e-12
-2.4682174e-12
2.2445676e-13
1.0400457e-11
1.049068e-11
-7.7069313e-13
1.7506562e-12
9.9747074e-12
1.0472592e-11
1.7689118e-12
2.5349268e-12
9.2455248e-12
9.8616215e-12
3.1459976e-12
2.5785795e-12
8.3813575e-12
9.0557824e-12
3.3844831e-12
2.3425419e-12
7.5448321e-12
8.3278801e-12
3.0704914e-12
2.0159592e-12
6.8086732e-12
7.6451532e-12
2.6987225e-12
1.7122207e-12
6.1651123e-12
6.9949515e-12
2.3624501e-12
1.4977601e-12
5.5964176e-12
6.3902944e-12
2.1024365e-12
1.3327235e-12
5.0814713e-12
5.8239521e-12
1.8990778e-12
1.2040209e-12
4.6055493e-12
5.3339836e-12
1.6939954e-12
1.0700655e-12
4.1772664e-12
4.8844627e-12
1.5195883e-12
9.3801887e-13
3.8014497e-12
4.4727867e-12
1.349693e-12
8.1281127e-13
3.4761669e-12
4.1111786e-12
1.1744155e-12
6.9304762e-13
3.1989571e-12
3.80256e-12
1.0016618e-12
5.8498529e-13
2.9637035e-12
3.5430934e-12
8.4444768e-13
4.8414007e-13
2.7692167e-12
3.3296703e-12
6.9755997e-13
3.936924e-13
2.6111806e-12
3.1567669e-12
5.6659384e-13
3.1104543e-13
2.4868971e-12
3.0217302e-12
4.4608168e-13
2.3915618e-13
2.3921441e-12
2.9209706e-12
3.3991684e-13
1.7697902e-13
2.3230573e-12
2.8500343e-12
2.4791797e-13
1.236133e-13
2.2759971e-12
2.804742e-12
1.6890955e-13
7.8256359e-14
2.2476809e-12
2.7809204e-12
1.0208321e-13
4.0931068e-14
2.2347177e-12
2.7748335e-12
4.7024448e-14
1.0898743e-14
2.2340193e-12
2.7827457e-12
2.9942678e-15
-1.2903802e-14
2.2428928e-12
2.8007587e-12
-3.0908152e-14
-3.1559311e-14
2.2591389e-12
2.8251732e-12
-5.5964246e-14
-4.2506659e-14
2.2801019e-12
2.8595234e-12
-7.6846544e-14
-4.9383326e-14
2.3038551e-12
2.8948772e-12
-8.4726281e-14
-5.319346e-14
2.3289136e-12
2.9303421e-12
-8.8646971e-14
-5.4728097e-14
2.3542398e-12
2.9658172e-12
-9.0191268e-14
-5.3124281e-14
2.3785207e-12
2.9991591e-12
-8.6453982e-14
-4.9231422e-14
2.4008831e-12
3.0296332e-12
-7.9692974e-14
-4.3468185e-14
2.4205641e-12
3.0563367e-12
-7.0158911e-14
-3.6019014e-14
2.4368271e-12
3.0783269e-12
-5.7996114e-14
-2.7105059e-14
2.4490443e-12
3.0948449e-12
-4.3609821e-14
-1.7254734e-14
2.4568545e-12
3.105476e-12
-2.7872474e-14
-7.3792372e-15
2.4603039e-12
3.1102844e-12
-1.2174203e-14
1.2167131e-15
1.5726793e-15
-2.6143531e-12
2.6209541e-12
-7.3325603e-12
4.7186856e-12
-1.3880154e-11
6.5451363e-12
-2.1055697e-11
7.1729289e-12
-2.7902198e-11
6.8443035e-12
-3.4958406e-11
7.0545648e-12
-4.2962703e-11
8.0032518e-12
-5.3311103e-11
1.0347946e-11
-6.7622968e-11
1.4311949e-11
-8.7021847e-11
1.9399418e-11
-1.1156739e-10
2.4546432e-11
-1.4040818e-10
2.8841899e-11
-1.7243854e-10
3.2031581e-11
-2.0671646e-10
3.4279143e-11
-2.4246295e-10
3.5747602e-11
-2.7891518e-10
3.645317e-11
-3.1512405e-10
3.6209592e-11
-3.4990761e-10
3.4784047e-11
-3.8226356e-10
3.2356207e-11
-4.1126996e-10
2.9006446e-11
-4.3602539e-10
2.4755342e-11
-4.5585033e-10
1.9824747e-11
-4.7024094e-10
1.4390384e-11
-4.7869856e-10
8.4574008e-12
2.2238129e-12
-4.1935853e-11
4.4561018e-11
-9.3893959e-11
5.6683266e-11
-1.5557327e-10
6.823198e-11
-2.2666073e-10
7.8268337e-11
-3.0754565e-10
8.7737338e-11
-3.9980327e-10
9.9320301e-11
-5.0515905e-10
1.1336703e-10
-6.2562449e-10
1.3082111e-10
-7.6109446e-10
1.4978921e-10
-9.099688e-10
1.6828051e-10
-1.0700028e-09
1.845866e-10
-1.2390231e-09
1.9786772e-10
-1.4146829e-09
2.0769618e-10
-1.594661e-09
2.1426141e-10
-1.7766418e-09
2.1773197e-10
-1.9594474e-09
2.1926163e-10
-2.1524458e-09
2.2921018e-10
-2.3370867e-09
2.1942659e-10
-2.5055723e-09
2.0084279e-10
-2.6529982e-09
1.7643279e-10
-2.7756248e-09
1.4738183e-10
-2.8706091e-09
1.1480853e-10
-2.9354948e-09
7.9275057e-11
-2.9663803e-09
3.9341712e-11
1.0013466e-11
-1.2104719e-10
1.6561713e-10
-2.6719927e-10
2.0284901e-10
-4.3705105e-10
2.3809959e-10
-6.3145016e-10
2.7268391e-10
-8.5479171e-10
3.1109524e-10
-1.11208e-09
3.5662434e-10
-1.4124239e-09
4.1372559e-10
-1.8213244e-09
5.3973502e-10
-2.2690224e-09
5.9749912e-10
-2.7279572e-09
6.2722559e-10
-3.1828193e-09
6.394574e-10
-3.6242289e-09
6.3928456e-10
-4.0459517e-09
6.2942486e-10
-4.4426563e-09
6.1097059e-10
-4.8085337e-09
5.8361269e-10
-5.137876e-09
5.486061e-10
-5.415626e-09
5.0696138e-10
-5.655462e-09
4.5926275e-10
-5.8613728e-09
4.0675299e-10
-6.0360218e-09
3.5108028e-10
-6.1812922e-09
2.9265012e-10
-6.2978448e-09
2.3135838e-10
-6.3857792e-09
1.6720613e-10
-6.4470173e-09
1.0057619e-10
3.337257e-11
-3.7368031e-10
5.3931473e-10
-7.9143185e-10
6.2062613e-10
-1.2632209e-09
7.0991661e-10
-2.0197738e-09
1.0292625e-09
-2.8486515e-09
1.1399954e-09
-3.6490134e-09
1.1570051e-09
-4.365017e-09
1.1297446e-09
-4.8989824e-09
1.0737129e-09
-5.3000658e-09
9.9859274e-10
-5.5852105e-09
9.1237839e-10
-5.7651854e-09
8.1943878e-10
-5.8514175e-09
7.2552164e-10
-5.8540947e-09
6.3210579e-10
-5.7766386e-09
5.3351726e-10
-5.6350824e-09
4.4205837e-10
-5.4465993e-09
3.6012407e-10
-5.2282261e-09
2.8858878e-10
-4.9968155e-09
2.2785207e-10
-4.7677956e-09
1.7773273e-10
-4.5571987e-09
1.4048248e-10
-4.3767178e-09
1.1216808e-10
-4.2329938e-09
8.7632847e-11
-4.1315178e-09
6.5728381e-11
-4.0756547e-09
4.471107e-11
2.4420548e-11
-2.2284849e-09
2.7678277e-09
-3.9384561e-09
2.3306283e-09
-5.3804082e-09
2.1518986e-09
-6.0252223e-09
1.674098e-09
-6.0604434e-09
1.175234e-09
-5.590229e-09
6.8680494e-10
-4.8246775e-09
3.6420474e-10
-3.830134e-09
7.9179117e-11
-2.669788e-09
-1.6174495e-10
-1.427998e-09
-3.2940487e-10
-1.8861513e-10
-4.1993997e-10
1.0488675e-09
-5.119622e-10
2.3560822e-09
-6.7511012e-10
3.7727477e-09
-8.8314823e-10
5.1571629e-09
-9.4235516e-10
6.4695437e-09
-9.5225312e-10
7.6872205e-09
-9.2908269e-10
8.7954353e-09
-8.8035558e-10
9.7835175e-09
-8.103407e-10
1.0645173e-08
-7.2116252e-10
1.1372626e-08
-6.1527342e-10
1.1955491e-08
-4.9521799e-10
1.2383972e-08
-3.6273721e-10
1.2648911e-08
-2.2021249e-10
-6.5971813e-11
1.1165149e-09
1.6514003e-09
4.4106013e-09
-9.6340751e-10
8.1954164e-09
-1.632848e-09
1.1906665e-08
-2.0371226e-09
1.5616423e-08
-2.5344994e-09
1.9274291e-08
-2.9710351e-09
2.2863577e-08
-3.22505e-09
2.6229061e-08
-3.2862671e-09
2.928115e-08
-3.2137924e-09
3.20209e-08
-3.0691084e-09
3.4488006e-08
-2.8869966e-09
3.6649604e-08
-2.6735088e-09
3.8429e-08
-2.4544516e-09
3.9791014e-08
-2.2451072e-09
4.0875729e-08
-2.0270153e-09
4.1733329e-08
-1.8097981e-09
4.2403509e-08
-1.5992071e-09
4.2919524e-08
-1.3963153e-09
4.3310324e-08
-1.2010855e-09
4.3601736e-08
-1.012519e-09
4.3815455e-08
-8.2893807e-10
4.3968352e-08
-6.4806129e-10
4.407259e-08
-4.6692033e-10
4.4135309e-08
-2.8287871e-10
-8.9885249e-11
1.5051196e-07
-2.2659089e-09
1.4890195e-07
6.475292e-10
1.4610201e-07
1.1678899e-09
1.4246194e-07
1.6036427e-09
1.3779531e-07
2.1327366e-09
1.3222944e-07
2.5953619e-09
1.2612241e-07
2.8824287e-09
1.1986096e-07
2.9755692e-09
1.13722e-07
2.9254949e-09
1.0784667e-07
2.8065152e-09
1.0229491e-07
2.6650126e-09
9.7126134e-08
2.4954892e-09
9.236819e-08
2.3036913e-09
8.8021411e-08
2.1018498e-09
8.409634e-08
1.8982167e-09
8.0589269e-08
1.6974191e-09
7.7488832e-08
1.5013626e-09
7.478111e-08
1.3115294e-09
7.2451786e-08
1.1283519e-09
7.0488119e-08
9.5125355e-10
6.8880435e-08
7.7884556e-10
6.7623321e-08
6.0914578e-10
6.67172e-08
4.3928892e-10
6.6167822e-08
2.6658413e-10
8.515957e-11
1.3615302e-08
-1.5493133e-09
1.5936995e-08
-1.6740478e-09
1.8540081e-08
-1.4350812e-09
2.1226542e-08
-1.0827069e-09
2.3990688e-08
-6.3130183e-10
2.6886639e-08
-3.0048766e-10
2.9790508e-08
-2.1347638e-11
3.2543616e-08
2.2255024e-10
3.5104298e-08
3.6490097e-10
3.744186e-08
4.6904171e-10
3.9515562e-08
5.9139682e-10
4.1127193e-08
8.8394321e-10
4.2406048e-08
1.0249199e-09
4.3421469e-08
1.0865099e-09
4.4216115e-08
1.1036494e-09
4.4825215e-08
1.0883962e-09
4.5282678e-08
1.0439745e-09
4.5618028e-08
9.7625106e-10
4.5857326e-08
8.8912448e-10
4.6023397e-08
7.8524997e-10
4.6135656e-08
6.6665213e-10
4.6210156e-08
5.3470942e-10
4.6258064e-08
3.9144157e-10
4.6286515e-08
2.3819324e-10
7.22181e-11
-5.0023127e-09
-8.118096e-10
-5.6524203e-09
-1.0239487e-09
-5.9797778e-09
-1.1077326e-09
-5.9143953e-09
-1.1480981e-09
-5.3977746e-09
-1.1479297e-09
-4.5861435e-09
-1.1121238e-09
-3.5579347e-09
-1.049559e-09
-2.3684747e-09
-9.6690958e-10
-1.1324289e-09
-8.7114221e-10
1.0963399e-10
-7.7301609e-10
1.3731057e-09
-6.7206763e-10
2.8236398e-09
-5.6658131e-10
4.3126754e-09
-4.6410392e-10
5.7683352e-09
-3.6913599e-10
7.1558497e-09
-2.838494e-10
8.4571679e-09
-2.1290466e-10
9.6690239e-09
-1.678628e-10
1.0775396e-08
-1.3010106e-10
1.1763597e-08
-9.9056156e-11
1.2623624e-08
-7.4755556e-11
1.3346947e-08
-5.664927e-11
1.3925362e-08
-4.3684562e-11
1.4351241e-08
-3.4415225e-11
1.4615953e-08
-2.6497837e-11
-1.6468835e-11
-2.1978027e-09
-2.3095794e-10
-2.9451991e-09
-2.7655401e-10
-3.7335155e-09
-3.1942059e-10
-4.50968e-09
-3.7194028e-10
-5.2128139e-09
-4.448044e-10
-5.743948e-09
-5.8099942e-10
-6.154987e-09
-6.3853048e-10
-6.4499504e-09
-6.7195689e-10
-6.6325144e-09
-6.8858898e-10
-6.712586e-09
-6.9295491e-10
-6.697705e-09
-6.869588e-10
-6.5921137e-09
-6.7218215e-10
-6.4071511e-09
-6.4907536e-10
-6.1577167e-09
-6.1857847e-10
-5.859588e-09
-5.8198535e-10
-5.5334697e-09
-5.3902946e-10
-5.2072337e-09
-4.9410459e-10
-4.8910235e-09
-4.4631643e-10
-4.5946129e-09
-3.9547128e-10
-4.3276795e-09
-3.4169291e-10
-4.0992333e-09
-2.8509903e-10
-3.9171696e-09
-2.2575144e-10
-3.7878639e-09
-1.6372397e-10
-3.7151144e-09
-9.9250187e-11
-3.3607581e-11
-5.9800415e-10
-3.7043328e-11
-8.1611272e-10
-5.8442882e-11
-1.0585627e-09
-7.6968628e-11
-1.3392144e-09
-9.1287418e-11
-1.6744445e-09
-1.0957399e-10
-2.120864e-09
-1.3458071e-10
-2.5993368e-09
-1.6005971e-10
-3.084464e-09
-1.8683287e-10
-3.5621813e-09
-2.1087589e-10
-4.0242794e-09
-2.3086185e-10
-4.4646106e-09
-2.4663347e-10
-4.877961e-09
-2.5883835e-10
-5.2540684e-09
-2.7297497e-10
-5.5723554e-09
-3.0029893e-10
-5.8537058e-09
-3.0064269e-10
-6.1012527e-09
-2.914905e-10
-6.3191829e-09
-2.7618251e-10
-6.5099843e-09
-2.5552314e-10
-6.6754204e-09
-2.3004341e-10
-6.8169489e-09
-2.0017261e-10
-6.9356611e-09
-1.6639498e-10
-7.0321161e-09
-1.2930458e-10
-7.1061332e-09
-8.9714924e-11
-7.1575637e-09
-4.7827661e-11
-1.0874342e-11
-1.5185514e-10
1.9135408e-11
-2.2300793e-10
1.2711321e-11
-3.1277011e-10
1.2794871e-11
-4.1878053e-10
1.4724142e-11
-5.4409888e-10
1.5745245e-11
-6.9125377e-10
1.2574746e-11
-8.5557227e-10
4.2589505e-12
-1.0375893e-09
-4.8161274e-12
-1.2323366e-09
-1.6129284e-11
-1.4349465e-09
-2.8253001e-11
-1.6429841e-09
-3.8597356e-11
-1.8576285e-09
-4.4195934e-11
-2.0806796e-09
-4.9926145e-11
-2.3267828e-09
-5.4198452e-11
-2.5709129e-09
-5.6515654e-11
-2.8057015e-09
-5.6705283e-11
-3.0267318e-09
-5.5155983e-11
-3.2300739e-09
-5.2184968e-11
-3.4121638e-09
-4.7957804e-11
-3.5698662e-09
-4.2474621e-11
-3.7003511e-09
-3.5914582e-11
-3.8011723e-09
-2.8487959e-11
-3.8704789e-09
-2.0412965e-11
-3.9064539e-09
-1.1857131e-11
-3.1720147e-12
-6.3755937e-12
2.3066388e-11
-1.3899688e-11
2.0235382e-11
-2.1949268e-11
2.0844319e-11
-3.3637045e-11
2.6411717e-11
-5.0995769e-11
3.3103708e-11
-7.7672482e-11
3.9251139e-11
-1.1511551e-10
4.170159e-11
-1.6009947e-10
4.0167386e-11
-2.1191279e-10
3.5683511e-11
-2.6999342e-10
2.9827032e-11
-3.3369324e-10
2.5101794e-11
-3.9922192e-10
2.1331983e-11
-4.6668122e-10
1.7532326e-11
-5.3497121e-10
1.4090618e-11
-6.0257344e-10
1.1085563e-11
-6.6776699e-10
8.4871724e-12
-7.2941525e-10
6.4910897e-12
-7.8651648e-10
4.9150156e-12
-8.3825944e-10
3.7838619e-12
-8.8352433e-10
2.7889221e-12
-9.2130888e-10
1.8686116e-12
-9.5080612e-10
1.0079201e-12
-9.714843e-10
2.6388179e-13
-9.8315852e-10
-1.8418613e-13
-4.1102007e-14
3.702682e-11
1.1736624e-11
4.8775414e-11
8.4866273e-12
6.0292667e-11
9.3268461e-12
7.398744e-11
1.2716705e-11
8.9965261e-11
1.7125653e-11
1.0514248e-10
2.4073702e-11
1.1855059e-10
2.8293297e-11
1.2880801e-10
2.9909801e-11
1.3423839e-10
3.0252981e-11
1.3531115e-10
2.8754141e-11
1.3402755e-10
2.6385289e-11
1.3192485e-10
2.3434588e-11
1.2930788e-10
2.0149207e-11
1.2650547e-10
1.6892958e-11
1.2381239e-10
1.3778598e-11
1.2136532e-10
1.0934205e-11
1.1919641e-10
8.6599792e-12
1.1742209e-10
6.6893366e-12
1.1623381e-10
4.9721587e-12
1.1535599e-10
3.6667746e-12
1.1460319e-10
2.6214649e-12
1.1390428e-10
1.7068904e-12
1.1320799e-10
9.6025499e-13
1.1262168e-10
4.022266e-13
3.3048604e-14
2.7831671e-11
3.2230693e-12
3.6636668e-11
-3.1835327e-13
4.8042483e-11
-2.0789924e-12
6.1968189e-11
-1.2090407e-12
7.7661494e-11
1.4323141e-12
9.6393054e-11
5.3421231e-12
1.145615e-10
1.012486e-11
1.3171214e-10
1.2759194e-11
1.4757752e-10
1.4387664e-11
1.6143043e-10
1.4901315e-11
1.7334873e-10
1.4467105e-11
1.833927e-10
1.3390767e-11
1.9165972e-10
1.1882346e-11
1.9831286e-10
1.024e-11
2.0399284e-10
8.0988257e-12
2.091927e-10
5.7345707e-12
2.1412576e-10
3.7271597e-12
2.1871659e-10
2.0987719e-12
2.2292533e-10
7.6368808e-13
2.2671832e-10
-1.2592687e-13
2.2997028e-10
-6.3019527e-13
2.3249975e-10
-8.2228379e-13
2.3421876e-10
-7.5844999e-13
2.3516715e-10
-5.4585896e-13
-2.3815769e-13
7.9666671e-12
1.7786424e-12
9.9328874e-12
-2.2844606e-12
1.2912544e-11
-5.0585667e-12
1.7904432e-11
-6.2008641e-12
2.4772262e-11
-5.4354561e-12
3.3439597e-11
-3.325148e-12
4.3811355e-11
-2.4682567e-13
5.3800409e-11
2.7702241e-12
6.2853523e-11
5.3346458e-12
7.0587719e-11
7.1672271e-12
7.7279072e-11
7.7758693e-12
8.260484e-11
8.0651262e-12
8.6507237e-11
7.9800846e-12
8.9308384e-11
7.4389944e-12
9.093535e-11
6.4720074e-12
9.1695554e-11
4.9745181e-12
9.1663639e-11
3.7592283e-12
9.1236321e-11
2.5262462e-12
9.0651254e-11
1.348911e-12
9.0089608e-11
4.3587481e-13
8.9599997e-11
-1.4042944e-13
8.9223617e-11
-4.4575212e-13
8.9003378e-11
-5.3806375e-13
8.8946371e-11
-4.8870632e-13
-3.2031883e-13
-3.3694174e-12
4.0904436e-12
-6.1352385e-12
4.8147697e-13
-8.6429768e-12
-2.5507345e-12
-1.0605059e-11
-4.238704e-12
-1.1152783e-11
-4.8876635e-12
-1.0455534e-11
-4.0223336e-12
-8.3256381e-12
-2.3766602e-12
-5.2486672e-12
-3.0668652e-13
-2.1239623e-12
2.2100005e-12
1.9692873e-13
4.8463947e-12
1.5060074e-12
6.4668471e-12
2.192919e-12
7.3782679e-12
2.4365156e-12
7.7365375e-12
1.9515964e-12
7.9239586e-12
6.6650251e-13
7.7571412e-12
-1.5514455e-12
7.1925007e-12
-4.3049909e-12
6.5128026e-12
-7.4018802e-12
5.6231588e-12
-1.0662084e-11
4.6091322e-12
-1.3899657e-11
3.6734604e-12
-1.6889839e-11
2.8497612e-12
-1.9499935e-11
2.1643465e-12
-2.1562803e-11
1.5248037e-12
-2.3049553e-11
9.9804185e-13
3.2513166e-13
-5.4900326e-12
7.1123593e-12
-9.4342268e-12
4.4257502e-12
-1.340728e-11
1.42238e-12
-1.7350878e-11
-2.9505964e-13
-2.0524355e-11
-1.7141512e-12
-2.2856398e-11
-1.6902647e-12
-2.432052e-11
-9.1251901e-13
-2.510533e-11
4.7813802e-13
-2.5270095e-11
2.3747751e-12
-2.4906471e-11
4.482776e-12
-2.4767488e-11
6.3278642e-12
-2.5087003e-11
7.697779e-12
-2.5814352e-11
8.4638767e-12
-2.7048244e-11
9.1578358e-12
-2.8668377e-11
9.377253e-12
-3.075313e-11
9.2772277e-12
-3.311575e-11
8.87539e-12
-3.573502e-11
8.242392e-12
-3.8510876e-11
7.3849463e-12
-4.1230863e-11
6.3934005e-12
-4.3701007e-11
5.3198564e-12
-4.5731257e-11
4.1945435e-12
-4.7207844e-11
3.0013346e-12
-4.798503e-11
1.7751751e-12
5.9032036e-13
-2.7572254e-12
9.098957e-12
-5.4177946e-12
7.0863692e-12
-8.7269494e-12
4.7315705e-12
-1.1804137e-11
2.7821519e-12
-1.4922893e-11
1.4046176e-12
-1.7410922e-11
7.977696e-13
-1.9321329e-11
9.9788729e-13
-2.0708177e-11
1.8649805e-12
-2.1488121e-11
3.1547085e-12
-2.1676468e-11
4.6711084e-12
-2.1601432e-11
6.2528103e-12
-2.1337413e-11
7.4337385e-12
-2.0947777e-11
8.0742166e-12
-2.0613772e-11
8.8238027e-12
-2.086982e-11
9.6332694e-12
-2.152606e-11
9.9334341e-12
-2.2450383e-11
9.7996752e-12
-2.3498173e-11
9.2901408e-12
-2.4665876e-11
8.5526064e-12
-2.5868778e-11
7.5962562e-12
-2.7006334e-11
6.4573653e-12
-2.7990122e-11
5.1782821e-12
-2.879143e-11
3.8025923e-12
-2.9335866e-11
2.319564e-12
7.4375121e-13
1.0544718e-12
9.8134411e-12
-2.4264239e-13
8.383517e-12
-2.0650544e-12
6.5540062e-12
-4.0315172e-12
4.7486294e-12
-5.9561469e-12
3.3292545e-12
-7.5963691e-12
2.4379931e-12
-8.6445054e-12
2.04602e-12
-9.2964113e-12
2.5168793e-12
-9.3811727e-12
3.2394599e-12
-8.9561559e-12
4.246079e-12
-8.075911e-12
5.372551e-12
-7.0625584e-12
6.4203698e-12
-6.117297e-12
7.1289378e-12
-5.0370356e-12
7.7435225e-12
-3.750329e-12
8.3465428e-12
-2.7828336e-12
8.9659174e-12
-2.0240237e-12
9.0408427e-12
-1.5526981e-12
8.8187914e-12
-1.2725078e-12
8.2723911e-12
-1.1080212e-12
7.4317435e-12
-1.0804613e-12
6.4297787e-12
-1.1295634e-12
5.2273559e-12
-1.2259309e-12
3.8989304e-12
-1.3507153e-12
2.4443228e-12
7.7909473e-13
3.2812213e-12
9.678246e-12
3.0082922e-12
8.6564683e-12
2.3804806e-12
7.1818335e-12
1.5263215e-12
5.6027983e-12
6.4913409e-13
4.2064467e-12
-8.0930811e-14
3.1680585e-12
-5.8955487e-13
2.5546413e-12
-4.5884341e-13
2.3861627e-12
1.1603065e-13
2.6645791e-12
1.0628461e-12
3.2992558e-12
2.3988292e-12
4.0365595e-12
4.0021992e-12
4.816991e-12
5.5822548e-12
5.5488732e-12
7.0789953e-12
6.246773e-12
8.8834661e-12
6.542063e-12
1.0759732e-11
7.0896424e-12
1.2539028e-11
7.2615373e-12
1.3988912e-11
7.3688987e-12
1.5236109e-11
7.0251837e-12
1.6223455e-11
6.4443878e-12
1.7023008e-11
5.6302152e-12
1.7634567e-11
4.615786e-12
1.8115819e-11
3.4176661e-12
1.8452872e-11
2.1072621e-12
7.8199897e-13
3.9290308e-12
9.1337137e-12
4.1892635e-12
8.396247e-12
4.1787275e-12
7.1923769e-12
3.9762567e-12
5.8052727e-12
3.6963148e-12
4.4863886e-12
3.4822039e-12
3.3821668e-12
3.4474379e-12
2.5894024e-12
3.70005e-12
2.1335442e-12
4.3346171e-12
2.0300047e-12
5.4764751e-12
2.1573901e-12
6.8791615e-12
2.6338656e-12
8.5503658e-12
3.1457795e-12
1.0402835e-11
3.6963976e-12
1.2402897e-11
4.2467047e-12
1.423113e-11
4.7138248e-12
1.6151433e-11
5.1693349e-12
1.8071089e-11
5.3418779e-12
2.0025349e-11
5.4146355e-12
2.1746489e-11
5.3040405e-12
2.316538e-11
5.0254941e-12
2.4331505e-11
4.464087e-12
2.5241854e-11
3.7054333e-12
2.5883669e-11
2.7758469e-12
2.6257922e-11
1.7330086e-12
5.8089039e-13
3.7398391e-12
8.4643694e-12
4.1849469e-12
7.9511401e-12
4.3844179e-12
6.9929041e-12
4.404582e-12
5.7851041e-12
4.3638919e-12
4.5270718e-12
4.3194033e-12
3.4266466e-12
4.4005099e-12
2.5082857e-12
4.6783457e-12
1.8556972e-12
5.2299524e-12
1.4783863e-12
6.0344256e-12
1.3529053e-12
7.2043322e-12
1.4639478e-12
8.6416668e-12
1.7084345e-12
1.0343737e-11
1.9943183e-12
1.2222337e-11
2.3680967e-12
1.4099178e-11
2.8369767e-12
1.6029386e-11
3.2391211e-12
1.7864646e-11
3.5066132e-12
1.962055e-11
3.6587276e-12
2.1255415e-11
3.6691717e-12
2.2786123e-11
3.4947842e-12
2.4140149e-11
3.110059e-12
2.5200768e-11
2.6448123e-12
2.5956284e-11
2.0203279e-12
2.6431134e-11
1.2581597e-12
3.8391395e-13
3.3231188e-12
7.8399665e-12
3.779981e-12
7.4942694e-12
4.0394845e-12
6.7333902e-12
4.1177758e-12
5.7068004e-12
4.0818034e-12
4.56303e-12
4.0530557e-12
3.4553787e-12
4.0866601e-12
2.4746648e-12
4.2591563e-12
1.6831841e-12
4.6217022e-12
1.1158234e-12
5.2022903e-12
7.7230046e-13
6.0400389e-12
6.2618312e-13
7.1187962e-12
6.2966202e-13
8.5110422e-12
6.0205846e-13
1.0010512e-11
8.68615e-13
1.1552322e-11
1.2951558e-12
1.3188998e-11
1.6024357e-12
1.4842821e-11
1.8527823e-12
1.6467956e-11
2.0335859e-12
1.8028914e-11
2.1082084e-12
1.9462119e-11
2.0615746e-12
2.068726e-11
1.884915e-12
2.1701203e-11
1.6308659e-12
2.2468784e-11
1.252743e-12
2.2925423e-11
8.0152233e-13
2.4707132e-13
2.933731e-12
7.2686716e-12
3.3654041e-12
7.0625809e-12
3.6309034e-12
6.4678738e-12
3.7361802e-12
5.6015052e-12
3.7221727e-12
4.5770177e-12
3.6681507e-12
3.50938e-12
3.6370531e-12
2.5057411e-12
3.6898314e-12
1.6303843e-12
3.8796836e-12
9.259499e-13
4.2444657e-12
4.0749766e-13
4.8067352e-12
6.3893946e-14
5.5787784e-12
-1.4239979e-13
6.5612674e-12
-3.8044766e-13
7.619469e-12
-1.8960198e-13
8.8542148e-12
6.0396523e-14
1.0178305e-11
2.783338e-13
1.1556012e-11
4.7506488e-13
1.2907426e-11
6.8216345e-13
1.4240952e-11
7.7467599e-13
1.5473827e-11
8.2869335e-13
1.6544824e-11
8.139138e-13
1.7447747e-11
7.2793854e-13
1.8166591e-11
5.3389462e-13
1.8640489e-11
3.2762487e-13
1.8519424e-13
2.6356968e-12
6.7353931e-12
3.0539572e-12
6.6443009e-12
3.332669e-12
6.1891411e-12
3.4763688e-12
5.4577834e-12
3.5088505e-12
4.5445132e-12
3.4664334e-12
3.5517737e-12
3.410669e-12
2.5614818e-12
3.3893151e-12
1.6517146e-12
3.457481e-12
8.5776071e-13
3.650873e-12
2.140832e-13
3.9897215e-12
-2.7497596e-13
4.473052e-12
-6.2575029e-13
5.0823948e-12
-9.8980887e-13
5.8960404e-12
-1.0032641e-12
6.8232388e-12
-8.668165e-13
7.8206585e-12
-7.1909851e-13
8.8910405e-12
-5.9532782e-13
1.0006285e-11
-4.3309015e-13
1.1065638e-11
-2.8468457e-13
1.2053677e-11
-1.5935147e-13
1.2922699e-11
-5.5113646e-14
1.3644443e-11
6.1906164e-15
1.4124956e-11
5.3377261e-14
1.4407942e-11
4.4638628e-14
-1.426912e-14
2.4071903e-12
6.2272611e-12
2.8253481e-12
6.2261222e-12
3.1282294e-12
5.8862378e-12
3.3128137e-12
5.2731761e-12
3.3909631e-12
4.4663403e-12
3.3906168e-12
3.552096e-12
3.3401655e-12
2.6119091e-12
3.2946556e-12
1.6972008e-12
3.2827417e-12
8.6965138e-13
3.3499346e-12
1.4686803e-13
3.5218718e-12
-4.469343e-13
3.8055121e-12
-9.0941033e-13
4.0932129e-12
-1.2775277e-12
4.66586e-12
-1.5759274e-12
5.3345832e-12
-1.5355538e-12
6.1007334e-12
-1.4852609e-12
6.9027215e-12
-1.3973263e-12
7.732501e-12
-1.2628781e-12
8.5344426e-12
-1.0866332e-12
9.3037494e-12
-9.2866394e-13
9.9694918e-12
-7.2086036e-13
1.0527887e-11
-5.5220862e-13
1.0871027e-11
-2.8976585e-13
1.1136755e-11
-2.2108918e-13
-2.0769432e-13
2.1919218e-12
5.7293156e-12
2.6126516e-12
5.8053721e-12
2.9376311e-12
5.5612371e-12
3.1561981e-12
5.0545872e-12
3.2668e-12
4.3557159e-12
3.2855323e-12
3.5333411e-12
3.2527628e-12
2.644656e-12
3.1895759e-12
1.7603653e-12
3.1432433e-12
9.1596226e-13
3.1323803e-12
1.5771017e-13
3.1802867e-12
-4.9486044e-13
3.3021189e-12
-1.0312609e-12
3.4701875e-12
-1.445613e-12
3.685237e-12
-1.7909919e-12
4.1612247e-12
-2.0115547e-12
4.6652216e-12
-1.989269e-12
5.2124504e-12
-1.9445645e-12
5.7783938e-12
-1.8288291e-12
6.3573875e-12
-1.6656331e-12
6.8837304e-12
-1.4550118e-12
7.4157781e-12
-1.2529116e-12
7.8347356e-12
-9.7116913e-13
8.2745748e-12
-7.2960795e-13
8.5019334e-12
-4.4844679e-13
-1.7797162e-13
1.9607033e-12
5.2881831e-12
2.3777798e-12
5.388277e-12
2.7099282e-12
5.2290693e-12
2.9425814e-12
4.8219139e-12
3.0769247e-12
4.2213521e-12
3.1275418e-12
3.4827034e-12
3.1011163e-12
2.6710609e-12
3.0323439e-12
1.8291174e-12
2.9383511e-12
1.0099353e-12
2.8491648e-12
2.4687757e-13
2.786556e-12
-4.3226957e-13
2.769269e-12
-1.0139905e-12
2.8285036e-12
-1.5048626e-12
2.9474507e-12
-1.9099524e-12
3.0643169e-12
-2.1284327e-12
3.3626762e-12
-2.2876383e-12