/*--------------------------------*- C++ -*----------------------------------*\
| =========                 |                                                 |
| \\      /  F ield         | OpenFOAM: The Open Source CFD Toolbox           |
|  \\    /   O peration     | Version:  4.0                                   |
|   \\  /    A nd           | Web:      www.OpenFOAM.org                      |
|    \\/     M anipulation  |                                                 |
\*---------------------------------------------------------------------------*/
FoamFile
{
    version     2.0;
    format      ascii;
    class       volVectorField;
    location    "0.52";
    object      U;
}
// * * * * * * * * * * * * * * * * * * * * * * * * * * * * * * * * * * * * * //

dimensions      [0 1 -1 0 0 0 0];

internalField   nonuniform List<vector> 
1740
(
(1.5156796 -0.011796256 4.6048e-06)
(1.6214099 -0.0071555733 6.4812405e-07)
(1.5485733 -0.00098292615 5.6560612e-08)
(1.6248016 -0.015926744 6.9897434e-06)
(1.6396609 -0.014836357 1.6379453e-06)
(1.5553044 -0.0048723204 2.8268443e-07)
(1.6051806 -0.0018473184 1.1349587e-05)
(1.626812 0.00087993415 2.3077717e-06)
(1.5241409 0.0032828351 4.4966916e-07)
(1.6025033 -1.966582e-05 1.2971469e-05)
(1.6141767 0.020587942 3.4799076e-06)
(1.6041782 0.0082197874 5.8380353e-07)
(1.5852631 0.00065121488 1.5024348e-05)
(1.4941694 0.016359108 4.3471129e-06)
(1.6138047 0.0074195558 8.1652675e-07)
(1.5871984 0.0074408943 1.6116199e-05)
(1.5088576 0.012764951 5.2384595e-06)
(1.5580447 0.0029796802 9.8198439e-07)
(1.6068086 0.010589322 1.7338458e-05)
(1.5100644 0.0085436242 5.9056411e-06)
(1.6509511 -0.006839324 1.1695255e-06)
(1.5024382 -0.0099369657 1.8144079e-05)
(1.5404794 -0.021019629 6.6273385e-06)
(1.6090377 -0.013335372 1.3550804e-06)
(1.6287532 -0.026846712 1.8809457e-05)
(1.5640173 -0.019599857 7.3372422e-06)
(1.550074 -0.0054706586 1.5508858e-06)
(1.653776 -0.010492161 1.8969033e-05)
(1.561336 -0.0060084915 7.7718951e-06)
(1.567308 -0.0019604843 1.7526556e-06)
(1.6359187 0.020775934 1.8883836e-05)
(1.5572771 -0.0064075138 8.4239072e-06)
(1.5554231 -0.013790146 1.9125655e-06)
(1.6095063 0.036272348 1.9747523e-05)
(1.6348169 0.0092738928 8.8408378e-06)
(1.5483749 -0.015488161 2.1093523e-06)
(1.4910965 0.012195054 2.1142901e-05)
(1.7299765 0.025106795 9.6286211e-06)
(1.5320862 0.010410881 2.3160015e-06)
(1.4830561 -0.026900003 2.1317551e-05)
(1.5888023 0.014177459 1.0138551e-05)
(1.5964832 0.019696776 2.4934442e-06)
(1.5769186 -0.041105392 2.0886444e-05)
(1.5034121 -0.007771545 1.0498524e-05)
(1.5759059 0.0095965068 2.7384052e-06)
(1.7187674 -0.0077063639 2.0475609e-05)
(1.5184931 -0.0023826376 1.088832e-05)
(1.607107 0.0015578883 2.8180239e-06)
(1.6192751 0.018283024 2.0925802e-05)
(1.5222073 -0.0059492257 1.1229229e-05)
(1.6276538 -0.011783557 3.112548e-06)
(1.6028971 0.011886804 2.1320421e-05)
(1.5621676 0.0011602289 1.1720303e-05)
(1.5073341 -0.0047663222 3.2597063e-06)
(1.5863123 0.013078265 2.1552489e-05)
(1.5391149 0.013529454 1.2067513e-05)
(1.6061706 0.0091074866 3.3875634e-06)
(1.4941879 -0.00249387 2.1740623e-05)
(1.6045895 -0.012435102 1.2406588e-05)
(1.6114815 -0.0074560099 3.6024432e-06)
(1.5993064 -0.018533797 2.1676363e-05)
(1.6191067 -0.0092838941 1.2790201e-05)
(1.5051716 0.0047541327 3.7639249e-06)
(1.6377905 0.0096770091 2.146487e-05)
(1.5048243 0.018907746 1.3050897e-05)
(1.6146953 0.013981296 3.9179493e-06)
(1.5267132 0.022287896 2.1858278e-05)
(1.598819 0.019158609 1.3316263e-05)
(1.599463 -0.0012530089 4.1180577e-06)
(1.4932516 -0.017249071 2.2442113e-05)
(1.5916311 -0.0068369152 1.3813559e-05)
(1.5774188 1.4837847e-05 4.2308107e-06)
(1.5561871 -0.022734196 2.2266091e-05)
(1.4881648 -0.029871057 1.4052529e-05)
(1.5912888 -0.0090303599 4.3919388e-06)
(1.6568963 0.0061152284 2.2014595e-05)
(1.5736447 -0.016570298 1.4236562e-05)
(1.5254211 -0.011932382 4.5439163e-06)
(1.5998624 0.014677695 2.2378584e-05)
(1.5558542 0.0063526241 1.4534102e-05)
(1.5425689 -0.0023963589 4.672931e-06)
(1.557028 0.004176077 2.2960195e-05)
(1.5305387 -0.0025129024 1.4905703e-05)
(1.5741279 -0.0036901774 4.8346091e-06)
(1.4801667 0.0054494813 2.2451249e-05)
(1.5182445 -0.0074225843 1.5044479e-05)
(1.5111487 -0.0045090393 4.8474527e-06)
(1.2871786 0.035411266 2.3716083e-05)
(1.3141123 0.10405744 1.5620491e-05)
(1.364949 0.058390821 5.5323098e-06)
(0.8489698 0.37168863 1.1630044e-05)
(0.82476715 0.94166071 9.8883983e-06)
(0.76485649 1.2637102 5.4001514e-06)
(0.22568605 0.11582005 1.4980814e-06)
(0.19192891 0.37396886 3.0767685e-06)
(0.091638431 0.51196286 6.9729832e-07)
(-0.032098961 -0.013620945 1.2165765e-06)
(-0.029641032 -0.028174639 1.6688022e-06)
(-0.019346118 -0.032473107 5.6974167e-07)
(-0.0094245041 -0.0032953491 4.4694225e-07)
(-0.0087114436 -0.008377107 7.2590311e-07)
(-0.0065875896 -0.011183048 3.2226474e-07)
(-0.001872241 -0.00054029591 1.1856365e-07)
(-0.0016667367 -0.0012761896 2.3602957e-07)
(-0.001306785 -0.0018527645 9.6968637e-08)
(-0.00026730032 -0.00015002404 2.2776715e-08)
(-0.00016258611 -0.00032535824 4.7282418e-08)
(-4.0347526e-05 -0.00043663597 -1.8031818e-08)
(0.00021000486 -4.899433e-05 -6.5681564e-09)
(0.00024225759 -9.2819137e-05 -1.9730061e-08)
(0.00025935886 -0.00010610406 -6.2896033e-08)
(0.00033700215 5.8867027e-06 -1.5794987e-08)
(0.00033232847 2.1493132e-05 -4.0253834e-08)
(0.00030255424 5.8025017e-05 -7.3823832e-08)
(0.00032516691 1.5841972e-05 -1.5928979e-08)
(0.00030749744 5.5684887e-05 -4.1082232e-08)
(0.00026324542 9.67518e-05 -6.8394112e-08)
(0.00028018044 1.1118875e-05 -1.2949443e-08)
(0.00026065893 2.9419821e-05 -3.4568175e-08)
(0.00021754393 4.4836598e-05 -5.6710728e-08)
(0.00024454318 9.7976627e-07 -9.4716253e-09)
(0.00022693775 2.7216897e-06 -2.6673086e-08)
(0.00018935422 1.2145477e-06 -4.425868e-08)
(0.00022200669 -1.636516e-07 -6.8902424e-09)
(0.00020736696 -1.3290157e-06 -1.999518e-08)
(0.00017617272 -5.4437901e-06 -3.3520489e-08)
(0.00020430394 3.4485445e-06 -5.1733146e-09)
(0.00019259721 6.2994696e-06 -1.4926463e-08)
(0.00016742627 6.3351744e-06 -2.5015201e-08)
(0.00018654971 5.9131351e-06 -3.9429447e-09)
(0.00017735204 1.3115502e-05 -1.1107177e-08)
(0.00015729003 1.8192699e-05 -1.8437495e-08)
(0.00016787057 6.152972e-06 -2.9492613e-09)
(0.00016068317 1.5963174e-05 -8.1489184e-09)
(0.00014476642 2.4198446e-05 -1.3364474e-08)
(0.00014911875 6.8736968e-06 -2.1707853e-09)
(0.00014349562 1.5895528e-05 -5.8343859e-09)
(0.00013087312 2.3044365e-05 -9.4624516e-09)
(0.00013159547 6.0579634e-06 -1.5346228e-09)
(0.00012719303 1.3549877e-05 -4.049663e-09)
(0.00011716807 1.9933102e-05 -6.5135326e-09)
(0.00011618681 4.7636358e-06 -1.0378635e-09)
(0.00011272641 1.1061665e-05 -2.7154593e-09)
(0.00010473059 1.6814282e-05 -4.3470054e-09)
(0.00010299041 3.9811152e-06 -6.8380527e-10)
(0.00010024361 9.5324405e-06 -1.763786e-09)
(9.3793888e-05 1.4223598e-05 -2.8143194e-09)
(9.1658543e-05 3.3999911e-06 -4.4657241e-10)
(8.944596e-05 8.0343796e-06 -1.1197944e-09)
(8.4169007e-05 1.2147516e-05 -1.7751064e-09)
(8.183095e-05 2.9661831e-06 -2.9179082e-10)
(8.0025972e-05 6.9731315e-06 -7.0177423e-10)
(7.5665406e-05 1.073142e-05 -1.0967896e-09)
(7.325544e-05 2.5544962e-06 -1.9332225e-10)
(7.1770559e-05 6.13979e-06 -4.3795765e-10)
(6.8139667e-05 9.5143748e-06 -6.6676028e-10)
(6.5762054e-05 2.2462818e-06 -1.327308e-10)
(6.4531719e-05 5.4243815e-06 -2.7492126e-10)
(6.1485957e-05 8.3807698e-06 -4.0122256e-10)
(5.9236142e-05 1.9622353e-06 -9.6391655e-11)
(5.8210966e-05 4.7460603e-06 -1.7670297e-10)
(5.5641065e-05 7.3559259e-06 -2.4213196e-10)
(5.3595962e-05 1.6904983e-06 -7.4725782e-11)
(5.2738355e-05 4.0983652e-06 -1.1833524e-10)
(5.0560354e-05 6.3869835e-06 -1.4848121e-10)
(4.8771845e-05 1.4326832e-06 -6.1214923e-11)
(4.8051799e-05 3.4861187e-06 -8.3510194e-11)
(4.6197132e-05 5.4497353e-06 -9.3768225e-11)
(4.469529e-05 1.1950244e-06 -5.2558665e-11)
(4.4088559e-05 2.9218694e-06 -6.267579e-11)
(4.2501195e-05 4.5629215e-06 -6.2081405e-11)
(4.1296863e-05 9.8384491e-07 -4.7482886e-11)
(4.0784097e-05 2.4244207e-06 -5.0600399e-11)
(3.9418809e-05 3.7825606e-06 -4.4452663e-11)
(3.8507562e-05 7.9492684e-07 -4.428006e-11)
(3.8073274e-05 1.9781923e-06 -4.3188267e-11)
(3.6893259e-05 3.0801016e-06 -3.4477791e-11)
(3.6260257e-05 6.2583897e-07 -4.1918555e-11)
(3.5891899e-05 1.5744021e-06 -3.8231258e-11)
(3.4866866e-05 2.4454841e-06 -2.8695681e-11)
(3.4490185e-05 4.7947681e-07 -4.0432764e-11)
(3.417749e-05 1.2239228e-06 -3.511339e-11)
(3.3282317e-05 1.8930716e-06 -2.5477985e-11)
(3.3135392e-05 3.5426669e-07 -3.9529689e-11)
(3.2869904e-05 9.2334117e-07 -3.3151485e-11)
(3.2083675e-05 1.4173087e-06 -2.3737832e-11)
(3.2137355e-05 2.4707025e-07 -3.8765167e-11)
(3.1912045e-05 6.6428834e-07 -3.1686913e-11)
(3.1217254e-05 1.0090396e-06 -2.278857e-11)
(3.1441459e-05 1.5659798e-07 -3.8155291e-11)
(3.1250423e-05 4.4503641e-07 -3.0715935e-11)
(3.0632329e-05 6.6210555e-07 -2.233791e-11)
(3.0997211e-05 8.1666588e-08 -3.7590026e-11)
(3.0835456e-05 2.6376997e-07 -2.996918e-11)
(3.028159e-05 3.7566316e-07 -2.2120621e-11)
(3.0758271e-05 2.165488e-08 -3.702373e-11)
(3.0621542e-05 1.1657073e-07 -2.9278572e-11)
(3.0121368e-05 1.4365656e-07 -2.1958396e-11)
(3.0682517e-05 -2.5696242e-08 -3.6457059e-11)
(3.056716e-05 -2.1119727e-09 -2.8632094e-11)
(3.0111772e-05 -4.3144961e-08 -2.1804604e-11)
(3.0732149e-05 -6.3954249e-08 -3.5870276e-11)
(3.0635027e-05 -9.6656435e-08 -2.8000805e-11)
(3.0216866e-05 -1.905863e-07 -2.1637947e-11)
(3.0873752e-05 -8.5187695e-08 -3.5457511e-11)
(3.0792207e-05 -1.5141109e-07 -2.7525643e-11)
(3.0404956e-05 -2.7300573e-07 -2.1541145e-11)
(3.1078745e-05 -9.6525107e-08 -3.5386769e-11)
(3.1010512e-05 -1.8150077e-07 -2.7450291e-11)
(3.0648927e-05 -3.2278247e-07 -2.1647556e-11)
(3.1323677e-05 -1.0628231e-07 -3.4934042e-11)
(3.1266759e-05 -2.0743273e-07 -2.710097e-11)
(3.0926363e-05 -3.5712369e-07 -2.1633836e-11)
(3.1589424e-05 -1.0901487e-07 -3.4515634e-11)
(3.154204e-05 -2.1999563e-07 -2.6758791e-11)
(3.1218987e-05 -3.7456955e-07 -2.1622581e-11)
(3.1860039e-05 -1.057781e-07 -3.4206142e-11)
(3.1820635e-05 -2.1780076e-07 -2.6532178e-11)
(3.1511672e-05 -3.6851444e-07 -2.1665404e-11)
(3.2122071e-05 -9.8009421e-08 -3.4015044e-11)
(3.2089297e-05 -2.0407155e-07 -2.6434943e-11)
(3.1791711e-05 -3.4380771e-07 -2.1768099e-11)
(3.2363938e-05 -8.6745675e-08 -3.3937382e-11)
(3.2336605e-05 -1.8147961e-07 -2.6458649e-11)
(3.2048111e-05 -3.0461673e-07 -2.1911772e-11)
(3.2574627e-05 -7.2665529e-08 -3.3951409e-11)
(3.2551659e-05 -1.5161902e-07 -2.6538286e-11)
(3.227031e-05 -2.5324944e-07 -2.1998439e-11)
(3.2743108e-05 -5.6045263e-08 -3.4011334e-11)
(3.2723516e-05 -1.1522158e-07 -2.6502183e-11)
(3.2447638e-05 -1.9111647e-07 -2.178907e-11)
(3.2854114e-05 -3.6666006e-08 -3.3991141e-11)
(3.2836944e-05 -7.2949859e-08 -2.59383e-11)
(3.2565134e-05 -1.2119595e-07 -2.0782566e-11)
(3.2946149e-05 -1.4526524e-08 -3.3480204e-11)
(3.2930517e-05 -2.7116494e-08 -2.3882795e-11)
(3.2661207e-05 -4.9579561e-08 -1.8077127e-11)
(3.2848097e-05 3.1251389e-09 -3.0572672e-11)
(3.2832517e-05 9.8390284e-09 -1.7967599e-11)
(3.2565403e-05 1.1324863e-08 -1.2186104e-11)
(-0.0457985 1.9694035 -3.8361347e-07)
(-0.032995915 1.7127991 -3.4692073e-06)
(-0.062246417 0.35196626 -2.5996733e-07)
(-0.043735483 0.15813721 -1.0205188e-06)
(-0.015806283 -0.039783626 -2.2156008e-07)
(-0.01182892 -0.042217859 -6.3766206e-07)
(-0.0051865508 -0.013357641 -1.1836587e-07)
(-0.0047335768 -0.014490269 -4.1589828e-07)
(-0.0012089649 -0.0025350775 -1.1927516e-07)
(-0.0013363541 -0.0032868192 -3.0265696e-07)
(-5.1051343e-05 -0.00054677219 -1.2998118e-07)
(-0.00013759812 -0.00073898116 -2.4005021e-07)
(0.00021492909 -5.531145e-05 -1.286255e-07)
(0.00014519333 -1.5230729e-05 -1.9714569e-07)
(0.00023806895 0.00013064912 -1.1696256e-07)
(0.0001642103 0.00020464671 -1.6212738e-07)
(0.00019922927 0.0001300975 -9.9241695e-08)
(0.00013168528 0.00015780279 -1.3071242e-07)
(0.00016063503 6.0199427e-05 -7.9859465e-08)
(0.00010223486 6.1890783e-05 -1.0272932e-07)
(0.00014088059 2.6901213e-07 -6.1916605e-08)
(9.093757e-05 -5.3640032e-06 -7.8942345e-08)
(0.00013594727 -1.1591437e-05 -4.6872559e-08)
(9.3650162e-05 -1.8922056e-05 -5.9567932e-08)
(0.00013468532 3.8907122e-06 -3.4910484e-08)
(9.9437805e-05 -2.8159044e-06 -4.4261678e-08)
(0.00013084088 1.9778729e-05 -2.5605636e-08)
(0.00010175177 1.7803164e-05 -3.2367678e-08)
(0.00012346163 2.8051916e-05 -1.8442315e-08)
(9.9636526e-05 2.8703305e-05 -2.3226013e-08)
(0.00011380821 2.7773558e-05 -1.2980632e-08)
(9.4439416e-05 3.0041274e-05 -1.6288363e-08)
(0.00010351974 2.4933439e-05 -8.8932984e-09)
(8.7762944e-05 2.7275981e-05 -1.1126775e-08)
(9.3715497e-05 2.125999e-05 -5.9174278e-09)
(8.0775905e-05 2.3738447e-05 -7.3892765e-09)
(8.4785423e-05 1.7735829e-05 -3.8245638e-09)
(7.4052588e-05 2.0410292e-05 -4.769896e-09)
(7.6733271e-05 1.5575845e-05 -2.4064639e-09)
(6.777099e-05 1.8157236e-05 -2.9967643e-09)
(6.9485464e-05 1.3901519e-05 -1.478827e-09)
(6.1962971e-05 1.6325669e-05 -1.836509e-09)
(6.2966708e-05 1.2485772e-05 -8.9026233e-10)
(5.6619206e-05 1.4668325e-05 -1.1002422e-09)
(5.7127251e-05 1.104499e-05 -5.2661904e-10)
(5.1743951e-05 1.3106539e-05 -6.455477e-10)
(5.1950423e-05 9.6774722e-06 -3.0814796e-10)
(4.73647e-05 1.1554555e-05 -3.7188772e-10)
(4.7421734e-05 8.3987219e-06 -1.7985285e-10)
(4.3498705e-05 1.0026267e-05 -2.1110285e-10)
(4.3515533e-05 7.1693277e-06 -1.0572167e-10)
(4.0145452e-05 8.5374047e-06 -1.1860551e-10)
(4.019961e-05 6.0251472e-06 -6.3673055e-11)
(3.7293555e-05 7.2023945e-06 -6.6725993e-11)
(3.7434692e-05 5.0025654e-06 -4.0561172e-11)
(3.4919429e-05 5.9759217e-06 -3.8406129e-11)
(3.5175039e-05 4.0635615e-06 -2.7965316e-11)
(3.2989049e-05 4.8607313e-06 -2.3408744e-11)
(3.3371635e-05 3.2135363e-06 -2.1209875e-11)
(3.1463048e-05 3.823949e-06 -1.5611417e-11)
(3.1974269e-05 2.4760062e-06 -1.7812315e-11)
(3.0299446e-05 2.9234433e-06 -1.1905689e-11)
(3.0932854e-05 1.8391807e-06 -1.6253813e-11)
(2.9455046e-05 2.1453916e-06 -1.0389915e-11)
(3.0198478e-05 1.2931081e-06 -1.5675085e-11)
(2.8886587e-05 1.4769407e-06 -9.999211e-12)
(2.9724307e-05 8.2760526e-07 -1.558473e-11)
(2.8551887e-05 9.0973932e-07 -1.0150183e-11)
(2.9466273e-05 4.4409588e-07 -1.5745202e-11)
(2.8410791e-05 4.4336067e-07 -1.0571033e-11)
(2.9383457e-05 1.3522081e-07 -1.5977374e-11)
(2.8425724e-05 6.948172e-08 -1.1069988e-11)
(2.9438287e-05 -1.1117013e-07 -1.6203992e-11)
(2.8561987e-05 -2.2222625e-07 -1.1560646e-11)
(2.9596831e-05 -3.0447372e-07 -1.6406926e-11)
(2.878816e-05 -4.4321425e-07 -1.2025446e-11)
(2.9829218e-05 -4.1456344e-07 -1.6630472e-11)
(2.907659e-05 -6.0299459e-07 -1.2476473e-11)
(3.0109843e-05 -4.8466706e-07 -1.6921081e-11)
(2.9403544e-05 -6.7710795e-07 -1.2937413e-11)
(3.0417423e-05 -5.2517205e-07 -1.7148786e-11)
(2.9749214e-05 -7.1638054e-07 -1.3334666e-11)
(3.0734631e-05 -5.435635e-07 -1.7369025e-11)
(3.0097487e-05 -7.3265639e-07 -1.3704145e-11)
(3.1047227e-05 -5.2975585e-07 -1.7606959e-11)
(3.0435237e-05 -7.0564084e-07 -1.4074068e-11)
(3.134328e-05 -4.9185551e-07 -1.7851619e-11)
(3.0751515e-05 -6.515386e-07 -1.4416094e-11)
(3.161243e-05 -4.3462497e-07 -1.8068166e-11)
(3.1036753e-05 -5.741131e-07 -1.4686175e-11)
(3.1844617e-05 -3.604057e-07 -1.8143658e-11)
(3.1281531e-05 -4.7498056e-07 -1.4772984e-11)
(3.2029587e-05 -2.7129709e-07 -1.7831801e-11)
(3.1476134e-05 -3.571969e-07 -1.4451727e-11)
(3.2152786e-05 -1.7237781e-07 -1.6673916e-11)
(3.1606538e-05 -2.278149e-07 -1.3343901e-11)
(3.2252369e-05 -7.2732927e-08 -1.3978735e-11)
(3.171054e-05 -9.8408069e-08 -1.0945203e-11)
(3.2159856e-05 1.3253166e-08 -8.8817547e-12)
(3.1622305e-05 1.4315448e-08 -6.7341641e-12)
(-0.0016112895 2.3023596e-06 -1.1207181e-07)
(-0.0015260917 -4.6567903e-05 -2.656099e-07)
(-0.001378982 -5.4238053e-05 -3.7558856e-07)
(-0.0012360488 -9.6813264e-05 -4.4485678e-07)
(-0.0011164827 -0.00011464487 -4.8211618e-07)
(-0.0010194587 -0.00013755098 -4.9723983e-07)
(-0.0009429576 -0.00015447998 -4.9767488e-07)
(-0.00087886372 -0.00017542906 -4.8865712e-07)
(-0.00081925949 -0.00020468408 -4.7383537e-07)
(-0.00075950215 -0.00024366257 -4.5573323e-07)
(-0.00069819735 -0.00029278846 -4.3610205e-07)
(-0.00063558762 -0.0003492353 -4.159937e-07)
(-0.00057252811 -0.00040914267 -3.9591354e-07)
(-0.00051014168 -0.00046946372 -3.7595074e-07)
(-0.00044951525 -0.00052784693 -3.5596134e-07)
(-0.00039150569 -0.0005825649 -3.356637e-07)
(-0.00033677794 -0.00063353215 -3.1466257e-07)
(-0.00028567058 -0.00067902706 -2.9239684e-07)
(-0.00023793725 -0.00071660554 -2.6824867e-07)
(-0.00019347491 -0.00074540948 -2.41506e-07)
(-0.00015234951 -0.0007644313 -2.1139296e-07)
(-0.00011424288 -0.00077514292 -1.7677157e-07)
(-7.8776894e-05 -0.00077687304 -1.3666097e-07)
(-4.5797146e-05 -0.00077307357 -9.0503552e-08)
(-1.495851e-05 -0.00073391362 -3.7763714e-08)
(0.00025753157 -0.00011616564 -1.2805778e-07)
(0.00027519279 -0.00050485251 -2.994394e-07)
(0.0002834875 -0.0007216731 -4.1563082e-07)
(0.00027855023 -0.0010316466 -4.824753e-07)
(0.00027181886 -0.0012774808 -5.1375121e-07)
(0.00027175118 -0.0015408492 -5.2281563e-07)
(0.00028783356 -0.0017913953 -5.1816224e-07)
(0.00031558584 -0.0020613763 -5.0524864e-07)
(0.00034216187 -0.0023528619 -4.8750701e-07)
(0.00036133873 -0.0026438251 -4.6718026e-07)
(0.00037044697 -0.0029313454 -4.459764e-07)
(0.00036944415 -0.0032121168 -4.2481566e-07)
(0.00035982651 -0.0034808619 -4.0408065e-07)
(0.00034361877 -0.0037339498 -3.8370808e-07)
(0.00032230669 -0.0039681892 -3.6346589e-07)
(0.00029703466 -0.0041836243 -3.4304529e-07)
(0.00026880623 -0.0043902887 -3.2210264e-07)
(0.00023848177 -0.0045807391 -2.9994784e-07)
(0.00020647875 -0.004731595 -2.7600777e-07)
(0.00017338005 -0.004835206 -2.4949926e-07)
(0.00013961321 -0.0048889089 -2.199573e-07)
(0.00010588438 -0.0048951006 -1.8556244e-07)
(7.2760354e-05 -0.0048569944 -1.4499044e-07)
(4.0782094e-05 -0.004760242 -9.6611521e-08)
(1.1118981e-05 -0.0045449022 -4.1827042e-08)
(0.0011426478 -0.00031459481 -1.664479e-07)
(0.0011707084 -0.0015141357 -3.7516704e-07)
(0.0011734135 -0.0020378284 -4.9992222e-07)
(0.0011716015 -0.0029036474 -5.5708641e-07)
(0.0011835265 -0.0035897234 -5.7456772e-07)
(0.0011974976 -0.0043072317 -5.7120197e-07)
(0.0012079845 -0.0050295865 -5.5651467e-07)
(0.001204262 -0.005924887 -5.3632249e-07)
(0.0011848695 -0.0069588853 -5.1327662e-07)
(0.0011495424 -0.0079211089 -4.8875358e-07)
(0.001099022 -0.0087642523 -4.6469163e-07)
(0.0010372824 -0.0094810743 -4.4166906e-07)
(0.00096762716 -0.010068823 -4.1989523e-07)
(0.00089177922 -0.010536482 -3.9893112e-07)
(0.00081161205 -0.010891429 -3.7837835e-07)
(0.00072879162 -0.011135337 -3.5786445e-07)
(0.00064493159 -0.011260288 -3.3744392e-07)
(0.00056114407 -0.011284251 -3.1576624e-07)
(0.00047810994 -0.011235576 -2.9268457e-07)
(0.00039718826 -0.011129974 -2.6744124e-07)
(0.00031816508 -0.010977625 -2.391308e-07)
(0.00024141579 -0.010786976 -2.0628007e-07)
(0.00016714315 -0.010564449 -1.6685244e-07)
(9.5855797e-05 -0.010280899 -1.1737584e-07)
(2.9406043e-05 -0.0098923826 -5.7666358e-08)
(0.003757319 -0.0010475357 -2.4906987e-07)
(0.0036510872 -0.0046932987 -5.1575542e-07)
(0.00353886 -0.0059559884 -6.3883596e-07)
(0.0033330316 -0.0090518048 -6.7035162e-07)
(0.0031185619 -0.011811741 -6.6311627e-07)
(0.0028840207 -0.014311182 -6.4028373e-07)
(0.0026418567 -0.016111591 -6.1071711e-07)
(0.0023910811 -0.017072595 -5.8135499e-07)
(0.002147436 -0.01736205 -5.5230417e-07)
(0.0019164224 -0.017237345 -5.2187497e-07)
(0.0016964499 -0.016800673 -4.9414809e-07)
(0.0014932339 -0.016166328 -4.6865721e-07)
(0.0013058536 -0.015352184 -4.4584182e-07)
(0.0011245478 -0.014414044 -4.2430676e-07)
(0.00096136219 -0.013406829 -4.0349684e-07)
(0.00081615549 -0.012375857 -3.8313888e-07)
(0.00068746757 -0.011360007 -3.6289413e-07)
(0.0005735232 -0.01039249 -3.422682e-07)
(0.00047265235 -0.009496033 -3.207461e-07)
(0.0003822201 -0.0086921581 -2.9767399e-07)
(0.00030149042 -0.0079945795 -2.7220763e-07)
(0.00022836605 -0.0074060599 -2.4311538e-07)
(0.00016110359 -0.0069263366 -2.08546e-07)
(9.782923e-05 -0.0065140424 -1.6540206e-07)
(3.6382697e-05 -0.0062215295 -1.0390278e-07)
(0.011543749 -0.0087599069 -4.3748575e-07)
(0.0090184687 -0.02561267 -7.5433255e-07)
(0.0077831727 -0.027841579 -8.3974634e-07)
(0.0060580132 -0.031915956 -8.2756432e-07)
(0.0046517254 -0.029255933 -7.8807312e-07)
(0.0034415809 -0.025450129 -7.3994633e-07)
(0.0024317148 -0.020797013 -6.9227493e-07)
(0.0016303031 -0.015870373 -6.4786484e-07)
(0.0010063745 -0.010936431 -6.0833897e-07)
(0.00052445147 -0.0063973645 -5.7205179e-07)
(0.00016495904 -0.0023000085 -5.3940236e-07)
(-9.588448e-05 0.0012271291 -5.0909484e-07)
(-0.00027892834 0.0045210673 -4.8483884e-07)
(-0.00039468127 0.0076682335 -4.6191503e-07)
(-0.00046525705 0.010555515 -4.3985691e-07)
(-0.00049752935 0.013060038 -4.1882253e-07)
(-0.00049958943 0.015150558 -3.9847949e-07)
(-0.00047803478 0.016844612 -3.7840284e-07)
(-0.00043825585 0.018169948 -3.5812122e-07)
(-0.00038534743 0.019157212 -3.3710374e-07)
(-0.00032178923 0.01983257 -3.1469498e-07)
(-0.00025101875 0.020220153 -2.899771e-07)
(-0.0001755844 0.020317172 -2.6146525e-07)
(-9.8815473e-05 0.020181621 -2.3361059e-07)
(-2.2544423e-05 0.0194693 -2.0583537e-07)
(0.013789789 0.024220436 -8.0003162e-07)
(0.0028663618 -8.8816737e-06 -1.1318341e-06)
(0.00028483381 0.04947522 -1.1343521e-06)
(-0.0013942102 0.052557648 -1.0612299e-06)
(-0.0029068595 0.066612989 -9.8387047e-07)
(-0.0040430885 0.076756635 -8.974766e-07)
(-0.0046733937 0.083845885 -8.1984814e-07)
(-0.0048538487 0.089732646 -7.5231403e-07)
(-0.0047557129 0.094038895 -6.9362814e-07)
(-0.0045222886 0.096707513 -6.4350814e-07)
(-0.0042159244 0.098218785 -6.0128021e-07)
(-0.0038518642 0.098634631 -5.5739376e-07)
(-0.0034869878 0.098306091 -5.3242694e-07)
(-0.0031335924 0.096941128 -5.0536643e-07)
(-0.0027783501 0.09474314 -4.7878089e-07)
(-0.0024337053 0.092282278 -4.5499802e-07)
(-0.0021091021 0.089623197 -4.32979e-07)
(-0.0018051281 0.086849336 -4.1209045e-07)
(-0.0015206227 0.084037029 -3.9180852e-07)
(-0.001252951 0.081244253 -3.7163086e-07)
(-0.0010005773 0.078507861 -3.5102678e-07)
(-0.00076104162 0.075869578 -3.293611e-07)
(-0.00053182704 0.073300932 -3.0598106e-07)
(-0.00031104254 0.070989537 -2.8177092e-07)
(-9.3139203e-05 0.067493445 -2.5802907e-07)
(-0.0022427356 1.1856136 -2.5299771e-06)
(-0.001103864 0.96880425 -2.0106164e-06)
(-0.0012988327 0.87134076 -1.6301288e-06)
(-0.00093838417 0.77772381 -1.3388091e-06)
(-0.0007608688 0.68072536 -1.1224416e-06)
(-0.00062792613 0.58870172 -9.6515093e-07)
(-0.0005148389 0.5098688 -8.4901931e-07)
(-0.00042471266 0.44581841 -7.6235424e-07)
(-0.00034788606 0.3930166 -6.9175578e-07)
(-0.0002853059 0.34798349 -6.3759288e-07)
(-0.00023317395 0.30912121 -5.9601134e-07)
(-0.00018991959 0.2756757 -5.5997183e-07)
(-0.00015469657 0.24708194 -5.3003107e-07)
(-0.00013221469 0.22260715 -5.0376908e-07)
(-0.0001107207 0.20159159 -4.7993478e-07)
(-9.1589603e-05 0.18355029 -4.5798297e-07)
(-7.5955322e-05 0.16805022 -4.3738713e-07)
(-6.2884876e-05 0.15472687 -4.1772922e-07)
(-5.1596931e-05 0.1432764 -3.9864357e-07)
(-4.153196e-05 0.13344852 -3.7975933e-07)
(-3.2593312e-05 0.12502631 -3.6067215e-07)
(-2.4380944e-05 0.11786715 -3.4085638e-07)
(-1.6705517e-05 0.11172866 -3.2000013e-07)
(-9.5277968e-06 0.10689379 -2.9787355e-07)
(-2.6804038e-06 0.10086542 -2.7391194e-07)
(-0.012999806 0.09483493 -1.2375726e-06)
(-0.0022365714 0.10190269 -1.2775977e-06)
(0.00014621155 0.10710034 -1.2312948e-06)
(0.0017299867 0.10829551 -1.1401381e-06)
(0.0031729419 0.10986925 -1.0370414e-06)
(0.0042536716 0.1111857 -9.3673602e-07)
(0.0048385062 0.11259039 -8.4694837e-07)
(0.0049799401 0.1139157 -7.6959106e-07)
(0.004820918 0.11455052 -6.8702288e-07)
(0.004549716 0.11448438 -6.4463896e-07)
(0.0042506074 0.11367488 -6.0271592e-07)
(0.0039027405 0.111914 -5.59715e-07)
(0.0035252012 0.10931511 -5.2371107e-07)
(0.0031494563 0.10622968 -4.9282264e-07)
(0.0027863435 0.10290259 -4.657379e-07)
(0.0024437544 0.099455423 -4.4150716e-07)
(0.002117832 0.095970362 -4.1940637e-07)
(0.00181137 0.092514796 -3.9882839e-07)
(0.0015244048 0.089138874 -3.7922302e-07)
(0.0012554137 0.08587966 -3.6005341e-07)
(0.0010021515 0.082758198 -3.4073019e-07)
(0.00076226274 0.079803852 -3.2049772e-07)
(0.00053302983 0.076978769 -2.9967986e-07)
(0.00031224303 0.074474499 -2.7707001e-07)
(9.4018931e-05 0.070764924 -2.5431783e-07)
(-0.0091319067 -0.039866038 -8.6223281e-07)
(-0.0076163461 -0.037432518 -9.266125e-07)
(-0.006175879 -0.035649988 -9.1324988e-07)
(-0.0047961965 -0.032229025 -8.6678486e-07)
(-0.0035577612 -0.027370494 -8.0812768e-07)
(-0.0024930073 -0.021905539 -7.4651579e-07)
(-0.001616202 -0.016292304 -6.8932074e-07)
(-0.00092739846 -0.010797144 -6.3709565e-07)
(-0.00040545009 -0.0058828828 -5.8855851e-07)
(-9.6253592e-06 -0.0015490812 -5.5227888e-07)
(0.00027732389 0.0021979728 -5.1898708e-07)
(0.00047619191 0.0058901349 -4.8796837e-07)
(0.0006058055 0.0094078741 -4.601088e-07)
(0.00068159335 0.012549646 -4.3509527e-07)
(0.00071350054 0.01524929 -4.1236142e-07)
(0.0007069304 0.01751134 -3.9138609e-07)
(0.0006779509 0.019374336 -3.7174603e-07)
(0.00063000057 0.020873205 -3.5295339e-07)
(0.00056644102 0.022026345 -3.3450316e-07)
(0.0004906658 0.022854991 -3.1582138e-07)
(0.00040572765 0.023380611 -2.9611618e-07)
(0.0003142395 0.02362374 -2.7395692e-07)
(0.00021938938 0.023594871 -2.5237428e-07)
(0.00012420807 0.023337177 -2.2604202e-07)
(3.0295403e-05 0.022473608 -2.0027873e-07)
(-0.004600743 -0.015775436 -5.8906068e-07)
(-0.0042871339 -0.018000319 -6.646233e-07)
(-0.0039497774 -0.02053519 -6.7931314e-07)
(-0.00362103 -0.022401057 -6.623898e-07)
(-0.0032913567 -0.023588296 -6.3256903e-07)
(-0.0029657986 -0.02399345 -6.0010724e-07)
(-0.0026540676 -0.023775673 -5.6058153e-07)
(-0.0023527238 -0.023135099 -5.2365539e-07)
(-0.0020674013 -0.022223756 -4.9012902e-07)
(-0.00181142 -0.021106184 -4.6151259e-07)
(-0.001576558 -0.019863261 -4.3553432e-07)
(-0.0013561746 -0.018478465 -4.1160514e-07)
(-0.0011566582 -0.017024679 -3.8968806e-07)
(-0.00097995898 -0.015554855 -3.6959644e-07)
(-0.00082584792 -0.014104819 -3.5080915e-07)
(-0.00069605047 -0.012714513 -3.3290519e-07)
(-0.00057996424 -0.0114235 -3.1576453e-07)
(-0.00047789395 -0.010257063 -2.9881586e-07)
(-0.00038913058 -0.0092190346 -2.8152902e-07)
(-0.00031207152 -0.0083112572 -2.632701e-07)
(-0.0002448693 -0.0075348387 -2.4316939e-07)
(-0.00018551414 -0.0068898423 -2.2003299e-07)
(-0.00013194071 -0.0063731875 -1.926327e-07)
(-8.1792929e-05 -0.0059448429 -1.5556531e-07)
(-3.2162716e-05 -0.005658821 -9.9845952e-08)
(-0.001467319 -0.0041490252 -4.2790775e-07)
(-0.0014857563 -0.0049670069 -4.9741026e-07)
(-0.0014683233 -0.0057534716 -5.245834e-07)
(-0.0014814488 -0.0064769195 -5.2530744e-07)
(-0.0015026663 -0.0072641053 -5.1133494e-07)
(-0.001502152 -0.0082754603 -4.8983063e-07)
(-0.0014801262 -0.0094207064 -4.6354729e-07)
(-0.0014380849 -0.010440967 -4.3693304e-07)
(-0.0013749352 -0.011308863 -4.1185218e-07)
(-0.0012987333 -0.012015943 -3.8901406e-07)
(-0.0012133383 -0.012579539 -3.6797714e-07)
(-0.0011211888 -0.013001878 -3.4844404e-07)
(-0.0010266852 -0.013289758 -3.3024322e-07)
(-0.00093244515 -0.013426865 -3.1357453e-07)
(-0.00083912894 -0.013441547 -2.9749587e-07)
(-0.00074452932 -0.013372789 -2.8210721e-07)
(-0.00065492187 -0.013243895 -2.6673793e-07)
(-0.00056824305 -0.013069197 -2.5108709e-07)
(-0.00048387779 -0.012857841 -2.3465966e-07)
(-0.00040169707 -0.012616892 -2.1682621e-07)
(-0.00032172582 -0.012352044 -1.9663651e-07)
(-0.00024406606 -0.012068854 -1.7268671e-07)
(-0.00016897334 -0.011770738 -1.4291841e-07)
(-9.6967192e-05 -0.01142026 -1.0304581e-07)
(-3.0036894e-05 -0.010978881 -5.2271323e-08)
(-0.00020536034 -0.0010150006 -3.2555012e-07)
(-0.0002316263 -0.001313224 -3.8091839e-07)
(-0.00023158594 -0.0016400774 -4.0943853e-07)
(-0.00024963594 -0.0019730311 -4.1828721e-07)
(-0.0002939225 -0.0023109373 -4.1419318e-07)
(-0.00034325629 -0.0026838096 -4.0215779e-07)
(-0.00039230954 -0.0030822462 -3.8544538e-07)
(-0.00043077756 -0.0034736874 -3.6690181e-07)
(-0.00045638962 -0.0038576624 -3.4825119e-07)
(-0.00046926322 -0.0042201815 -3.303344e-07)
(-0.00046999383 -0.0045556715 -3.1333768e-07)
(-0.00046335067 -0.0048663294 -2.9725814e-07)
(-0.00044821391 -0.005162663 -2.8204349e-07)
(-0.00042620074 -0.0054654383 -2.6763615e-07)
(-0.00039836156 -0.0057633323 -2.5371005e-07)
(-0.00036472254 -0.006019535 -2.4004829e-07)
(-0.00032840232 -0.0062263873 -2.2626741e-07)
(-0.00029014698 -0.0063824262 -2.1199635e-07)
(-0.00025040642 -0.0064872267 -1.9675571e-07)
(-0.00020963767 -0.0065403324 -1.8012431e-07)
(-0.00016841189 -0.0065429485 -1.6124099e-07)
(-0.00012733491 -0.0064980832 -1.3875705e-07)
(-8.7114384e-05 -0.0064103682 -1.1135027e-07)
(-4.8507369e-05 -0.0062622399 -7.6702207e-08)
(-1.3234963e-05 -0.0059825008 -3.5283568e-08)
(9.9848057e-05 -2.6440192e-05 -2.5501149e-07)
(9.9355772e-05 -6.5644453e-05 -2.96667e-07)
(0.0001027975 -0.00010611977 -3.2184598e-07)
(0.00011091527 -0.00014568917 -3.333018e-07)
(0.00011175119 -0.00020064554 -3.3457117e-07)
(9.9995754e-05 -0.00027877849 -3.2884746e-07)
(7.7910228e-05 -0.00038360936 -3.1866639e-07)
(5.4063983e-05 -0.00050419321 -3.0607999e-07)
(2.793986e-05 -0.00063115017 -2.925077e-07)
(2.47023e-06 -0.00076109775 -2.7879044e-07)
(-2.1492406e-05 -0.0008918895 -2.6533009e-07)
(-4.261896e-05 -0.0010169655 -2.5229179e-07)
(-5.8111382e-05 -0.0011321051 -2.3971513e-07)
(-6.7512957e-05 -0.0012401056 -2.2755159e-07)
(-7.174642e-05 -0.001338667 -2.1563571e-07)
(-7.1159493e-05 -0.0014231369 -2.037625e-07)
(-6.7734133e-05 -0.0014930802 -1.9165661e-07)
(-6.2417896e-05 -0.001548565 -1.7900364e-07)
(-5.5525752e-05 -0.0015897725 -1.6543082e-07)
(-4.7624533e-05 -0.001616535 -1.5052397e-07)
(-3.909185e-05 -0.0016286025 -1.3378138e-07)
(-3.023292e-05 -0.0016263599 -1.1445724e-07)
(-2.1255512e-05 -0.001612245 -9.1790873e-08)
(-1.2199387e-05 -0.0015855958 -6.4905536e-08)
(-3.1825181e-06 -0.0015064961 -3.2367269e-08)
(0.00010502739 0.00026132273 -2.0195906e-07)
(8.0461157e-05 0.00030264473 -2.3260618e-07)
(8.4095631e-05 0.00033546342 -2.532121e-07)
(0.00010032273 0.00036484774 -2.6452156e-07)