/*--------------------------------*- C++ -*----------------------------------*\
| =========                 |                                                 |
| \\      /  F ield         | OpenFOAM: The Open Source CFD Toolbox           |
|  \\    /   O peration     | Version:  4.0                                   |
|   \\  /    A nd           | Web:      www.OpenFOAM.org                      |
|    \\/     M anipulation  |                                                 |
\*---------------------------------------------------------------------------*/
FoamFile
{
    version     2.0;
    format      ascii;
    class       volScalarField;
    location    "0.59";
    object      k;
}
// * * * * * * * * * * * * * * * * * * * * * * * * * * * * * * * * * * * * * //

dimensions      [0 2 -2 0 0 0 0];

internalField   nonuniform List<scalar> 
1740
(
0.0086021295
0.0090112339
0.018358894
0.0091667725
0.0099536098
0.027305184
0.0095733932
0.010553354
0.034261041
0.0099017409
0.010768309
0.04134637
0.010079316
0.011032665
0.047530286
0.01018544
0.011488114
0.051672753
0.010210048
0.011815855
0.055952644
0.010249523
0.012256339
0.059524004
0.010273585
0.012644384
0.062311987
0.010273212
0.013156396
0.064607733
0.01018203
0.013511286
0.065944901
0.010049249
0.013272129
0.067236556
0.0099228978
0.013298557
0.068642615
0.0098297729
0.013646424
0.069530485
0.0097349713
0.013948968
0.070257043
0.0096288375
0.014105935
0.071310329
0.009555477
0.014235069
0.071594735
0.0094099612
0.014134364
0.071447477
0.0091970649
0.014110444
0.072383171
0.009100332
0.014288905
0.073105576
0.0090364722
0.014611753
0.072900297
0.0089441591
0.01481235
0.072948772
0.0088356789
0.014741918
0.073189557
0.0087115843
0.014742507
0.072431728
0.0085414224
0.014557453
0.072397865
0.0083815866
0.014540895
0.072951992
0.0083144869
0.014905695
0.072610693
0.0083466293
0.015112277
0.072500059
0.0083479176
0.015125755
0.071679508
0.0089668078
0.016212392
0.066658481
0.012798966
0.018152457
0.047319831
0.023975065
0.031153578
0.039719688
0.010261765
0.012511384
0.013690952
0.0042844962
0.0046212343
0.0046828312
0.002079839
0.0021241094
0.0020993562
0.0011427224
0.0011438513
0.0011261916
0.00069199846
0.00068949388
0.00068155092
0.00045109454
0.00044976688
0.00044706457
0.00031077891
0.0003104453
0.0003100914
0.00022297973
0.00022311864
0.00022366112
0.00016450081
0.00016480318
0.00016558982
0.00012340411
0.00012372566
0.00012449062
9.3248622e-05
9.3532088e-05
9.4181877e-05
7.0420132e-05
7.064891e-05
7.1163591e-05
5.2812294e-05
5.2987017e-05
5.3376097e-05
3.9140257e-05
3.9268131e-05
3.9551247e-05
2.8568005e-05
2.8658099e-05
2.8856891e-05
2.0499814e-05
2.0561008e-05
2.0695731e-05
1.4465316e-05
1.4505406e-05
1.4593519e-05
1.0062568e-05
1.0087918e-05
1.0143554e-05
6.9371063e-06
6.9525809e-06
6.9865262e-06
4.7811226e-06
4.7902765e-06
4.8103557e-06
3.3384585e-06
3.343759e-06
3.355372e-06
2.4027363e-06
2.4057748e-06
2.41242e-06
1.8150329e-06
1.816787e-06
1.8206186e-06
1.4594459e-06
1.4604968e-06
1.4627906e-06
1.2546677e-06
1.2553455e-06
1.2568247e-06
1.1454459e-06
1.1459298e-06
1.1469866e-06
1.0952834e-06
1.0956664e-06
1.0965036e-06
1.0806737e-06
1.0810015e-06
1.0817187e-06
1.0868059e-06
1.0870997e-06
1.0877431e-06
1.1045069e-06
1.1047762e-06
1.1053658e-06
1.1281429e-06
1.1283915e-06
1.1289359e-06
1.1542188e-06
1.1544485e-06
1.1549513e-06
1.1804635e-06
1.1806753e-06
1.1811386e-06
1.2052383e-06
1.205433e-06
1.2058588e-06
1.227152e-06
1.2273306e-06
1.2277209e-06
1.2448046e-06
1.244968e-06
1.2453249e-06
1.2566078e-06
1.256757e-06
1.2570828e-06
1.2606541e-06
1.2607902e-06
1.261087e-06
1.2546217e-06
1.2547456e-06
1.2550156e-06
1.2357174e-06
1.2358299e-06
1.2360749e-06
1.2006736e-06
1.2007753e-06
1.2009968e-06
1.1458305e-06
1.1459219e-06
1.146121e-06
1.0673371e-06
1.0674185e-06
1.0675956e-06
9.615363e-07
9.6160742e-07
9.6176223e-07
8.255632e-07
8.2562335e-07
8.2575459e-07
6.582491e-07
6.5829717e-07
6.5840288e-07
4.6146387e-07
4.6149843e-07
4.6157656e-07
2.4160654e-07
2.4162572e-07
2.4167219e-07
0.056242136
0.060861472
0.046093894
0.046599629
0.012461792
0.011346517
0.0043640097
0.0041234934
0.0020053258
0.0019437189
0.0010966855
0.0010813557
0.00067259871
0.00067065136
0.0004452753
0.00044728229
0.0003108014
0.00031371631
0.00022509668
0.00022789997
0.00016707338
0.00016945614
0.00012578543
0.00012769663
9.5228742e-05
9.6708478e-05
7.1971712e-05
7.3086784e-05
5.3978185e-05
5.4797358e-05
3.9985595e-05
4.0571485e-05
2.9160251e-05
2.9567165e-05
2.0900596e-05
2.1174325e-05
1.472716e-05
1.4905201e-05
1.0227765e-05
1.0339692e-05
7.0378381e-06
7.1059044e-06
4.8406771e-06
4.8808274e-06
3.3728788e-06
3.3960098e-06
2.4224167e-06
2.4355922e-06
1.8263726e-06
1.8339389e-06
1.4662309e-06
1.4707472e-06
1.2590425e-06
1.2619521e-06
1.1485719e-06
1.1506532e-06
1.0977608e-06
1.0994137e-06
1.0827968e-06
1.0842161e-06
1.0887107e-06
1.0899856e-06
1.1062528e-06
1.1074214e-06
1.1297545e-06
1.1308325e-06
1.1557069e-06
1.1567012e-06
1.1818345e-06
1.182749e-06
1.2064977e-06
1.2073363e-06
1.2283059e-06
1.2290726e-06
1.2458593e-06
1.2465586e-06
1.2575701e-06
1.2582066e-06
1.2615305e-06
1.2621087e-06
1.2554184e-06
1.2559426e-06
1.2364399e-06
1.2369139e-06
1.2013264e-06
1.2017535e-06
1.1464169e-06
1.1467997e-06
1.0678587e-06
1.0681986e-06
9.6199239e-07
9.6228986e-07
8.2595064e-07
8.2620621e-07
6.5856427e-07
6.587835e-07
4.6170544e-07
4.6190639e-07
2.4176357e-07
2.4194536e-07
6.007689e-06
2.7117885e-05
0.00013464444
0.00030550334
0.00046299704
0.00057408413
0.00064441513
0.00068801745
0.00071669812
0.00073760397
0.00075478912
0.00077130369
0.00078676677
0.0008009483
0.00081354121
0.00082399668
0.00083133068
0.00083387633
0.00082891412
0.000812161
0.00077706332
0.00071392317
0.00060917626
0.00044558024
0.00020325505
2.6250322e-06
5.480017e-05
0.00025129308
0.0005165034
0.00072875299
0.00086040945
0.00093638164
0.00098086484
0.001009334
0.0010298352
0.0010466282
0.001062266
0.0010765936
0.0010893522
0.0011001499
0.0011083649
0.0011128647
0.0011117341
0.0011017724
0.0010778518
0.0010319685
0.00095184962
0.000819185
0.00060834016
0.00028797435
7.9995979e-06
0.00016003004
0.00061621161
0.0010801463
0.0013632176
0.0015059906
0.0015734716
0.0016050622
0.0016207638
0.001629031
0.001634246
0.0016373091
0.0016394562
0.001640029
0.0016385371
0.0016345107
0.0016268906
0.0016138813
0.0015920691
0.0015558526
0.0014962019
0.0013983915
0.0012376926
0.0009711206
0.00052297592
3.7668523e-05
0.00057969484
0.0016864915
0.0024373994
0.0027739536
0.0028876421
0.0028968739
0.0028665737
0.0028265561
0.0027817475
0.002737191
0.0026947626
0.0026549485
0.0026145806
0.0025731077
0.0025309445
0.0024875922
0.0024416247
0.0023902936
0.0023288268
0.0022493123
0.0021384578
0.0019719168
0.0016966968
0.0011557372
0.00028126723
0.0024471349
0.0049157562
0.0060368012
0.0063824478
0.0063203083
0.0060906489
0.0058273813
0.0055776603
0.0053269362
0.0050868219
0.0048627625
0.0046595063
0.0044626446
0.0042714511
0.0040906294
0.0039210961
0.0037622786
0.0036123486
0.0034678312
0.0033230716
0.0031698195
0.0029970499
0.0027963944
0.002586229
0.0023558452
0.010515727
0.016560291
0.018514372
0.018056903
0.01650158
0.014688001
0.013001416
0.01152095
0.010245444
0.0091545831
0.0082258589
0.0074339245
0.0067549415
0.0061711822
0.0056693053
0.0052379121
0.0048666861
0.0045462417
0.0042677644
0.0040224211
0.0038012483
0.0035956529
0.0034049383
0.0032445699
0.044923588
0.034049742
0.026547916
0.021388502
0.017739409
0.015041693
0.012959113
0.011307533
0.0099796522
0.0089002423
0.0080114293
0.0072689755
0.0066398225
0.0060998434
0.0056314355
0.005222156
0.004863248
0.0045480931
0.0042711466
0.0040271675
0.0038105821
0.0036154267
0.0034359841
0.0032736161
0.0031435209
0.0372388
0.030950283
0.027747757
0.025124914
0.022257497
0.01928443
0.016567657
0.014270527
0.012390496
0.010850363
0.0095806241
0.0085245567
0.0076387901
0.0068935126
0.0062648905
0.0057333831
0.0052826177
0.0048988574
0.0045703618
0.0042866173
0.0040375689
0.0038134353
0.003605062
0.0034116149
0.0032489974
0.010212025
0.0095403466
0.0092020976
0.0088833023
0.008421657
0.0078570955
0.0073006155
0.0068040685
0.0063533151
0.0059555077
0.0056076675
0.0053037177
0.0050183991
0.004754792
0.0045142772
0.004296081
0.0040980494
0.003917261
0.0037498401
0.0035907411
0.0034332292
0.0032683449
0.003084609
0.002873465
0.0026535349
0.0039657619
0.0038935089
0.003871391
0.0038308734
0.0037365993
0.0036017573
0.0034623929
0.0033333131
0.0032171156
0.0031158913
0.0030286485
0.0029522315
0.0028810419
0.0028144971
0.0027524009
0.002693908
0.0026373232
0.0025800325
0.0025182456
0.0024464509
0.0023563256
0.0022344472
0.002056457
0.0017686391
0.0012085607
0.0019252395
0.0019384053
0.0019637831
0.0019788617
0.0019727432
0.001948914
0.001918364
0.0018881033
0.0018611853
0.0018389082
0.0018210437
0.0018063288
0.0017930888
0.0017806344
0.001768601
0.0017557528
0.0017401911
0.0017191063
0.001688422
0.0016421595
0.0015712618
0.0014613433
0.0012882007
0.0010089061
0.00054604502
0.0010855892
0.001104039
0.0011278243
0.0011481151
0.0011603877
0.0011654012
0.0011667476
0.0011673889
0.0011690494
0.0011724679
0.0011775953
0.0011838493
0.0011904314
0.0011966399
0.0012016974
0.0012043665
0.0012028041
0.0011943651
0.0011753156
0.001140368
0.0010819287
0.0009889075
0.00084498101
0.00062671444
0.00030327078
0.00067802559
0.00069246143
0.00070995335
0.00072668331
0.00074051453
0.00075140026
0.00076055316
0.00076926441
0.00077842245
0.00078844368
0.00079932275
0.00081074153
0.00082219493
0.0008330658
0.00084253493
0.0008494257
0.00085209329
0.00084828655
0.00083497212
0.00080810389
0.00076233827
0.00069073831
0.0005845875
0.00043316158
0.00021888869
0.00045403237
0.00046458357
0.00047709968
0.00048980155
0.00050161105
0.00051232721
0.00052234444
0.00053221152
0.0005423596
0.00055299765
0.00056410461
0.00057546065
0.00058668374
0.00059724115
0.00060640194
0.00061315988
0.00061616154
0.00061363208
0.00060330672
0.00058239119
0.00054762357
0.00049564246
0.00042423773
0.00033614823
0.00024642731
0.00031922839
0.00032692796
0.00033595635
0.00034544314
0.00035481709
0.00036389441
0.00037278474
0.00038170434
0.00039084163
0.0004002805
0.00040997388
0.00041974063
0.00042926875
0.00043810793
0.0004456415
0.00045104525
0.00045325045
0.00045091781
0.00044243815
0.00042599654
0.00039978099
0.00036252622
0.00031483101
0.00026216035
0.00022042209
0.00023223599
0.00023790917
0.00024450635
0.00025158865
0.00025884171
0.00026612743
0.00027345208
0.00028088823
0.0002885023
0.00029630782
0.0003042376
0.00031213109
0.00031972634
0.00032664899
0.00033239358
0.00033630364
0.00033755651
0.00033516398
0.00032800218
0.0003148979
0.00029481927
0.00026726233
0.0002330072
0.00019546939
0.00015999446
0.0001728038
0.00017701623
0.00018188577
0.00018718275
0.00019272812
0.00019842421
0.00020424431
0.00021019825
0.00021629436
0.00022250886
0.0002287657
0.00023492235
0.00024075937
0.0002459702
0.00025014981
0.00025278467
0.00025325
0.00025081954
0.00024469658
0.00023407561
0.00021824018
0.00019667852
0.00016909972
0.00013481261
8.7890952e-05
0.00013024691
0.00013338159
0.00013699069
0.00014094888
0.00014515056
0.0001495275
0.00015404584
0.00015869014
0.00016344249
0.00016826369
0.00017307801
0.00017776168
0.0001821337
0.00018594749
0.00018888369
0.00019054603
0.00019046254
0.00018809571
0.00018286349
0.00017417015
0.0001614325
0.00014405478
0.00012122149
9.1160927e-05
4.917754e-05
9.8626527e-05
0.00010095011
0.00010361841
0.0001065598
0.00010970988
0.00011302095
0.00011646107
0.00012000663
0.00012363022
0.00012728912
0.00013091451
0.0001344025
0.00013760683
0.00014033273
0.00014233246
0.00014330347
0.00014289044
0.00014069248
0.00013627499
0.00012918176
0.00011893391
0.00010498722
8.6599844e-05
6.2557688e-05
3.0963059e-05
7.4507581e-05
7.6213218e-05
7.8168453e-05
8.0330777e-05
8.2659381e-05
8.5120828e-05
8.7688293e-05
9.0337474e-05
9.3040143e-05
9.5756567e-05
9.8427926e-05
0.00010096992
0.00010326743
0.00010516994
0.00010648854
0.00010699499
0.00010642344
0.00010447498
0.00010082423
9.5124724e-05
8.7007187e-05
7.6063625e-05
6.182166e-05
4.3760381e-05
2.1472669e-05
5.583016e-05
5.7063061e-05
5.8474378e-05
6.0038164e-05
6.1727979e-05
6.3520023e-05
6.5393117e-05
6.7325874e-05
6.9293107e-05
7.1260964e-05
7.3181865e-05
7.4989884e-05
7.6596854e-05
7.788916e-05
7.872566e-05
7.8937017e-05
7.8326807e-05
7.6674509e-05
7.3739813e-05
6.9267475e-05
6.2992121e-05
5.4646852e-05
4.3995958e-05
3.0956955e-05
1.583131e-05
4.1305217e-05
4.2177838e-05
4.317557e-05
4.4281997e-05
4.5479808e-05
4.6752148e-05
4.8082762e-05
4.9454446e-05
5.0846524e-05
5.2232066e-05
5.3574279e-05
5.4823495e-05
5.5914295e-05
5.6763277e-05
5.7267484e-05
5.7303928e-05
5.6730245e-05
5.5386786e-05
5.3100174e-05
4.9688833e-05
4.4972283e-05
3.8790246e-05
3.1048652e-05
2.1834862e-05
1.1593374e-05
3.007448e-05
3.0676148e-05
3.1363329e-05
3.2125334e-05
3.2950708e-05
3.3827672e-05
3.4744181e-05
3.5687101e-05
3.6640575e-05
3.75842e-05
3.8490815e-05
3.9324372e-05
4.0037954e-05
4.0572192e-05
4.08541e-05
4.0796645e-05
4.029915e-05
3.9248852e-05
3.7523982e-05
3.4999331e-05
3.1556303e-05
2.7101922e-05
2.1606164e-05
1.5176693e-05
8.1646279e-06
2.1514494e-05
2.1916986e-05
2.2376071e-05
2.2884747e-05
2.3435374e-05
2.4019846e-05
2.4629547e-05
2.5254868e-05
2.5884241e-05
2.6502949e-05
2.7091735e-05
2.7625398e-05
2.8071462e-05
2.8389029e-05
2.8527931e-05
2.8428366e-05
2.8021101e-05
2.722864e-05
2.5967773e-05
2.4154354e-05
2.1711795e-05
1.858563e-05
1.476792e-05
1.0339056e-05
5.5260698e-06
1.5125881e-05
1.5386409e-05
1.5683045e-05
1.6011258e-05
1.6365923e-05
1.6741557e-05
1.7132186e-05
1.7531062e-05
1.793008e-05
1.8319055e-05
1.8684858e-05
1.9010492e-05
1.9274226e-05
1.9448781e-05
1.950073e-05
1.9390177e-05
1.9070856e-05
1.8490958e-05
1.7595066e-05
1.6327825e-05
1.4640192e-05
1.2499332e-05
9.9034464e-06
6.9055109e-06
3.6544263e-06
1.0478093e-05
1.0641117e-05
1.0826329e-05
1.1030782e-05
1.1251137e-05
1.1483711e-05
1.1724476e-05
1.1968841e-05
1.2211341e-05
1.2445169e-05
1.2661664e-05
1.2849723e-05
1.299523e-05
1.3080513e-05
1.3083905e-05
1.2979484e-05
1.273712e-05
1.2323001e-05
1.1701028e-05
1.083541e-05
9.6949248e-06
8.2592602e-06
6.5278709e-06
4.5335777e-06
2.3879858e-06
7.1898868e-06
7.288589e-06
7.4004388e-06
7.5235447e-06
7.6557457e-06
7.7946323e-06
7.9375411e-06
8.0814333e-06
8.2227164e-06
8.3569684e-06
8.4786177e-06
8.5805825e-06
8.6538932e-06
8.6873316e-06
8.6671264e-06
8.5767697e-06
8.3970238e-06
8.1061991e-06
7.6811171e-06
7.0988997e-06
6.3397651e-06
5.3910407e-06
4.2525907e-06
2.9448117e-06
1.5379282e-06
4.9302543e-06
4.9881971e-06
5.0536605e-06
5.1254496e-06
5.2021846e-06
5.282329e-06
5.3641608e-06
5.445718e-06
5.5246989e-06
5.5982848e-06
5.6629592e-06
5.7142738e-06
5.7465964e-06
5.7528364e-06
5.7242125e-06
5.6502065e-06
5.518677e-06
5.3158401e-06
5.0268639e-06
4.6371477e-06
4.1341528e-06
3.5099664e-06
2.764748e-06
1.9115062e-06
9.9359838e-07
3.4244072e-06
3.4575883e-06
3.49493e-06
3.5356837e-06
3.5789821e-06
3.6238512e-06
3.6692002e-06
3.7137792e-06
3.7561183e-06
3.7944379e-06
3.8265214e-06
3.8495764e-06
3.8600693e-06
3.853545e-06
3.8244442e-06
3.7659254e-06
3.6699128e-06
3.5275958e-06
3.3294134e-06
3.0659395e-06
2.7291256e-06
2.3139842e-06
1.8208534e-06
1.258466e-06
6.5507729e-07
2.4517183e-06
2.4704896e-06
2.4915172e-06
2.5143321e-06
2.5383893e-06
2.5630711e-06
2.5876785e-06
2.6114082e-06
2.6333109e-06
2.6522307e-06
2.6667332e-06
2.675009e-06
2.6747677e-06
2.6631273e-06
2.6364885e-06
2.5903641e-06
2.5192478e-06
2.4170537e-06
2.2774027e-06
2.0940052e-06
1.861516e-06
1.5766855e-06
1.2398859e-06
8.5709098e-07
4.4725128e-07
1.8431727e-06
1.8538815e-06
1.8658212e-06
1.8786958e-06
1.8921591e-06
1.9058127e-06
1.9191989e-06
1.9317832e-06
1.9429269e-06
1.9518449e-06
1.9575519e-06
1.958799e-06
1.9539948e-06
1.9411228e-06
1.9176568e-06
1.8804848e-06
1.8258219e-06
1.7491787e-06
1.6459579e-06
1.5116797e-06
1.3425625e-06
1.1363506e-06
8.9339484e-07
6.1799804e-07
3.2385157e-07
1.4762468e-06
1.4826066e-06
1.4896702e-06
1.4972463e-06
1.5051077e-06
1.5129873e-06
1.5205705e-06
1.5274813e-06
1.5332598e-06
1.5373301e-06
1.5389597e-06
1.5372087e-06
1.5308697e-06
1.5184031e-06
1.497872e-06
1.466886e-06
1.42258e-06
1.3615353e-06
1.280136e-06
1.1749017e-06
1.0429151e-06
8.8246162e-07
6.9385789e-07
4.8041566e-07
2.5340477e-07
1.2654924e-06
1.269582e-06
1.2741164e-06
1.278966e-06
1.2839728e-06
1.288946e-06
1.2936536e-06
1.2978091e-06
1.3010521e-06
1.3029209e-06
1.3028177e-06
1.299966e-06
1.2933603e-06
1.2817113e-06
1.2633928e-06
1.2363967e-06
1.1983173e-06
1.1463448e-06
1.0774184e-06
9.8859226e-07
8.7740166e-07
7.4240855e-07
5.8391407e-07
4.0477101e-07
2.1338981e-07
1.1531878e-06
1.1561186e-06
1.1593712e-06
1.1628511e-06
1.1664401e-06
1.1699902e-06
1.1733153e-06
1.176178e-06
1.1782706e-06
1.1791907e-06
1.1784086e-06
1.1752289e-06
1.1687448e-06
1.1577898e-06
1.1408906e-06
1.1162279e-06
1.0816227e-06
1.0345657e-06
9.7229505e-07
8.9213441e-07
7.9183784e-07
6.7009226e-07
5.2719029e-07
3.6581536e-07
1.9359833e-07
1.1014303e-06
1.1037672e-06
1.106367e-06
1.1091551e-06
1.112035e-06
1.1148826e-06
1.1175364e-06
1.1197845e-06
1.121346e-06
1.1218468e-06
1.1207887e-06
1.1175122e-06
1.1111535e-06
1.1005984e-06
1.0844388e-06
1.0609373e-06
1.028015e-06
9.8329022e-07
9.2414558e-07
8.4802381e-07
7.5276592e-07
6.3709537e-07
5.0127001e-07
3.4782063e-07
1.8393227e-07
1.0859505e-06
1.0879645e-06
1.0902101e-06
1.0926234e-06
1.0951202e-06
1.0975889e-06
1.0998808e-06
1.1017968e-06
1.1030682e-06
1.103333e-06
1.1021048e-06
1.098736e-06
1.0923756e-06
1.0819245e-06
1.0659926e-06
1.0428661e-06
1.0104964e-06
9.665402e-07
9.0843344e-07
8.3365445e-07
7.4006112e-07
6.2637157e-07
4.928182e-07
3.4188414e-07
1.8064129e-07
1.0915449e-06
1.0933574e-06
1.0953804e-06
1.097556e-06
1.0998065e-06
1.1020269e-06
1.1040751e-06
1.1057576e-06
1.1068106e-06
1.1068754e-06
1.1054673e-06
1.1019381e-06
1.0954346e-06
1.0848526e-06
1.0687958e-06
1.0455428e-06
1.0130379e-06
9.6893171e-07
9.1066192e-07
8.3569788e-07
7.4187879e-07
6.2789901e-07
4.9397504e-07
3.4258232e-07
1.8078805e-07
1.1088509e-06
1.1105124e-06
1.1123661e-06
1.1143576e-06
1.1164127e-06
1.1184299e-06
1.1202703e-06
1.1217425e-06
1.1225837e-06
1.1224342e-06
1.1208056e-06
1.1170434e-06
1.1102838e-06
1.0994084e-06
1.0830016e-06
1.0593192e-06
1.0262793e-06
9.81504e-07
9.2240612e-07
8.4642376e-07
7.5136136e-07
6.3588561e-07
5.0021854e-07
3.4689802e-07
1.830591e-07
1.1321504e-06
1.1336806e-06
1.1353851e-06
1.1372116e-06
1.1390878e-06
1.1409144e-06
1.1425535e-06
1.1438143e-06
1.1444329e-06
1.1440463e-06
1.1421603e-06
1.1381108e-06
1.1310201e-06
1.1197506e-06
1.1028621e-06
1.07858e-06
1.0447875e-06
9.9906796e-07
9.3879699e-07
8.6137172e-07
7.6455515e-07
6.4697992e-07
5.0885404e-07
3.5272916e-07
1.8584668e-07
1.1579151e-06
1.1593223e-06
1.1608859e-06
1.1625548e-06
1.1642581e-06
1.1658973e-06
1.1673352e-06
1.1683803e-06
1.1687667e-06
1.1681273e-06
1.1659607e-06
1.161592e-06
1.1541281e-06
1.1424106e-06
1.1249726e-06
1.1000065e-06
1.0653578e-06
1.0185677e-06
9.5697044e-07
8.7791999e-07
7.7913684e-07
6.5921492e-07
5.1833285e-07
3.590544e-07
1.8905335e-07
1.1838639e-06
1.1851534e-06
1.1865814e-06
1.1880978e-06
1.1896326e-06
1.1910879e-06
1.1923264e-06
1.1931556e-06
1.1933069e-06
1.1924086e-06
1.189952e-06
1.1852509e-06
1.1773967e-06
1.1652102e-06
1.1471976e-06
1.1215192e-06
1.0859828e-06
1.0380888e-06
9.7513117e-07
8.9442373e-07
7.9364866e-07
6.713613e-07
5.2769008e-07
3.6516917e-07
1.910207e-07
1.2083567e-06
1.2095336e-06
1.2108318e-06
1.2122019e-06
1.2135744e-06
1.2148517e-06
1.2158961e-06
1.2165139e-06
1.2164338e-06
1.2152793e-06
1.2125341e-06
1.2075014e-06
1.1992574e-06
1.1866033e-06
1.1680204e-06
1.1416387e-06
1.105232e-06
1.056264e-06
9.9199336e-07
9.0970111e-07
8.0704174e-07
6.8254939e-07
5.3633751e-07
3.7100676e-07
1.9439219e-07
1.2300035e-06
1.231074e-06
1.2322492e-06
1.2334803e-06
1.2346985e-06
1.2358061e-06
1.236665e-06
1.2370801e-06
1.2367772e-06
1.2353752e-06
1.2323508e-06
1.2269971e-06
1.2183768e-06
1.2052732e-06
1.1861458e-06
1.1590988e-06
1.1218773e-06
1.0719153e-06
1.0064447e-06
9.2272427e-07
8.1839367e-07
6.9198282e-07
5.4361596e-07
3.7595186e-07
1.9623151e-07
1.2474057e-06
1.2483762e-06
1.2494361e-06
1.2505369e-06
1.25161e-06
1.252558e-06
1.253242e-06
1.2534656e-06
1.252952e-06
1.2513158e-06
1.2480275e-06
1.2423715e-06
1.2333987e-06
1.2198781e-06
1.2002515e-06
1.1726037e-06
1.1346591e-06
1.083832e-06
1.0173396e-06
9.3243191e-07
8.2674816e-07
6.988266e-07
5.4881545e-07
3.7947856e-07
1.9830797e-07
1.2589755e-06
1.259853e-06
1.2608055e-06
1.2617849e-06
1.262723e-06
1.2635223e-06
1.2640434e-06
1.2640887e-06
1.2633791e-06
1.2615258e-06
1.2579941e-06
1.2520618e-06
1.2427712e-06
1.2288811e-06
1.2088223e-06
1.1806679e-06
1.1421331e-06
1.090626e-06
1.0233652e-06
9.3761006e-07
8.3101744e-07
7.0214987e-07
5.511851e-07
3.8094791e-07
1.9905648e-07
1.2628051e-06
1.2635966e-06
1.2644496e-06
1.2653168e-06
1.26613e-06
1.266792e-06
1.2671631e-06
1.2670447e-06
1.2661564e-06
1.2641069e-06
1.2603586e-06
1.2541852e-06
1.2446247e-06
1.2304319e-06
1.2100345e-06
1.1815057e-06
1.1425656e-06
1.0906343e-06
1.0229526e-06
9.3681235e-07
8.2991112e-07
7.0085394e-07
5.4985359e-07
3.7976747e-07
1.9824793e-07
1.256572e-06
1.2572838e-06
1.2580451e-06
1.2588088e-06
1.2595074e-06
1.2600438e-06
1.2602786e-06
1.2600131e-06
1.2589666e-06
1.2567473e-06
1.2528172e-06
1.2464501e-06
1.2366857e-06
1.2222825e-06
1.2016765e-06
1.1729554e-06
1.1338635e-06
1.0818553e-06
1.0142199e-06
9.2831196e-07
8.2189776e-07
6.9364753e-07
5.4381576e-07
3.7523454e-07
1.9522568e-07
1.2374812e-06
1.2381194e-06
1.2387961e-06
1.239465e-06
1.240059e-06
1.240482e-06
1.2405956e-06
1.2402021e-06
1.2390224e-06
1.236667e-06
1.2326014e-06
1.2261053e-06
1.2162277e-06
1.2017419e-06
1.1811062e-06
1.1524419e-06
1.1135408e-06
1.0619201e-06
9.9495131e-07
9.1008634e-07
8.0519377e-07
6.7903675e-07
5.3193548e-07
3.6678543e-07
1.9096855e-07
1.202263e-06
1.2028329e-06
1.2034317e-06
1.2040137e-06
1.2045134e-06
1.2048359e-06
1.2048452e-06
1.2043466e-06
1.2030653e-06
1.2006179e-06
1.1964792e-06
1.1899423e-06
1.180076e-06
1.1656825e-06
1.1452609e-06
1.1169894e-06
1.0787358e-06
1.0281158e-06
9.6262318e-07
8.7984676e-07
7.7779541e-07
6.5535418e-07
5.1291962e-07
3.534035e-07
1.8404431e-07
1.1472547e-06
1.1477609e-06
1.1482875e-06
1.1487903e-06
1.1492057e-06
1.1494416e-06
1.1493661e-06
1.1487902e-06
1.1474472e-06
1.1449654e-06
1.1408363e-06
1.134377e-06
1.1246899e-06
1.1106237e-06
1.0907418e-06
1.0633078e-06
1.026301e-06
9.7747743e-07
9.1449617e-07
8.3512823e-07
7.3756328e-07
6.2083554e-07
4.854205e-07
3.3421819e-07
1.7424742e-07
1.0686016e-06
1.0690475e-06
1.0695067e-06
1.0699374e-06
1.0702788e-06
1.0704434e-06
1.0703058e-06
1.0696864e-06
1.068332e-06
1.06589e-06
1.0618786e-06
1.0556523e-06
1.0463648e-06
1.0329343e-06
1.0140165e-06
9.879955e-07
9.530028e-07
9.0697977e-07
8.4779937e-07
7.7346217e-07
6.8237933e-07
5.7375933e-07
4.4814797e-07
3.0835928e-07
1.6116562e-07
9.6264232e-07
9.6303016e-07
9.6342607e-07
9.6379112e-07
9.6406948e-07
9.6417991e-07
9.6400657e-07
9.633839e-07
9.620797e-07
9.5976963e-07
9.5601118e-07
9.5021361e-07
9.4160405e-07
9.2919751e-07
9.1177667e-07
8.8788589e-07
8.5585435e-07
8.1385773e-07
7.6003191e-07
6.9265318e-07
6.1038994e-07
5.1264235e-07
4.000079e-07
2.7507004e-07
1.4382697e-07
8.2651103e-07
8.2684245e-07
8.2717806e-07
8.2748325e-07
8.2771116e-07
8.2778786e-07
8.2760958e-07
8.2702791e-07
8.2584481e-07
8.2377524e-07
8.2042964e-07
8.1529343e-07
8.0769223e-07
7.9677106e-07
7.8148126e-07
7.6057253e-07
7.3262066e-07
6.9608547e-07
6.4940787e-07
5.9118065e-07
5.2035542e-07
4.3652658e-07
3.4031074e-07
2.3395631e-07
1.2242293e-07
6.5905297e-07
6.5932531e-07
6.5959707e-07
6.598359e-07
6.600267e-07
6.6009418e-07
6.5994298e-07
6.594353e-07
6.5844498e-07
6.5673193e-07
6.5396582e-07
6.4974592e-07
6.4351702e-07
6.3458968e-07
6.2213426e-07
6.0515544e-07
5.8252995e-07
5.5305244e-07
5.1547753e-07
4.6875005e-07
4.121201e-07
3.4536135e-07
2.6906409e-07
1.8506399e-07
9.7123941e-08
4.6217376e-07
4.623648e-07
4.6253317e-07
4.626295e-07
4.6281596e-07
4.6289091e-07
4.6277239e-07
4.6227032e-07
4.6151596e-07
4.6025129e-07
4.5816093e-07
4.5509822e-07
4.5060778e-07
4.4418811e-07
4.3527841e-07
4.2318911e-07
4.0717178e-07
3.8642219e-07
3.5990784e-07
3.2697382e-07
2.8718169e-07
2.4045271e-07
1.8729903e-07
1.2914212e-07
6.8675609e-08
2.4221375e-07
2.42285e-07
2.4227016e-07
2.4209591e-07
2.4196872e-07
2.4205846e-07
2.4189258e-07
2.4097268e-07
2.4043343e-07
2.3965008e-07
2.3816893e-07
2.3644827e-07
2.3403826e-07
2.3061164e-07
2.2588944e-07
2.195152e-07
2.1122113e-07
2.0068313e-07
1.8690783e-07
1.6970251e-07
1.4894078e-07
1.2463615e-07
9.7131755e-08
6.735401e-08
3.6964005e-08
)
;

boundaryField
{
    Walls
    {
        type            kqRWallFunction;
        value           nonuniform List<scalar> 
38
(
6.007689e-06
2.6250322e-06
7.9995979e-06
3.7668523e-05
0.00028126723
0.0023558452
0.056242136
0.060861472
0.018358894
0.027305184
0.034261041
0.04134637
0.047530286
0.051672753
0.055952644
0.059524004
0.062311987
0.064607733
0.065944901
0.067236556
0.068642615
0.069530485
0.070257043
0.071310329
0.071594735
0.071447477
0.072383171
0.073105576
0.072900297
0.072948772
0.073189557
0.072431728
0.072397865
0.072951992
0.072610693
0.072500059
0.071679508
0.066658481
)
;
    }
    Inlet
    {
        type            turbulentIntensityKineticEnergyInlet;
        intensity       0.05;
        value           nonuniform List<scalar> 3(0.0079819192 0.0081262338 0.0095701503);
    }
    Outlet
    {
        type            inletOutlet;
        inletValue      uniform 0;
        value           nonuniform List<scalar> 
86
(
0
0
0
0
0
0
0
0
0
0
0
0
0
0
0
0
0
0
0
0
0
0
0
0
0
0
0
0
0
0
0.0031435209
0.0032489974
0.0026535349
0
0
0
0
0
0.00022042209
0.00015999446
0
0
0
0
0
0
8.1646279e-06
5.5260698e-06
3.6544263e-06
2.3879858e-06
1.5379282e-06
9.9359838e-07
6.5507729e-07
4.4725128e-07
3.2385157e-07
2.5340477e-07
0
0
0
0
0
0
0
0
0
0
0
0
0
0
0
0
0
0
0
0
0
0
0
0
0
0
0
0
0.002586229
0.0032445699
)
;
    }
    Front
    {
        type            wedge;
    }
    Back
    {
        type            wedge;
    }
    defaultFaces
    {
        type            empty;
    }
}


// ************************************************************************* //
