/*--------------------------------*- C++ -*----------------------------------*\
| =========                 |                                                 |
| \\      /  F ield         | OpenFOAM: The Open Source CFD Toolbox           |
|  \\    /   O peration     | Version:  4.0                                   |
|   \\  /    A nd           | Web:      www.OpenFOAM.org                      |
|    \\/     M anipulation  |                                                 |
\*---------------------------------------------------------------------------*/
FoamFile
{
    version     2.0;
    format      ascii;
    class       volScalarField;
    location    "0.59";
    object      omega;
}
// * * * * * * * * * * * * * * * * * * * * * * * * * * * * * * * * * * * * * //

dimensions      [0 0 -1 0 0 0 0];

internalField   nonuniform List<scalar> 
1740
(
61.194648
702.87812
14920.041
171.6453
1510.3304
15029.325
287.90623
1986.3804
15113.702
379.97831
2227.6451
15198.781
479.65343
2473.0283
15272.533
592.31146
2762.0381
15321.885
699.87296
2985.137
15373.96
820.68702
3211.482
15417.295
948.80662
3400.2036
15446.697
1074.3171
3598.4149
15474.425
1169.4736
3740.8348
15491.5
1235.1568
3736.5465
15506.955
1313.889
3773.0792
15524.406
1403.3762
3868.0894
15533.318
1486.7985
3945.8739
15543.654
1554.3527
3986.416
15554.732
1626.6161
4025.1348
15556.972
1680.7068
4018.4653
15558.337
1703.7848
4022.0381
15568.493
1758.9238
4061.1634
15575.841
1814.0304
4129.1494
15574.204
1849.2411
4166.5512
15574.611
1879.0862
4152.8032
15576.997
1904.0268
4156.4266
15567.98
1905.9944
4125.509
15566.914
1909.5855
4126.4746
15572.845
1937.437
4203.1531
15570.055
1989.3447
4242.0844
15570.142
2009.8226
4234.5862
15559.844
2129.5015
4300.4833
15500.288
3193.3186
4558.413
10720.219
3333.8572
4229.0298
5916.1795
1571.5118
1857.7849
2150.7924
825.79719
901.07597
959.40234
478.93697
497.28275
507.52904
300.6585
304.37749
304.51322
201.26768
201.55467
200.09007
141.87971
141.53119
140.24638
104.41675
104.07027
103.20257
79.763513
79.521563
78.983638
62.95735
62.805364
62.482905
51.156221
51.06465
50.874039
42.675084
42.620776
42.508522
36.484639
36.452489
36.386081
31.935991
31.916731
31.876838
28.603708
28.591832
28.567092
26.194246
26.186567
26.170419
24.491994
24.48673
24.475494
23.328665
23.324867
23.316568
22.567518
22.564721
22.558348
22.095178
22.093158
22.088166
21.810584
21.80892
21.80468
21.613486
21.611774
21.607811
21.460765
21.459175
21.455572
21.334531
21.333102
21.329862
21.22322
21.221958
21.219067
21.1195
21.118419
21.115879
21.018913
21.018036
21.01586
20.919174
20.918515
20.916713
20.819822
20.819367
20.81792
20.721615
20.721324
20.720179
20.625447
20.625265
20.624359
20.531104
20.530986
20.530257
20.436334
20.436247
20.435648
20.33631
20.336238
20.335734
20.223324
20.223258
20.222828
20.086447
20.086383
20.086011
19.911029
19.910967
19.910644
19.678021
19.677963
19.677681
19.363169
19.363117
19.362873
18.936227
18.936182
18.935975
18.360369
18.360331
18.36016
17.592004
17.591971
17.59183
16.583473
16.583439
16.583331
15.289859
15.289843
15.289785
13.66175
13.661757
13.661756
11.659211
11.65924
11.659296
9.262908
9.2629547
9.2630623
6.49045
6.4905061
6.4906625
3.4137782
3.4138275
3.4139972
13480.515
13534.687
5986.3425
5326.0395
2081.0071
1880.0473
922.5706
853.46478
490.59917
463.33655
296.31219
284.35825
195.76243
190.00396
137.84954
134.88162
101.84818
100.24635
78.209611
77.317086
62.036455
61.527922
50.614472
50.319969
42.356473
42.183663
36.296061
36.193158
31.822446
31.75963
28.53298
28.492909
26.147756
26.120433
24.459328
24.439162
23.304234
23.288236
22.548467
22.535116
22.080002
22.068532
21.797633
21.787593
21.601457
21.592484
21.449849
21.441766
21.324697
21.317355
21.214404
21.207697
21.111688
21.105552
21.012135
21.006543
20.913451
20.9084
20.815108
20.810601
20.717785
20.713822
20.622336
20.618898
20.528554
20.525604
20.434214
20.431703
20.334525
20.332393
20.221803
20.219989
20.085137
20.083586
19.909893
19.908558
19.677033
19.675876
19.362314
19.361306
18.935496
18.934622
18.359758
18.359009
17.591501
17.590876
16.583086
16.582602
15.289633
15.289297
13.661706
13.661528
11.659352
11.659367
9.2632512
9.2635747
6.4910508
6.4919814
3.4145484
3.4161214
12058.199
2043.8041
696.71981
369.22462
281.41419
257.19083
250.05112
247.00731
244.66014
242.2658
239.74487
236.99626
234.16379
231.25732
228.24232
225.05429
221.57918
217.62004
212.84296
206.69265
198.24736
185.95336
167.10366
136.62418
82.860065
12058.133
2037.8699
697.94987
374.80972
283.32993
254.47969
242.93477
235.71947
229.6147
223.82374
218.15035
212.52675
207.02494
201.62426
196.30319
191.03328
185.75758
180.37152
174.68727
168.38186
160.90396
151.28659
137.72913
116.51849
78.20629
12058.179
2030.5555
718.64682
430.73047
359.35871
332.43012
315.06452
300.57242
287.34336
274.80324
262.83481
251.25177
240.28378
229.83098
219.83156
210.27179
201.13051
192.3611
183.86257
175.45625
166.82853
157.39821
145.95986
129.55625
98.875087
12058.527
2031.824
817.6133
608.8751
550.00156
512.79675
479.77831
449.26471
421.28821
394.98303
370.31358
347.31041
326.1078
306.25047
287.59424
270.14634
253.89432
238.80554
224.82421
211.85902
199.76919
188.32867
177.09795
164.89711
146.47801
12061.527
2151.2798
1232.4904
1078.4467
989.64605
906.80855
828.3307
756.93089
693.05583
633.97336
579.64459
530.01961
485.92501
445.64349
408.66406
374.99611
344.50337
317.01453
292.34711
270.30783
250.70057
233.35033
218.14361
205.25324
195.7555
12087.209
3821.9816
2808.061
2403.2208
2094.6447
1825.7182
1590.4527
1387.2546
1211.4039
1059.6643
928.94843
816.42035
719.54169
635.88931
563.53957
500.99081
446.95296
400.30016
360.05904
325.39574
295.6021
270.10367
248.4962
230.87533
218.47605
10360.393
7900.0888
6095.0796
4785.9703
3816.5813
3081.5819
2512.5978
2065.6098
1711.0116
1427.5361
1199.3356
1014.5028
864.04248
741.01266
639.92532
556.43598
487.12117
429.29275
380.8416
340.10976
305.79294
276.88548
252.67189
233.03171
219.24358
4085.6971
3304.4726
2841.7679
2466.6855
2147.4371
1866.8732
1622.15
1410.6116
1229.3038
1073.9027
940.58619
825.92879
726.95067
641.49358
567.72156
504.04916
449.10754
401.72477
360.90135
325.78742
295.66546
269.95588
248.24491
230.60805
218.23133
1593.5163
1399.3377
1269.2982
1161.088
1058.8769
961.6155
872.96258
793.92363
721.90438
656.65805
598.27775
546.64219
499.21311
455.8742
416.5051
380.9128
348.86617
320.13457
294.48807
271.71033
251.60344
233.99957
218.78853
206.12391
196.96417
770.91054
707.74024
661.50724
620.92269
580.55109
540.3939
502.79747
468.13864
436.01237
406.38776
379.30823
354.49937
331.27586
309.5403
289.2842
270.49607
253.14638
237.19425
222.58936
209.26808
197.13712
186.03161
175.58673
164.74527
148.70519
433.83551
409.9795
391.22708
373.96829
356.20026
337.88382
319.98908
302.95161
286.85054
271.7388
257.62571
244.38798
231.81918
219.87545
208.58844
197.95529
187.9695
178.61069
169.83454
161.55018
153.56597
145.45566
136.19298
123.00721
96.803352
271.95881
261.47502
252.77052
244.56578
236.01272
227.04312
218.01851
209.19903
200.70633
192.59864
184.88511
177.51759
170.42492
163.58513
157.01171
150.70914
144.66918
138.86225
133.22217
127.6142
121.76707
115.12301
106.48382
93.081555
67.411001
184.16472
179.05178
174.6138
170.36303
165.92174
161.2222
156.39764
151.58811
146.88247
142.32689
137.93245
133.6812
129.54492
125.50933
121.57094
117.72093
113.9377
110.17684
106.35471
102.3185
97.790054
92.25694
84.749858
73.303507
52.772398
131.90333
129.2273
126.82734
124.4997
122.07085
119.49137
116.80809
114.09116
111.3956
108.75301
106.17334
103.64979
101.1678
98.714408
96.277393
93.838161
91.365089
88.804579
86.067641
83.008691
79.393108
74.854895
68.875782
60.96905
51.407697
98.642741
97.171141
95.819662
94.497222
93.12061
91.658054
90.124958
88.554283
86.976513
85.411203
83.865242
82.334853
80.809693
79.27625
77.717433
76.108606
74.412567
72.572762
70.504107
68.081166
65.126526
61.413742
56.739221
51.242022
46.37946
76.421422
75.583904
74.800809
74.030456
73.231442
72.384107
71.491727
70.569135
69.631893
68.690574
67.74837
66.801274
65.839523
64.848706
63.809
62.692733
61.460669
60.057301
58.405038
56.398202
53.900253
50.755327
46.846546
42.2792
37.469305
61.014539
60.526848
60.064699
59.608774
59.137856
58.639932
58.114032
57.565903
57.002557
56.428341
55.843121
55.241617
54.61352
53.943518
53.210448
52.385407
51.429124
50.2885
48.892439
47.147081
44.930423
42.084048
38.385555
33.403459
25.431828
50.020286
49.731961
49.456029
49.183454
48.903076
48.607442
48.294271
47.96486
47.621251
47.26387
46.889966
46.49282
46.061332
45.579503
45.025516
44.370245
43.575133
42.589378
41.346109
39.756745
37.700676
35.001175
31.356985
26.118352
17.437869
42.006326
41.833708
41.667198
41.502488
41.33355
41.155602
40.966061
40.764027
40.548728
40.3181
40.067584
39.789271
39.471309
39.097192
38.644837
38.085285
37.380859
36.48264
35.326718
33.827961
31.868015
29.269253
25.733239
20.683532
12.816018
36.086469
35.981292
35.878881
35.777167
35.672677
35.562208
35.443257
35.31379
35.171489
35.012762
34.831799
34.619806
34.364346
34.048574
33.650322
33.140905
32.483523
31.630996
30.52236
29.077233
27.185661
24.688762
21.340942
16.733208
10.076195
31.693515
31.627234
31.561631
31.495691
31.427287
31.354042
31.273626
31.183496
31.080465
30.960003
30.815493
30.637521
30.413201
30.125429
29.752009
29.264573
28.627192
27.79451
26.709036
25.297019
23.461795
21.073116
17.951311
13.849119
8.3879265
28.449747
28.405317
28.360109
28.31351
28.264097
28.209979
28.148932
28.078213
27.994151
27.891667
27.763605
27.600115
27.387969
27.109852
26.743539
26.260955
25.627031
24.798306
23.721139
22.329345
20.54104
18.254887
15.3478
11.683206
7.11208
26.090009
26.057469
26.023031
25.986195
25.945874
25.900456
25.847806
25.785083
25.70837
25.612234
25.489165
25.328973
25.11814
24.839145
24.469715
23.982021
23.341794
22.507409
21.428976
20.047559
18.2947
16.092883
13.359071
10.018246
6.0259128
24.415767
24.389576
24.360585
24.328304
24.291784
24.249566
24.19958
24.138931
24.063557
23.967797
23.843864
23.681273
23.466219
23.180947
22.803096
22.305042
21.653241
20.807696
19.721777
18.34264
16.612558
14.471588
11.862791
8.7443915
5.1111509
23.268851
23.246142
23.219917
23.189665
23.154478
23.112974
23.063119
23.001986
22.925409
22.827549
22.700376
22.533102
22.311599
22.017822
21.629288
21.118567
20.452802
19.593411
18.496363
17.113452
15.394833
13.292969
10.768611
7.802614
4.4239504
22.518249
22.497669
22.473041
22.443803
22.409065
22.367467
22.316989
22.254672
22.176263
22.075757
21.944878
21.772499
21.544093
21.241248
20.841312
20.317103
19.636569
18.762459
17.652736
16.262449
14.547185
12.467996
9.9980393
7.1339661
3.9518638
22.053521
22.03458
22.01126
21.982945
21.94872
21.907214
21.856384
21.793223
21.713381
21.610689
21.476603
21.29961
21.064684
20.752904
20.34133
19.803129
19.107497
18.218725
17.096322
15.697385
13.980988
11.914103
9.4791081
6.6848113
3.6199128
21.774258
21.75717
21.735805
21.709455
21.677107
21.637286
21.587834
21.52562
21.44615
21.343067
21.207556
21.027688
20.787808
20.468161
20.045069
19.492073
18.780716
17.877638
16.743544
15.336461
13.617367
11.55714
9.1449075
6.3985507
3.4123985
21.580575
21.565312
21.546155
21.522371
21.49292
21.456295
21.410302
21.351769
21.276144
21.176998
21.045388
20.86909
20.631679
20.311516
19.881758
19.314834
18.587136
17.670458
16.526476
15.112986
13.39159
11.335528
8.9385895
6.2257084
3.2995146
21.431
21.417135
21.399621
21.377714
21.35036
21.316045
21.272573
21.216775
21.14412
21.048219
20.920199
20.747958
20.515288
20.20092
19.777633
19.211903
18.472848
17.545173
16.394241
14.976969
13.254794
11.20228
8.8161297
6.1253056
3.2371203
21.307503
21.294713
21.278427
21.25789
21.232047
21.199381
21.157706
21.103875
21.033396
20.939952
20.814785
20.645972
20.417566
20.108656
19.692429
19.135439
18.39842
17.465486
16.311713
14.893733
13.172698
11.123988
8.7462154
6.0710575
3.2115168
21.198596
21.186656
21.171311
21.151802
21.127071
21.095613
21.055258
21.002889
20.934073
20.842581
20.7198
20.554012
20.329554
20.025881
19.616588
19.068533
18.341465
17.409159
16.256724
14.840904
13.122716
11.078115
8.7070259
6.0428046
3.2103652
21.0971
21.085871
21.071287
21.052591
21.028732
20.998222
20.958919
20.907753
20.840363
20.750627
20.630086
20.467227
20.246655
19.948153
19.545726
19.00674
18.291383
17.364177
16.216429
14.804955
13.090808
11.050391
8.6848082
6.0298313
3.1971081
20.998695
20.98811
20.974208
20.956236
20.933165
20.903535
20.865247
20.815295
20.749399
20.661549
20.543427
20.383694
20.167163
19.873871
19.478146
18.947844
18.244035
17.324761
16.183893
14.778104
13.068635
11.03225
8.6709958
6.0232102
3.2026889
20.901158
20.891227
20.878031
20.860837
20.838647
20.810042
20.772977
20.724512
20.660448
20.574868
20.459557
20.303295
20.091033
19.802981
19.413697
18.891351
18.197472
17.28838
16.155483
14.755936
13.051322
11.018599
8.6600098
6.0139966
3.1937504
20.803998
20.794793
20.782425
20.766188
20.745122
20.717851
20.682384
20.635835
20.574062
20.491206
20.379108
20.226609
20.01874
19.735827
19.352616
18.83755
18.152494
17.253848
16.129074
14.735781
13.035973
11.006768
8.6505155
6.0059011
3.1864839
20.707898
20.699517
20.688138
20.673086
20.653434
20.627844
20.594358
20.550124
20.491024
20.411219
20.302564
20.15392
19.950357
19.672289
19.294629
18.786104
18.108985
17.220081
16.103003
14.715676
13.020526
10.994843
8.6410685
5.9978769
3.1785051
20.613675
20.60619
20.595928
20.582241
20.564222
20.540553
20.509293
20.467593
20.411336
20.33467
20.22944
20.0845
19.884942
19.611254
19.238508
18.73572
18.0656
17.185476
16.075454
14.693721
13.003133
10.981219
8.6307665
5.9911518
3.1752339
20.521067
20.514495
20.505395
20.493137
20.476825
20.455145
20.426151
20.386981
20.333498
20.259825
20.157779
20.016203
19.820202
19.550334
19.181831
18.683987
18.019958
17.147632
16.04403
14.667603
12.981618
10.963772
8.6167925
5.9796609
3.1648178
20.427802
20.422096
20.414113
20.403231
20.388556
20.368767
20.341901
20.305073
20.254115
20.183121
20.08388
19.945222
19.75227
19.485655
19.120761
18.62716
17.968442
17.103058
16.005403
14.634208
12.953136
10.939963
8.59705
5.9628462
3.1544756
20.329054
20.324124
20.317146
20.307503
20.294296
20.27619
20.2512
20.216417
20.167641
20.098935
20.002068
19.865864
19.675471
19.411595
19.049781
18.559873
17.905882
17.046825
15.954926
14.589238
12.913838
10.906544
8.5689779
5.9383256
3.1217767
20.217129
20.212863
20.206747
20.198164
20.186209
20.169531
20.146124
20.113052
20.066092
19.999281
19.904376
19.770204
19.58195
19.320411
18.961296
18.474728
17.825146
16.972133
15.886198
14.526782
12.85847
10.859343
8.5308212
5.910359
3.1125615
20.081122
20.077406
20.072005
20.0643
20.053377
20.037872
20.015761
19.984087
19.938606
19.873343
19.78005
19.647575
19.461155
19.201694
18.845089
18.361764
17.716604
16.869789
15.790565
14.438831
12.779793
10.791994
8.4770349
5.8725051
3.0814331
19.906417
19.90315
19.89833
19.891338
19.881252
19.866696
19.845632
19.81509
19.770814
19.706827
19.614893
19.483895
19.299149
19.041695
18.687652
18.207788
17.56749
16.727605
15.65655
14.314776
12.668222
10.696015
8.4001052
5.8189541
3.0574353
19.674
19.6711
19.666752
19.660337
19.650928
19.637143
19.616933
19.587324
19.54406
19.481174
19.390461
19.260867
19.077817
18.822529
18.471405
17.995625
17.36117
16.529732
15.469269
14.140912
12.511503
10.560915
8.2914999
5.7419434
3.0171742
19.359653
19.357057
19.3531
19.347163
19.338318
19.325177
19.305695
19.276897
19.234544
19.172699
19.083213
18.955128
18.774023
18.521362
18.173904
17.703327
17.076272
16.256012
15.209869
13.899952
12.294265
10.373624
8.1408403
5.6344561
2.9582849
18.933163
18.930832
18.927215
18.921695
18.913346
18.900784
18.881971
18.853953
18.812521
18.751795
18.663715
18.537465
18.358847
18.109659
17.767133
17.303519
16.68611
15.881537
14.855139
13.570697
11.997768
10.118383
7.9358797
5.4878758
2.8719961
18.357732
18.355649
18.352351
18.347227
18.339357
18.32737
18.309251
18.282079
18.241706
18.182339
18.096057
17.97225
17.797037
17.552693
17.217119
16.763316
16.160502
15.37689
14.377489
13.127998
11.599885
9.7767022
7.6626249
5.2956612
2.7730645
17.589782
17.587951
17.584983
17.580276
17.572925
17.561583
17.544273
17.518136
17.479115
17.421557
17.337742
17.217362
17.046985
16.809562
16.484028
16.045092
15.463649
14.708123
13.745285
12.543176
11.075538
9.3277596
7.3049838
5.045068
2.642432
16.581717
16.580177
16.577595
16.573386
16.566672
16.55615
16.539912
16.515206
16.478134
16.423275
16.343248
16.228219
16.0654
15.838595
15.527871
15.109449
14.55604
13.837827
12.923928
11.785098
10.397731
8.74931
6.8459702
4.7251561
2.4777794
15.288624
15.287375
15.285177
15.281473
15.27543
15.265812
15.250817
15.227849
15.193241
15.141899
15.066907
14.959077
14.806481
14.594055
14.30332
13.912345
13.396088
12.727288
11.878028
10.822262
9.5394366
8.019377
6.2690816
4.3246782
2.2735575
13.661089
13.660153
13.658376
13.65524
13.64998
13.641454
13.628008
13.607263
13.575883
13.529221
13.460984
13.362836
13.223983
13.030822
12.766745
12.412134
11.944734
11.340499
10.575076
9.6261275
8.4765215
7.1185926
5.5599579
3.8335872
2.0163943
11.659228
11.658653
11.657362
11.654895
11.650611
11.643474
11.632011
11.614104
11.58692
11.546404
11.487053
11.401653
11.280847
11.112897
10.88357
10.576111
10.171654
9.6499871
8.9908077
8.1759383
7.191936
6.0336361
4.7088721
3.2462059
1.7088538
9.2639518
9.263754
9.2629566
9.2611282
9.2580638
9.2527139
9.2437336
9.2291724
9.2072155
9.1744654
9.1262789
9.057057
8.9591201
8.8230259
8.6375396
8.3893661
8.0637459
7.6449115
7.1166402
6.4653136
5.6813269
4.7618053
3.7142492
2.5619409
1.3526289
6.493393
6.4933286
6.4925501
6.4903845
6.4890755
6.4858278
6.4794924
6.4674148
6.4513546
6.4276939
6.3920255
6.3422719
6.2721321
6.1747135
6.0423734
5.8658673
5.6356445
5.3411916
4.9688906
4.5102788
3.9597455
3.3163021
2.5864994
1.7884961
0.95665614
3.4186719
3.4182629
3.416455
3.4122323
3.4084241
3.4074679
3.402752
3.3873493
3.3769793
3.3629429
3.3389274
3.3112416
3.2736333
3.2215428
3.1510025
3.0568636
2.9368607
2.7865316
2.5923405
2.35182
2.0633908
1.7272531
1.3478592
0.93726785
0.51712569
)
;

boundaryField
{
    Walls
    {
        Cmu             0.09;
        kappa           0.41;
        E               9.8;
        beta1           0.075;
        type            omegaWallFunction;
        value           nonuniform List<scalar> 
38
(
12058.199
12058.133
12058.179
12058.527
12061.527
12087.209
13480.515
13534.687
14920.041
15029.325
15113.702
15198.781
15272.533
15321.885
15373.96
15417.295
15446.697
15474.425
15491.5
15506.955
15524.406
15533.318
15543.654
15554.732
15556.972
15558.337
15568.493
15575.841
15574.204
15574.611
15576.997
15567.98
15566.914
15572.845
15570.055
15570.142
15559.844
15500.288
)
;
    }
    Inlet
    {
        type            turbulentMixingLengthDissipationRateInlet;
        mixingLength    0.03;
        phi             phi;
        k               k;
        value           nonuniform List<scalar> 3(0.0042518115 0.004161694 0.0051621021);
    }
    Outlet
    {
        type            inletOutlet;
        inletValue      uniform 1e-05;
        value           nonuniform List<scalar> 
86
(
1e-05
1e-05
1e-05
1e-05
1e-05
1e-05
1e-05
1e-05
1e-05
1e-05
1e-05
1e-05
1e-05
1e-05
1e-05
1e-05
1e-05
1e-05
1e-05
1e-05
1e-05
1e-05
1e-05
1e-05
1e-05
1e-05
1e-05
1e-05
1e-05
1e-05
219.24358
218.23133
196.96417
1e-05
1e-05
1e-05
1e-05
1e-05
46.37946
37.469305
1e-05
1e-05
1e-05
1e-05
1e-05
1e-05
6.0259128
5.1111509
4.4239504
3.9518638
3.6199128
3.4123985
3.2995146
3.2371203
3.2115168
3.2103652
1e-05
1e-05
1e-05
1e-05
1e-05
1e-05
1e-05
1e-05
1e-05
1e-05
1e-05
1e-05
1e-05
1e-05
1e-05
1e-05
1e-05
1e-05
1e-05
1e-05
1e-05
1e-05
1e-05
1e-05
1e-05
1e-05
1e-05
1e-05
195.7555
218.47605
)
;
    }
    Front
    {
        type            wedge;
    }
    Back
    {
        type            wedge;
    }
    defaultFaces
    {
        type            empty;
    }
}


// ************************************************************************* //
