/*--------------------------------*- C++ -*----------------------------------*\
| =========                 |                                                 |
| \\      /  F ield         | OpenFOAM: The Open Source CFD Toolbox           |
|  \\    /   O peration     | Version:  4.0                                   |
|   \\  /    A nd           | Web:      www.OpenFOAM.org                      |
|    \\/     M anipulation  |                                                 |
\*---------------------------------------------------------------------------*/
FoamFile
{
    version     2.0;
    format      ascii;
    class       volScalarField;
    location    "0.59";
    object      p;
}
// * * * * * * * * * * * * * * * * * * * * * * * * * * * * * * * * * * * * * //

dimensions      [0 2 -2 0 0 0 0];

internalField   nonuniform List<scalar> 
1740
(
491.63524
491.7364
491.70257
475.18007
475.12598
475.16461
458.68389
458.61853
458.6696
442.26136
442.43337
442.31969
425.96695
425.95493
425.94131
409.29038
409.15847
409.30999
392.46597
392.41265
392.35868
375.72106
375.63438
375.25444
358.8774
358.80831
358.63221
342.07885
342.20591
342.46985
325.51129
325.641
325.87167
308.85658
308.84635
308.88917
292.03129
292.03949
291.99023
275.05022
275.06742
275.11238
258.04166
257.92498
258.15582
241.44772
241.37007
241.74563
225.38654
225.58734
225.80651
209.43419
209.625
209.55127
193.19946
193.35942
193.25163
176.83797
177.16551
177.19851
160.73401
160.82318
160.76064
144.41861
144.05109
143.88154
127.70119
127.40504
127.2629
111.24947
111.28105
111.10627
95.038953
95.099323
95.024294
78.637675
78.672568
78.81384
62.095838
62.013293
62.293967
45.773993
45.483293
45.605238
30.108421
30.014001
29.69213
15.665451
15.604249
15.030614
3.8254347
3.2906771
1.4363303
-0.77992989
-0.7021563
-0.51393555
-0.25684463
-0.2386965
-0.20718751
-0.095483225
-0.092583169
-0.086806826
-0.064595232
-0.062530976
-0.058152544
-0.050073268
-0.048931374
-0.046107223
-0.041214374
-0.040555187
-0.038663745
-0.0351428
-0.034595636
-0.033289527
-0.030173651
-0.029786443
-0.028875749
-0.025820904
-0.025529539
-0.024836139
-0.022132828
-0.02190307
-0.021387014
-0.019211471
-0.019028902
-0.018629632
-0.017019548
-0.016871892
-0.016549903
-0.015261659
-0.015140559
-0.014876403
-0.013823904
-0.01372424
-0.013504281
-0.01262031
-0.012535396
-0.012350186
-0.011590242
-0.011517723
-0.011360168
-0.010694455
-0.01063208
-0.010496743
-0.0099049722
-0.0098509192
-0.0097336774
-0.0092004554
-0.0091532882
-0.009050967
-0.0085639182
-0.0085225283
-0.0084326427
-0.007981901
-0.0079453204
-0.0078658772
-0.0074435099
-0.0074110086
-0.0073403563
-0.0069402174
-0.006911184
-0.0068480116
-0.0064656523
-0.0064395696
-0.0063827763
-0.0060152044
-0.0059916573
-0.0059403499
-0.0055856758
-0.0055643381
-0.0055178148
-0.0051749819
-0.0051555966
-0.005113295
-0.0047818428
-0.0047642
-0.0047256663
-0.0044055382
-0.0043894654
-0.0043543434
-0.0040457863
-0.0040311404
-0.0039991312
-0.003702567
-0.003689231
-0.0036600744
-0.003375993
-0.0033638739
-0.0033373372
-0.0030661718
-0.003055157
-0.0030310941
-0.0027732904
-0.0027633321
-0.0027415326
-0.0024973408
-0.0024883624
-0.0024686854
-0.002238206
-0.002230147
-0.0022124559
-0.0019956175
-0.0019884253
-0.0019725896
-0.0017691754
-0.0017627621
-0.0017486733
-0.0015582387
-0.0015525582
-0.0015401002
-0.0013620288
-0.001357038
-0.0013461028
-0.001179614
-0.0011752732
-0.0011657619
-0.0010099143
-0.0010061852
-0.00099801163
-0.00085171178
-0.00084856718
-0.00084165597
-0.00070361801
-0.00070105406
-0.00069534732
-0.00056383618
-0.00056184434
-0.00055738031
-0.00043108363
-0.00042944652
-0.00042599447
-0.00030431117
-0.00030314969
-0.00030065186
-0.00018151756
-0.00018080872
-0.00017929431
-6.0535131e-05
-6.0297933e-05
-5.9790016e-05
-1.4165183
-0.99157189
-0.40253336
-0.31049694
-0.17819794
-0.15322831
-0.079011918
-0.070370387
-0.052064824
-0.044241065
-0.04176143
-0.036082775
-0.035666446
-0.031767896
-0.031233515
-0.028548332
-0.027427323
-0.025519017
-0.023770177
-0.022396842
-0.020603439
-0.019567192
-0.018030527
-0.017237232
-0.016067835
-0.01544304
-0.014482905
-0.013974035
-0.013177443
-0.012756213
-0.012076048
-0.011723219
-0.01112721
-0.010827321
-0.010296633
-0.010038798
-0.0095602285
-0.009336462
-0.0088994503
-0.0087037151
-0.0082993963
-0.008126925
-0.0077479286
-0.0075949297
-0.0072353018
-0.0070987532
-0.006753909
-0.0066313463
-0.0062980556
-0.0061874814
-0.0058637196
-0.0057635225
-0.0054482499
-0.0053571433
-0.0050499775
-0.0049669541
-0.00466794
-0.0045921796
-0.0043016883
-0.0042324997
-0.0039511064
-0.0038879266
-0.0036163031
-0.0035586656
-0.0032974943
-0.0032449973
-0.0029949077
-0.0029471961
-0.0027087514
-0.00266551
-0.0024390902
-0.0024000374
-0.0021858452
-0.0021507222
-0.001948774
-0.0019173409
-0.0017274756
-0.0016994871
-0.0015213506
-0.0014965894
-0.0013296423
-0.0013079037
-0.0011514428
-0.0011325343
-0.00098570629
-0.00096944675
-0.00083124327
-0.00081747989
-0.00068673482
-0.00067534332
-0.00055058509
-0.00054154704
-0.00042083802
-0.00041403176
-0.00029690867
-0.00029197999
-0.00017703059
-0.00017405258
-5.9031283e-05
-5.8032988e-05
-0.018303003
-0.017686214
-0.016678607
-0.015430991
-0.014072137
-0.012684176
-0.011333507
-0.010074245
-0.0089540551
-0.0079908283
-0.0071753255
-0.0064814518
-0.0058839589
-0.0053740321
-0.0048992402
-0.0044268368
-0.0039490976
-0.0034671743
-0.0029849659
-0.0025058806
-0.0020324321
-0.0015670717
-0.001111043
-0.00066325718
-0.00021879228
-0.019426453
-0.018671858
-0.017536191
-0.016188541
-0.014777889
-0.013385417
-0.012072216
-0.010898475
-0.009880585
-0.0090012913
-0.0082350303
-0.0075473844
-0.0069102352
-0.0062918688
-0.0057006556
-0.0051356461
-0.0045837753
-0.0040339957
-0.0034853089
-0.0029361512
-0.0023868239
-0.0018418539
-0.0013039621
-0.0007723536
-0.00024543729
-0.025448389
-0.024589493
-0.023344761
-0.021955127
-0.02064926
-0.019537875
-0.018649629
-0.017898828
-0.017118345
-0.016279681
-0.015387625
-0.014436727
-0.013437393
-0.012401016
-0.011335679
-0.010248555
-0.0091460579
-0.0080347037
-0.0069142344
-0.0057888285
-0.0046667499
-0.003561579
-0.0024804837
-0.0014307245
-0.00042795541
-0.044475543
-0.043454166
-0.042296208
-0.041366361
-0.040520018
-0.039531528
-0.038259309
-0.036669724
-0.034864667
-0.032885121
-0.030796443
-0.028617078
-0.026387188
-0.024119023
-0.021834861
-0.019553845
-0.017288922
-0.01504866
-0.012841058
-0.010675165
-0.008563713
-0.0065206348
-0.0045397346
-0.0026283781
-0.00081470673
-0.10104585
-0.098826157
-0.09575051
-0.090631105
-0.08504895
-0.078897956
-0.072679465
-0.066519719
-0.060495955
-0.054665794
-0.049263218
-0.044171198
-0.039386503
-0.034681858
-0.030321894
-0.026312361
-0.022631823
-0.019252503
-0.016140775
-0.013259823
-0.010569536
-0.0080303798
-0.0056273397
-0.0033339291
-0.0011293546
-0.27332004
-0.22513455
-0.19997967
-0.16473177
-0.13570263
-0.11045046
-0.088973214
-0.071325999
-0.056988756
-0.045397018
-0.035906977
-0.028287325
-0.022175502
-0.017422063
-0.013574409
-0.01050623
-0.0080687234
-0.0061403879
-0.0046246846
-0.0034416601
-0.0025219565
-0.0018005152
-0.0012292467
-0.00075991411
-0.00038958829
-0.39009222
-0.1748138
-0.11670324
-0.073924612
-0.03613324
-0.0063069364
0.013163016
0.023565225
0.02827888
0.029959659
0.029957555
0.028849504
0.02704218
0.02483315
0.022431926
0.019971969
0.017534846
0.015166559
0.012886242
0.010696059
0.0085882677
0.0065526419
0.0045688675
0.0026302979
0.00065401023
-0.25115852
-0.214882
-0.18226657
-0.15172972
-0.12405795
-0.10012406
-0.080040263
-0.063668337
-0.050469255
-0.039853454
-0.031344191
-0.024564739
-0.019174804
-0.014863368
-0.01142719
-0.0087044214
-0.0065620927
-0.0048856961
-0.0035876198
-0.0025961251
-0.00185014
-0.0012944084
-0.00088092604
-0.00056083671
-0.00033318125
-0.13597372
-0.12314582
-0.11248074
-0.10300465
-0.094110496
-0.085577782
-0.077626628
-0.070186667
-0.063219706
-0.056791671
-0.050842707
-0.045192897
-0.039916292
-0.035067792
-0.030626489
-0.026556361
-0.022816775
-0.019369936
-0.016195134
-0.01326338
-0.010543426
-0.0080029126
-0.005611649
-0.0033345581
-0.0011409127
-0.063886979
-0.058871105
-0.055242336
-0.052487364
-0.050145639
-0.047868346
-0.045535557
-0.043065017
-0.040472894
-0.037809937
-0.035117174
-0.03241607
-0.029704995
-0.026997961
-0.02431468
-0.021673174
-0.019092497
-0.016584683
-0.014140334
-0.011757336
-0.0094363558
-0.0071801368
-0.0049941989
-0.0028879437
-0.00089413168
-0.037078922
-0.03178003
-0.028100132
-0.02569568
-0.024300739
-0.023375835
-0.022554066
-0.021702127
-0.020775613
-0.019778686
-0.018705644
-0.017558478
-0.01634267
-0.015070801
-0.013757422
-0.012410261
-0.011040395
-0.0096633213
-0.0082868292
-0.0069176581
-0.0055633911
-0.0042329768
-0.0029366321
-0.0016846424
-0.00050009342
-0.030287563
-0.025303471
-0.021144794
-0.017969108
-0.015468409
-0.013640577
-0.012355559
-0.011423654
-0.010674867
-0.01009118
-0.0095351619
-0.0089633079
-0.0083659829
-0.0077408718
-0.0070869978
-0.0064116533
-0.0057201139
-0.0050202522
-0.0043185464
-0.0036198071
-0.0029282879
-0.0022479464
-0.0015816994
-0.0009291308
-0.0002888491
-0.027604191
-0.023711166
-0.020285164
-0.017276178
-0.014725256
-0.012641765
-0.010978821
-0.0096728186
-0.0086319604
-0.0077586044
-0.0070314393
-0.0063997472
-0.0058245327
-0.0052865685
-0.0047720043
-0.004274586
-0.0037875578
-0.0033090975
-0.002839157
-0.002378876
-0.0019288578
-0.0014888125
-0.0010577075
-0.00063292477
-0.00020817337
-0.025546183
-0.022547482
-0.019724994
-0.017125286
-0.01481397
-0.012824403
-0.011132186
-0.0097356505
-0.0086141807
-0.0076425545
-0.0068187138
-0.0061122552
-0.0054879112
-0.0049342538
-0.004424035
-0.0039470574
-0.0034872653
-0.003040464
-0.0026051477
-0.0021799196
-0.0017641789
-0.0013575838
-0.00095998775
-0.00057086197
-0.00018854058
-0.023295595
-0.020966961
-0.018716271
-0.016579908
-0.014588463
-0.012778326
-0.011181648
-0.0098012886
-0.0086248567
-0.0076060978
-0.0067268997
-0.0059719176
-0.0053234671
-0.0047350961
-0.0041995977
-0.0037036954
-0.0032442021
-0.0028108101
-0.0023966976
-0.0019980151
-0.0016119209
-0.0012366847
-0.00087128494
-0.00051556335
-0.00016994038
-0.020801529
-0.0190733
-0.017301675
-0.015582579
-0.013926913
-0.012358784
-0.010916035
-0.0096195242
-0.0084714721
-0.0074534165
-0.0065559782
-0.0057704841
-0.0050815458
-0.0044781596
-0.0039357532
-0.0034411863
-0.0029903284
-0.0025718917
-0.0021787902
-0.0018065084
-0.0014510494
-0.001109529
-0.00078011113
-0.00046115177
-0.00015194009
-0.018372019
-0.017074298
-0.015714012
-0.014341071
-0.012982098
-0.011670524
-0.010424813
-0.0092607853
-0.0081888558
-0.00721389
-0.0063382909
-0.005558004
-0.0048641276
-0.0042460025
-0.0036992841
-0.0032110636
-0.002769874
-0.0023649872
-0.0019888855
-0.0016385484
-0.0013087745
-0.00099586773
-0.00069725008
-0.00041053849
-0.00013408387
-0.016318137
-0.015317834
-0.014257726
-0.013149893
-0.012033555
-0.010936247
-0.0098717149
-0.0088517464
-0.0078871944
-0.0069874571
-0.0061597841
-0.0054075114
-0.0047287334
-0.0041182775
-0.003572154
-0.0030820237
-0.0026373022
-0.0022354727
-0.0018702136
-0.0015326777
-0.0012184772
-0.00092388071
-0.00064559782
-0.00038046775
-0.00012511448
-0.014707026
-0.013894641
-0.013024815
-0.012113473
-0.011186037
-0.010259925
-0.0093468487
-0.0084576715
-0.0076021025
-0.0067890675
-0.006026369
-0.0053178361
-0.0046660632
-0.0040713431
-0.003532366
-0.0030441808
-0.0026010256
-0.002198918
-0.0018327949
-0.001496823
-0.0011864024
-0.0008973476
-0.00062590772
-0.00036842137
-0.00012094156
-0.013374405
-0.012705301
-0.011983872
-0.01122554
-0.010445787
-0.0096582063
-0.0088725303
-0.0080975221
-0.0073415657
-0.0066121498
-0.0059162507
-0.0052586892
-0.0046435483
-0.0040733726
-0.003547767
-0.003065446
-0.0026239022
-0.0022200297
-0.0018501391
-0.0015100746
-0.0011958883
-0.00090369801
-0.00062989796
-0.00037013647
-0.00012039034
-0.012258133
-0.011700019
-0.011095352
-0.010456553
-0.0097937396
-0.0091182955
-0.0084386108
-0.0077615134
-0.007093587
-0.0064409423
-0.0058097142
-0.0052043781
-0.0046293227
-0.0040877968
-0.0035811109
-0.0031097106
-0.0026728664
-0.0022689223
-0.0018955345
-0.0015498803
-0.0012288324
-0.00092920428
-0.0006482612
-0.00038033922
-0.00012197657
-0.011303667
-0.010831778
-0.01031881
-0.0097741511
-0.0092049135
-0.0086213288
-0.0080298789
-0.0074361275
-0.0068448891
-0.0062617109
-0.0056908106
-0.0051365597
-0.0046028374
-0.0040928774
-0.0036089978
-0.0031525814
-0.0027240761
-0.0023230216
-0.0019482215
-0.0015979262
-0.0012699469
-0.00096187506
-0.00067120092
-0.00039363568
-0.00012693889
-0.010470096
-0.010066316
-0.009625537
-0.0091555841
-0.008663224
-0.0081554824
-0.0076378489
-0.0071148061
-0.0065903057
-0.0060684136
-0.0055525765
-0.0050463861
-0.0045532022
-0.0040761545
-0.0036176376
-0.0031794647
-0.002762787
-0.0023679773
-0.0019947216
-0.0016421677
-0.0013089853
-0.00099351929
-0.00069393906
-0.00040730418
-0.00013195558
-0.0097311482
-0.0093821091
-0.0089995217
-0.0085903245
-0.0081609963
-0.0077156285
-0.0072596428
-0.0067963632
-0.0063290556
-0.0058606496
-0.0053940037
-0.0049319542
-0.0044773117
-0.0040327213
-0.0036005252
-0.0031826449
-0.0027805327
-0.0023950222
-0.0020264809
-0.0016747269
-0.0013391807
-0.0010188676
-0.00071266598
-0.00041866962
-0.00013565588
-0.0090689172
-0.00876445
-0.0084296573
-0.0080704775
-0.0076922463
-0.0072987098
-0.0068938858
-0.0064810973
-0.0060624734
-0.0056403305
-0.0052169377
-0.0047945757
-0.0043754863
-0.0039618756
-0.0035558284
-0.0031591759
-0.0027734143
-0.0023997226
-0.0020388127
-0.0016910217
-0.0013563576
-0.0010344404
-0.00072477606
-0.00042612934
-0.00013787763
-0.0084691549
-0.0082013993
-0.0079061584
-0.0075883898
-0.007252611
-0.0069024176
-0.0065401454
-0.0061693498
-0.0057919684
-0.0054095244
-0.0050238674
-0.0046366879
-0.0042498428
-0.0038651247
-0.0034843043
-0.0031090172
-0.0027407283
-0.0023806989
-0.0020299015
-0.0016890224
-0.0013584203
-0.0010382896
-0.00072863749
-0.00042884341
-0.00013877789
-0.0079197584
-0.0076825941
-0.0074203237
-0.0071371922
-0.006837
-0.0065228662
-0.00619701
-0.0058613693
-0.0055185006
-0.0051700732
-0.0048171416
-0.0044610403
-0.0041032211
-0.0037451241
-0.0033882446
-0.0030340074
-0.0026837666
-0.0023387645
-0.0020000919
-0.0016686466
-0.0013451178
-0.0010300723
-0.00072395124
-0.00042652709
-0.00013816525
-0.0074107038
-0.0071992589
-0.0069646396
-0.0067105495
-0.0064402264
-0.0061564695
-0.0058614765
-0.0055564343
-0.0052432157
-0.0049237451
-0.004599094
-0.0042704242
-0.0039387296
-0.0036050686
-0.0032707613
-0.0029370255
-0.002605057
-0.0022760515
-0.0019511303
-0.0016313057
-0.0013174842
-0.0010104827
-0.00071105287
-0.00041923296
-0.00013577775
-0.0069339231
-0.0067442254
-0.0065330116
-0.0063034674
-0.0060585497
-0.0058006426
-0.0055317072
-0.0052533045
-0.0049664486
-0.0046722862
-0.0043723895
-0.0040678433
-0.0037595396
-0.0034483716
-0.0031353615
-0.0028214996
-0.0025078054
-0.0021954659
-0.001885571
-0.0015791666
-0.0012772588
-0.0009808095
-0.0006907744
-0.00040748402
-0.0001319192
-0.0064830408
-0.0063118243
-0.0061206205
-0.0059122032
-0.0056891332
-0.0054534951
-0.0052071062
-0.0049514889
-0.0046877473
-0.0044166115
-0.0041392046
-0.0038564194
-0.0035692798
-0.0032788523
-0.0029857768
-0.0026910179
-0.0023955023
-0.0021002752
-0.0018063407
-0.0015147404
-0.001226515
-0.00094267163
-0.00066425923
-0.00039192433
-0.00012676027
-0.0060533341
-0.0058980122
-0.0057241384
-0.0055341411
-0.0053301373
-0.0051139981
-0.004887403
-0.0046517434
-0.0044081112
-0.0041575201
-0.0039006417
-0.0036382616
-0.0033711254
-0.003100034
-0.0028258734
-0.0025495041
-0.0022719383
-0.0019939526
-0.001716516
-0.0014406555
-0.0011674251
-0.00089785823
-0.00063307492
-0.00037338007
-0.00012019715
-0.0056416822
-0.0055003488
-0.0053416875
-0.0051678265
-0.0049806463
-0.004781839
-0.004572913
-0.0043551393
-0.0041295755
-0.0038971649
-0.0036587815
-0.0034152189
-0.0031668193
-0.0029143877
-0.0026586679
-0.0024004087
-0.0021404346
-0.0018796854
-0.0016190939
-0.0013596228
-0.0011022575
-0.00084804465
-0.0005980517
-0.00035292325
-0.00011396707
-0.0052461895
-0.0051172334
-0.0049720728
-0.0048125817
-0.0046404429
-0.0044572476
-0.0042643464
-0.0040629102
-0.0038538676
-0.0036381066
-0.003416668
-0.0031904584
-0.0029596385
-0.002724836
-0.0024867204
-0.0022460466
-0.0020035923
-0.0017601725
-0.0015166828
-0.0012740399
-0.0010331982
-0.00079513082
-0.00056090776
-0.00033098155
-0.00010668547
-0.0048656969
-0.0047477543
-0.0046147198
-0.0044681983
-0.0043097262
-0.0041407289
-0.0039625596
-0.0037763742
-0.0035829089
-0.0033833455
-0.0031779873
-0.0029673073
-0.0027525609
-0.0025342144
-0.002312879
-0.002089208
-0.0018638924
-0.0016376549
-0.001411298
-0.0011856746
-0.00096167111
-0.00074020122
-0.0005222679
-0.00030812425
-9.9149642e-05
-0.0044996234
-0.0043916237
-0.0042695828
-0.0041348899
-0.0039890081
-0.0038330924
-0.0036687932
-0.0034964487
-0.0033174073
-0.0031323014
-0.0029418503
-0.0027466817
-0.002547591
-0.002345189
-0.0021400757
-0.0019328698
-0.0017242141
-0.0015147827
-0.0013053003
-0.0010965435
-0.00088933542
-0.000684522
-0.00048301186
-0.00028492387
-9.1553313e-05
-0.0041478497
-0.0040489248
-0.0039369677
-0.0038131647
-0.0036792618
-0.0035359482
-0.0033838908
-0.0032246579
-0.0030590922
-0.0028878683
-0.0027117167
-0.0025312634
-0.0023471933
-0.0021601192
-0.001970638
-0.001779342
-0.0015868381
-0.0013937527
-0.0012007457
-0.0010085195
-0.00081781444
-0.00062939398
-0.00044411218
-0.00026194936
-8.4047149e-05
-0.0038105434
-0.003719996
-0.0036175024
-0.003504193
-0.0033807089
-0.0032485905
-0.0031086605
-0.0029619409
-0.0028092715
-0.0026513742
-0.0024889303
-0.0023225804
-0.0021529495
-0.001980644
-0.0018062325
-0.0016302913
-0.0014533865
-0.0012761049
-0.0010990496
-0.00092285111
-0.00074816885
-0.00057568274
-0.00040620745
-0.00023959543
-7.6761865e-05
-0.0034880187
-0.0034052883
-0.0033113829
-0.0032073777
-0.0030941813
-0.0029728594
-0.0028443263
-0.0027094718
-0.0025690994
-0.0024239277
-0.0022746214
-0.0021217982
-0.0019660496
-0.0018079483
-0.0016480442
-0.0014868779
-0.0013249901
-0.0011629162
-0.001001208
-0.00084043293
-0.00068117429
-0.00052402886
-0.00036980979
-0.00021815222
-6.9749969e-05
-0.0031805707
-0.0031050403
-0.0030192649
-0.0029241577
-0.0028206093
-0.0027095357
-0.0025918073
-0.0024682392
-0.0023395908
-0.0022065638
-0.0020698039
-0.001929907
-0.0017874403
-0.0016429466
-0.0014969438
-0.0013499369
-0.0012024269
-0.0010549091
-0.00090788397
-0.00076185827
-0.00061734409
-0.00047484616
-0.00033527701
-0.00019778203
-6.3060435e-05
-0.0028886018
-0.0028198489
-0.0027417181
-0.0026550249
-0.0025605908
-0.0024592421
-0.0023517733
-0.0022389523
-0.0021214937
-0.0020000614
-0.0018752742
-0.0017477069
-0.0016179033
-0.0014863774
-0.0013536164
-0.0012200921
-0.0010862673
-0.00095259531
-0.00081952574
-0.00068750899
-0.00055699914
-0.00042842674
-0.00030331004
-0.00017915369
-5.6016599e-05
-0.0026123777
-0.0025499994
-0.0024790721
-0.0024003296
-0.0023145236
-0.0022224017
-0.0021246819
-0.0020220882
-0.0019152929
-0.0018049144
-0.0016915405
-0.0015757148
-0.001457955
-0.0013387458
-0.0012185465
-0.0010977965
-0.0009769216
-0.00085633321
-0.00073643439
-0.0006176254
-0.00050030868
-0.00038487066
-0.00027263222
-0.0001608496
-5.0062047e-05
-0.0023520319
-0.0022956468
-0.0022315058
-0.0021602706
-0.0020826223
-0.0019992469
-0.0019107886
-0.0018179134
-0.0017212492
-0.0016213758
-0.0015188577
-0.0014141779
-0.001307839
-0.0012002939
-0.0010919705
-0.00098327526
-0.00087459515
-0.00076630261
-0.00065875788
-0.00055231277
-0.00044731175
-0.00034407756
-0.00024325072
-0.00014323192
-4.485773e-05
-0.0021075314
-0.0020567823
-0.0019990327
-0.001934875
-0.0018649203
-0.001789844
-0.0017101477
-0.0016264783
-0.0015394207
-0.0014495084
-0.0013572533
-0.0012631278
-0.0011675842
-0.0010710459
-0.00097390773
-0.00087654145
-0.00077929724
-0.00068250901
-0.00058649483
-0.00049155863
-0.0003979882
-0.00030603388
-0.00021608081
-0.00012700225
-3.9672791e-05
-0.0018786693
-0.0018332181
-0.0017814843
-0.0017240013
-0.0016613222
-0.001594014
-0.0015226069
-0.0014476474
-0.0013696667
-0.001289162
-0.0012066021
-0.0011224267
-0.0010370496
-0.00095085779
-0.00086421384
-0.00077745381
-0.00069089305
-0.00060482626
-0.00051953026
-0.00043526284
-0.00035225916
-0.00027071606
-0.0001908999
-0.00011218758
-3.5134127e-05
-0.0016650538
-0.0016245767
-0.0015784964
-0.001527289
-0.0014714493
-0.0014114775
-0.0013478689
-0.0012811125
-0.0012116858
-0.0011400393
-0.001066603
-0.00099177905
-0.00091594301
-0.00083944678
-0.00076261619
-0.00068575441
-0.00060914102
-0.00053303441
-0.0004576724
-0.00038327239
-0.00031002779
-0.00023810297
-0.0001676819
-9.8573873e-05
-3.1009044e-05
-0.0014661254
-0.0014303111
-0.0013895363
-0.0013442226
-0.0012948065
-0.0012417359
-0.0011854573
-0.0011264097
-0.0010650181
-0.0010016913
-0.00093681641
-0.00087075623
-0.00080384979
-0.00073641264
-0.00066873614
-0.00060108849
-0.00053371581
-0.00046684327
-0.00040067449
-0.00033539386
-0.00027116597
-0.00020814071
-0.00014651304
-8.6118349e-05
-2.7138859e-05
-0.0012811566
-0.0012497102
-0.0012139079
-0.0011741199
-0.0011307322
-0.0010841417
-0.0010347422
-0.00098292471
-0.00092906952
-0.00087354034
-0.00081668192
-0.00075881813
-0.00070025232
-0.00064126312
-0.00058210856
-0.00052302428
-0.00046422467
-0.00040590396
-0.00034823807
-0.000291385
-0.00023548938
-0.00018069043
-0.00012716751
-7.4735133e-05
-2.3557278e-05
-0.0011092672
-0.0010819115
-0.0010507674
-0.0010161583
-0.0009784225
-0.00093790706
-0.00089495804
-0.00084991976
-0.00080312478
-0.00075489442
-0.00070553489
-0.00065532976
-0.00060454605
-0.00055342825
-0.00050220086
-0.0004510692
-0.00040021917
-0.00034981783
-0.00030001607
-0.00025095058
-0.00020274757
-0.00015552966
-0.00010944544
-6.4312143e-05
-2.0267892e-05
-0.00094943942
-0.00092591604
-0.0008991374
-0.00086938432
-0.00083694819
-0.00080212943
-0.00076522866
-0.00072654413
-0.00068636493
-0.00064497102
-0.00060262525
-0.00055957624
-0.0005160549
-0.00047227235
-0.00042842246
-0.00038468149
-0.00034120865
-0.00029814685
-0.00025562466
-0.00021375884
-0.00017265721
-0.00013242302
-9.3173781e-05
-5.4745584e-05
-1.7247676e-05
-0.00080053422
-0.0007806051
-0.00075792251
-0.00073273013
-0.00070527208
-0.00067580426
-0.00064458251
-0.00061186202
-0.0005778902
-0.00054290495
-0.00050713031
-0.00047077861
-0.00043404513
-0.00039711057
-0.00036013939
-0.00032328043
-0.00028666808
-0.00025042278
-0.00021465259
-0.00017945553
-0.00014492154
-0.00011113505
-7.8186932e-05
-4.5935886e-05
-1.4466961e-05
-0.00066129669
-0.00064475118
-0.00062591934
-0.00060502498
-0.00058226123
-0.00055783607
-0.00053196326
-0.00050485816
-0.00047672729
-0.00044776827
-0.00041816819
-0.00038810349
-0.00035773639
-0.00032721725
-0.00029668203
-0.00026625439
-0.00023604538
-0.00020615433
-0.0001766703
-0.0001476737
-0.00011923746
-9.1428626e-05
-6.4317755e-05
-3.7784507e-05
-1.1894532e-05
-0.00053031711
-0.00051700001
-0.00050181809
-0.00048499947
-0.00046668842
-0.00044703857
-0.00042623034
-0.00040443867
-0.00038183191
-0.00035856865
-0.00033480051
-0.00031066863
-0.00028630383
-0.00026182657
-0.00023734648
-0.00021296249
-0.00018876376
-0.00016482992
-0.00014123222
-0.00011803465
-9.5294474e-05
-7.3063645e-05
-5.139643e-05
-3.0191583e-05
-9.4997867e-06
-0.0004056241
-0.00039567351
-0.0003841938
-0.00037123732
-0.00035721421
-0.00034212696
-0.00032614864
-0.00030942425
-0.00029208376
-0.00027424606
-0.00025602831
-0.00023753772
-0.00021887467
-0.00020013118
-0.00018139142
-0.00016273142
-0.00014421916
-0.00012591569
-0.00010787538
-9.0146591e-05
-7.2772811e-05
-5.5792623e-05
-3.9246849e-05
-2.3054005e-05
-7.250264e-06
-0.00028600188
-0.00027906445
-0.00027109818
-0.00026212649
-0.00025234344
-0.0002416706
-0.00023036342
-0.00021853306
-0.00020626759
-0.00019365602
-0.00018077583
-0.00016770443
-0.00015451287
-0.00014126671
-0.00012802566
-0.00011484368
-0.00010176899
-8.8844662e-05
-7.6109035e-05
-6.3596143e-05
-5.1336355e-05
-3.9356512e-05
-2.7685292e-05
-1.6262962e-05
-5.1122464e-06
-0.00017040688
-0.0001661431
-0.00016138184
-0.00015617125
-0.00015040623
-0.00014413065
-0.00013744731
-0.00013041966
-0.00012311468
-0.00011559414
-0.00010790867
-0.00010010554
-9.2229016e-05
-8.4319199e-05
-7.6412385e-05
-6.85412e-05
-6.0734792e-05
-5.3019033e-05
-4.5416907e-05
-3.7948676e-05
-3.0632403e-05
-2.348382e-05
-1.6521968e-05
-9.7058917e-06
-3.0477402e-06
-5.680851e-05
-5.5375513e-05
-5.3766044e-05
-5.2016117e-05
-5.0084113e-05
-4.8045827e-05
-4.5841831e-05
-4.3510174e-05
-4.1080088e-05
-3.857248e-05
-3.600796e-05
-3.3403398e-05
-3.077391e-05
-2.8133223e-05
-2.5493649e-05
-2.2866196e-05
-2.0260673e-05
-1.7685763e-05
-1.5149129e-05
-1.2657571e-05
-1.0217073e-05
-7.8327661e-06
-5.5157838e-06
-3.2406054e-06
-1.0111985e-06
)
;

boundaryField
{
    Walls
    {
        type            zeroGradient;
    }
    Inlet
    {
        type            fixedValue;
        value           uniform 500;
    }
    Outlet
    {
        type            fixedValue;
        value           uniform 0;
    }
    Front
    {
        type            wedge;
    }
    Back
    {
        type            wedge;
    }
    defaultFaces
    {
        type            empty;
    }
}


// ************************************************************************* //
