/*--------------------------------*- C++ -*----------------------------------*\
| =========                 |                                                 |
| \\      /  F ield         | OpenFOAM: The Open Source CFD Toolbox           |
|  \\    /   O peration     | Version:  4.0                                   |
|   \\  /    A nd           | Web:      www.OpenFOAM.org                      |
|    \\/     M anipulation  |                                                 |
\*---------------------------------------------------------------------------*/
FoamFile
{
    version     2.0;
    format      ascii;
    class       surfaceScalarField;
    location    "0.59";
    object      phi;
}
// * * * * * * * * * * * * * * * * * * * * * * * * * * * * * * * * * * * * * //

dimensions      [0 3 -1 0 0 0 0];

internalField   nonuniform List<scalar> 
3364
(
-4.0060164e-10
1.6312619e-08
-5.9423882e-10
4.8359385e-08
8.6522534e-08
-4.2142545e-10
1.6734027e-08
-1.910047e-09
4.9848062e-08
8.4612522e-08
-9.2600745e-11
1.6826616e-08
-1.2235084e-09
5.0979059e-08
8.3389033e-08
-3.1358861e-13
1.6826891e-08
1.1404246e-09
4.9838291e-08
8.452943e-08
1.7294843e-10
1.6653899e-08
5.7318949e-10
4.943796e-08
8.5102572e-08
2.7115502e-10
1.6382706e-08
-6.8126223e-10
5.0390316e-08
8.4421273e-08
1.0315939e-10
1.6279513e-08
-7.1495895e-11
5.0564928e-08
8.434975e-08
6.4431535e-11
1.6215047e-08
1.1814756e-09
4.9447829e-08
8.55312e-08
-1.128302e-10
1.6327839e-08
4.2001265e-10
4.8914952e-08
8.5951196e-08
-5.4886353e-10
1.6876673e-08
-1.4451495e-09
4.9811221e-08
8.4506028e-08
-4.0471337e-10
1.7281363e-08
-1.3321031e-09
5.0738609e-08
8.31739e-08
2.438029e-10
1.7037529e-08
2.9173315e-10
5.0690644e-08
8.3465594e-08
3.2615805e-10
1.6711335e-08
6.864051e-10
5.0330321e-08
8.4151939e-08
1.2590155e-10
1.6585394e-08
-1.0128708e-10
5.055745e-08
8.4050608e-08
4.0220524e-10
1.618315e-08
-5.3673871e-10
5.1496371e-08
8.351384e-08
4.9463292e-10
1.5688484e-08
-3.5015806e-10
5.234111e-08
8.3163633e-08
-4.7782052e-10
1.6166259e-08
-7.1114097e-10
5.257438e-08
8.2452453e-08
-7.0088908e-10
1.6867114e-08
1.9294834e-10
5.1680495e-08
8.2645362e-08
-1.8821942e-10
1.7055298e-08
6.8948764e-10
5.0802728e-08
8.3334798e-08
-5.629416e-10
1.7618187e-08
4.5674372e-11
5.0194061e-08
8.3380431e-08
-2.3209856e-10
1.7850249e-08
-8.3952632e-11
5.0045885e-08
8.329644e-08
7.9134023e-10
1.7058881e-08
-2.4612212e-11
5.0861844e-08
8.3271794e-08
6.4141253e-10
1.6417422e-08
2.6704442e-10
5.1236216e-08
8.3538822e-08
-1.098051e-10
1.65272e-08
1.0969343e-09
5.0029463e-08
8.4635728e-08
-3.4726559e-11
1.6561896e-08
8.8166357e-10
4.9113033e-08
8.5517349e-08
5.1478992e-11
1.651037e-08
-4.9315593e-10
4.9657583e-08
8.5024142e-08
8.9699824e-11
1.6420619e-08
-1.5762992e-09
5.1323512e-08
8.3447787e-08
1.6841805e-10
1.6252187e-08
-1.1591992e-09
5.2651114e-08
8.2288552e-08
-6.9528879e-11
1.6321769e-08
5.6775962e-10
5.2013949e-08
8.2856329e-08
1.0687935e-09
1.5253198e-08
5.3481736e-09
4.7734716e-08
8.8204519e-08
1.1135372e-08
4.1171724e-09
4.8416786e-08
1.0451433e-08
1.0235046e-08
1.2638368e-07
4.7038536e-09
-5.871499e-10
1.6718566e-08
-1.5647566e-09
-1.7174585e-09
2.8669208e-08
-4.3292648e-10
-1.5418884e-10
-1.570664e-09
-4.2694758e-10
-5.7599154e-10
-2.7120301e-09
-1.189112e-10
-3.5262774e-11
-4.422569e-10
-1.0356635e-10
-1.6471196e-10
-8.5349699e-10
-1.9493407e-11
-1.5767641e-11
-7.5996493e-11
-4.7058641e-11
-6.9603591e-11
-1.7109964e-10
-5.8617732e-12
-9.905748e-12
-2.3875433e-11
-2.9044669e-11
-4.106444e-11
-5.2414286e-11
-2.9257463e-12
-6.9798572e-12
-1.1814156e-11
-2.0156023e-11
-2.9822191e-11
-2.3055572e-11
-1.2699939e-12
-5.7096972e-12
-4.8654428e-12
-1.6560296e-11
-2.6172099e-11
-8.5152056e-12
-7.0152785e-13
-5.0080494e-12
-2.4953287e-12
-1.4766316e-11
-2.3376424e-11
-5.2907768e-12
-7.638685e-13
-4.2440658e-12
-2.9512473e-12
-1.2578732e-11
-1.9953369e-11
-6.3740192e-12
-8.7999763e-13
-3.3639601e-12
-3.4841807e-12
-9.9743351e-12
-1.5957343e-11
-7.4798852e-12
-7.8630415e-13
-2.5775663e-12
-3.0964071e-12
-7.6640483e-12
-1.2332047e-11
-6.7214226e-12
-5.8265524e-13
-1.9948447e-12
-2.3193751e-12
-5.927192e-12
-9.5599339e-12
-5.091279e-12
-3.9057275e-13
-1.6042261e-12
-1.5620552e-12
-4.7556174e-12
-7.6900452e-12
-3.4318012e-12
-2.5983275e-13
-1.3443621e-12
-1.0211144e-12
-3.9942751e-12
-6.4681658e-12
-2.2428998e-12
-1.8267403e-13
-1.161666e-12
-7.2196797e-13
-3.4549399e-12
-5.6055924e-12
-1.5844778e-12
-1.4226835e-13
-1.0193814e-12
-5.5873591e-13
-3.0384431e-12
-4.9425323e-12
-1.2217515e-12
-1.1701363e-13
-9.0235573e-13
-4.6198613e-13
-2.6934497e-12
-4.3926394e-12
-1.0118474e-12
-9.6488833e-14
-8.0585817e-13
-3.8117752e-13
-2.4087469e-12
-3.930523e-12
-8.4327294e-13
-7.9292261e-14
-7.2655992e-13
-3.0386873e-13
-2.1841621e-12
-3.5596762e-12
-6.7470391e-13
-6.1939821e-14
-6.6461633e-13
-2.6028878e-13
-1.9858096e-12
-3.2465929e-12
-5.7336774e-13
-5.0496996e-14
-6.141174e-13
-2.0609747e-13
-1.8302095e-12
-3.0013708e-12
-4.5132137e-13
-4.036386e-14
-5.7375285e-13
-1.5734351e-13
-1.713233e-12
-2.8101298e-12
-3.4859091e-13
-3.2397566e-14
-5.413555e-13
-1.2673851e-13
-1.6188969e-12
-2.6608495e-12
-2.7602827e-13
-2.6838819e-14
-5.1451755e-13
-1.060414e-13
-1.5397005e-12
-2.5353486e-12
-2.3155359e-13
-2.3187359e-14
-4.9133153e-13
-9.1423183e-14
-1.4714716e-12
-2.4251832e-12
-2.0160122e-13
-2.1004461e-14
-4.7032868e-13
-8.3567876e-14
-1.4089155e-12
-2.3245313e-12
-1.8423296e-13
-1.971494e-14
-4.5061549e-13
-7.8435661e-14
-1.3502021e-12
-2.2299115e-12
-1.7306838e-13
-1.8711825e-14
-4.3190547e-13
-7.4297374e-14
-1.2946237e-12
-2.1387104e-12
-1.65511e-13
-1.8545136e-14
-4.1336209e-13
-7.3791314e-14
-1.2393842e-12
-2.0481411e-12
-1.643722e-13
-1.8561186e-14
-3.9480256e-13
-7.4013363e-14
-1.1839382e-12
-1.9572761e-12
-1.6488898e-13
-1.8724051e-14
-3.7608003e-13
-7.4718901e-14
-1.1279489e-12
-1.8653222e-12
-1.6668237e-13
-1.9012597e-14
-3.5706879e-13
-7.6090221e-14
-1.0708763e-12
-1.7717073e-12
-1.6971352e-13
-1.9218613e-14
-3.3785136e-13
-7.6647566e-14
-1.0134516e-12
-1.6766686e-12
-1.7169346e-13
-1.9287346e-14
-3.1856501e-13
-7.7056571e-14
-9.5568604e-13
-1.5810758e-12
-1.7265552e-13
-1.9220072e-14
-2.9934576e-13
-7.6847828e-14
-8.9806133e-13
-1.4858063e-12
-1.7212247e-13
-1.8964167e-14
-2.8038224e-13
-7.5860661e-14
-8.4116731e-13
-1.391713e-12
-1.6995804e-13
-1.8562047e-14
-2.6182068e-13
-7.4151552e-14
-7.8557973e-13
-1.2996576e-12
-1.6621019e-13
-1.7854627e-14
-2.4396639e-13
-7.1483848e-14
-7.3195193e-13
-1.2109186e-12
-1.6022507e-13
-1.69698e-14
-2.2699678e-13
-6.7909476e-14
-6.8101321e-13
-1.1267019e-12
-1.5212778e-13
-1.5874471e-14
-2.1112238e-13
-6.3666373e-14
-6.3322187e-13
-1.0477256e-12
-1.4264357e-13
-1.4677268e-14
-1.9644508e-13
-5.8571986e-14
-5.8932734e-13
-9.7493801e-13
-1.313598e-13
-1.3273227e-14
-1.8317173e-13
-5.3116645e-14
-5.494838e-13
-9.0883355e-13
-1.1922084e-13
-1.1703219e-14
-1.714683e-13
-4.6961382e-14
-5.1422525e-13
-8.5043628e-13
-1.0535794e-13
-9.9309949e-15
-1.6153702e-13
-4.0157125e-14
-4.8399851e-13
-8.0044028e-13
-9.0152041e-14
-8.0083765e-15
-1.5352832e-13
-3.2484088e-14
-4.5952201e-13
-7.5970708e-13
-7.3215897e-14
-6.5027403e-15
-1.4702521e-13
-2.5263289e-14
-4.4076053e-13
-7.2878906e-13
-5.6179704e-14
-4.5010689e-15
-1.4252375e-13
-1.7712647e-14
-4.2754796e-13
-7.0691533e-13
-3.9584648e-14
-2.4900529e-15
-1.4003331e-13
-9.9456352e-15
-4.2009139e-13
-6.9454239e-13
-2.2316827e-14
-5.5275427e-16
-2.3227116e-15
-5.2817833e-15
1.3607132e-07
-9.6929252e-09
-8.7402186e-09
1.4480527e-07
2.0700031e-08
-1.7249396e-09
-1.5112553e-09
1.3470537e-08
-3.7695019e-09
-6.6733678e-10
-7.1432414e-10
-4.5662883e-09
-1.3042423e-09
-2.1653829e-10
-2.4903509e-10
-1.7694681e-09
-3.041724e-10
-8.3454672e-11
-8.4855389e-11
-4.6833658e-10
-9.0084333e-11
-4.5781777e-11
-3.9312677e-11
-1.3562352e-10
-3.3941415e-11
-3.4895149e-11
-3.3086649e-11
-4.0166901e-11
-1.1553067e-11
-3.1857094e-11
-3.3139072e-11
-1.1500709e-11
-7.501688e-12
-2.9645992e-11
-3.2554926e-11
-8.085772e-12
-1.0362682e-11
-2.5657001e-11
-2.9481717e-11
-1.3435568e-11
-1.2286031e-11
-2.0850455e-11
-2.4279915e-11
-1.7487383e-11
-1.1283945e-11
-1.6287572e-11
-1.902863e-11
-1.6534807e-11
-8.6174483e-12
-1.2761132e-11
-1.5039897e-11
-1.2605859e-11
-5.9457205e-12
-1.0247028e-11
-1.2304446e-11
-8.6809506e-12
-3.826884e-12
-8.662921e-12
-1.0444016e-11
-5.6871682e-12
-2.7165965e-12
-7.5307195e-12
-9.1266014e-12
-4.0339138e-12
-2.0904529e-12
-6.6619601e-12
-8.1330897e-12
-3.0838963e-12
-1.7289228e-12
-5.944844e-12
-7.2890541e-12
-2.5729109e-12
-1.4417757e-12
-5.3463147e-12
-6.5686948e-12
-2.1621044e-12
-1.1996487e-12
-4.8213557e-12
-5.9571389e-12
-1.8111887e-12
-9.8016822e-13
-4.4145509e-12
-5.4719298e-12
-1.465374e-12
-7.6818116e-13
-4.0976951e-12
-5.0967867e-12
-1.1433311e-12
-5.9868583e-13
-3.8476102e-12
-4.8042012e-12
-8.9128552e-13
-4.7567985e-13
-3.6479728e-12
-4.5662153e-12
-7.1368494e-13
-3.9557438e-13
-3.4839688e-12
-4.3703346e-12
-5.9147748e-13
-3.4784489e-13
-3.3377438e-12
-4.1969818e-12
-5.2122233e-13
-3.1836044e-13
-3.2036355e-12
-4.0352152e-12
-4.8015236e-13
-2.9987309e-13
-3.0768496e-12
-3.880319e-12
-4.5479384e-13
-2.8972194e-13
-2.9526565e-12
-3.7285455e-12
-4.415188e-13
-2.8697225e-13
-2.8300731e-12
-3.5768649e-12
-4.3867426e-13
-2.8903688e-13
-2.7059402e-12
-3.4216889e-12
-4.4423236e-13
-2.9258993e-13
-2.5800461e-12
-3.2632102e-12
-4.5108576e-13
-2.9788541e-13
-2.451886e-12
-3.1013613e-12
-4.5974927e-13
-3.0333212e-13
-2.3202574e-12
-2.9363068e-12
-4.6839951e-13
-3.0505703e-13
-2.1878644e-12
-2.7694236e-12
-4.7195094e-13
-3.0395367e-13
-2.0560402e-12
-2.6025447e-12
-4.7084144e-13
-3.0017864e-13
-1.9258253e-12
-2.4375346e-12
-4.6519581e-13
-2.9361598e-13
-1.7984238e-12
-2.2764824e-12
-4.5467359e-13
-2.8308817e-13
-1.6755638e-12
-2.121046e-12
-4.3852844e-13
-2.6864007e-13
-1.5590536e-12
-1.9731392e-12
-4.1654938e-13
-2.5210787e-13
-1.4495904e-12
-1.8343695e-12
-3.9087898e-13
-2.3279486e-13
-1.3481557e-12
-1.7062385e-12
-3.6092613e-13
-2.1037563e-13
-1.2570004e-12
-1.5900859e-12
-3.2652755e-13
-1.861469e-13
-1.1762104e-12
-1.4876196e-12
-2.8861168e-13
-1.5939237e-13
-1.1069685e-12
-1.3997162e-12
-2.4729372e-13
-1.2977705e-13
-1.0504053e-12
-1.327295e-12
-2.0219555e-13
-9.8972145e-14
-1.0076106e-12
-1.2726554e-12
-1.5360881e-13
-6.9922479e-14
-9.7727024e-13
-1.2351193e-12
-1.0745529e-13
-3.9467583e-14
-9.6011695e-13
-1.2135544e-12
-6.1029138e-14
-9.3850062e-15
-1.4544542e-14
-1.4214796e-11
1.4210648e-11
-2.8993842e-11
1.4770163e-11
-4.381945e-11
1.4818646e-11
-5.8641572e-11
1.481854e-11
-7.4050933e-11
1.5408306e-11
-9.0946865e-11
1.6896703e-11
-1.1041413e-10
1.946931e-11
-1.3399864e-10
2.3587473e-11
-1.626168e-10
2.8621711e-11
-1.9613498e-10
3.3522096e-11
-2.3371287e-10
3.7581943e-11
-2.73952e-10
4.0243159e-11
-3.1503711e-10
4.108893e-11
-3.5800391e-10
4.2970325e-11
-4.0159385e-10
4.3593047e-11
-4.4424942e-10
4.2658215e-11
-4.8498349e-10
4.0736197e-11
-5.2284405e-10
3.7862185e-11
-5.5712873e-10
3.4285801e-11
-5.8719585e-10
3.0067824e-11
-6.1245241e-10
2.5256895e-11
-6.325183e-10
2.0065969e-11
-6.4708352e-10
1.4565103e-11
-6.5572075e-10
8.6370307e-12
2.3106323e-12
-5.3779235e-11
6.7994615e-11
-1.1581111e-10
7.6809402e-11
-1.8648814e-10
8.5504238e-11
-2.6654881e-10
9.4888235e-11
-3.5791852e-10
1.0678714e-10
-4.6265666e-10
1.2164385e-10
-5.8270156e-10
1.3952292e-10
-7.1896123e-10
1.5985543e-10
-8.6971059e-10
1.7937877e-10
-1.0325211e-09
1.9633965e-10
-1.2049105e-09
2.0997763e-10
-1.3842616e-09
2.1959993e-10
-1.5686502e-09
2.2548249e-10
-1.7547309e-09
2.2905524e-10
-1.9410717e-09
2.2993742e-10
-2.1272781e-09
2.2886755e-10
-2.3232655e-09
2.3672582e-10
-2.5106353e-09
2.2523369e-10
-2.6814094e-09
2.0506094e-10
-2.8306182e-09
1.7927698e-10
-2.9545567e-09
1.4919539e-10
-3.0504657e-09
1.159744e-10
-3.115891e-09
7.9989418e-11
-3.1470027e-09
3.9747431e-11
1.0209006e-11
-1.3620738e-10
2.0421155e-10
-2.9420708e-10
2.3482396e-10
-4.7629181e-10
2.6760627e-10
-6.8683593e-10
3.054503e-10
-9.2995486e-10
3.4992377e-10
-1.2090317e-09
4.0073749e-10
-1.5288382e-09
4.5934506e-10
-1.9515212e-09
5.8255253e-10
-2.4091124e-09
6.3698238e-10
-2.875259e-09
6.6249694e-10
-3.3361324e-09
6.7086006e-10
-3.7832938e-09
6.6676884e-10
-4.2108513e-09
6.5304606e-10
-4.6127736e-09
6.3098223e-10
-4.9831246e-09
6.0029184e-10
-5.316539e-09
5.622843e-10
-5.5978355e-09
5.1802353e-10
-5.8407138e-09
4.6811219e-10
-6.0494105e-09
4.1375705e-10
-6.2261158e-09
3.5598091e-10
-6.372844e-09
2.9592139e-10
-6.4905482e-09
2.3367584e-10
-6.5793139e-09
1.6875184e-10
-6.6410799e-09
1.0150972e-10
3.3678128e-11
-3.9020525e-10
5.9443473e-10
-8.246479e-10
6.6929339e-10
-1.3200671e-09
7.6305488e-10
-2.1144973e-09
1.0999074e-09
-2.974193e-09
1.2096431e-09
-3.7939619e-09
1.2205261e-09
-4.5223265e-09
1.1877258e-09
-5.0659429e-09
1.126182e-09
-5.4736992e-09
1.0447494e-09
-5.7612759e-09
9.5008209e-10
-5.9441275e-09
8.5371836e-10
-6.0339712e-09
7.5661778e-10
-6.0415832e-09
6.6066192e-10
-5.9687479e-09
5.5814983e-10
-5.8313097e-09
4.6285553e-10
-5.6464942e-09
3.7746995e-10
-5.4314825e-09
3.0301243e-10
-5.2033328e-09
2.3996254e-10
-4.9777904e-09
1.8821415e-10
-4.7686747e-09
1.468644e-10
-4.5889187e-09
1.1616411e-10
-4.4461003e-09
9.0855962e-11
-4.345241e-09
6.7890661e-11
-4.2898288e-09
4.6095529e-11
2.4817033e-11
-2.2439627e-09
2.8384258e-09
-4.0067158e-09
2.4320781e-09
-5.5110403e-09
2.26741e-09
-6.194874e-09
1.7837633e-09
-6.2689149e-09
1.2837021e-09
-5.80332e-09
7.5494601e-10
-5.0425518e-09
4.2696979e-10
-4.0533165e-09
1.3695692e-10
-2.9008808e-09
-1.0767764e-10
-1.6482642e-09
-3.0252753e-10
-4.0726279e-10
-3.8727852e-10
8.2887122e-10
-4.795172e-10
2.1269647e-09
-6.3743284e-10
3.5410121e-09
-8.5589758e-10
4.9239526e-09
-9.2008339e-10
6.2351738e-09
-9.3374781e-10
7.4519207e-09
-9.1372921e-10
8.5595855e-09
-8.6769535e-10
9.5478039e-09
-7.9999552e-10
1.0408075e-08
-7.1339596e-10
1.1133878e-08
-6.0962723e-10
1.1715773e-08
-4.9102613e-10
1.2143523e-08
-3.5984352e-10
1.2408111e-08
-2.1847718e-10
-6.5461659e-11
9.4658806e-10
1.8919245e-09
4.1232171e-09
-7.4449877e-10
7.8333222e-09
-1.4426241e-09
1.1523722e-08
-1.9066066e-09
1.5249671e-08
-2.4422223e-09
1.8905033e-08
-2.9003889e-09
2.250039e-08
-3.1683552e-09
2.5876443e-08
-3.2390599e-09
2.8943373e-08
-3.1745662e-09
3.168016e-08
-3.0392682e-09
3.4154291e-08
-2.861361e-09
3.6325897e-08
-2.6510716e-09
3.8121991e-08
-2.4334731e-09
3.9493148e-08
-2.2270004e-09
4.0585315e-08
-2.0121951e-09
4.1449367e-08
-1.7977445e-09
4.21252e-08
-1.5895073e-09
4.2646176e-08
-1.3886163e-09
4.3041357e-08
-1.1951215e-09
4.3336134e-08
-1.0081182e-09
4.3552351e-08
-8.2578987e-10
4.3707175e-08
-6.4579596e-10
4.3812733e-08
-4.6534786e-10
4.387621e-08
-2.8190139e-10
-8.957608e-11
1.4897182e-07
-2.2734061e-09
1.4763633e-07
5.9190618e-10
1.4507531e-07
1.1191799e-09
1.4159901e-07
1.5703947e-09
1.3704002e-07
2.1173753e-09
1.3155536e-07
2.5847923e-09
1.2551553e-07
2.8719244e-09
1.1931257e-07
2.9642816e-09
1.1321527e-07
2.9230673e-09
1.0737484e-07
2.8014439e-09
1.0186211e-07
2.6516222e-09
9.672573e-08
2.4855301e-09
9.19961e-08
2.2963552e-09
8.7673041e-08
2.0962361e-09
8.3767188e-08
1.8938182e-09
8.0276032e-08
1.6935573e-09
7.718859e-08
1.4980679e-09
7.4491431e-08
1.3086647e-09
7.2170641e-08
1.1257823e-09
7.0213727e-08
9.4890098e-10
6.86113e-08
7.7673575e-10
6.735821e-08
6.0738776e-10
6.6454994e-08
4.3795593e-10
6.5907438e-08
2.6573923e-10
8.4923774e-11
1.2871046e-08
-1.6737922e-09
1.5249139e-08
-1.7860726e-09
1.7911534e-08
-1.5431016e-09
2.0660168e-08
-1.178128e-09
2.3493017e-08
-7.1536738e-10
2.6425727e-08
-3.4781749e-10
2.9361176e-08
-6.3431637e-11
3.2140393e-08
1.8515302e-10
3.4725226e-08
3.3832187e-10
3.7081427e-08
4.4533079e-10
3.9166688e-08
5.6644697e-10
4.0795096e-08
8.572074e-10
4.2088094e-08
1.0034404e-09
4.3115781e-08
1.0686293e-09
4.3920592e-08
1.0890862e-09
4.4538861e-08
1.075365e-09
4.5004089e-08
1.0329149e-09
4.5346054e-08
9.6677129e-10
4.5590918e-08
8.8098857e-10
4.5761577e-08
7.7830938e-10
4.5877538e-08
6.6084016e-10
4.595472e-08
5.302692e-10
4.6004571e-08
3.8816557e-10
4.603424e-08
2.3612964e-10
7.1687425e-11
-5.3491939e-09
-8.9089694e-10
-6.0282379e-09
-1.1070379e-09
-6.3730966e-09
-1.1982526e-09
-6.3094318e-09
-1.2418021e-09
-5.7902149e-09
-1.234592e-09
-4.9531423e-09
-1.1848956e-09
-3.9056172e-09
-1.1109596e-09
-2.7008914e-09
-1.0195729e-09
-1.4449398e-09
-9.1762723e-10
-1.8625905e-10
-8.1334505e-10
1.0888571e-09
-7.0866208e-10
2.5459023e-09
-5.9982836e-10
4.0433818e-09
-4.9402736e-10
5.5086225e-09
-3.9659756e-10
6.9066997e-09
-3.0897532e-10
8.2137679e-09
-2.3168603e-10
9.4288644e-09
-1.8216302e-10
1.0538196e-08
-1.4254093e-10
1.1529016e-08
-1.0981113e-10
1.2391242e-08
-8.3895292e-11
1.3116282e-08
-6.4177798e-11
1.369613e-08
-4.9557527e-11
1.4122896e-08
-3.8578868e-11
1.4387964e-08
-2.8917073e-11
-1.7366931e-11
-2.378446e-09
-2.819195e-10
-3.1554213e-09
-3.3006439e-10
-3.9681642e-09
-3.8551414e-10
-4.7626858e-09
-4.4728725e-10
-5.4788002e-09
-5.1848635e-10
-6.0121791e-09
-6.5152651e-10
-6.4181765e-09
-7.0497273e-10
-6.7049896e-09
-7.3277069e-10
-6.8786262e-09
-7.4400142e-10
-6.9501078e-09
-7.4187398e-10
-6.92908e-09
-7.2970009e-10
-6.8187232e-09
-7.1019467e-10
-6.6300283e-09
-6.8273117e-10
-6.3786389e-09
-6.4799514e-10
-6.0804425e-09
-6.0717904e-10
-5.7504115e-09
-5.6172359e-10
-5.4189751e-09
-5.1360525e-10
-5.0985119e-09
-4.6300932e-10
-4.7987242e-09
-4.0960334e-10
-4.5291715e-09
-3.5345209e-10
-4.2987329e-09
-2.9462002e-10
-4.1151785e-09
-2.3311522e-10
-3.9848026e-09
-1.6895777e-10
-3.9113812e-09
-1.0234149e-10
-3.4521318e-11
-6.6418111e-10
-8.6071726e-11
-8.9748591e-10
-9.6756622e-11
-1.1710364e-09
-1.119614e-10
-1.4853481e-09
-1.3297411e-10
-1.84575e-09
-1.5808397e-10
-2.3073352e-09
-1.8994205e-10
-2.7912974e-09
-2.210124e-10
-3.2769584e-09
-2.4711286e-10
-3.7537703e-09
-2.6719365e-10
-4.2151791e-09
-2.8047028e-10
-4.6550804e-09
-2.8980459e-10
-5.0679886e-09
-2.9729304e-10
-5.4443433e-09
-3.0638349e-10
-5.7616702e-09
-3.3067566e-10
-6.0409177e-09
-3.2793937e-10
-6.286358e-09
-3.1629125e-10
-6.5020346e-09
-2.9793665e-10
-6.6906756e-09
-2.7437658e-10
-6.854162e-09
-2.4612509e-10
-6.9940088e-09
-2.1361357e-10
-7.1113365e-09
-1.7730047e-10
-7.2067039e-09
-1.3775599e-10
-7.2799295e-09
-9.5740331e-11
-7.3309253e-09
-5.1353737e-11
-1.2003303e-11
-1.9447934e-10
-2.7214108e-11
-2.731388e-10
-1.8095306e-11
-3.7030507e-10
-1.479338e-11
-4.8939467e-10
-1.3882986e-11
-6.3102226e-10
-1.6455174e-11
-7.9675771e-10
-2.42058e-11
-9.8142981e-10
-3.633995e-11
-1.1784643e-09
-5.0078527e-11
-1.3826874e-09
-6.2971146e-11
-1.5928838e-09
-7.0274835e-11
-1.8060906e-09
-7.6599249e-11
-2.021917e-09
-8.1468514e-11
-2.2437922e-09
-8.4510527e-11
-2.488879e-09
-8.5591558e-11
-2.7321104e-09
-8.4711017e-11
-2.9663801e-09
-8.2024949e-11
-3.1866363e-09
-7.7684249e-11
-3.3890997e-09
-7.1917108e-11
-3.5703289e-09
-6.4900184e-11
-3.7272036e-09
-5.6743305e-11
-3.8569355e-09
-4.7573084e-11
-3.9571266e-09
-3.7569485e-11
-4.0259381e-09
-2.693348e-11
-4.0614929e-09
-1.5803499e-11
-4.4855003e-12
-4.5044681e-11
-2.2335799e-11
-5.207597e-11
-1.1063583e-11
-6.5485819e-11
-1.383204e-12
-8.5746771e-11
6.3781883e-12
-1.1377697e-10
1.1575144e-11
-1.5165283e-10
1.3670062e-11
-1.9937397e-10
1.1381087e-11
-2.5495196e-10
5.4992407e-12
-3.1717427e-10
-7.4917925e-13
-3.8345116e-10
-3.9983891e-12
-4.5239529e-10
-7.6556743e-12
-5.2292339e-10
-1.0941082e-11
-5.9388249e-10
-1.3552191e-11
-6.6450044e-10
-1.4974471e-11
-7.3363422e-10
-1.5578209e-11
-8.0025185e-10
-1.5408389e-11
-8.6312475e-10
-1.4812505e-11
-9.2117817e-10
-1.3864934e-11
-9.7346544e-10
-1.2614215e-11
-1.0190288e-09
-1.118125e-11
-1.0569705e-09
-9.632783e-12
-1.0865641e-09
-7.9772448e-12
-1.1073342e-09
-6.1647192e-12
-1.1190807e-09
-4.0583737e-12
-1.3305401e-12
-4.443357e-12
-2.9392904e-11
7.6530127e-12
-2.3159791e-11
2.1347632e-11
-1.5077731e-11
3.4163482e-11
-6.4376141e-12
4.5898849e-11
-1.6020253e-13
5.6770826e-11
2.7980907e-12
6.2623879e-11
5.5280315e-12
6.2124012e-11
5.9990985e-12
5.7374587e-11
4.0002305e-12
5.1595536e-11
1.7806405e-12
4.5265472e-11
-1.3256365e-12
3.8342222e-11
-4.0178619e-12
3.1465857e-11
-6.6758569e-12
2.4989211e-11
-8.4978542e-12
1.9295097e-11
-9.8841205e-12
1.4308013e-11
-1.0421323e-11
1.037186e-11
-1.0876361e-11
7.3354975e-12
-1.0828569e-11
5.0814465e-12
-1.0360152e-11
3.3337979e-12
-9.4335777e-12
1.8884508e-12
-8.1874006e-12
6.2462992e-13
-6.7133769e-12
-4.3349371e-13
-5.1065341e-12
-1.1550662e-12
-3.3367246e-12
-1.2355948e-12
-4.7641387e-12
-3.2714299e-11
1.8787939e-12
-2.9802538e-11
1.3168087e-11
-2.6366878e-11
2.7978906e-11
-2.1248306e-11
4.4083262e-11
-1.6264438e-11
5.8242746e-11
-1.136127e-11
7.1642529e-11
-7.8716195e-12
8.3448445e-11
-5.8066737e-12
9.3109389e-11
-5.6605579e-12
1.0135873e-10
-6.4685356e-12
1.069967e-10
-6.9634318e-12
1.1157696e-10
-8.5979292e-12
1.1471363e-10
-9.8123286e-12
1.1774349e-10
-1.1527501e-11
1.2102434e-10
-1.3164751e-11
1.2463851e-10
-1.4035256e-11
1.2817529e-10
-1.4412894e-11
1.3164459e-10
-1.4297611e-11
1.3494697e-10
-1.3662266e-11
1.3804452e-10
-1.2530846e-11
1.4080278e-10
-1.0945375e-11
1.4305128e-10
-8.9615897e-12
1.4454671e-10
-6.6016789e-12
1.4517919e-10
-3.9689184e-12
-1.1830797e-12
-1.5204763e-11
-3.0944885e-11
-1.4579387e-11
-3.0427721e-11
-1.2258969e-11
-2.8687122e-11
-7.6873796e-12
-2.5819737e-11
-1.2108089e-12
-2.2740856e-11
6.3242271e-12
-1.8896155e-11
1.3468476e-11
-1.5015716e-11
1.9710407e-11
-1.2048451e-11
2.4856303e-11
-1.0806299e-11
2.8226097e-11
-9.8381734e-12
3.0043689e-11
-8.7808661e-12
3.0525776e-11
-9.0798582e-12
3.0233226e-11
-9.5196217e-12
2.865713e-11
-9.95125e-12
2.6372604e-11
-1.088007e-11
2.4236777e-11
-1.1899276e-11
2.2170726e-11
-1.2346691e-11
2.0186034e-11
-1.2312768e-11
1.8415988e-11
-1.1892069e-11
1.6917689e-11
-1.1032399e-11
1.5746089e-11
-9.7736304e-12
1.4935575e-11
-8.1509341e-12
1.4542271e-11
-6.2082376e-12
1.4548785e-11
-3.9753007e-12
-1.477429e-12
-2.2268868e-11
-2.6163229e-11
-2.5846892e-11
-2.6849537e-11
-2.8594127e-11
-2.593974e-11
-3.054137e-11
-2.3872356e-11
-3.1180154e-11
-2.2101943e-11
-3.0821398e-11
-1.9254788e-11
-2.9846119e-11
-1.5990879e-11
-2.9122294e-11
-1.2772164e-11
-2.9902649e-11
-1.0025841e-11
-3.1556819e-11
-8.1839075e-12
-3.3201612e-11
-7.1359867e-12
-3.5843166e-11
-6.4382264e-12
-3.9133189e-11
-6.229531e-12
-4.3299955e-11
-5.7844265e-12
-4.8115472e-11
-6.0645041e-12
-5.3526718e-11
-6.4879909e-12
-5.9248996e-11
-6.6243821e-12
-6.481978e-11
-6.7419609e-12
-6.9923442e-11
-6.7883921e-12
-7.4464495e-11
-6.4913364e-12
-7.8386362e-11
-5.8517598e-12
-8.1660313e-11
-4.8769846e-12
-8.4247417e-11
-3.621139e-12
-8.6128115e-11
-2.0946102e-12
-5.948063e-13
-2.1654075e-11
-2.1043841e-11
-2.6639463e-11
-2.186404e-11
-3.0891601e-11
-2.1687501e-11
-3.4336311e-11
-2.0427554e-11
-3.7793486e-11
-1.8644686e-11
-4.0417692e-11
-1.6630509e-11
-4.2410515e-11
-1.399799e-11
-4.4087537e-11
-1.1095085e-11
-4.5662047e-11
-8.4512813e-12
-4.7630115e-11
-6.2157986e-12
-5.0784987e-11
-3.9810845e-12
-5.4316066e-11
-2.9071275e-12
-5.8153344e-11
-2.3922434e-12
-6.2222472e-11
-1.7152984e-12
-6.679681e-11
-1.490176e-12
-7.1780125e-11
-1.5046949e-12
-7.6826374e-11
-1.5781602e-12
-8.1824438e-11
-1.743931e-12
-8.6685343e-11
-1.9275271e-12
-9.128389e-11
-1.8928352e-12
-9.5272782e-11
-1.8629185e-12
-9.8529654e-11
-1.620167e-12
-1.0089497e-10
-1.2558759e-12
-1.0218805e-10
-8.0159028e-13
-2.608738e-13
-1.6941e-11
-1.6708618e-11
-2.1076534e-11
-1.7728431e-11
-2.500075e-11
-1.7763217e-11
-2.8088758e-11
-1.7339487e-11
-3.0979133e-11
-1.5754257e-11
-3.3671459e-11
-1.3938137e-11
-3.5883053e-11
-1.1786357e-11
-3.7514249e-11
-9.4638571e-12
-3.8841967e-11
-7.1235379e-12
-4.0227995e-11
-4.8297522e-12
-4.1528815e-11
-2.6802525e-12
-4.3343402e-11
-1.0925366e-12
-4.5796261e-11
6.0612145e-14
-4.8653939e-11
1.1423687e-12
-5.1601563e-11
1.457429e-12
-5.4781671e-11
1.6753884e-12
-5.8088185e-11
1.7283231e-12
-6.1441199e-11
1.6090465e-12
-6.4740811e-11
1.3720447e-12
-6.7758017e-11
1.1243257e-12
-7.0466584e-11
8.4560158e-13
-7.2681034e-11
5.9423315e-13
-7.429938e-11
3.6241743e-13
-7.527664e-11
1.756182e-13
2.7479106e-14
-1.1627554e-11
-1.3761958e-11
-1.4552805e-11
-1.4803126e-11
-1.7288527e-11
-1.5027445e-11
-1.9556078e-11
-1.5071891e-11
-2.1639039e-11
-1.3671256e-11
-2.3247381e-11
-1.232976e-11
-2.4399227e-11
-1.0634481e-11
-2.5187835e-11
-8.6752231e-12
-2.5591795e-11
-6.719557e-12
-2.5788448e-11
-4.633082e-12
-2.5885718e-11
-2.5829709e-12
-2.6168475e-11
-8.097716e-13
-2.6770017e-11
6.6215605e-13
-2.743209e-11
1.8044398e-12
-2.8522113e-11
2.5474443e-12
-2.9855151e-11
3.0084154e-12
-3.1356513e-11
3.2296693e-12
-3.2985775e-11
3.2382892e-12
-3.4657275e-11
3.0435223e-12
-3.6262285e-11
2.7293096e-12
-3.7749637e-11
2.3329262e-12
-3.9034605e-11
1.8791712e-12
-4.015684e-11
1.48462e-12
-4.0853693e-11
8.7243824e-13
2.7283287e-14
-7.6703507e-12
-1.177874e-11
-9.6283903e-12
-1.2845051e-11
-1.150776e-11
-1.3148041e-11
-1.3173893e-11
-1.3405726e-11
-1.4348755e-11
-1.2496364e-11
-1.5236675e-11
-1.1441813e-11
-1.5707128e-11
-1.0164004e-11
-1.5815312e-11
-8.5670166e-12
-1.5486209e-11
-7.0486402e-12
-1.5028497e-11
-5.0907772e-12
-1.4275639e-11
-3.3358155e-12
-1.3497181e-11
-1.5882177e-12
-1.2795284e-11
-3.9733413e-14
-1.221681e-11
1.225971e-12
-1.1881991e-11
2.212628e-12
-1.1780635e-11
2.9070584e-12
-1.1879649e-11
3.3286806e-12
-1.2144449e-11
3.5030823e-12
-1.2551155e-11
3.4502201e-12
-1.303115e-11
3.2092937e-12
-1.3510846e-11
2.8126087e-12
-1.3925596e-11
2.2939067e-12
-1.402015e-11
1.5791557e-12
-1.4102023e-11
9.5429324e-13
4.8301011e-13
-5.3962373e-12
-1.0416401e-11
-6.8482081e-12
-1.1393062e-11
-8.1338041e-12
-1.1862426e-11
-9.5208958e-12
-1.2018615e-11
-1.0269779e-11
-1.1747462e-11
-1.0760495e-11
-1.0951079e-11
-1.0931823e-11
-9.9926589e-12
-1.0724193e-11
-8.774631e-12
-1.035718e-11
-7.4156392e-12
-9.5828754e-12
-5.8650693e-12
-8.6134666e-12
-4.3052132e-12
-7.4411908e-12
-2.7604841e-12
-6.1407706e-12
-1.340146e-12
-4.9083124e-12
-6.4812279e-15
-3.8012149e-12
1.1055345e-12
-2.8493007e-12
1.9551465e-12
-2.07282e-12
2.5522002e-12
-1.473341e-12
2.9036017e-12
-1.0426766e-12
3.019552e-12
-7.5710902e-13
2.9237206e-12
-5.8698575e-13
2.6424778e-12
-4.8592528e-13
2.1928368e-12
-5.155593e-13
1.6087775e-12
-5.6255273e-13
1.0012746e-12
3.976844e-13
-4.1790474e-12
-9.3212529e-12
-5.358596e-12
-1.0213512e-11
-6.4372787e-12
-1.078374e-11
-7.4844963e-12
-1.0971392e-11
-8.1710924e-12
-1.106086e-11
-8.6445151e-12
-1.047765e-11
-8.8295861e-12
-9.807582e-12
-8.6865108e-12
-8.9177005e-12
-8.2779196e-12
-7.824225e-12
-7.5396076e-12
-6.6033765e-12
-6.5640931e-12
-5.2807236e-12
-5.389529e-12
-3.9350448e-12
-4.1376713e-12
-2.5920013e-12
-2.7659179e-12
-1.3782332e-12
-1.3787552e-12
-2.8162781e-13
-6.8639455e-14
6.4502982e-13
1.1260732e-12
1.3574854e-12
2.2030423e-12
1.8266291e-12
3.112312e-12
2.1102775e-12
3.8545393e-12
2.1814869e-12
4.4319393e-12
2.0650696e-12
4.8423793e-12
1.7823871e-12
5.0898168e-12
1.3613279e-12
5.2392086e-12
8.5187132e-13
2.8076469e-13
-3.5054318e-12
-8.3887522e-12
-4.4698324e-12
-9.2491272e-12
-5.4156724e-12
-9.8379118e-12
-6.2525818e-12
-1.0134492e-11
-7.0655546e-12
-1.0247895e-11
-7.4807278e-12
-1.0062483e-11
-7.6929477e-12
-9.5953674e-12
-7.6928878e-12
-8.917765e-12
-7.4186115e-12
-8.0985057e-12
-6.8919105e-12
-7.1300816e-12
-6.1050012e-12
-6.067637e-12
-5.1016041e-12
-4.9384461e-12
-3.9081763e-12
-3.7854335e-12
-2.6059631e-12
-2.6804512e-12
-1.2454127e-12
-1.6421834e-12
1.1359106e-13
-7.139798e-13
1.4776733e-12
-6.6033017e-15
2.712103e-12
5.9219206e-13
3.8266383e-12
9.9573391e-13
4.7708708e-12
1.2372451e-12
5.5624381e-12
1.2734916e-12
6.1696597e-12
1.1751536e-12
6.5257544e-12
1.0052193e-12
6.7469654e-12
6.3064788e-13
6.4884958e-14
-2.9682477e-12
-7.582643e-12
-3.8047345e-12
-8.4126696e-12
-4.6174446e-12
-9.0252268e-12
-5.3096856e-12
-9.4422727e-12
-6.0300806e-12
-9.5275189e-12
-6.4642535e-12
-9.6283269e-12
-6.7484493e-12
-9.3111869e-12
-6.7866649e-12
-8.8795633e-12
-6.6358648e-12
-8.2493187e-12
-6.2432144e-12
-7.5227439e-12
-5.6584964e-12
-6.6523663e-12
-4.8389202e-12
-5.7580332e-12
-3.8266415e-12
-4.7977225e-12
-2.6714107e-12
-3.8356921e-12
-1.410898e-12
-2.9027061e-12
-7.9290874e-14
-2.045597e-12
1.2176383e-12
-1.3035426e-12
2.4992854e-12
-6.8946552e-13
3.6916677e-12
-1.9665914e-13
4.7249768e-12
2.0392457e-13
5.6511401e-12
3.473161e-13
6.4166195e-12
4.0966133e-13
7.0935905e-12
3.2823419e-13
7.4768622e-12
2.473639e-13
1.3090254e-13
-2.4668308e-12
-6.9270448e-12
-3.1452509e-12
-7.7342886e-12
-3.7945507e-12
-8.3759619e-12
-4.4499036e-12
-8.7869509e-12
-4.9774574e-12
-8.9999931e-12
-5.450523e-12
-9.1552866e-12
-5.6342439e-12
-9.127489e-12
-5.7404083e-12
-8.7734198e-12
-5.6202839e-12
-8.3694623e-12
-5.3303136e-12
-7.812732e-12
-4.8118562e-12
-7.1708401e-12
-4.1362466e-12
-6.4336581e-12
-3.2834733e-12
-5.6505101e-12
-2.2828138e-12
-4.8363651e-12
-1.1585704e-12
-4.0269622e-12
4.1591871e-14
-3.2457715e-12
1.2610189e-12
-2.5229815e-12
2.4571202e-12
-1.8855785e-12
3.6003281e-12
-1.3398785e-12
4.6959746e-12
-8.9173353e-13
5.6184732e-12
-5.7519437e-13
6.3766036e-12
-3.4848122e-13
6.9208949e-12
-2.1606995e-13
7.2869223e-12
-1.1867407e-13
5.2837434e-14
-1.998023e-12
-6.3944454e-12
-2.5329542e-12
-7.1994027e-12
-3.0265655e-12
-7.8823917e-12
-3.5318665e-12
-8.2816873e-12
-3.9376612e-12
-8.5942323e-12
-4.3287421e-12
-8.7642365e-12
-4.6450802e-12
-8.8111791e-12
-4.5829946e-12
-8.8355312e-12
-4.5011365e-12
-8.4513438e-12
-4.2421099e-12
-8.0717799e-12
-3.8231818e-12
-7.5897877e-12
-3.2298021e-12
-7.0270556e-12
-2.4902183e-12
-6.3901102e-12
-1.6213298e-12
-5.7052686e-12
-6.3921988e-13
-5.0090859e-12
4.2074709e-13
-4.3057512e-12
1.5223519e-12
-3.6245983e-12
2.620964e-12
-2.9842018e-12
3.6793627e-12
-2.3982879e-12
4.6663177e-12
-1.8786989e-12
5.5192056e-12
-1.4280925e-12
6.213268e-12
-1.0425539e-12
6.6983472e-12
-7.011597e-13
6.9829452e-12
-4.0328016e-13
-1.4749102e-13
-1.5511007e-12
-5.9867275e-12
-1.9917763e-12
-6.758775e-12
-2.3602338e-12
-7.5139784e-12
-2.7442336e-12
-7.897728e-12
-3.0798385e-12
-8.2586646e-12
-3.341123e-12
-8.5029857e-12
-3.5247194e-12
-8.6276136e-12
-3.7211547e-12
-8.6391241e-12
-3.5379062e-12
-8.6346178e-12
-3.303999e-12
-8.3057104e-12
-2.9272616e-12
-7.9665459e-12
-2.4284418e-12
-7.5258942e-12
-1.791787e-12
-7.026782e-12
-1.0386206e-12