/*--------------------------------*- C++ -*----------------------------------*\
| =========                 |                                                 |
| \\      /  F ield         | OpenFOAM: The Open Source CFD Toolbox           |
|  \\    /   O peration     | Version:  4.0                                   |
|   \\  /    A nd           | Web:      www.OpenFOAM.org                      |
|    \\/     M anipulation  |                                                 |
\*---------------------------------------------------------------------------*/
FoamFile
{
    version     2.0;
    format      ascii;
    class       volVectorField;
    location    "0.59";
    object      U;
}
// * * * * * * * * * * * * * * * * * * * * * * * * * * * * * * * * * * * * * //

dimensions      [0 1 -1 0 0 0 0];

internalField   nonuniform List<vector> 
1740
(
(1.4470209 -0.011676724 4.5116306e-06)
(1.476125 -0.018145519 7.4057543e-07)
(1.5944596 -0.0053399259 1.9867793e-08)
(1.5682167 -0.011982007 6.7756754e-06)
(1.4874897 -0.040364871 1.4910963e-06)
(1.5980896 -0.027338622 3.2505975e-07)
(1.5442415 0.0028592776 1.1243754e-05)
(1.5775011 -0.025446625 2.3932112e-06)
(1.4818135 -0.017528444 4.6658224e-07)
(1.5491619 0.0016241676 1.3362509e-05)
(1.5757228 0.018491867 3.6686479e-06)
(1.5846519 0.008807101 5.5531452e-07)
(1.5617183 0.00065711915 1.5646816e-05)
(1.4958982 0.0172527 4.6543401e-06)
(1.5968677 0.0042993647 8.5326906e-07)
(1.4823634 0.005494517 1.6754855e-05)
(1.5066502 -0.0017025381 5.5102654e-06)
(1.5119153 -0.0076209731 1.0049346e-06)
(1.4867111 0.0049511645 1.7627226e-05)
(1.5361916 0.0021447287 6.172186e-06)
(1.5316262 -0.0051454214 1.1462417e-06)
(1.4909197 0.0046376783 1.8189291e-05)
(1.5420098 0.016952523 6.8179123e-06)
(1.5410523 0.0063175105 1.3721022e-06)
(1.4924387 -0.0051438702 1.8709324e-05)
(1.5017556 0.0050719332 7.5255429e-06)
(1.6100209 0.0021706477 1.5538053e-06)
(1.497062 -0.019441137 1.9140558e-05)
(1.4887626 -0.028819485 8.1448335e-06)
(1.5817882 -0.013687472 1.7831433e-06)
(1.6075425 -0.010428723 1.9505603e-05)
(1.5583584 -0.026474884 8.6071589e-06)
(1.512127 -0.012683153 1.9787675e-06)
(1.5998406 0.0045958121 2.0373358e-05)
(1.5701497 0.011485839 9.3992066e-06)
(1.5268675 0.004108192 2.1859751e-06)
(1.506705 0.0099158643 2.0378011e-05)
(1.515525 0.01857226 9.864765e-06)
(1.5386362 0.0085771925 2.4002952e-06)
(1.5246478 0.0060474336 2.0522384e-05)
(1.5362642 0.0016065062 1.0232916e-05)
(1.5419846 -0.0032635255 2.58093e-06)
(1.5070285 0.0087183117 2.0810966e-05)
(1.5398129 0.00041087557 1.0752575e-05)
(1.4962138 -0.0026747583 2.7354762e-06)
(1.4581572 0.0091716029 2.0765195e-05)
(1.5843063 0.006779719 1.108156e-05)
(1.5573204 0.00038405343 2.9260776e-06)
(1.4266065 -0.017456685 2.0815736e-05)
(1.6594894 -0.014349 1.1493683e-05)
(1.5521705 -0.0062759807 3.1127225e-06)
(1.5453842 -0.029142844 2.1193289e-05)
(1.5619061 -0.008264938 1.1892138e-05)
(1.4570967 0.0042629967 3.2697007e-06)
(1.5670878 -0.0047410411 2.138335e-05)
(1.5732302 0.0061531222 1.2116629e-05)
(1.5560048 0.008015748 3.4499757e-06)
(1.5591054 -0.015715036 2.156747e-05)
(1.575752 -0.007849059 1.2604784e-05)
(1.5628955 -0.0025144982 3.6307051e-06)
(1.684733 -0.001900732 2.2069163e-05)
(1.4980601 -0.0063062719 1.2958285e-05)
(1.4958011 -0.0025567629 3.7942311e-06)
(1.5932612 0.033327122 2.2167736e-05)
(1.5142574 0.0055152113 1.3248574e-05)
(1.5120451 -0.0017494626 3.9327965e-06)
(1.5006439 0.023352176 2.2251497e-05)
(1.5893686 0.010578566 1.3581951e-05)
(1.5443536 -0.0020290886 4.1118201e-06)
(1.5127173 -0.0075814429 2.2429654e-05)
(1.5647696 0.014567215 1.3890605e-05)
(1.5174713 0.012207586 4.3068669e-06)
(1.5113292 -0.0047515692 2.2272255e-05)
(1.4718678 0.013124851 1.4168032e-05)
(1.5608365 0.012779743 4.4169335e-06)
(1.4948625 0.0014216252 2.2172721e-05)
(1.4971517 -0.0038831621 1.4385499e-05)
(1.5823792 -0.0076114765 4.5983491e-06)
(1.4956959 0.0032290282 2.2556685e-05)
(1.50927 -0.021339641 1.4714094e-05)
(1.5044004 -0.012628191 4.7079792e-06)
(1.4481556 0.002765216 2.3187742e-05)
(1.5548162 -0.012537865 1.5021916e-05)
(1.4799549 -0.0094094551 4.8736398e-06)
(1.3661108 -0.0013788679 2.2691181e-05)
(1.5277467 -0.0013365205 1.5164378e-05)
(1.4753361 0.0038911451 4.8508101e-06)
(1.2473942 0.022609483 2.3744416e-05)
(1.2894304 0.094099755 1.5736524e-05)
(1.3701515 0.055859404 5.567973e-06)
(0.80935399 0.36525329 1.1576608e-05)
(0.78434434 0.92491807 9.9000616e-06)
(0.71482004 1.2455146 5.4064571e-06)
(0.20789011 0.10829517 1.4769674e-06)
(0.17950707 0.36012294 3.0423833e-06)
(0.082345108 0.49264449 6.9334876e-07)
(-0.035459791 -0.01494125 1.2275138e-06)
(-0.031793683 -0.030297577 1.6681502e-06)
(-0.022317505 -0.035613591 5.625635e-07)
(-0.010022105 -0.0035309517 4.4814883e-07)
(-0.009235122 -0.0087891793 7.2076532e-07)
(-0.00782231 -0.011670498 3.1415487e-07)
(-0.0023802707 -0.0005427717 1.142412e-07)
(-0.0023020593 -0.0013889417 2.3058815e-07)
(-0.0021486038 -0.0020936671 8.9382329e-08)
(-0.0012295978 -0.00017156435 1.977765e-08)
(-0.0011629738 -0.00040273168 4.3346385e-08)
(-0.0010336538 -0.00064819558 -2.4429439e-08)
(-0.00078641634 -9.4943437e-05 -8.2645725e-09)
(-0.00075973022 -0.00020923593 -2.3287983e-08)
(-0.00068096087 -0.00031645312 -6.9086867e-08)
(-0.000582044 -4.1182063e-05 -1.7091577e-08)
(-0.0005708712 -8.9869639e-05 -4.3626874e-08)
(-0.00051986425 -0.00012716496 -7.9725507e-08)
(-0.00049164372 -2.4528559e-05 -1.7167783e-08)
(-0.00048061698 -4.4025548e-05 -4.4416098e-08)
(-0.00044869306 -7.2164109e-05 -7.4101887e-08)
(-0.00042414191 -2.532638e-05 -1.4113809e-08)
(-0.00041785555 -5.4422858e-05 -3.7817084e-08)
(-0.00039726915 -8.0429839e-05 -6.2200087e-08)
(-0.00034877182 -2.7515251e-05 -1.080117e-08)
(-0.00034462961 -6.0971273e-05 -2.9916165e-08)
(-0.00032924705 -9.4949349e-05 -4.9491251e-08)
(-0.00027004242 -2.4247502e-05 -8.1617012e-09)
(-0.00026690639 -5.4353933e-05 -2.3051142e-08)
(-0.00025674481 -8.5011141e-05 -3.838949e-08)
(-0.00020882107 -1.8101003e-05 -6.2655496e-09)
(-0.00020647085 -4.0988966e-05 -1.7670193e-08)
(-0.00019938412 -6.4175025e-05 -2.9416365e-08)
(-0.00016912161 -1.2375375e-05 -4.8705641e-09)
(-0.00016728821 -2.7462108e-05 -1.3506838e-08)
(-0.00016192762 -4.4245797e-05 -2.2319464e-08)
(-0.00013991023 -8.3078208e-06 -3.7647281e-09)
(-0.00013856031 -1.7982196e-05 -1.0218805e-08)
(-0.00013440696 -2.9335483e-05 -1.671586e-08)
(-0.00011839512 -6.0523457e-06 -2.8367221e-09)
(-0.00011742154 -1.2681527e-05 -7.5733718e-09)
(-0.00011413539 -2.0518071e-05 -1.2282304e-08)
(-0.00010212837 -4.7494556e-06 -2.0650389e-09)
(-0.00010132313 -9.8658878e-06 -5.4574763e-09)
(-9.8695464e-05 -1.5832168e-05 -8.8070919e-09)
(-8.9398594e-05 -3.8939685e-06 -1.4553083e-09)
(-8.875188e-05 -8.1550314e-06 -3.8160087e-09)
(-8.6627589e-05 -1.3134941e-05 -6.1468707e-09)
(-7.9267009e-05 -3.2081247e-06 -1.0010512e-09)
(-7.8749017e-05 -6.7191929e-06 -2.5962276e-09)
(-7.700962e-05 -1.0916195e-05 -4.1780368e-09)
(-7.1156268e-05 -2.6466867e-06 -6.793711e-10)
(-7.0739442e-05 -5.3914171e-06 -1.7281767e-09)
(-6.9298978e-05 -8.7189205e-06 -2.7727774e-09)
(-6.4651864e-05 -2.0646105e-06 -4.6236424e-10)
(-6.4319245e-05 -4.5042864e-06 -1.1336997e-09)
(-6.3115699e-05 -7.4510102e-06 -1.8038291e-09)
(-5.9433067e-05 -1.7071077e-06 -3.2135757e-10)
(-5.9170623e-05 -3.5795096e-06 -7.3991269e-10)
(-5.8160197e-05 -5.8821513e-06 -1.1560023e-09)
(-5.5240205e-05 -1.3925917e-06 -2.2248577e-10)
(-5.5033637e-05 -2.7623526e-06 -4.7964814e-10)
(-5.4180397e-05 -4.5142901e-06 -7.3078909e-10)
(-5.1835156e-05 -1.1334664e-06 -1.5721986e-10)
(-5.1676527e-05 -2.2338688e-06 -3.1049855e-10)
(-5.0951406e-05 -3.6018617e-06 -4.5713838e-10)
(-4.9011643e-05 -9.4460917e-07 -1.1499476e-10)
(-4.8892919e-05 -1.8637992e-06 -2.0336856e-10)
(-4.8273831e-05 -3.0309193e-06 -2.8463657e-10)
(-4.6602558e-05 -8.1144924e-07 -8.7977173e-11)
(-4.6515264e-05 -1.6156673e-06 -1.3684405e-10)
(-4.5981084e-05 -2.6545193e-06 -1.7830665e-10)
(-4.4474925e-05 -7.3725701e-07 -7.0184243e-11)
(-4.4411732e-05 -1.4639787e-06 -9.5212526e-11)
(-4.3944929e-05 -2.403292e-06 -1.1361956e-10)
(-4.2527741e-05 -6.8822294e-07 -5.8812497e-11)
(-4.2483107e-05 -1.3760922e-06 -6.9717174e-11)
(-4.2070487e-05 -2.2616705e-06 -7.4955497e-11)
(-4.0689129e-05 -6.4825474e-07 -5.2518879e-11)
(-4.0658889e-05 -1.3047218e-06 -5.5425393e-11)
(-4.0289445e-05 -2.1605127e-06 -5.2882403e-11)
(-3.890645e-05 -6.3560712e-07 -4.7666832e-11)
(-3.8887157e-05 -1.296717e-06 -4.5861516e-11)
(-3.8552608e-05 -2.1431385e-06 -3.9653715e-11)
(-3.7142727e-05 -6.3031578e-07 -4.4687569e-11)
(-3.7131439e-05 -1.300526e-06 -4.0125462e-11)
(-3.6826577e-05 -2.1436115e-06 -3.225382e-11)
(-3.537705e-05 -6.2966567e-07 -4.2758363e-11)
(-3.5371021e-05 -1.3146205e-06 -3.6593884e-11)
(-3.5092218e-05 -2.1661044e-06 -2.8076485e-11)
(-3.3602533e-05 -6.342628e-07 -4.1185812e-11)
(-3.3601395e-05 -1.3394075e-06 -3.408738e-11)
(-3.33425e-05 -2.2026982e-06 -2.560681e-11)
(-3.1815052e-05 -6.374538e-07 -4.0389993e-11)
(-3.1816274e-05 -1.3513503e-06 -3.2798591e-11)
(-3.1576016e-05 -2.2205876e-06 -2.4457789e-11)
(-3.0020475e-05 -6.3543672e-07 -3.969607e-11)
(-3.0022036e-05 -1.3601482e-06 -3.1773138e-11)
(-2.9800061e-05 -2.2317371e-06 -2.3790085e-11)
(-2.8234595e-05 -6.2895583e-07 -3.908948e-11)
(-2.8237122e-05 -1.3573197e-06 -3.0898192e-11)
(-2.8029437e-05 -2.22518e-06 -2.3361468e-11)
(-2.6470883e-05 -6.1641982e-07 -3.8597846e-11)
(-2.6473109e-05 -1.3401909e-06 -3.018002e-11)
(-2.627912e-05 -2.1966926e-06 -2.3081016e-11)
(-2.474399e-05 -5.9780413e-07 -3.8169676e-11)
(-2.4747452e-05 -1.3098108e-06 -2.9562158e-11)
(-2.4565623e-05 -2.1471548e-06 -2.2876085e-11)
(-2.3073311e-05 -5.751551e-07 -3.7859848e-11)
(-2.3077823e-05 -1.2638456e-06 -2.9088677e-11)
(-2.2907357e-05 -2.0702217e-06 -2.2771092e-11)
(-2.1478568e-05 -5.4587288e-07 -3.7580951e-11)
(-2.1481984e-05 -1.2024185e-06 -2.8710725e-11)
(-2.1322855e-05 -1.9659809e-06 -2.2770594e-11)
(-1.9974848e-05 -5.0955835e-07 -3.7424784e-11)
(-1.9977133e-05 -1.1270303e-06 -2.8424541e-11)
(-1.9828426e-05 -1.8430714e-06 -2.2788175e-11)
(-1.8577827e-05 -4.7035257e-07 -3.7215632e-11)
(-1.8579094e-05 -1.0387645e-06 -2.8197731e-11)
(-1.8439675e-05 -1.6964225e-06 -2.2841916e-11)
(-1.7302396e-05 -4.245606e-07 -3.7121076e-11)
(-1.7302414e-05 -9.4146513e-07 -2.8036803e-11)
(-1.7171059e-05 -1.5393226e-06 -2.2913047e-11)
(-1.6164649e-05 -3.7385814e-07 -3.7053945e-11)
(-1.6162088e-05 -8.3198803e-07 -2.7925874e-11)
(-1.6037335e-05 -1.3606454e-06 -2.301215e-11)
(-1.5194982e-05 -3.1714404e-07 -3.7060871e-11)
(-1.5189464e-05 -7.1042235e-07 -2.7920076e-11)
(-1.5065351e-05 -1.1640451e-06 -2.3147045e-11)
(-1.4387642e-05 -2.5598756e-07 -3.7137478e-11)
(-1.4391079e-05 -5.7438964e-07 -2.7984264e-11)
(-1.4276832e-05 -9.4427762e-07 -2.3231569e-11)
(-1.3702993e-05 -2.0765558e-07 -3.720971e-11)
(-1.3708985e-05 -4.5160262e-07 -2.792555e-11)
(-1.360974e-05 -7.2785096e-07 -2.3010261e-11)
(-1.317876e-05 -1.4430008e-07 -3.7213523e-11)
(-1.3177606e-05 -3.1518351e-07 -2.7321102e-11)
(-1.3079652e-05 -5.1176006e-07 -2.19492e-11)
(-1.2873866e-05 -8.0525035e-08 -3.6526072e-11)
(-1.2871789e-05 -1.7547064e-07 -2.50653e-11)
(-1.277094e-05 -2.8806569e-07 -1.9065777e-11)
(-1.278215e-05 -1.8928028e-08 -3.3384523e-11)
(-1.2778613e-05 -3.9731163e-08 -1.8976284e-11)
(-1.2676081e-05 -6.7778275e-08 -1.2892281e-11)
(-0.047032893 1.943591 -3.5170088e-07)
(-0.033033095 1.6911712 -3.4432998e-06)
(-0.063199721 0.33672607 -2.5094481e-07)
(-0.043578466 0.14871175 -1.0157822e-06)
(-0.016887206 -0.043279336 -2.2044832e-07)
(-0.012543108 -0.045142039 -6.4685539e-07)
(-0.0066216429 -0.014287479 -1.2853295e-07)
(-0.0057165158 -0.015820605 -4.2565797e-07)
(-0.0019649332 -0.0029881391 -1.2871747e-07)
(-0.0018046996 -0.0038616264 -3.1337441e-07)
(-0.00087112735 -0.00089637633 -1.3879965e-07)
(-0.00066254768 -0.001108869 -2.5064992e-07)
(-0.00056054258 -0.00036656472 -1.3709559e-07)
(-0.00040215062 -0.00037239935 -2.0753046e-07)
(-0.00043834433 -0.00013291336 -1.2505452e-07)
(-0.00033310599 -0.00011966313 -1.7208673e-07)
(-0.00039651606 -8.7154296e-05 -1.0706641e-07)
(-0.0003270732 -8.1844588e-05 -1.4038112e-07)
(-0.00036217493 -0.00010770265 -8.7378663e-08)
(-0.00031598983 -0.00012423907 -1.120561e-07)
(-0.00030457357 -0.00012525172 -6.9041878e-08)
(-0.00027384043 -0.00015107784 -8.778895e-08)
(-0.00024078941 -0.00011420399 -5.348442e-08)
(-0.00021897685 -0.00013980571 -6.7790141e-08)
(-0.00018848905 -8.6694069e-05 -4.0901927e-08)
(-0.00017339652 -0.0001067699 -5.1729811e-08)
(-0.0001536922 -5.8660031e-05 -3.0910147e-08)
(-0.00014287897 -7.2598657e-05 -3.8993621e-08)
(-0.00012806769 -3.9101549e-05 -2.3027377e-08)
(-0.00011977185 -4.7861381e-05 -2.896141e-08)
(-0.000109145 -2.7672722e-05 -1.6837598e-08)
(-0.00010268826 -3.3032137e-05 -2.1116667e-08)
(-9.4757346e-05 -2.1358373e-05 -1.2034408e-08)
(-8.9698323e-05 -2.5734123e-05 -1.5062389e-08)
(-8.3460129e-05 -1.7708788e-05 -8.3877844e-09)
(-7.940358e-05 -2.1531089e-05 -1.048704e-08)
(-7.4422347e-05 -1.4756984e-05 -5.6989066e-09)
(-7.1111535e-05 -1.8104845e-05 -7.1220033e-09)
(-6.7158136e-05 -1.2080437e-05 -3.7792119e-09)
(-6.4422393e-05 -1.52096e-05 -4.7207563e-09)
(-6.1328068e-05 -1.0024761e-05 -2.4518712e-09)
(-5.9048119e-05 -1.2371784e-05 -3.0588163e-09)
(-5.6658954e-05 -7.8734791e-06 -1.5608205e-09)
(-5.4742084e-05 -9.6621521e-06 -1.9411408e-09)
(-5.2910778e-05 -6.1266088e-06 -9.7624369e-10)
(-5.1286416e-05 -7.5396272e-06 -1.2079215e-09)
(-4.9869047e-05 -4.8564586e-06 -6.0122023e-10)
(-4.8482644e-05 -6.0267829e-06 -7.3784184e-10)
(-4.7344103e-05 -4.0634287e-06 -3.65502e-10)
(-4.6150248e-05 -5.0298936e-06 -4.4292499e-10)
(-4.5174992e-05 -3.5789517e-06 -2.204984e-10)
(-4.4135841e-05 -4.4349586e-06 -2.6181702e-10)
(-4.3237283e-05 -3.2668662e-06 -1.3317622e-10)
(-4.232077e-05 -4.0626634e-06 -1.5310098e-10)
(-4.1441658e-05 -3.0724357e-06 -8.1699185e-11)
(-4.0623022e-05 -3.832602e-06 -8.9358027e-11)
(-3.9723597e-05 -2.9580508e-06 -5.2130625e-11)
(-3.8985909e-05 -3.7111551e-06 -5.2852344e-11)
(-3.8038263e-05 -2.9310361e-06 -3.5271096e-11)
(-3.7367765e-05 -3.6766869e-06 -3.2445338e-11)
(-3.6356016e-05 -2.9427027e-06 -2.6069946e-11)
(-3.5740745e-05 -3.7177732e-06 -2.1360243e-11)
(-3.4659206e-05 -2.9796921e-06 -2.1174066e-11)
(-3.4090538e-05 -3.7709454e-06 -1.5680378e-11)
(-3.2941417e-05 -3.0281982e-06 -1.8633499e-11)
(-3.2413359e-05 -3.8343158e-06 -1.2949159e-11)
(-3.1202893e-05 -3.0763638e-06 -1.7431606e-11)
(-3.071078e-05 -3.9075188e-06 -1.173708e-11)
(-2.9452031e-05 -3.0912e-06 -1.7038642e-11)
(-2.8991917e-05 -3.9304814e-06 -1.1507574e-11)
(-2.7703815e-05 -3.0792238e-06 -1.6996582e-11)
(-2.727264e-05 -3.9174342e-06 -1.170914e-11)
(-2.5974288e-05 -3.0401319e-06 -1.7089206e-11)
(-2.5569777e-05 -3.8695247e-06 -1.206456e-11)
(-2.4280247e-05 -2.9716108e-06 -1.7233554e-11)
(-2.390165e-05 -3.7815729e-06 -1.2470496e-11)
(-2.2640362e-05 -2.8665775e-06 -1.7441436e-11)
(-2.2286436e-05 -3.6485373e-06 -1.2911703e-11)
(-2.107325e-05 -2.7197932e-06 -1.7729415e-11)
(-2.07418e-05 -3.4629556e-06 -1.3394522e-11)
(-1.9595033e-05 -2.5511885e-06 -1.7993181e-11)
(-1.9284707e-05 -3.2495028e-06 -1.3837413e-11)
(-1.8220802e-05 -2.3533766e-06 -1.8257805e-11)
(-1.7930335e-05 -3.0006625e-06 -1.426135e-11)
(-1.6965293e-05 -2.1305499e-06 -1.8520265e-11)
(-1.6692564e-05 -2.7133351e-06 -1.4663486e-11)
(-1.5842817e-05 -1.8844681e-06 -1.8763987e-11)
(-1.558479e-05 -2.3993127e-06 -1.500974e-11)
(-1.4874751e-05 -1.6132431e-06 -1.8978633e-11)
(-1.4624294e-05 -2.0554154e-06 -1.5278029e-11)
(-1.4094726e-05 -1.312189e-06 -1.9056313e-11)
(-1.3851695e-05 -1.6777902e-06 -1.5359989e-11)
(-1.3448996e-05 -1.0028884e-06 -1.8731365e-11)
(-1.323119e-05 -1.2765767e-06 -1.5018805e-11)
(-1.2927306e-05 -7.0773264e-07 -1.752149e-11)
(-1.27244e-05 -8.9666768e-07 -1.386875e-11)
(-1.2613707e-05 -3.9938931e-07 -1.4708849e-11)
(-1.2405386e-05 -5.079225e-07 -1.1402326e-11)
(-1.2516928e-05 -9.4761754e-08 -9.4128677e-12)
(-1.2306301e-05 -1.207321e-07 -7.0814783e-12)
(0.0019974905 -3.7749076e-05 -1.1634667e-07)
(0.0019340395 -0.00016509128 -2.7596619e-07)
(0.001820257 -0.00021222242 -3.9056182e-07)
(0.0016827346 -0.00027634157 -4.6305495e-07)
(0.0015360843 -0.00031487633 -5.0243417e-07)
(0.001388748 -0.00036070311 -5.1889749e-07)
(0.0012474044 -0.00040020907 -5.2010784e-07)
(0.0011181256 -0.00044691052 -5.1143219e-07)
(0.0010043471 -0.00050315468 -4.9661687e-07)
(0.00090615019 -0.00056631426 -4.7825772e-07)
(0.00082173623 -0.00063458209 -4.5816066e-07)
(0.00074793098 -0.00070440146 -4.3742186e-07)
(0.00068192766 -0.0007707769 -4.1658055e-07)
(0.0006215923 -0.00083343304 -3.9573997e-07)
(0.00056459894 -0.00089261684 -3.7477124e-07)
(0.00050916681 -0.00094524486 -3.5339492e-07)
(0.00045419631 -0.00099078848 -3.312136e-07)
(0.00039916263 -0.0010283455 -3.0765614e-07)
(0.0003442142 -0.0010558661 -2.8209405e-07)
(0.00028944412 -0.0010737486 -2.537994e-07)
(0.00023499727 -0.0010820736 -2.2199032e-07)
(0.00018123744 -0.0010808846 -1.8549178e-07)
(0.00012837033 -0.0010702053 -1.4329425e-07)
(7.6296005e-05 -0.001055437 -9.4784246e-08)
(2.4578973e-05 -0.0010056304 -3.954178e-08)
(0.00037556986 -0.00016993393 -1.3235986e-07)
(0.00036350305 -0.00061405746 -3.0970006e-07)
(0.00035080338 -0.00087870002 -4.3030492e-07)
(0.00034300762 -0.0012193181 -5.0011003e-07)
(0.00034537446 -0.0014909441 -5.3328187e-07)
(0.00035947627 -0.0017882002 -5.4352262e-07)
(0.00038340685 -0.0020712056 -5.3952165e-07)
(0.00040985548 -0.0023745064 -5.2686095e-07)
(0.00042754388 -0.0026955295 -5.0907026e-07)
(0.00043400545 -0.0030090419 -4.8845656e-07)
(0.00042996179 -0.0033118514 -4.667813e-07)
(0.00041646586 -0.0036011281 -4.4500434e-07)
(0.00039537573 -0.0038726213 -4.2353675e-07)
(0.00036773907 -0.004122913 -4.0233323e-07)
(0.00033675248 -0.0043495233 -3.8117101e-07)
(0.00030452344 -0.0045550577 -3.5974423e-07)
(0.00027179425 -0.0047512447 -3.3770824e-07)
(0.00023884276 -0.0049314949 -3.1435587e-07)
(0.00020544786 -0.0050723334 -2.8910649e-07)
(0.00017163002 -0.0051658339 -2.611639e-07)
(0.00013772123 -0.0052094241 -2.3006305e-07)
(0.00010429343 -0.0052054336 -1.9391934e-07)
(7.1629816e-05 -0.0051572181 -1.513842e-07)
(4.0158172e-05 -0.0050502202 -1.0076223e-07)
(1.095602e-05 -0.004822068 -4.355065e-08)
(0.0013154163 -0.00037353457 -1.7071318e-07)
(0.0013036423 -0.0016567891 -3.8518179e-07)
(0.0013014172 -0.0022373146 -5.138801e-07)
(0.0013215925 -0.0031585641 -5.7351233e-07)
(0.0013495603 -0.0039042035 -5.9253089e-07)
(0.0013695988 -0.0046826681 -5.900709e-07)
(0.0013710286 -0.0054542888 -5.7582785e-07)
(0.0013487986 -0.0063767029 -5.5574431e-07)
(0.0013072844 -0.007417517 -5.3258035e-07)
(0.0012494336 -0.0083751644 -5.0774898e-07)
(0.0011800142 -0.0092086595 -4.8323799e-07)
(0.001101754 -0.0099149127 -4.5965829e-07)
(0.0010182326 -0.010493044 -4.3724022e-07)
(0.000931776 -0.010951498 -4.1555945e-07)
(0.00084309814 -0.01129659 -3.9422291e-07)
(0.00075319451 -0.011530262 -3.728594e-07)
(0.00066354609 -0.011645069 -3.5152938e-07)
(0.00057513158 -0.011658619 -3.2884732e-07)
(0.00048841127 -0.011599645 -3.0467411e-07)
(0.00040394601 -0.011483697 -2.7823163e-07)
(0.00032237603 -0.011320642 -2.4859418e-07)
(0.00024420502 -0.011119312 -2.1424946e-07)
(0.00016894639 -0.010886375 -1.7311527e-07)
(9.6938085e-05 -0.010592139 -1.2161794e-07)
(2.9781133e-05 -0.010190044 -5.9663165e-08)
(0.0039678614 -0.0011136564 -2.5329427e-07)
(0.0039020346 -0.0048686932 -5.2518332e-07)
(0.003800479 -0.0062318787 -6.5136728e-07)
(0.003599168 -0.0094612722 -6.8464321e-07)
(0.0033720611 -0.012341582 -6.7850292e-07)
(0.0031064187 -0.014901339 -6.5623142e-07)
(0.0028254595 -0.016713363 -6.2686431e-07)
(0.0025397591 -0.017667229 -5.974395e-07)
(0.0022661277 -0.017940201 -5.6818858e-07)
(0.0020059892 -0.017790207 -5.3749841e-07)
(0.0017698576 -0.017325509 -5.0942426e-07)
(0.0015530678 -0.016668126 -4.8353059e-07)
(0.0013549559 -0.015836832 -4.6026317e-07)
(0.0011630713 -0.014884462 -4.3823834e-07)
(0.00099078795 -0.013863339 -4.1690025e-07)
(0.00083801539 -0.012818856 -3.9597164e-07)
(0.00070328967 -0.01178981 -3.7511025e-07)
(0.00058478647 -0.010809897 -3.5379127e-07)
(0.00048082501 -0.0099022805 -3.3150036e-07)
(0.00038922615 -0.0090864417 -3.0756828e-07)
(0.00030747442 -0.0083753642 -2.8113086e-07)
(0.00023276856 -0.0077738877 -2.5092631e-07)
(0.00016394592 -0.0072820542 -2.1506213e-07)
(9.9192843e-05 -0.0068577155 -1.7036744e-07)
(3.6635721e-05 -0.0065498864 -1.0687215e-07)
(0.0119865 -0.0088345125 -4.4135376e-07)
(0.0095276811 -0.02590827 -7.6171753e-07)
(0.0082443492 -0.028434332 -8.49083e-07)
(0.0064433051 -0.032734291 -8.376809e-07)
(0.0049766043 -0.030170347 -7.9876532e-07)
(0.0037068861 -0.026370875 -7.5089577e-07)
(0.002650173 -0.021655566 -7.0335913e-07)
(0.0018102951 -0.016679812 -6.5903874e-07)
(0.0011554519 -0.011708993 -6.1948391e-07)
(0.00065339382 -0.0071106331 -5.8312579e-07)
(0.00026682527 -0.0029534696 -5.503862e-07)
(-1.7128325e-05 0.00061458001 -5.1997641e-07)
(-0.00021959706 0.0039316739 -4.9557489e-07)
(-0.00034911542 0.0070970503 -4.7250704e-07)
(-0.00043049602 0.010008843 -4.5029207e-07)
(-0.0004713633 0.012537251 -4.2907402e-07)
(-0.00048018509 0.014649859 -4.085035e-07)
(-0.00046377155 0.016364817 -3.8813523e-07)
(-0.00042759386 0.017710182 -3.6748767e-07)
(-0.00037630693 0.018714988 -3.4602087e-07)
(-0.00031419104 0.019404941 -3.2306618e-07)
(-0.00024539559 0.019806352 -2.9768348e-07)
(-0.00017191005 0.019917122 -2.6835613e-07)
(-9.6985133e-05 0.019794649 -2.3966668e-07)
(-2.2185244e-05 0.019099619 -2.1108951e-07)
(0.015128515 0.023074683 -7.9949176e-07)
(0.0039787536 -0.001904134 -1.1322177e-06)
(0.001097798 0.047632067 -1.1358607e-06)
(-0.00086807291 0.050479032 -1.06357e-06)
(-0.0025466776 0.064797604 -9.8701325e-07)
(-0.0037854837 0.075164405 -9.0088236e-07)
(-0.0044766147 0.082390676 -8.2364308e-07)
(-0.0046979418 0.088422721 -7.5670161e-07)
(-0.0046294818 0.092868781 -6.9861747e-07)
(-0.0044126422 0.095637451 -6.489661e-07)
(-0.004130429 0.097221679 -6.0711816e-07)
(-0.0037868242 0.097724115 -5.6367686e-07)
(-0.0034371725 0.097475978 -5.3888758e-07)
(-0.0030942622 0.096193392 -5.1218808e-07)
(-0.0027482146 0.094052436 -4.8586421e-07)
(-0.0024104839 0.091640429 -4.623478e-07)
(-0.0020911994 0.089024158 -4.4055776e-07)
(-0.001791327 0.086287796 -4.1982322e-07)
(-0.0015101285 0.083508418 -3.9959825e-07)
(-0.001245816 0.080744416 -3.793767e-07)
(-0.00099591825 0.07803289 -3.5862827e-07)
(-0.00075782903 0.075416309 -3.3670992e-07)
(-0.00052970699 0.072866972 -3.1295581e-07)
(-0.00030979245 0.070572201 -2.8828511e-07)
(-9.2787611e-05 0.067096125 -2.6407578e-07)
(-0.0011422181 1.1711015 -2.5120121e-06)
(-0.0005299418 0.96002654 -1.9922987e-06)
(-0.00092154697 0.86473759 -1.6179521e-06)
(-0.00067701855 0.77261495 -1.334122e-06)
(-0.00060698277 0.67682627 -1.1213826e-06)
(-0.00053866818 0.58560033 -9.641212e-07)
(-0.00046622112 0.50732319 -8.4716667e-07)
(-0.0003998217 0.4437157 -7.6077618e-07)
(-0.00034052334 0.39124092 -6.9157391e-07)
(-0.00028963128 0.34644522 -6.3876783e-07)
(-0.00023837593 0.30778815 -5.9812164e-07)
(-0.00019450346 0.27452277 -5.6283739e-07)
(-0.00015679634 0.24607397 -5.3361464e-07)
(-0.00013368132 0.2217177 -5.0798376e-07)
(-0.00011216276 0.20079739 -4.8469249e-07)
(-9.4102023e-05 0.18283343 -4.6326532e-07)
(-7.8662274e-05 0.16739711 -4.431861e-07)
(-6.548251e-05 0.15412655 -4.2398116e-07)
(-5.4100242e-05 0.14272011 -4.0523349e-07)
(-4.408882e-05 0.13292917 -3.8655913e-07)
(-3.5017712e-05 0.12453811 -3.6756239e-07)
(-2.6371259e-05 0.11740532 -3.4772128e-07)
(-1.8144299e-05 0.11128966 -3.2672262e-07)
(-1.036796e-05 0.10647339 -3.0433461e-07)
(-2.9381984e-06 0.10046663 -2.8003905e-07)
(-0.013167406 0.088402498 -1.2358402e-06)
(-0.002679076 0.096993427 -1.2772161e-06)
(-0.00021962841 0.10316445 -1.2322469e-06)
(0.0015154618 0.10506315 -1.1416001e-06)
(0.0030209509 0.10730312 -1.0386231e-06)
(0.0041307441 0.10909441 -9.3853241e-07)
(0.0047315175 0.11081628 -8.4908699e-07)
(0.0048862621 0.11238539 -7.7253606e-07)
(0.0047690456 0.11321883 -6.9185323e-07)
(0.0044983059 0.11330667 -6.4728774e-07)
(0.004188394 0.11262437 -6.0689672e-07)
(0.0038563493 0.11097095 -5.6433428e-07)
(0.0034888527 0.10846341 -5.2869932e-07)
(0.0031205297 0.10545702 -4.981742e-07)
(0.0027634273 0.10219614 -4.7143775e-07)
(0.0024226447 0.098805306 -4.4755934e-07)
(0.0021003817 0.095368495 -4.2578563e-07)
(0.0017970708 0.091954241 -4.0546772e-07)
(0.0015126519 0.08861403 -3.8603242e-07)
(0.0012457484 0.085385717 -3.6693903e-07)
(0.00099434484 0.082291064 -3.4759688e-07)
(0.00075623252 0.079359834 -3.2723975e-07)
(0.00052877397 0.076554875 -3.0619601e-07)
(0.00030975938 0.074067752 -2.8324043e-07)
(9.3354404e-05 0.070378239 -2.6010046e-07)
(-0.0097881033 -0.042478785 -8.6804396e-07)
(-0.0081506157 -0.039999992 -9.3377735e-07)
(-0.0066347962 -0.038005166 -9.2061193e-07)
(-0.0051830629 -0.034350769 -8.74111e-07)
(-0.0038601156 -0.029267492 -8.1547289e-07)
(-0.0027284821 -0.023561549 -7.5399866e-07)
(-0.0018018854 -0.017716303 -6.9683731e-07)
(-0.0010761682 -0.012045443 -6.4473074e-07)
(-0.00052244475 -0.0069771503 -5.9615542e-07)
(-0.00010740742 -0.002496829 -5.5977642e-07)
(0.00019609594 0.001352339 -5.2652434e-07)
(0.00040881796 0.0051085882 -4.9556428e-07)
(0.00054843829 0.008691267 -4.6775794e-07)
(0.00063195981 0.011894371 -4.4279649e-07)
(0.00067104541 0.014650894 -4.2011157e-07)
(0.00067512307 0.016960744 -3.9917165e-07)
(0.0006520959 0.018859212 -3.7952852e-07)
(0.00060861165 0.020387127 -3.6067819e-07)
(0.00054877672 0.0215663 -3.4210637e-07)
(0.00047624161 0.022418224 -3.2322826e-07)
(0.00039423896 0.022964437 -3.0323309e-07)
(0.00030573987 0.023226102 -2.8070979e-07)
(0.00021349102 0.023213372 -2.5851776e-07)
(0.00012077237 0.022970372 -2.3159791e-07)
(2.9258656e-05 0.022124514 -2.051588e-07)
(-0.0051814839 -0.017164914 -5.9966351e-07)
(-0.0047836718 -0.019383576 -6.7565829e-07)
(-0.0044156937 -0.021894274 -6.9059216e-07)
(-0.0040425126 -0.023713421 -6.7368582e-07)
(-0.0036457169 -0.024841195 -6.4384599e-07)
(-0.0032485771 -0.025158386 -6.1126223e-07)
(-0.0028786857 -0.024834933 -5.7161189e-07)
(-0.0025340373 -0.024085253 -5.3455533e-07)
(-0.0022180511 -0.023074559 -5.0082271e-07)
(-0.0019338663 -0.021870414 -4.7202943e-07)
(-0.0016787598 -0.020556403 -4.458832e-07)
(-0.0014432364 -0.019114438 -4.2178088e-07)
(-0.0012308537 -0.017613221 -3.9968377e-07)
(-0.0010438232 -0.016104713 -3.7940276e-07)
(-0.0008802862 -0.014624111 -3.6040505e-07)
(-0.00073789144 -0.013203866 -3.4226588e-07)
(-0.00061408194 -0.011880514 -3.2484896e-07)
(-0.00050598925 -0.010684129 -3.0757322e-07)
(-0.00041211783 -0.0096204165 -2.8989597e-07)
(-0.00033059875 -0.0086906384 -2.7116487e-07)
(-0.00025940092 -0.0078952025 -2.5048247e-07)
(-0.00019636295 -0.0072335967 -2.2662047e-07)
(-0.00013936692 -0.006702312 -1.9831191e-07)
(-8.6002487e-05 -0.0062606554 -1.6002592e-07)
(-3.3475191e-05 -0.0059600403 -1.0259318e-07)
(-0.0017649916 -0.0046898099 -4.3975812e-07)
(-0.0017611306 -0.0055047442 -5.0992666e-07)
(-0.001787173 -0.006347782 -5.3753109e-07)
(-0.0018078584 -0.0071738696 -5.3847744e-07)
(-0.0018153704 -0.0080293043 -5.2460254e-07)
(-0.0017912923 -0.0090554914 -5.0314644e-07)
(-0.0017361074 -0.010174697 -4.7677105e-07)
(-0.0016553324 -0.01114564 -4.5002656e-07)
(-0.0015586811 -0.011960879 -4.2475104e-07)
(-0.0014495951 -0.012620472 -4.0168453e-07)
(-0.0013375333 -0.013143413 -3.8038573e-07)
(-0.0012258992 -0.013530431 -3.6056109e-07)
(-0.001114965 -0.013787777 -3.4204766e-07)
(-0.0010059015 -0.013897044 -3.25014e-07)
(-0.00089973183 -0.013884115 -3.0856339e-07)
(-0.0007967579 -0.013789228 -2.9274588e-07)
(-0.00069791452 -0.013636184 -2.7690991e-07)
(-0.00060337941 -0.013439477 -2.6073496e-07)
(-0.00051232835 -0.013208345 -2.4371067e-07)
(-0.0004243999 -0.012949689 -2.2518717e-07)
(-0.00033940247 -0.012669032 -2.041824e-07)
(-0.00025726004 -0.012371741 -1.7924769e-07)
(-0.00017808158 -0.012061065 -1.4825908e-07)
(-0.00010226987 -0.011699001 -1.0680237e-07)
(-3.1660733e-05 -0.011244496 -5.4119309e-08)
(-0.00050244868 -0.0013469619 -3.3755759e-07)
(-0.00042690922 -0.0016350356 -3.938777e-07)
(-0.00041221094 -0.0019673262 -4.2308172e-07)
(-0.00044268597 -0.0023211914 -4.3238757e-07)
(-0.00050253713 -0.002694271 -4.2858197e-07)
(-0.00056269794 -0.003104431 -4.1670953e-07)
(-0.00060637965 -0.0035432003 -4.0002756e-07)
(-0.00062986122 -0.0039624109 -3.8141968e-07)
(-0.0006355938 -0.0043518749 -3.6261682e-07)
(-0.00062900048 -0.004707386 -3.444757e-07)
(-0.00061078964 -0.0050304078 -3.271932e-07)
(-0.00058370711 -0.0053210346 -3.1077466e-07)
(-0.00055008297 -0.0055914464 -2.9517362e-07)
(-0.00051158267 -0.005868312 -2.8033382e-07)
(-0.00046969929 -0.0061433027 -2.6592403e-07)
(-0.00042517414 -0.0063794008 -2.5172851e-07)
(-0.0003789425 -0.0065681341 -2.3735909e-07)
(-0.00033191833 -0.0067072971 -2.2243349e-07)
(-0.00028450726 -0.0067965473 -2.0646349e-07)
(-0.00023702104 -0.0068354733 -1.8899271e-07)
(-0.00018981543 -0.0068250626 -1.6916975e-07)
(-0.00014335168 -0.006768365 -1.4556406e-07)
(-9.820665e-05 -0.0066698866 -1.1680795e-07)
(-5.500958e-05 -0.0065115155 -8.0479932e-08)
(-1.5291254e-05 -0.0062200767 -3.7053653e-08)
(-0.0002539944 -0.0003430269 -2.668658e-07)
(-0.00014849606 -0.00032746043 -3.0967366e-07)
(-7.7429377e-05 -0.0003512982 -3.3575693e-07)
(-4.6529215e-05 -0.00040059126 -3.4786245e-07)
(-3.5973066e-05 -0.0004772559 -3.4958291e-07)
(-4.3992681e-05 -0.00057826632 -3.4414346e-07)
(-6.4972314e-05 -0.00069945938 -3.3409931e-07)
(-8.8993391e-05 -0.00083238389 -3.2152398e-07)
(-0.00010820725 -0.00097081476 -3.0785103e-07)
(-0.0001284161 -0.0011072571 -2.939373e-07)
(-0.00014237747 -0.0012360559 -2.8019739e-07)
(-0.00014938109 -0.0013539742 -2.6680695e-07)
(-0.00015076378 -0.0014606085 -2.5381273e-07)
(-0.00014698745 -0.0015580861 -2.4117079e-07)
(-0.0001394348 -0.0016449361 -2.2871551e-07)
(-0.00012902272 -0.0017177677 -2.1624263e-07)
(-0.00011686997 -0.0017768336 -2.0347307e-07)
(-0.00010360942 -0.0018219346 -1.9008581e-07)
(-8.966005e-05 -0.0018529545 -1.7569912e-07)
(-7.5347257e-05 -0.0018697699 -1.5988988e-07)
(-6.0923025e-05 -0.00187233 -1.4213056e-07)