/*--------------------------------*- C++ -*----------------------------------*\
| =========                 |                                                 |
| \\      /  F ield         | OpenFOAM: The Open Source CFD Toolbox           |
|  \\    /   O peration     | Version:  4.0                                   |
|   \\  /    A nd           | Web:      www.OpenFOAM.org                      |
|    \\/     M anipulation  |                                                 |
\*---------------------------------------------------------------------------*/
FoamFile
{
    version     2.0;
    format      ascii;
    class       volScalarField;
    location    "0.64";
    object      nut;
}
// * * * * * * * * * * * * * * * * * * * * * * * * * * * * * * * * * * * * * //

dimensions      [0 2 -1 0 0 0 0];

internalField   nonuniform List<scalar> 
1740
(
2.3378377e-05
1.4293212e-05
1.2295383e-06
1.3540153e-05
7.1214519e-06
1.8215286e-06
1.4810239e-05
5.3903872e-06
2.2792039e-06
1.2895452e-05
4.7042998e-06
2.7217937e-06
1.8990249e-05
4.2951418e-06
3.1054762e-06
1.5893296e-05
4.0125963e-06
3.3816743e-06
1.3684653e-05
3.83024e-06
3.6325678e-06
1.2098705e-05
3.714585e-06
3.8337617e-06
1.0685355e-05
3.6307726e-06
3.9986162e-06
9.5358085e-06
3.5672839e-06
4.1431643e-06
8.6048921e-06
3.5243952e-06
4.2735864e-06
7.8547877e-06
3.5026388e-06
4.3679175e-06
7.3312374e-06
3.4909693e-06
4.4111495e-06
6.9038356e-06
3.4742878e-06
4.4709424e-06
6.4550977e-06
3.4611223e-06
4.5369134e-06
6.0920943e-06
3.4729595e-06
4.598113e-06
5.8045128e-06
3.4979421e-06
4.6088211e-06
5.5952578e-06
3.5026046e-06
4.6400393e-06
5.3839584e-06
3.5041274e-06
4.6778632e-06
5.1831195e-06
3.5195123e-06
4.6451473e-06
4.9981242e-06
3.5012092e-06
4.654781e-06
4.8461302e-06
3.5017549e-06
4.6937644e-06
4.6958854e-06
3.5271221e-06
4.7405512e-06
4.5647548e-06
3.5622408e-06
4.7405903e-06
4.4512809e-06
3.5598186e-06
4.7051192e-06
4.3676045e-06
3.5502727e-06
4.6660717e-06
4.2871701e-06
3.5598213e-06
4.6514074e-06
4.2120606e-06
3.5703138e-06
4.6596217e-06
4.1699102e-06
3.5966712e-06
4.6200769e-06
2.9252909e-06
3.5308052e-06
4.3183454e-06
1.901964e-06
2.2054633e-06
4.4327549e-06
7.1849734e-06
7.3614755e-06
6.7243314e-06
6.5382206e-06
6.7432111e-06
6.3756033e-06
5.1736207e-06
5.1127867e-06
4.870694e-06
4.3322582e-06
4.2610923e-06
4.1282343e-06
3.7939604e-06
3.7517798e-06
3.693379e-06
3.4355204e-06
3.4187106e-06
3.4050981e-06
3.1832473e-06
3.1821196e-06
3.1928396e-06
2.9894633e-06
2.9965451e-06
3.01899e-06
2.8213585e-06
2.8320125e-06
2.858837e-06
2.655547e-06
2.6671527e-06
2.6942868e-06
2.4758871e-06
2.4870652e-06
2.5123781e-06
2.2726922e-06
2.2827709e-06
2.3052454e-06
2.0425681e-06
2.0512655e-06
2.070509e-06
1.7884135e-06
1.7956565e-06
1.8116183e-06
1.519009e-06
1.5248392e-06
1.5376614e-06
1.2476371e-06
1.2521647e-06
1.2621123e-06
9.8948288e-07
9.9286435e-07
1.00029e-06
7.5826995e-07
7.6069192e-07
7.6600951e-07
5.63293e-07
5.6495465e-07
5.6860343e-07
4.0803682e-07
4.0912944e-07
4.1153088e-07
2.9073677e-07
2.9142689e-07
2.9294767e-07
2.0631476e-07
2.0673989e-07
2.0767608e-07
1.4821674e-07
1.4847437e-07
1.4903975e-07
1.0964895e-07
1.0980323e-07
1.1014124e-07
8.4921066e-08
8.501394e-08
8.5217308e-08
6.968693e-08
6.9744467e-08
6.9870511e-08
6.0786417e-08
6.0824087e-08
6.0906779e-08
5.6006506e-08
5.6033116e-08
5.6091806e-08
5.3843983e-08
5.3864357e-08
5.3909648e-08
5.3302762e-08
5.331947e-08
5.3356976e-08
5.3735747e-08
5.3750144e-08
5.3782765e-08
5.4729271e-08
5.4742081e-08
5.4771298e-08
5.6022687e-08
5.6034303e-08
5.6060881e-08
5.7454139e-08
5.7464782e-08
5.7489136e-08
5.8924605e-08
5.8934405e-08
5.895679e-08
6.0374334e-08
6.0383381e-08
6.0403986e-08
6.1767679e-08
6.1776042e-08
6.179503e-08
6.3083606e-08
6.3091351e-08
6.3108878e-08
6.4310075e-08
6.4317264e-08
6.4333486e-08
6.5441042e-08
6.5447741e-08
6.5462817e-08
6.6475339e-08
6.6481629e-08
6.6495727e-08
6.7416544e-08
6.7422554e-08
6.7435881e-08
6.8238976e-08
6.8244713e-08
6.825735e-08
6.8930671e-08
6.8936145e-08
6.8948172e-08
6.9486615e-08
6.9491862e-08
6.9503377e-08
6.9896547e-08
6.9901607e-08
6.9912705e-08
7.0140043e-08
7.0144953e-08
7.0155716e-08
7.0172463e-08
7.0177248e-08
7.0187722e-08
6.9852771e-08
6.9857425e-08
6.9867558e-08
4.1879931e-06
4.509719e-06
6.7217481e-06
8.4374315e-06
5.9933527e-06
6.0350364e-06
4.7254994e-06
4.8295619e-06
4.0826518e-06
4.1925093e-06
3.697919e-06
3.8011949e-06
3.4360197e-06
3.5312405e-06
3.2364136e-06
3.3235545e-06
3.0669947e-06
3.1460705e-06
2.9064184e-06
2.9773777e-06
2.7387233e-06
2.8015489e-06
2.5522656e-06
2.6070476e-06
2.3399761e-06
2.3869337e-06
2.0999465e-06
2.1394184e-06
1.8359068e-06
1.8683359e-06
1.5571201e-06
1.5830464e-06
1.277188e-06
1.2972551e-06
1.0115362e-06
1.0264995e-06
7.7406058e-07
7.8477059e-07
5.7412759e-07
5.8147566e-07
4.1516803e-07
4.2000615e-07
2.952534e-07
2.9832063e-07
2.0909399e-07
2.1097791e-07
1.4989405e-07
1.5102703e-07
1.106512e-07
1.113265e-07
8.5523932e-08
8.5929673e-08
7.006064e-08
7.0312345e-08
6.1031786e-08
6.1197649e-08
5.6180924e-08
5.6299676e-08
5.3978878e-08
5.4071659e-08
5.3414741e-08
5.3492619e-08
5.3833344e-08
5.3901864e-08
5.4816804e-08
5.4878643e-08
5.6102361e-08
5.6158798e-08
5.7527143e-08
5.7578844e-08
5.8991673e-08
5.9039068e-08
6.0436021e-08
6.0479473e-08
6.1824476e-08
6.186434e-08
6.3135992e-08
6.3172627e-08
6.4358522e-08
6.4392289e-08
6.5486029e-08
6.5517277e-08
6.6517366e-08
6.6546429e-08
6.7456204e-08
6.7483398e-08
6.8276529e-08
6.830211e-08
6.896638e-08
6.8990616e-08
6.9520786e-08
6.9543926e-08
6.992947e-08
6.9951732e-08
7.0171958e-08
7.01935e-08
7.0203476e-08
7.02243e-08
6.9882592e-08
6.9902187e-08
4.3923803e-10
1.3209545e-08
1.9301918e-07
8.2648637e-07
1.6436159e-06
2.2302025e-06
2.5751331e-06
2.7834945e-06
2.9275903e-06
3.0430172e-06
3.1469072e-06
3.2531964e-06
3.3587526e-06
3.4624636e-06
3.5635403e-06
3.6606324e-06
3.7512852e-06
3.8313573e-06
3.8941441e-06
3.9290501e-06
3.9194466e-06
3.8390781e-06
3.6455035e-06
3.2623742e-06
2.4521297e-06
2.1334061e-10
2.6872685e-08
3.5986915e-07
1.3771816e-06
2.5703287e-06
3.3786433e-06
3.8516915e-06
4.158345e-06
4.3930518e-06
4.59852e-06
4.7953325e-06
4.9959376e-06
5.1981443e-06
5.4009161e-06
5.6025897e-06
5.8004233e-06
5.9896686e-06
6.1625351e-06
6.3062954e-06
6.4006226e-06
6.413138e-06
6.2914354e-06
5.9477147e-06
5.221152e-06
3.6834086e-06
6.6142467e-10
7.8788764e-08
8.5721933e-07
2.5070012e-06
3.7923498e-06
4.5288007e-06
4.9923801e-06
5.3380307e-06
5.6383107e-06
5.9256189e-06
6.2152743e-06
6.5140105e-06
6.8203956e-06
7.1332679e-06
7.4512015e-06
7.7711277e-06
8.0868181e-06
8.3882733e-06
8.6577961e-06
8.866616e-06
8.9680149e-06
8.8842863e-06
8.4798867e-06
7.4962101e-06
5.2897658e-06
3.1207049e-09
2.8520693e-07
2.0621253e-06
4.0023744e-06
5.0427274e-06
5.6302812e-06
6.0369506e-06
6.3794261e-06
6.7078528e-06
7.0408839e-06
7.3893733e-06
7.7563559e-06
8.1384266e-06
8.5342866e-06
8.9438129e-06
9.3656386e-06
9.7947889e-06
1.0221711e-05
1.0629691e-05
1.0990752e-05
1.1258562e-05
1.1354544e-05
1.1134844e-05
1.0290169e-05
7.8906981e-06
2.3337954e-08
1.1381431e-06
3.9878931e-06
5.5957672e-06
6.4471783e-06
6.9681532e-06
7.3518093e-06
7.6982207e-06
8.0476071e-06
8.4021016e-06
8.7752019e-06
9.1735507e-06
9.5871875e-06
1.001134e-05
1.0448988e-05
1.0904745e-05
1.1377932e-05
1.1863943e-05
1.2352803e-05
1.2826189e-05
1.3252863e-05
1.3582489e-05
1.3738262e-05
1.3624258e-05
1.3212084e-05
1.9535344e-07
2.7555859e-06
5.9032818e-06
7.7067886e-06
8.6210177e-06
9.0378118e-06
9.2341727e-06
9.3711253e-06
9.5098173e-06
9.6684082e-06
9.8549566e-06
1.0075743e-05
1.0331268e-05
1.062179e-05
1.0948667e-05
1.131304e-05
1.1715135e-05
1.2153028e-05
1.2621683e-05
1.3111205e-05
1.3603786e-05
1.4070416e-05
1.4467785e-05
1.4747087e-05
1.4850793e-05
4.3489508e-06
4.3206421e-06
4.3646899e-06
4.4768825e-06
4.6546437e-06
4.8860915e-06
5.1604315e-06
5.4747495e-06
5.8312219e-06
6.2319486e-06
6.6767173e-06
7.1624384e-06
7.6830273e-06
8.2309903e-06
8.7994231e-06
9.3836087e-06
9.9811966e-06
1.0590919e-05
1.1210902e-05
1.1836521e-05
1.2457401e-05
1.3054309e-05
1.3596406e-05
1.4046781e-05
1.4337692e-05
9.1181006e-06
9.3721323e-06
9.7703405e-06
1.0188111e-05
1.0363918e-05
1.0327763e-05
1.0211125e-05
1.011454e-05
1.0077838e-05
1.0102887e-05
1.0185456e-05
1.0320912e-05
1.0507404e-05
1.0744734e-05
1.1032888e-05
1.1371394e-05
1.1758394e-05
1.2189999e-05
1.265914e-05
1.3153495e-05
1.3652378e-05
1.4123597e-05
1.4520678e-05
1.4793443e-05
1.4887985e-05
6.406616e-06
6.8158351e-06
7.247513e-06
7.6480109e-06
7.9506701e-06
8.1687464e-06
8.3619756e-06
8.5696912e-06
8.8006654e-06
9.0694916e-06
9.3727426e-06
9.7015737e-06
1.0051184e-05
1.0427967e-05
1.0835838e-05
1.1275424e-05
1.1743757e-05
1.2233533e-05
1.2731165e-05
1.3213777e-05
1.364466e-05
1.3967398e-05
1.4099415e-05
1.3941847e-05
1.3473636e-05
5.1424777e-06
5.4996403e-06
5.8508224e-06
6.168228e-06
6.4351469e-06
6.6641948e-06
6.8855903e-06
7.1197021e-06
7.3777657e-06
7.6664229e-06
7.9835678e-06
8.3266513e-06
8.6955161e-06
9.0912822e-06
9.5135058e-06
9.9584934e-06
1.041805e-05
1.0877804e-05
1.1314603e-05
1.1692371e-05
1.1955173e-05
1.2014018e-05
1.1715085e-05
1.0738671e-05
8.1287761e-06
4.4365022e-06
4.7272621e-06
5.0189143e-06
5.2909945e-06
5.5378649e-06
5.7676765e-06
5.994873e-06
6.2322602e-06
6.4884067e-06
6.7674762e-06
7.0691348e-06
7.3921983e-06
7.7363069e-06
8.1004225e-06
8.4816155e-06
8.8728666e-06
9.2619762e-06
9.6296758e-06
9.9469053e-06
1.0170704e-05
1.0237649e-05
1.0052318e-05
9.4638181e-06
8.206151e-06
5.6427075e-06
3.9913521e-06
4.2227183e-06
4.462671e-06
4.6956612e-06
4.9180912e-06
5.1347562e-06
5.353835e-06
5.5830562e-06
5.8281007e-06
6.0917974e-06
6.3743448e-06
6.6748366e-06
6.9919694e-06
7.322968e-06
7.662398e-06
8.001072e-06
8.3246712e-06
8.6121319e-06
8.8335483e-06
8.9473179e-06
8.8960479e-06
8.5999901e-06
7.9439762e-06
6.7394566e-06
4.5014727e-06
3.6843228e-06
3.8709642e-06
4.0701188e-06
4.2704193e-06
4.4686652e-06
4.6671128e-06
4.8703595e-06
5.083197e-06
5.3093228e-06
5.5506616e-06
5.8073958e-06
6.0785269e-06
6.3620125e-06
6.6540733e-06
6.9482423e-06
7.2344904e-06
7.4982746e-06
7.7194226e-06
7.8709051e-06
7.917484e-06
7.8141923e-06
7.5041193e-06
6.9125463e-06
5.9196931e-06
4.1492362e-06
3.4507495e-06
3.6047343e-06
3.7724808e-06
3.945921e-06
4.1221586e-06
4.3019227e-06
4.4877221e-06
4.6824014e-06
4.8882142e-06
5.1062672e-06
5.3364073e-06
5.5773071e-06
5.826366e-06
6.0792081e-06
6.3290337e-06
6.5659725e-06
6.7764601e-06
6.9426566e-06
7.0420295e-06
7.0473015e-06
6.9271522e-06
6.6485078e-06
6.1829984e-06
5.5291804e-06
4.7580571e-06
3.2541561e-06
3.3837855e-06
3.5269422e-06
3.6780325e-06
3.8345633e-06
3.9964364e-06
4.1648559e-06
4.3413642e-06
4.5271722e-06
4.7226946e-06
4.9273495e-06
5.1394535e-06
5.3560407e-06
5.572491e-06
5.7820904e-06
5.9756169e-06
6.141015e-06
6.2632261e-06
6.3243365e-06
6.3043122e-06
6.1828648e-06
5.9437029e-06
5.5846453e-06
5.144532e-06
4.7703059e-06
3.0703533e-06
3.1809552e-06
3.30417e-06
3.4361361e-06
3.5747988e-06
3.7196299e-06
3.8710257e-06
4.0296645e-06
4.196003e-06
4.3699066e-06
4.5504149e-06
4.7355784e-06
4.9222602e-06
5.1058695e-06
5.2800779e-06
5.4365924e-06
5.5650391e-06
5.6530427e-06
5.6866263e-06
5.6511322e-06
5.5330134e-06
5.3231921e-06
5.0237269e-06
4.66256e-06
4.276466e-06
2.8817561e-06
2.9766309e-06
3.0829497e-06
3.1980151e-06
3.3201448e-06
3.4486217e-06
3.5833478e-06
3.7244314e-06
3.8718125e-06
4.0249622e-06
4.1826622e-06
4.342832e-06
4.5023484e-06
4.6568634e-06
4.8006352e-06
4.9264227e-06
5.0254919e-06
5.0877889e-06
5.1023389e-06
5.0579245e-06
4.9440154e-06
4.7516258e-06
4.472537e-06
4.0892324e-06
3.4840505e-06
2.675931e-06
2.7571493e-06
2.8485582e-06
2.9482336e-06
3.0548053e-06
3.1674906e-06
3.2859114e-06
3.4098171e-06
3.5388193e-06
3.6721468e-06
3.8084568e-06
3.9456754e-06
4.0808522e-06
4.2100381e-06
4.3281891e-06
4.4291348e-06
4.5056344e-06
4.5495456e-06
4.5521019e-06
4.5042255e-06
4.3966003e-06
4.2186276e-06
3.9534072e-06
3.5573112e-06
2.8489477e-06
2.4454842e-06
2.5144311e-06
2.5922964e-06
2.677678e-06
2.7694657e-06
2.8668921e-06
2.969436e-06
3.0766497e-06
3.187964e-06
3.3025e-06
3.4189096e-06
3.5352457e-06
3.6488482e-06
3.7562634e-06
3.8531947e-06
3.9345038e-06
3.9942747e-06
4.0259352e-06
4.0223982e-06
3.9761006e-06
3.8786105e-06
3.7189608e-06
3.4783492e-06
3.1126152e-06
2.463053e-06
2.1884279e-06
2.2461347e-06
2.3115008e-06
2.3834871e-06
2.4612012e-06
2.5439389e-06
2.6311398e-06
2.7222735e-06
2.8167037e-06
2.9135485e-06
3.0115523e-06
3.1089827e-06
3.2035477e-06
3.2923407e-06
3.3718159e-06
3.4378018e-06
3.4855512e-06
3.5098112e-06
3.5048645e-06
3.4644238e-06
3.3811224e-06
3.2450236e-06
3.0397202e-06
2.7312271e-06
2.2161519e-06
1.9085264e-06
1.9558806e-06
2.0096622e-06
2.0690986e-06
2.1334832e-06
2.2022051e-06
2.2747284e-06
2.3505263e-06
2.4289768e-06
2.5092695e-06
2.5903092e-06
2.6706349e-06
2.748361e-06
2.8211406e-06
2.8861517e-06
2.940111e-06
2.979305e-06
2.999618e-06
2.9965147e-06
2.964887e-06
2.8986015e-06
2.7894339e-06
2.6246916e-06
2.3812397e-06
1.9939847e-06
1.6151583e-06
1.6530334e-06
1.6961474e-06
1.7439367e-06
1.7958509e-06
1.8513869e-06
1.9100751e-06
1.9714389e-06
2.0349307e-06
2.0998587e-06
2.1653237e-06
2.2301602e-06
2.2928934e-06
2.3517142e-06
2.4044713e-06
2.4486797e-06
2.481534e-06
2.4999107e-06
2.5003223e-06
2.4787678e-06
2.4303857e-06
2.348758e-06
2.2245549e-06
2.0423862e-06
1.763938e-06
1.3221099e-06
1.351458e-06
1.3849302e-06
1.4221209e-06
1.4626187e-06
1.5060259e-06
1.5519581e-06
1.6000189e-06
1.6497589e-06
1.700629e-06
1.7519363e-06
1.8028024e-06
1.8521364e-06
1.8986165e-06
1.9406841e-06
1.9765461e-06
2.0041774e-06
2.0213096e-06
2.0253801e-06
2.0134072e-06
1.9817401e-06
1.9256062e-06
1.838291e-06
1.7091706e-06
1.512378e-06
1.0450364e-06
1.0669458e-06
1.0919721e-06
1.1198293e-06
1.1502209e-06
1.1828458e-06
1.217407e-06
1.2535967e-06
1.2910705e-06
1.3294203e-06
1.3681437e-06
1.4066201e-06
1.4440906e-06
1.4796447e-06
1.5122164e-06
1.5405814e-06
1.563355e-06
1.5789779e-06
1.5856741e-06
1.5813577e-06
1.5634585e-06
1.5286128e-06
1.4720794e-06
1.3861813e-06
1.250869e-06
7.9804139e-07
8.1373648e-07
8.3168418e-07
8.5168583e-07
8.7353369e-07
8.9701147e-07
9.2189943e-07
9.4797198e-07
9.7498127e-07
1.0026412e-06
1.0306107e-06
1.0584788e-06
1.085751e-06
1.1118408e-06
1.1360617e-06
1.1576243e-06
1.1756337e-06
1.1890803e-06
1.1968123e-06
1.197474e-06
1.189389e-06
1.1703421e-06
1.1371233e-06
1.0842127e-06
9.9643554e-07
5.9058168e-07
6.0135464e-07
6.1368101e-07
6.2742626e-07
6.4244743e-07
6.5859421e-07
6.7571329e-07
6.9364514e-07
7.1222102e-07
7.3125181e-07
7.5052001e-07
7.6977151e-07
7.8870633e-07
8.0697084e-07
8.2414967e-07
8.3975962e-07
8.5324877e-07
8.6399596e-07
8.713002e-07
8.7434479e-07
8.7212265e-07
8.6328865e-07
8.4582711e-07
8.1605615e-07
7.6350263e-07
4.2600164e-07
4.3309552e-07
4.4121289e-07
4.5026531e-07
4.6015576e-07
4.7078324e-07
4.8204355e-07
4.938303e-07
5.0603223e-07
5.1853111e-07
5.3119676e-07
5.4388327e-07
5.5642296e-07
5.6861806e-07
5.8023144e-07
5.9097708e-07
6.0052087e-07
6.0848992e-07
6.1447675e-07
6.1802079e-07
6.1856211e-07
6.1534801e-07
6.0721895e-07
5.9196112e-07
5.631367e-07
3.0212087e-07
3.0661681e-07
3.1176001e-07
3.1749306e-07
3.2375245e-07
3.304718e-07
3.3758277e-07
3.450165e-07
3.5270365e-07
3.6057304e-07
3.6855191e-07
3.7656373e-07
3.84524e-07
3.9233247e-07
3.9986141e-07
4.069431e-07
4.1336811e-07
4.1890633e-07
4.2332454e-07
4.2637576e-07
4.2776792e-07
4.2710691e-07
4.2377148e-07
4.1653692e-07
4.0181317e-07
2.1330897e-07
2.1606279e-07
2.1920845e-07
2.2270928e-07
2.2652527e-07
2.3061439e-07
2.3493423e-07
2.394427e-07
2.4409895e-07
2.4886411e-07
2.5370189e-07
2.5857886e-07
2.6346179e-07
2.6830897e-07
2.7305476e-07
2.775936e-07
2.8177745e-07
2.8545139e-07
2.8848102e-07
2.9074031e-07
2.9208537e-07
2.9231953e-07
2.9112644e-07
2.8787655e-07
2.8075903e-07
1.5242619e-07
1.540755e-07
1.5595511e-07
1.580417e-07
1.6030992e-07
1.6273327e-07
1.6528519e-07
1.6793983e-07
1.7067283e-07
1.7346217e-07
1.7628928e-07
1.7914047e-07
1.8200847e-07
1.8489517e-07
1.8780561e-07
1.9068689e-07
1.9338728e-07
1.9577074e-07
1.9776146e-07
1.9930167e-07
2.003257e-07
2.0073884e-07
2.0038473e-07
1.9895735e-07
1.9560426e-07
1.121591e-07
1.1313874e-07
1.1425281e-07
1.1548674e-07
1.1682461e-07
1.1824987e-07
1.1974606e-07
1.2129738e-07
1.2288931e-07
1.2450931e-07
1.261476e-07
1.2779825e-07
1.2946065e-07
1.3114166e-07
1.3285813e-07
1.3462894e-07
1.3637881e-07
1.3792779e-07
1.392214e-07
1.4023718e-07
1.4094827e-07
1.4130965e-07
1.4124265e-07
1.4059401e-07
1.3894363e-07
8.6429492e-08
8.7016964e-08
8.7684233e-08
8.8422268e-08
8.922122e-08
9.0070833e-08
9.0960974e-08
9.1882051e-08
9.2825458e-08
9.378405e-08
9.4752739e-08
9.5729195e-08
9.6714852e-08
9.7716386e-08
9.8747792e-08
9.9832621e-08
1.0097379e-07
1.0200597e-07
1.0286582e-07
1.0354477e-07
1.0403292e-07
1.0430784e-07
1.0432571e-07
1.0399872e-07
1.0308762e-07
7.062256e-08
7.0987344e-08
7.1401871e-08
7.186057e-08
7.235734e-08
7.2885846e-08
7.3439818e-08
7.4013367e-08
7.4601306e-08
7.5199474e-08
7.5805136e-08
7.6417487e-08
7.7038392e-08
7.7673508e-08
7.8333979e-08
7.9038779e-08
7.9813443e-08
8.0538716e-08
8.114403e-08
8.1624367e-08
8.1976235e-08
8.2187001e-08
8.2228345e-08
8.203962e-08
8.1444622e-08
6.1402565e-08
6.1644173e-08
6.1919525e-08
6.222517e-08
6.2557286e-08
6.2911872e-08
6.3284952e-08
6.3672786e-08
6.4072071e-08
6.448019e-08
6.4895484e-08
6.5317635e-08
6.5748252e-08
6.619182e-08
6.6657258e-08
6.7160485e-08
6.7727031e-08
6.827795e-08
6.8740274e-08
6.9109828e-08
6.9385269e-08
6.9558257e-08
6.9608119e-08
6.9488924e-08
6.9069531e-08
5.644705e-08
5.6621677e-08
5.6821752e-08
5.7045085e-08
5.7289199e-08
5.7551452e-08
5.782917e-08
5.8119793e-08
5.8421018e-08
5.8730962e-08
5.9048388e-08
5.9373008e-08
5.9705982e-08
6.0050739e-08
6.0414393e-08
6.0810281e-08
6.1261339e-08
6.1714631e-08
6.2097627e-08
6.2406353e-08
6.264005e-08
6.2792112e-08
6.2845626e-08
6.276282e-08
6.2436044e-08
5.4187471e-08
5.4325558e-08
5.4484791e-08
5.466371e-08
5.4860603e-08
5.5073586e-08
5.5300699e-08
5.5540005e-08
5.5789698e-08
5.6048235e-08
5.6314515e-08
5.658815e-08
5.6869887e-08
5.7162323e-08
5.7471167e-08
5.7807641e-08
5.8192192e-08
5.8588376e-08
5.8925182e-08
5.9198853e-08
5.9408451e-08
5.9547733e-08
5.9601189e-08
5.9534468e-08
5.9250912e-08
5.359038e-08
5.3707641e-08
5.3843657e-08
5.3997379e-08
5.4167511e-08
5.4352581e-08
5.4551012e-08
5.4761201e-08
5.4981605e-08
5.5210857e-08
5.5447919e-08
5.569232e-08
5.5944518e-08
5.620651e-08
5.6482938e-08
5.6783302e-08
5.7125799e-08
5.7484455e-08
5.779106e-08
5.8041883e-08
5.8235393e-08
5.8364962e-08
5.8415149e-08
5.8352371e-08
5.8083313e-08
5.3988259e-08
5.4092355e-08
5.421362e-08
5.4351224e-08
5.4504103e-08
5.4671016e-08
5.485061e-08
5.5041489e-08
5.5242292e-08
5.5451792e-08
5.5669033e-08
5.5893532e-08
5.6125584e-08
5.6366777e-08
5.6620936e-08
5.6896136e-08
5.7208474e-08
5.7538547e-08
5.7822231e-08
5.8055618e-08
5.8236335e-08
5.8356988e-08
5.8401606e-08
5.8336227e-08
5.8066617e-08
5.4956823e-08
5.5051274e-08
5.5161575e-08
5.5287023e-08
5.5426693e-08
5.5579497e-08
5.5744249e-08
5.5919723e-08
5.6104728e-08
5.6298197e-08
5.6499299e-08
5.6707606e-08
5.6923348e-08
5.7147833e-08
5.738425e-08
5.7639464e-08
5.7927584e-08
5.8233292e-08
5.8497446e-08
5.871579e-08
5.8884987e-08
5.8996687e-08
5.9034055e-08
5.8962128e-08
5.8683958e-08
5.6230224e-08
5.6316606e-08
5.6417582e-08
5.6532531e-08
5.6660633e-08
5.6800931e-08
5.6952392e-08
5.7113962e-08
5.7284635e-08
5.7463526e-08
5.7649964e-08
5.7843624e-08
5.8044731e-08
5.8254395e-08
5.8475299e-08
5.8713258e-08
5.8980514e-08
5.9264286e-08
5.9510792e-08
5.9715346e-08
5.98736e-08
5.9976169e-08
6.0005165e-08
5.9924196e-08
5.9632202e-08
5.764426e-08
5.7723361e-08
5.7815821e-08
5.7921082e-08
5.8038424e-08
5.8167016e-08
5.830598e-08
5.8454442e-08
5.8611592e-08
5.8776739e-08
5.8949393e-08
5.9129353e-08
5.9316869e-08
5.9512912e-08
5.9719744e-08
5.9942282e-08
6.0191055e-08
6.0454741e-08
6.0684983e-08
6.0876635e-08
6.1024358e-08
6.1117733e-08
6.1137752e-08
6.1046531e-08
6.0739192e-08
5.9098972e-08
5.9171342e-08
5.9255875e-08
5.9352077e-08
5.9459322e-08
5.9576909e-08
5.9704114e-08
5.9840244e-08
5.9984683e-08
6.013694e-08
6.0296699e-08
6.0463892e-08
6.063881e-08
6.0822319e-08
6.1016341e-08
6.1225048e-08
6.1457458e-08
6.1702676e-08
6.1917841e-08
6.2097357e-08
6.2234938e-08
6.2319179e-08
6.2329973e-08
6.2227999e-08
6.1905669e-08
6.0534311e-08
6.0600473e-08
6.0677681e-08
6.07655e-08
6.0863397e-08
6.0970797e-08
6.1087125e-08
6.1211861e-08
6.1344573e-08
6.1484956e-08
6.1632861e-08
6.1788345e-08
6.1951746e-08
6.212386e-08
6.2306351e-08
6.2502811e-08
6.2720999e-08
6.2949113e-08
6.3150196e-08
6.3318223e-08
6.3446013e-08
6.3521245e-08
6.3522779e-08
6.3409826e-08
6.3068428e-08
6.1914567e-08
6.197508e-08
6.2045622e-08
6.2125817e-08
6.2215221e-08
6.2313373e-08
6.241984e-08
6.2534257e-08
6.2656361e-08
6.2786014e-08
6.2923219e-08
6.3068145e-08
6.3221185e-08
6.3383096e-08
6.3555375e-08
6.3741209e-08
6.3947367e-08
6.4159391e-08
6.4347115e-08
6.4504125e-08
6.4622387e-08
6.4688734e-08
6.468105e-08
6.45569e-08
6.4198064e-08
6.3218713e-08
6.3274158e-08
6.3338731e-08
6.3412107e-08
6.3493925e-08
6.3583826e-08
6.3681504e-08
6.3786733e-08
6.3899399e-08
6.4019509e-08
6.4147202e-08
6.4282748e-08
6.4426596e-08
6.45795e-08
6.4742869e-08
6.4919616e-08
6.5115731e-08
6.5312334e-08
6.5487136e-08
6.5633399e-08
6.5742279e-08
6.5799826e-08
6.5783014e-08
6.5647674e-08
6.5270791e-08
6.4434701e-08
6.448566e-08
6.4544955e-08
6.4612312e-08
6.4687439e-08
6.4770073e-08
6.4860014e-08
6.495716e-08
6.5061526e-08
6.5173249e-08
6.5292581e-08
6.5419885e-08
6.5555663e-08
6.5700688e-08
6.5856339e-08
6.6025216e-08
6.6212362e-08
6.6394023e-08
6.655616e-08
6.6691796e-08
6.6791346e-08
6.6840157e-08
6.6814424e-08
6.666835e-08
6.6272506e-08
6.5556465e-08
6.5603487e-08
6.5658155e-08
6.5720236e-08
6.5789502e-08
6.5865769e-08
6.5948936e-08
6.6039006e-08
6.6136111e-08
6.6240498e-08
6.6352522e-08
6.6472621e-08
6.660134e-08
6.6739499e-08
6.6888608e-08
6.7050494e-08
6.7227379e-08
6.7394382e-08
6.7544053e-08
6.7669134e-08
6.775936e-08
6.7799507e-08
6.7765317e-08
6.761068e-08
6.7206539e-08
6.6582807e-08
6.6626388e-08
6.6676996e-08
6.6734439e-08
6.6798544e-08
6.68692e-08
6.6946391e-08
6.7030219e-08
6.7120918e-08
6.7218842e-08
6.7324435e-08
6.7438191e-08
6.7560666e-08
6.7692792e-08
6.7837435e-08
6.7994069e-08
6.8153325e-08
6.8305351e-08
6.8442783e-08
6.855743e-08
6.8638338e-08
6.8669835e-08
6.8627502e-08
6.8466019e-08
6.8065906e-08
6.7517338e-08
6.7557885e-08
6.7604878e-08
6.7658156e-08
6.77176e-08
6.7783167e-08
6.7854921e-08
6.7933059e-08
6.8017915e-08
6.8109949e-08
6.8209694e-08
6.8317677e-08
6.8434331e-08
6.8559937e-08
6.8694575e-08
6.8836676e-08
6.89806e-08
6.9119285e-08
6.9245284e-08
6.9349815e-08
6.9421446e-08
6.94442e-08
6.9393552e-08
6.9224476e-08
6.8819156e-08
6.8333951e-08
6.8371901e-08
6.8415801e-08
6.8465516e-08
6.8520961e-08
6.8582136e-08
6.8649153e-08
6.8722258e-08
6.8801827e-08
6.8888342e-08
6.898233e-08
6.9084262e-08
6.9194413e-08
6.9312691e-08
6.9438375e-08
6.9569451e-08
6.9701686e-08
6.9829229e-08
6.9944905e-08
7.003979e-08
7.0102243e-08
7.0116132e-08
7.0056827e-08
6.9879126e-08
6.9464161e-08
6.9020728e-08
6.9056556e-08
6.9097949e-08
6.9144787e-08
6.9197008e-08
6.9254639e-08
6.9317823e-08
6.9386832e-08
6.9462059e-08
6.9543985e-08
6.9633108e-08
6.9729833e-08
6.983431e-08
6.9946234e-08
7.006456e-08
7.0187106e-08
7.0310116e-08
7.0428273e-08
7.0534659e-08
7.0620403e-08
7.0673846e-08
7.0678842e-08
7.0610739e-08
7.0424134e-08
6.9998936e-08
6.957264e-08
6.9606765e-08
6.9646154e-08
6.9690695e-08
6.974034e-08
6.9795135e-08
6.985524e-08
6.9920941e-08
6.9992638e-08
7.0070796e-08
7.0155876e-08
7.0248219e-08
7.0347887e-08
7.0454447e-08
7.0566701e-08
7.0682365e-08
7.0797795e-08
7.0907873e-08
7.1005853e-08
7.1082973e-08
7.1127674e-08
7.1123933e-08
7.1047262e-08
7.0852366e-08
7.0418863e-08
6.9979335e-08
7.0012112e-08
7.0049917e-08
7.0092639e-08
7.0140231e-08
7.0192755e-08
7.0250386e-08
7.031342e-08
7.0382258e-08
7.0457349e-08
7.0539109e-08
7.0627824e-08
7.0723499e-08
7.0825655e-08
7.0933014e-08
7.1043162e-08
7.1152334e-08
7.125544e-08
7.1345844e-08
7.141493e-08
7.1451323e-08
7.1439267e-08
7.1354691e-08
7.1153086e-08
7.0717715e-08
7.0220219e-08
7.0251938e-08
7.0288501e-08
7.0329781e-08
7.0375728e-08
7.0426433e-08
7.0482057e-08
7.0542921e-08
7.0609426e-08
7.0682036e-08
7.0761089e-08
7.084681e-08
7.0939227e-08
7.1037985e-08
7.1141836e-08
7.1248084e-08
7.135243e-08
7.144972e-08
7.1533473e-08
7.1595294e-08
7.1624084e-08
7.1604482e-08
7.1513084e-08
7.1306838e-08
7.0876855e-08
7.0250264e-08
7.0281132e-08
7.0316707e-08
7.0356831e-08
7.0401463e-08
7.0450759e-08
7.0504735e-08
7.0563749e-08
7.0628147e-08
7.0698694e-08
7.0775465e-08
7.0858464e-08
7.0947971e-08
7.1044529e-08
7.1147352e-08
7.1252844e-08
7.1354499e-08
7.1447409e-08
7.152565e-08
7.1581266e-08
7.1603556e-08
7.1577684e-08
7.1481229e-08
7.1273831e-08
7.0856532e-08
6.9927251e-08
6.9957301e-08
6.9991973e-08
7.0031076e-08
7.0074675e-08
7.0123076e-08
7.0175614e-08
7.0232552e-08
7.0293633e-08
7.0361926e-08
7.0436105e-08
7.051485e-08
7.0599051e-08
7.0694743e-08
7.0805635e-08
7.0922897e-08
7.1026305e-08
7.1116623e-08
7.1190612e-08
7.1241356e-08
7.1258741e-08
7.1228592e-08
7.1129942e-08
7.0927932e-08
7.0549053e-08
)
;

boundaryField
{
    Walls
    {
        type            nutUWallFunction;
        Cmu             0.09;
        kappa           0.41;
        E               9.8;
        value           uniform 0;
    }
    Inlet
    {
        type            calculated;
        value           nonuniform List<scalar> 3(2.3927127e-05 2.5702199e-05 7.7623997e-07);
    }
    Outlet
    {
        type            calculated;
        value           nonuniform List<scalar> 
86
(
0
0
0
0
0
0
0
0
0
0
0
0
0
0
0
0
0
0
0
0
0
0
0
0
0
0
0
0
0
0
1.4337692e-05
1.4887985e-05
1.3473636e-05
0
0
0
0
4.7580571e-06
4.7703059e-06
4.276466e-06
0
0
0
2.2161519e-06
1.9939847e-06
1.763938e-06
1.512378e-06
1.250869e-06
9.9643554e-07
7.6350263e-07
5.631367e-07
4.0181317e-07
2.8075903e-07
1.9560426e-07
1.3894363e-07
1.0308762e-07
8.1444622e-08
6.9069531e-08
6.2436044e-08
5.9250912e-08
5.8083313e-08
5.8066617e-08
5.8683958e-08
5.9632202e-08
0
0
0
0
0
0
0
0
0
0
0
0
0
0
0
0
0
0
0
0
1.3212084e-05
1.4850793e-05
)
;
    }
    Front
    {
        type            wedge;
    }
    Back
    {
        type            wedge;
    }
    defaultFaces
    {
        type            empty;
    }
}


// ************************************************************************* //
