/*--------------------------------*- C++ -*----------------------------------*\
| =========                 |                                                 |
| \\      /  F ield         | OpenFOAM: The Open Source CFD Toolbox           |
|  \\    /   O peration     | Version:  4.0                                   |
|   \\  /    A nd           | Web:      www.OpenFOAM.org                      |
|    \\/     M anipulation  |                                                 |
\*---------------------------------------------------------------------------*/
FoamFile
{
    version     2.0;
    format      ascii;
    class       volScalarField;
    location    "0.64";
    object      omega;
}
// * * * * * * * * * * * * * * * * * * * * * * * * * * * * * * * * * * * * * //

dimensions      [0 0 -1 0 0 0 0];

internalField   nonuniform List<scalar> 
1740
(
61.458691
640.22578
14920.007
179.94718
1379.0272
15030.348
306.17802
1936.1569
15115.932
412.5384
2292.3784
15197.943
519.71311
2584.1831
15270.433
636.03049
2858.269
15323.614
743.20283
3049.8852
15371.71
837.43185
3222.305
15411.775
947.1137
3384.8618
15442.158
1056.8302
3519.9009
15469.686
1165.6126
3631.9572
15495.677
1265.3854
3732.9795
15511.922
1338.9647
3815.5913
15521.369
1403.7567
3862.3665
15530.575
1491.2294
3883.8481
15545.144
1564.7391
3939.6765
15557.458
1627.5309
4013.6592
15555.923
1656.1177
4037.3926
15565.477
1694.8273
4044.3031
15574.13
1738.9029
4097.7165
15564.214
1783.41
4053.2307
15565.465
1815.0226
4046.9869
15576.672
1863.1581
4096.6612
15584.669
1908.4223
4180.4623
15581.488
1941.0157
4182.5551
15574.148
1943.9397
4179.6155
15569.103
1956.6361
4201.8104
15567.233
1995.0654
4209.08
15570.346
2023.2122
4234.5957
15564.381
2146.3065
4312.4409
15504.534
3204.0859
4578.6458
10736.104
3333.511
4235.9836
5926.2849
1572.8303
1860.0008
2153.838
823.37943
898.61926
957.74633
477.52417
495.74468
506.11368
299.99124
303.70936
303.89374
200.77748
201.08437
199.67221
141.50283
141.17069
139.92572
104.1322
103.79622
102.95197
79.525334
79.289818
78.764461
62.71967
62.571088
62.255303
50.881445
50.791589
50.60445
42.332923
42.279584
42.169305
36.049137
36.017697
35.952795
31.383808
31.3652
31.326736
27.914637
27.903397
27.880069
25.353531
25.34644
25.33161
23.49321
23.488428
23.478296
22.175501
22.17202
22.164504
21.273485
21.2708
21.264835
20.682323
20.680217
20.675308
20.313338
20.311706
20.307588
20.08264
20.081099
20.077326
19.914991
19.913441
19.909887
19.782808
19.781363
19.778094
19.672033
19.670716
19.667732
19.573329
19.572145
19.569439
19.480565
19.479522
19.477095
19.389739
19.388857
19.386723
19.298397
19.297689
19.295858
19.2053
19.204761
19.203227
19.109952
19.109557
19.108287
19.011733
19.011444
19.010392
18.908822
18.908601
18.907719
18.797244
18.797064
18.796313
18.67021
18.670055
18.669404
18.517663
18.517523
18.516952
18.325867
18.325736
18.32523
18.076948
18.076827
18.076375
17.748375
17.748263
17.747859
17.312451
17.312347
17.311987
16.73599
16.735892
16.73557
15.980607
15.980503
15.980208
15.011572
15.011477
15.01123
13.788966
13.788897
13.788714
12.274188
12.274152
12.274046
10.439054
10.439053
10.439027
8.2745091
8.2745358
8.2745619
5.7979868
5.7980126
5.7979778
3.0382694
3.0382529
3.038008
13482.917
13536.692
5989.8062
5329.3634
2083.6379
1881.484
922.07044
853.65679
489.77088
462.96671
295.85448
284.0571
195.42553
189.75407
137.58182
134.66737
101.62827
100.05774
78.006131
77.130121
61.81661
61.316349
50.34902
50.059048
42.019929
41.850327
35.864979
35.764951
31.274515
31.214619
27.848145
27.811056
25.311016
25.28655
23.463899
23.446226
22.153496
22.139443
21.255781
21.243747
20.667528
20.656783
20.30075
20.29101
20.071134
20.062302
19.904207
19.896159
19.772897
19.765527
19.662972
19.656183
19.565078
19.558796
19.473116
19.467297
19.383121
19.377748
19.292638
19.287711
19.200384
19.195911
19.105802
19.101787
19.008234
19.004668
18.90585
18.902709
18.794692
18.791939
18.667995
18.665584
18.515719
18.513603
18.324146
18.32228
18.075416
18.07376
17.747008
17.745532
17.311232
17.309916
16.734904
16.733737
15.979626
15.978607
15.010747
15.009889
13.788345
13.78766
12.273804
12.273303
10.438907
10.438573
8.2744738
8.2741102
5.7975393
5.7963204
3.0367472
3.0336665
12058.19
2043.3463
696.41986
368.9978
281.20012
256.99217
249.871
246.84549
244.51554
242.13691
239.63006
236.89672
234.07656
231.18091
228.17564
224.99643
221.52941
217.57769
212.8073
206.66266
198.22096
185.92809
167.08936
136.68819
82.873474
12058.133
2037.2937
697.65476
374.61701
283.16343
254.33765
242.81311
235.611
229.51665
223.73487
218.0698
212.45688
206.963
201.56917
196.25414
190.98963
185.71886
180.33731
174.65715
168.35522
160.87958
151.26288
137.70857
116.52248
78.265469
12058.179
2030.5368
718.63066
430.69964
359.32265
332.38857
315.02486
300.53503
287.30455
274.76331
262.79462
251.21561
240.24882
229.79713
219.79909
210.24061
201.10057
192.33241
183.83514
175.42994
166.80296
157.37291
145.93564
129.53929
98.877105
12058.527
2031.8784
817.6179
608.84309
549.95495
512.74167
479.72669
449.22655
421.25235
394.94716
370.28032
347.28444
326.08651
306.23005
287.57532
270.12802
253.87546
238.78561
224.80334
211.83703
199.74594
188.30415
177.07285
164.87593
146.47732
12061.533
2151.0773
1232.7048
1078.6607
989.79656
906.87805
828.35205
756.94294
693.0368
633.93715
579.60432
529.99861
485.92493
445.63934
408.66341
374.99803
344.50454
317.01253
292.34169
270.29812
250.68613
233.33126
218.12054
205.22759
195.72991
12087.273
3821.6628
2809.1307
2404.8991
2096.3476
1827.1836
1591.5424
1387.9758
1211.8367
1059.8797
929.01866
816.41164
719.49899
635.83912
563.50211
500.9719
446.94937
400.30498
360.06546
325.39874
295.59885
270.09318
248.47885
230.85237
218.44931
10362.664
7901.8641
6096.8087
4788.3146
3819.5748
3084.6766
2515.2383
2067.5655
1712.3223
1428.3305
1199.7326
1014.6114
863.97781
740.88045
639.79814
556.34677
487.07366
429.27638
380.84231
340.11562
305.79602
276.88181
252.66044
233.01336
219.22024
4088.6608
3306.2339
2843.4316
2468.5106
2149.1998
1868.352
1623.2466
1411.3403
1229.7386
1074.1203
940.65714
825.91195
726.89477
641.4337
567.67617
504.02252
449.09582
401.72133
360.89969
325.78262
295.65472
269.93837
248.22114
230.57955
218.19991
1594.5696
1400.0117
1269.7546
1161.4308
1059.1078
961.76817
873.06797
793.97099
721.91567
656.64077
598.27201
546.6404
499.20933
455.87079
416.50149
380.90768
348.85944
320.12529
294.47457
271.69181
251.58005
233.97214
218.75846
206.09346
196.9367
771.02978
707.77497
661.48956
620.87687
580.49412
540.34196
502.75964
468.09912
435.97285
406.34825
379.27514
354.46821
331.24511
309.50985
289.25334
270.46425
253.11358
237.16036
222.55434
209.23229
197.10126
185.99677
175.55515
164.72415
148.72274
433.73715
409.96186
391.1978
373.92314
356.14811
337.83531
319.94317
302.90204
286.79749
271.68262
257.56784
244.32831
231.75799
219.81523
208.52866
197.89614
187.91146
178.55421
169.78016
161.49857
153.51802
145.41277
136.15812
122.98795
96.816096
271.78274
261.36358
252.68735
244.4976
235.94816
226.97707
217.94925
209.1258
200.62979
192.51954
184.80421
177.43531
170.34175
163.50245
156.93004
150.6293
144.59192
138.7883
133.15223
127.54901
121.70758
115.07072
106.4417
93.05566
67.411236
183.98666
178.92207
174.50733
170.26651
165.8282
161.12809
156.30098
151.48958
146.78266
142.22621
137.83139
133.58038
129.44507
125.4111
121.47481
117.62763
113.84801
110.09147
106.27437
102.24396
97.722288
92.197429
84.700247
73.261881
52.72522
131.73514
129.08847
126.70508
124.38549
121.9596
119.38035
116.69661
113.97928
111.2835
108.6406
106.06088
103.53763
101.05657
98.604771
96.170012
93.733871
91.264771
88.709133
85.977994
82.925832
79.318194
74.788921
68.814802
60.879096
51.227016
98.480854
97.026185
95.684552
94.367271
92.993049
91.531364
89.998092
88.42688
86.848669
85.283145
83.737172
82.207108
80.682827
79.150972
77.59457
75.989158
74.29766
72.463647
70.402129
67.987749
65.043251
61.342054
56.675765
51.159827
46.21825
76.248421
75.420562
74.643531
73.876198
73.078722
72.232004
71.339722
70.416965
69.47967
68.538429
67.59645
66.649834
65.689086
64.700013
63.663051
62.550787
61.324295
59.928351
58.285574
56.2904
53.806323
50.676833
46.779053
42.195216
37.120014
60.810078
60.32788
59.869607
59.416133
58.946691
58.449794
57.924624
57.377054
56.814232
56.240641
55.656154
55.055666
54.429065
53.761342
53.031704
52.211735
51.262681
50.131967
48.748945
47.020048
44.823443
42.000901
38.32953
33.366993
25.301125
49.763606
49.47898
49.206155
48.936207
48.658034
48.364338
48.052988
47.725215
47.383146
47.027261
46.654893
46.259507
45.830247
45.351513
44.802013
44.153299
43.367619
42.395027
41.169481
39.60305
37.575505
34.910302
31.306406
26.110882
17.404999
41.676294
41.507168
41.344036
41.18266
41.01701
40.842272
40.655864
40.456791
40.244306
40.016351
39.768434
39.492826
39.177994
38.807937
38.361297
37.810042
37.11763
36.236424
35.103816
33.635828
31.714904
29.163653
25.683069
20.692856
12.830881
35.661609
35.560288
35.462013
35.364614
35.264626
35.158685
35.044212
34.919085
34.780909
34.626062
34.448791
34.240507
33.98914
33.678474
33.287247
32.787996
32.145436
31.314135
30.234969
28.829267
26.988335
24.553714
21.279069
16.754832
10.254789
31.152137
31.090151
31.029416
30.96871
30.905836
30.838265
30.763481
30.678857
30.581057
30.46548
30.325558
30.152097
29.932654
29.650888
29.285715
28.810286
28.190592
27.383516
26.333965
24.970431
23.197866
20.886446
17.855491
13.853254
8.4816934
27.771689
27.731817
27.691858
27.651056
27.607804
27.560048
27.505362
27.440821
27.362613
27.265543
27.142499
26.983876
26.776975
26.505376
26.148198
25.679198
25.065645
24.266834
23.232094
21.89801
20.184604
17.990769
15.191675
11.643956
7.1669931
25.259807
25.231747
25.202511
25.171484
25.137391
25.098415
25.052198
24.995672
24.924738
24.833851
24.715546
24.559912
24.354051
24.08149
23.721529
23.248493
22.630872
21.830318
20.800515
19.4859
17.820359
15.726644
13.119555
9.9174458
6.0366799
23.426089
23.403925
23.379657
23.352685
23.321888
23.285571
23.241415
23.186279
23.115891
23.024474
22.904301
22.745221
22.534152
22.254549
21.885852
21.402891
20.77526
19.966743
18.934902
17.630972
16.00026
13.983591
11.521679
8.5642166
5.0626336
22.122669
22.103257
22.080966
22.055156
22.02476
21.988152
21.943025
21.886189
21.813252
21.718256
21.593253
21.427856
21.208776
20.919364
20.539152
20.043409
19.402702
18.582628
17.543936
16.243276
14.63477
12.672648
10.315614
7.5323719
4.3008028
21.228744
21.21061
21.188968
21.163136
21.132046
21.094099
21.046998
20.987498
20.91111
20.811711
20.681133
20.508723
20.280926
19.980922
19.588308
19.078774
18.423796
17.590494
16.542083
15.239251
13.642599
11.71622
9.4325441
6.7770505
3.7540627
20.642882
20.625483
20.604099
20.578004
20.546112
20.506828
20.45784
20.395862
20.316304
20.212877
20.077162
19.898176
19.662008
19.351582
18.946528
18.423036
17.753594
16.906696
15.847407
14.539224
12.947249
11.042561
8.807832
6.2433963
3.3790735
20.278061
20.261424
20.24053
20.214598
20.182503
20.142619
20.092597
20.029088
19.947394
19.841039
19.701309
19.516801
19.273107
18.952747
18.53533
17.99774
17.313893
16.45376
15.383737
14.069075
12.477764
10.585612
8.3827191
5.8814849
3.131378
20.050494
20.035217
20.01585
19.99154
19.961076
19.92273
19.874038
19.811511
19.730277
19.623623
19.482481
19.294919
19.045821
18.716951
18.287535
17.735382
17.036972
16.164317
15.084616
13.763881
12.17169
10.286845
8.1045885
5.6463554
2.97436
19.885403
19.871471
19.853733
19.831318
19.803
19.767031
19.720929
19.661192
19.582936
19.479435
19.341583
19.157272
18.910718
18.581734
18.146022
17.580687
16.867752
15.983813
14.896248
13.570878
11.977865
10.097687
7.9285755
5.4959829
2.8638042
19.755641
19.742771
19.726282
19.705297
19.67858
19.644382
19.600225
19.54262
19.466714
19.365836
19.230964
19.050105
18.807621
18.483537
18.052957
17.486698
16.763348
15.870962
14.778218
13.450313
11.857427
9.9808752
7.8204213
5.4031487
2.8036783
19.647012
19.634984
19.619459
19.599554
19.574036
19.54116
19.498461
19.44248
19.368409
19.269655
19.137312
18.959551
18.720939
18.401746
17.977316
17.41779
16.693127
15.796939
14.702355
13.374274
11.78283
9.9098131
7.7558129
5.3487092
2.7739088
19.550226
19.538883
19.524119
19.505052
19.480451
19.448582
19.407004
19.352293
19.2797
19.182725
19.052596
18.87767
18.642752
18.328383
17.910164
17.35835
16.638879
15.743677
14.650474
13.324371
11.735634
9.8664912
7.7181926
5.3190661
2.7550127
19.459257
19.448498
19.434366
19.415979
19.392115
19.36106
19.320399
19.266757
19.195454
19.100091
18.972041
18.799852
18.568569
18.259009
17.847034
17.302967
16.591891
15.701012
14.611613
13.289107
11.704011
9.8390265
7.6960841
5.3044327
2.7600723
19.370207
19.359983
19.34642
19.328643
19.305446
19.275139
19.235349
19.182754
19.112753
19.019049
18.893151
18.723781
18.496199
18.191481
17.785776
17.249635
16.547991
15.663449
14.579391
13.261511
11.680625
9.8198896
7.6817156
5.2954475
2.756754
19.280671
19.270987
19.258007
19.240869
19.218393
19.188922
19.150129
19.098751
19.030259
18.93845
18.814942
18.648592
18.42483
18.124951
17.725389
17.197018
16.504914
15.627828
14.549997
13.2373
11.660894
9.8043407
7.6703573
5.2887364
2.7611322
19.189398
19.180307
19.167995
19.151622
19.130036
19.101618
19.064085
19.014225
18.947568
18.857975
18.737139
18.574007
18.35413
18.058979
17.66525
17.144182
16.461189
15.592085
14.520854
13.213582
11.641828
9.7896565
7.6602581
5.2833196
2.7594713
19.095835
19.087414
19.075894
19.06046
19.039986
19.012888
18.976913
18.928884
18.864366
18.777255
18.659283
18.499451
18.283392
17.992719
17.604365
17.089947
16.415338
15.554279
14.489685
13.1879
11.620958
9.7735262
7.6494286
5.2779012
2.7562072
18.9993
18.991613
18.980995
18.966651
18.947478
18.921909
18.88771
18.84172
18.779512
18.694994
18.579912
18.423294
18.210836
17.924271
17.540752
17.032267
16.36522
15.511952
14.453859
13.157594
11.595698
9.7534715
7.63545
5.2707122
2.7533507
18.897923
18.890995
18.881332
18.868154
18.85037
18.82642
18.794074
18.750166
18.690267
18.608275
18.495938
18.342303
18.133117
17.850224
17.470987
16.967757
16.3075
15.461644
14.409923
13.119342
11.562953
9.7266568
7.6156237
5.2583228
2.7437742
18.787704
18.781512
18.772788
18.760761
18.744343
18.721973
18.691413
18.649484
18.591741
18.512072
18.40222
18.251248
18.044958
17.765305
17.389858
16.891322
16.237231
15.398484
14.353202
13.068778
11.518779
9.6896668
7.5872971
5.2404511
2.7239584
18.661846
18.656329
18.648472
18.637508
18.622348
18.601423
18.572481
18.532328
18.476503
18.398881
18.291205
18.142562
17.938815
17.662038
17.290012
16.795789
16.147472
15.315805
14.277396
13.000091
11.457991
9.6380773
7.5469151
5.2146258
2.7156061
18.510298
18.505373
18.498278
18.488249
18.474192
18.454528
18.426992
18.388374
18.334202
18.258343
18.152552
18.00595
17.804477
17.530344
17.161551
16.671504
16.02888
15.204715
14.174164
12.905615
11.37377
9.56613
7.4899341
5.1769416
2.6910402
18.319342
18.314922
18.308477
18.299244
18.286125
18.267531
18.241188
18.203876
18.151117
18.076783
17.972655
17.827908
17.628579
17.357044
16.991547
16.50587
15.869285
15.053671
14.032701
12.775439
11.257312
9.4663848
7.4102766
5.1212418
2.6635204
18.071133
18.067138
18.06124
18.052677
18.040348
18.02266
17.997332
17.961144
17.909622
17.836662
17.734087
17.591156
17.394038
17.12531
16.763513
16.282859
15.65329
14.848058
13.839343
12.597053
11.097517
9.3294796
7.3007387
5.0431627
2.622649
17.743169
17.739536
17.734104
17.726114
17.714465
17.697563
17.673131
17.637958
17.587593
17.515974
17.414999
17.274045
17.079466
16.814102
16.45687
15.982544
15.361924
14.569852
13.577249
12.355078
10.880777
9.1438978
7.1520793
4.9345208
2.5523262
17.307787
17.304475
17.299458
17.291981
17.28095
17.264777
17.241201
17.207034
17.15787
17.08772
16.988594
16.850043
16.658679
16.397693
16.046458
15.580584
14.972328
14.197389
13.226225
12.031134
10.590919
8.896195
6.9549483
4.7960419
2.4819852
16.731829
16.728822
16.724205
16.717232
16.706819
16.6914
16.668738
16.635696
16.587939
16.51959
16.422829
16.287459
16.100445
15.845443
15.502173
15.047656
14.457634
13.70537
12.762783
11.603939
10.20928
8.5706541
6.6963869
4.614377
2.3853743
15.976924
15.974236
15.970047
15.963625
15.953909
15.939362
15.9178
15.88616
15.840221
15.774274
15.680742
15.549777
15.368863
15.122448
14.791725
14.354916
13.788089
13.065424
12.160641
11.049818
9.7152739
8.1502658
6.3636824
4.3829192
2.2660135
15.008442
15.006082
15.002331
14.996484
14.987516
14.973947
14.953677
14.923768
14.880183
14.817471
14.728412
14.603655
14.431353
14.196874
13.88264
13.468276
12.931137
12.247048
11.391821
10.343789
9.0873632
7.6172992
5.9429384
4.0907129
2.1147856
13.786456
13.784426
13.781117
13.775863
13.767691
13.755209
13.736441
13.708635
13.668018
13.609496
13.526335
13.409832
13.249003
13.030345
12.737711
12.352436
11.853776
11.219762
10.428692
9.4614751
8.3048106
6.954968
5.42145
3.7290485
1.927113
12.272355
12.27067
12.267829
12.263211
12.255916
12.244676
12.227701
12.202504
12.165679
12.112615
12.037205
11.931577
11.785843
11.58791
11.323395
10.975733
10.526592
9.9567028
9.2472662
8.3820693
7.3502752
6.1496305
4.7894791
3.2923158
1.7016475
10.437884
10.436565
10.434228
10.430295
10.423945
10.414117
10.39927
10.377295
10.345278
10.29925
10.233871
10.142289
10.015974
9.8446141
9.615969
9.3160238
8.9293468
8.4398149
7.8318957
7.0925013
6.2133419
5.1935413
4.0420236
2.778812
1.4432897
8.2736152
8.2726701
8.2708835
8.2676936
8.2623884
8.2542664
8.2419699
8.2239214
8.1978054
8.1606496
8.1079006
8.0337772
7.9314798
7.7931463
7.6089317
7.3677891
7.0576761
6.6660107
6.1808072
5.5922342
4.8944826
4.0877713
3.1801528
2.1885804
1.148626
5.7957237
5.795111
5.7939325
5.791644
5.7878108
5.7823196
5.7733515
5.7599431
5.7400825
5.7135142
5.6757784
5.621455
5.546188
5.4471586
5.3160516
5.1448913
4.9255301
4.6492167
4.3076968
3.8944058
3.40578
2.8426465
2.2115941
1.5261564
0.81215021
3.0325773
3.0321874
3.0316426
3.0305516
3.0290186
3.0275005
3.0230003
3.0146809
2.9993005
2.9841991
2.9629905
2.9286008
2.8789216
2.8246102
2.7548495
2.664267
2.5493396
2.4051358
2.2272665
2.0124068
1.7589067
1.4675204
1.1423737
0.79275164
0.43590025
)
;

boundaryField
{
    Walls
    {
        Cmu             0.09;
        kappa           0.41;
        E               9.8;
        beta1           0.075;
        type            omegaWallFunction;
        value           nonuniform List<scalar> 
38
(
12058.19
12058.133
12058.179
12058.527
12061.533
12087.273
13482.917
13536.692
14920.007
15030.348
15115.932
15197.943
15270.433
15323.614
15371.71
15411.775
15442.158
15469.686
15495.677
15511.922
15521.369
15530.575
15545.144
15557.458
15555.923
15565.477
15574.13
15564.214
15565.465
15576.672
15584.669
15581.488
15574.148
15569.103
15567.233
15570.346
15564.381
15504.534
)
;
    }
    Inlet
    {
        type            turbulentMixingLengthDissipationRateInlet;
        mixingLength    0.03;
        phi             phi;
        k               k;
        value           nonuniform List<scalar> 3(0.0047231672 0.0048298809 0.0048827986);
    }
    Outlet
    {
        type            inletOutlet;
        inletValue      uniform 1e-05;
        value           nonuniform List<scalar> 
86
(
1e-05
1e-05
1e-05
1e-05
1e-05
1e-05
1e-05
1e-05
1e-05
1e-05
1e-05
1e-05
1e-05
1e-05
1e-05
1e-05
1e-05
1e-05
1e-05
1e-05
1e-05
1e-05
1e-05
1e-05
1e-05
1e-05
1e-05
1e-05
1e-05
1e-05
219.22024
218.19991
196.9367
1e-05
1e-05
1e-05
1e-05
51.227016
46.21825
37.120014
1e-05
1e-05
1e-05
10.254789
8.4816934
7.1669931
6.0366799
5.0626336
4.3008028
3.7540627
3.3790735
3.131378
2.97436
2.8638042
2.8036783
2.7739088
2.7550127
2.7600723
2.756754
2.7611322
2.7594713
2.7562072
2.7533507
2.7437742
1e-05
1e-05
1e-05
1e-05
1e-05
1e-05
1e-05
1e-05
1e-05
1e-05
1e-05
1e-05
1e-05
1e-05
1e-05
1e-05
1e-05
1e-05
1e-05
1e-05
195.72991
218.44931
)
;
    }
    Front
    {
        type            wedge;
    }
    Back
    {
        type            wedge;
    }
    defaultFaces
    {
        type            empty;
    }
}


// ************************************************************************* //
