/*--------------------------------*- C++ -*----------------------------------*\
| =========                 |                                                 |
| \\      /  F ield         | OpenFOAM: The Open Source CFD Toolbox           |
|  \\    /   O peration     | Version:  4.0                                   |
|   \\  /    A nd           | Web:      www.OpenFOAM.org                      |
|    \\/     M anipulation  |                                                 |
\*---------------------------------------------------------------------------*/
FoamFile
{
    version     2.0;
    format      ascii;
    class       volScalarField;
    location    "0.64";
    object      p;
}
// * * * * * * * * * * * * * * * * * * * * * * * * * * * * * * * * * * * * * //

dimensions      [0 2 -2 0 0 0 0];

internalField   nonuniform List<scalar> 
1740
(
491.65305
491.57446
491.63923
474.86168
474.89249
474.90213
457.83288
458.20463
458.10753
440.86549
441.35195
441.52432
424.56906
424.75591
425.15532
408.40984
408.37967
408.47595
391.54991
391.4226
391.45826
374.65815
374.42582
374.55637
358.41934
358.38614
358.35872
342.53968
342.54982
342.45611
326.26261
326.12806
326.01741
309.56997
309.51648
309.32185
292.85072
292.86517
292.74906
276.43042
276.3706
276.30302
260.2195
260.04967
259.87114
243.70346
243.58909
243.42607
226.62783
226.84433
227.09631
209.70371
209.81185
210.18808
193.29397
193.02049
192.8649
176.97151
176.84336
176.37224
160.29287
160.37575
160.35173
143.32113
143.24018
143.38091
126.64283
126.38184
126.30301
110.52105
110.62813
110.5294
94.790565
95.289999
95.305195
78.921255
79.110563
79.440688
62.68125
62.639977
63.19986
47.115639
46.967751
47.185867
31.659162
31.554768
31.235152
16.539856
16.397075
15.711372
4.2366329
3.651762
1.638466
-0.56283233
-0.51323088
-0.37962388
-0.14466418
-0.13175546
-0.11744909
-0.054642466
-0.047395528
-0.040788266
-0.039769981
-0.035708641
-0.0287817
-0.035308406
-0.031725059
-0.025368669
-0.032423072
-0.029817751
-0.024941293
-0.030024046
-0.02815557
-0.024513058
-0.027588274
-0.026217488
-0.023475106
-0.025122409
-0.024095022
-0.022007913
-0.022839307
-0.022056094
-0.020447819
-0.020905348
-0.020298504
-0.019040627
-0.019339569
-0.018861967
-0.017864128
-0.018073362
-0.017691956
-0.016890003
-0.017026559
-0.016717838
-0.016065108
-0.0161292
-0.015876163
-0.015338564
-0.015331107
-0.015121367
-0.014674028
-0.014603803
-0.014428182
-0.014052411
-0.013931189
-0.013782734
-0.013464188
-0.013301224
-0.01317461
-0.01290224
-0.012703405
-0.012594523
-0.01235978
-0.012129312
-0.012034974
-0.011831136
-0.011572986
-0.011490644
-0.011312368
-0.011030232
-0.01095782
-0.010800852
-0.01049793
-0.010433845
-0.010294789
-0.0099739738
-0.009916958
-0.0097930899
-0.0094572064
-0.0094062301
-0.0092953571
-0.0089471815
-0.0089014079
-0.0088017554
-0.0084439748
-0.0084027265
-0.0083128541
-0.0079480162
-0.0079107448
-0.0078294815
-0.0074599606
-0.0074262199
-0.0073526067
-0.0069805877
-0.0069500071
-0.0068832508
-0.0065107128
-0.006482982
-0.0064224191
-0.0060511232
-0.0060259825
-0.0059710545
-0.0056025342
-0.0055797628
-0.005529994
-0.005165542
-0.0051449505
-0.0050999321
-0.0047405837
-0.0047220086
-0.0046813863
-0.004327892
-0.0043111902
-0.0042746552
-0.0039274568
-0.0039125017
-0.0038797835
-0.0035390429
-0.0035257249
-0.0034965853
-0.0031622569
-0.0031504802
-0.00312471
-0.0027965699
-0.0027862503
-0.002763666
-0.0024412969
-0.0024323608
-0.0024128022
-0.0020955933
-0.0020879762
-0.002071303
-0.0017584753
-0.0017521214
-0.0017382124
-0.0014288393
-0.0014237018
-0.0014124548
-0.0011054537
-0.0011014945
-0.0010928269
-0.00078692464
-0.00078411512
-0.00077796336
-0.00047173649
-0.00047005742
-0.00046637785
-0.00015754977
-0.00015699089
-0.0001557635
-1.2970341
-0.90737466
-0.29927437
-0.23005996
-0.10340597
-0.091417281
-0.031438124
-0.023617998
-0.019771993
-0.011219041
-0.017613342
-0.010203335
-0.018926817
-0.012820364
-0.019907277
-0.015039405
-0.019912502
-0.016037769
-0.01923241
-0.016133583
-0.018271532
-0.015786706
-0.017314269
-0.015305105
-0.016477937
-0.014837359
-0.015764263
-0.014412719
-0.015140346
-0.014016368
-0.014570768
-0.013627667
-0.014030796
-0.013233388
-0.013508967
-0.012829806
-0.013001156
-0.012418375
-0.012504522
-0.012000806
-0.012015613
-0.011577302
-0.011531232
-0.011147393
-0.011049257
-0.010711012
-0.010568522
-0.010268695
-0.010088457
-0.009821298
-0.0096089136
-0.0093697467
-0.0091302026
-0.0089151836
-0.0086530741
-0.0084590611
-0.0081785755
-0.0080030059
-0.0077079148
-0.0075486887
-0.007242362
-0.0070977456
-0.0067831769
-0.0066517249
-0.0063315526
-0.006212053
-0.0058885813
-0.0057800086
-0.0054552198
-0.0053566954
-0.0050322582
-0.0049430217
-0.0046202922
-0.0045396795
-0.0042196856
-0.0041471123
-0.0038305379
-0.0037654884
-0.0034527121
-0.0033947336
-0.0030858997
-0.0030345932
-0.0027296467
-0.0026846599
-0.0023833347
-0.0023443564
-0.0020461781
-0.0020129359
-0.0017172497
-0.0016895087
-0.0013955022
-0.0013730643
-0.0010797607
-0.0010624646
-0.00076868888
-0.00075641057
-0.0004608295
-0.00045348336
-0.00015391207
-0.00015146045
0.00037629593
0.0011619802
0.0024056278
0.0037520055
0.0049553302
0.0058773143
0.0064563752
0.0067512362
0.0067765614
0.0065913017
0.0062430819
0.0057750981
0.0052351987
0.0046656599
0.0041004685
0.0035615219
0.0030567057
0.0025870051
0.002151363
0.0017481055
0.0013749988
0.0010280638
0.00070373931
0.00040032239
0.00012080227
0.00010230775
0.0010469649
0.0023832254
0.0037335045
0.0048580555
0.0056116793
0.0060014632
0.0060894308
0.0059342269
0.0055960861
0.0051449135
0.0046375792
0.0041113885
0.0035897935
0.003087846
0.0026160535
0.0021853904
0.0018016649
0.0014614289
0.0011619653
0.00089897589
0.00066318432
0.00044887149
0.00025497467
8.2703171e-05
-0.0034302837
-0.0022665774
-0.0008854218
0.00012897659
0.00051528041
0.00041326452
-1.7975599e-05
-0.00061280278
-0.0011765495
-0.0016629698
-0.0020542701
-0.0023443145
-0.0025365857
-0.0026420533
-0.0026644785
-0.0026091516
-0.0024839665
-0.00229806
-0.0020565494
-0.0017675085
-0.0014429425
-0.0011043069
-0.00076178672
-0.0004243003
-0.00010670937
-0.017053424
-0.016122614
-0.015881583
-0.016542082
-0.017566481
-0.018471453
-0.018969318
-0.019032594
-0.018775571
-0.018253442
-0.017521748
-0.016634424
-0.015624828
-0.01450503
-0.013302742
-0.012041631
-0.010740127
-0.0094123356
-0.008070012
-0.0067270546
-0.0053932975
-0.0041030454
-0.0028493157
-0.0016409321
-0.00049957248
-0.065265432
-0.065287856
-0.064963428
-0.06290889
-0.060242788
-0.056763408
-0.052775368
-0.048561929
-0.04427138
-0.040016803
-0.036011906
-0.032258881
-0.028715008
-0.025154125
-0.02186489
-0.01886181
-0.016131292
-0.013652024
-0.01139743
-0.0093352418
-0.0074364859
-0.0056482103
-0.0039621924
-0.0023555497
-0.00081728954
-0.2280918
-0.18648663
-0.16560284
-0.13485689
-0.10972305
-0.08755825
-0.06870417
-0.053264419
-0.040816856
-0.030872156
-0.022890828
-0.016586393
-0.011679855
-0.0080555014
-0.005261035
-0.0031808535
-0.0016758275
-0.00063256679
4.0152408e-05
0.00041749706
0.00056452095
0.00054756355
0.00041182021
0.00020217028
-8.2647993e-05
-0.32929666
-0.12831673
-0.079835609
-0.043066334
-0.0096788781
0.016818618
0.033593488
0.041748698
0.044545046
0.04453719
0.042998003
0.040520978
0.037468405
0.034112509
0.030649322
0.027201227
0.023836679
0.020590449
0.017475797
0.014490464
0.011623275
0.0088617481
0.0061824732
0.0035757118
0.00095557053
-0.18980802
-0.16641701
-0.14337037
-0.11974427
-0.09692587
-0.076617716
-0.059444857
-0.045462303
-0.034242544
-0.025385199
-0.018436688
-0.013038196
-0.0088979076
-0.0057294126
-0.0033457622
-0.0015950325
-0.00036195516
0.00044949224
0.00092485341
0.0011331614
0.0011323358
0.00097456732
0.00070430865
0.00036748018
-3.7430204e-05
-0.082361017
-0.078006159
-0.074850845
-0.071384905
-0.067122821
-0.062279577
-0.057275923
-0.052275649
-0.047401324
-0.042715031
-0.03829291
-0.034008073
-0.029962248
-0.026236367
-0.022824681
-0.019683923
-0.016812876
-0.014205691
-0.011828859
-0.0096554097
-0.0076579405
-0.0058078736
-0.004077999
-0.0024365463
-0.00085598632
-0.019349961
-0.019433393
-0.020990846
-0.022840699
-0.024402578
-0.02540994
-0.025807933
-0.025634835
-0.025011816
-0.024035608
-0.02282336
-0.021447846
-0.019937973
-0.01832815
-0.016659074
-0.014984884
-0.013306182
-0.011621481
-0.0099489289
-0.0082961126
-0.0066693551
-0.0050756404
-0.0035238938
-0.0020265676
-0.00061802752
-0.0045723852
-0.00022049699
0.001217067
0.00084441748
-0.00063230732
-0.0024268613
-0.0039644499
-0.0051498363
-0.0060082361
-0.0065640068
-0.0068732687
-0.0069850911
-0.0069224356
-0.0067103777
-0.0063798426
-0.0059547448
-0.0054453335
-0.0048668122
-0.0042387028
-0.0035762786
-0.0028930482
-0.0022024222
-0.0015181997
-0.00085385979
-0.0002348548
-0.0043331343
2.7917392e-06
0.0027704437
0.004258951
0.0050418768
0.005112187
0.0046213128
0.0039064869
0.0031201081
0.0023765023
0.0017187635
0.0011315087
0.00064367507
0.00026367
-1.8014846e-05
-0.0002171011
-0.00034351981
-0.00040878481
-0.00042629789
-0.00040728504
-0.00036113672
-0.00029602166
-0.00021838432
-0.00013076467
-3.4382371e-05
-0.0074519971
-0.0031402831
2.2995084e-05
0.002107029
0.0033538651
0.0040475144
0.0043120006
0.0042231239
0.003954321
0.0036014221
0.0032282785
0.0028578257
0.0024967297
0.0021526255
0.0018328606
0.0015415037
0.0012806799
0.0010499841
0.00084689527
0.00066746079
0.00050806011
0.00036571223
0.00023823265
0.0001260562
3.318651e-05
-0.010488408
-0.006593367
-0.0034757682
-0.0011320881
0.0005536125
0.0017218614
0.0024548346
0.0028267941
0.0029401759
0.0028688307
0.0026845385
0.0024724148
0.0022406294
0.0019954836
0.0017492795
0.0015088488
0.0012790784
0.0010660214
0.00087264398
0.00069799962
0.00054033906
0.00039776806
0.00026768038
0.00014769606
3.9551546e-05
-0.012272632
-0.0088833886
-0.0060206737
-0.0037125147
-0.0019082363
-0.00053745103
0.00046233614
0.0011421882
0.0015663898
0.0017956787
0.0018798661
0.0018716377
0.0017984773
0.0016791206
0.0015286724
0.0013595408
0.0011815572
0.0010031768
0.00083558601
0.00067822293
0.00053129605
0.00039520169
0.00026929342
0.00015221006
4.2672403e-05
-0.01303108
-0.010140985
-0.0075960743
-0.0054450123
-0.0036723358
-0.0022423261
-0.0011211385
-0.00027105297
0.00034808575
0.00077746097
0.0010557242
0.001217778
0.0012906403
0.0012956357
0.0012501783
0.0011696459
0.001065397
0.00094663882
0.00081413199
0.00067674286
0.00054100429
0.00040937213
0.00028208871
0.00016064605
4.5890978e-05
-0.013226583
-0.010774069
-0.0085402757
-0.0065758087
-0.0048982257
-0.0034934553
-0.002340975
-0.0014159689
-0.00069216118
-0.00014352863
0.00026113399
0.00054839638
0.00073916509
0.000851189
0.00090079496
0.00090215564
0.00086682602
0.00080433811
0.00072030686
0.0006218714
0.0005128567
0.00039698708
0.00027873729
0.00016119549
4.7290818e-05
-0.013187678
-0.011106077
-0.0091542998
-0.0073849863
-0.0058256348
-0.0044861218
-0.0033538898
-0.0024117205
-0.0016398677
-0.0010189304
-0.00052875888
-0.00015059689
0.00013144617
0.00033181497
0.00046407301
0.00054018092
0.0005707589
0.00056485528
0.00053028124
0.00047382236
0.00040090121
0.00031631946
0.00022454635
0.00012976302
3.6730097e-05
-0.013074672
-0.011301328
-0.0095983976
-0.0080197148
-0.0065950785
-0.0053390969
-0.0042491129
-0.0033149869
-0.0025233939
-0.0018606308
-0.0013137226
-0.00087005836
-0.00051733818
-0.00024417899
-3.9911801e-05
0.00010512802
0.00020033358
0.00025448894
0.00027478117
0.00026796864
0.00024013532
0.00019664496
0.00014221538
8.2052772e-05
2.1925561e-05
-0.012934261
-0.011417322
-0.0099315329
-0.0085268073
-0.0072348633
-0.0060671912
-0.0050292202
-0.0041177176
-0.0033257553
-0.0026442763
-0.0020641524
-0.0015761115
-0.0011710557
-0.0008403029
-0.00057561432
-0.00036907412
-0.00021296935
-9.9841071e-05
-2.3104096e-05
2.3598415e-05
4.6273019e-05
5.0424407e-05
4.1059255e-05
2.3913522e-05
3.8904083e-06
-0.012768269
-0.011466412
-0.010169166
-0.0089197591
-0.007746909
-0.0066659771
-0.0056858828
-0.0048084403
-0.0040302813
-0.0033459786
-0.0027492366
-0.0022333697
-0.0017915512
-0.001417148
-0.0011037689
-0.00084511633
-0.00063507423
-0.00046768401
-0.0003369583
-0.00023721454
-0.00016294425
-0.00010886143
-6.9857814e-05
-4.0418298e-05
-1.6355164e-05
-0.012567464
-0.011445378
-0.010309342
-0.009197041
-0.0081333528
-0.0071370322
-0.0062184999
-0.0053819545
-0.00462712
-0.0039511374
-0.0033498845
-0.002818713
-0.0023526555
-0.0019466675
-0.0015957668
-0.0012950067
-0.0010395169
-0.00082442586
-0.00064473354
-0.00049551255
-0.00037189772
-0.00026909425
-0.00018236713
-0.00010623121
-3.6663089e-05
-0.012326757
-0.011354705
-0.010356346
-0.0093641245
-0.0084016341
-0.0074870555
-0.006631198
-0.0058397162
-0.0051144419
-0.004454563
-0.0038578308
-0.0033211261
-0.002840903
-0.0024134144
-0.0020348083
-0.0017012279
-0.0014087659
-0.0011534518
-0.00093119023
-0.00073783251
-0.0005691884
-0.00042105176
-0.00028921336
-0.00016926539
-5.7603639e-05
-0.012049667
-0.011203556
-0.010323557
-0.0094371715
-0.0085669619
-0.0077291298
-0.0069344172
-0.0061893113
-0.0054970765
-0.0048584739
-0.0042726518
-0.0037377259
-0.0032512545
-0.0028105062
-0.0024125381
-0.0020543442
-0.0017328129
-0.0014447307
-0.0011867783
-0.00095552487
-0.0007474622
-0.00055904284
-0.00038673297
-0.00022702434
-7.669763e-05
-0.011743086
-0.0110032
-0.010225092
-0.0094322771
-0.0086446376
-0.007876984
-0.0071401666
-0.0064408948
-0.0057832252
-0.0051689806
-0.0045983492
-0.0040704509
-0.0035837634
-0.0031363207
-0.0027259459
-0.0023502575
-0.0020067898
-0.0016929831
-0.0014061725
-0.0011435835
-0.00090235827
-0.00067961152
-0.00047246695
-0.00027786778
-9.3080355e-05
-0.011412703
-0.010762623
-0.010072222
-0.0093614486
-0.0086473729
-0.0079435073
-0.0072603224
-0.006605165
-0.0059821565
-0.0053938377
-0.0048411758
-0.0043240779
-0.0038416878
-0.0033927333
-0.0029755892
-0.0025884445
-0.0022293497
-0.0018962777
-0.001587111
-0.0012996461
-0.0010316039
-0.00078068963
-0.00054457555
-0.00032064817
-0.00010671793
-0.011062054
-0.010488014
-0.0098731013
-0.0092340405
-0.0085856851
-0.0079400807
-0.0073065117
-0.006692732
-0.0061035258
-0.0055416722
-0.0050086431
-0.0045049434
-0.0040302654
-0.003583823
-0.0031645049
-0.0027709724
-0.002401715
-0.0020551541
-0.0017296095
-0.0014233481
-0.0011346043
-0.00086156854
-0.00060240822
-0.0003549817
-0.00011760973
-0.01069339
-0.01018396
-0.0096341075
-0.0090578236
-0.0084680145
-0.0078753823
-0.0072883596
-0.006713594
-0.0061567797
-0.0056211555
-0.005108703
-0.0046201833
-0.0041557285
-0.0037150118
-0.0032973019
-0.0029016274
-0.0025268994
-0.0021719047
-0.0018353305
-0.0015158412
-0.001212085
-0.00092267436
-0.00064620413
-0.00038099915
-0.00012581794
-0.01030873
-0.0098545301
-0.0093608662
-0.0088397056
-0.0083019423
-0.0077571071
-0.0072131253
-0.0066759715
-0.0061505605
-0.0056408392
-0.0051492611
-0.0046770308
-0.0042247596
-0.003792326
-0.0033793115
-0.0029851082
-0.0026089542
-0.002249926
-0.0019070537
-0.0015793291
-0.0012657375
-0.00096524322
-0.00067680966
-0.00039918311
-0.00013147572
-0.0099104137
-0.0095037073
-0.0090588416
-0.0085860252
-0.0080945731
-0.0075928926
-0.007088219
-0.0065864299
-0.0060918963
-0.0056082223
-0.0051379293
-0.0046829411
-0.0042442387
-0.0038219878
-0.0034162158
-0.003026552
-0.0026524226
-0.0022931904
-0.0019481672
-0.0016166276
-0.0012978245
-0.00099101095
-0.00069545832
-0.00041027333
-0.00013482663
-0.0095007527
-0.0091350855
-0.008732854
-0.0083025775
-0.007852428
-0.0073898255
-0.0069212666
-0.0064522288
-0.0059871316
-0.0055292409
-0.0050810852
-0.0046445506
-0.0042207358
-0.0038104596
-0.0034140753
-0.0030314349
-0.002662185
-0.0023059514
-0.0019623314
-0.0016308293
-0.0013108783
-0.0010019459
-0.00070356283
-0.00041514039
-0.00013622395
-0.0090817386
-0.0087517215
-0.0083868877
-0.0079944392
-0.0075813883
-0.0071543268
-0.0067191042
-0.0062807646
-0.0058434617
-0.0054105084
-0.0049844748
-0.004567132
-0.0041597754
-0.0037634078
-0.0033783915
-0.0030049533
-0.0026431237
-0.002292738
-0.0019535858
-0.0016253586
-0.0013076759
-0.0010001954
-0.00070264815
-0.00041465414
-0.00013593922
-0.0086553987
-0.0083565486
-0.0080247129
-0.0076660763
-0.0072866466
-0.0068921741
-0.0064879132
-0.0060784851
-0.005667782
-0.0052590108
-0.0048547013
-0.0044567856
-0.0040667294
-0.0036854795
-0.0033135966
-0.0029515161
-0.002599491
-0.0022575452
-0.0019255382
-0.001603325
-0.0012907875
-0.00098777914
-0.00069417725
-0.00040963824
-0.00013406538
-0.0082239698
-0.0079525995
-0.0076501103
-0.0073218194
-0.0069729661
-0.0066085433
-0.0062332089
-0.0058511323
-0.0054659645
-0.0050807731
-0.0046980425
-0.0043197547
-0.0039474169
-0.0035821046
-0.0032246371
-0.0028755355
-0.0025351266
-0.0022035837
-0.0018809311
-0.0015671727
-0.0012623274
-0.00096638398
-0.00067932556
-0.00040093221
-0.00013122121
-0.0077897262
-0.0075427974
-0.0072666165
-0.0069657533
-0.0066447827
-0.0063081027
-0.0059598355
-0.0056037406
-0.0052431777
-0.0048810262
-0.0045197157
-0.0041612274
-0.0038071092
-0.0034585483
-0.0031164634
-0.0027815029
-0.0024540916
-0.0021345204
-0.0018229939
-0.0015196377
-0.0012245283
-0.000937732
-0.00065931154
-0.00038911608
-0.00012721917
-0.0073548389
-0.0071298186
-0.006877389
-0.0066014907
-0.0063061037
-0.0059951172
-0.0056722129
-0.0053408017
-0.0050039433
-0.0046643249
-0.0043242671
-0.0039856956
-0.0036501922
-0.0033190146
-0.0029931476
-0.0026733328
-0.0023600998
-0.0020538439
-0.0017548647
-0.0014633771
-0.0011795356
-0.00090347039
-0.00063529888
-0.00037488824
-0.00012241355
-0.0069213433
-0.0067161044
-0.0064852617
-0.0062322238
-0.0059604651
-0.0056734173
-0.0053743753
-0.0050664239
-0.0047523685
-0.0044347177
-0.0041156512
-0.0037970283
-0.0034804198
-0.0031671097
-0.0028581211
-0.0025542475
-0.0022561166
-0.0019642079
-0.0016788879
-0.0014004337
-0.0011290575
-0.00086493865
-0.00060824277
-0.00035887723
-0.00011706877
-0.0064911083
-0.006303861
-0.006092768
-0.0058607906
-0.0056109705
-0.0053463398
-0.0050698402
-0.004784253
-0.0044921501
-0.004195858
-0.0038974295
-0.0035986542
-0.0033010543
-0.0030059034
-0.0027142443
-0.002426913
-0.0021445923
-0.0018678172
-0.0015970034
-0.0013324719
-0.0010744741
-0.00082322263
-0.00057892381
-0.00034154058
-0.00011131054
-0.0060658242
-0.0058950479
-0.005702139
-0.0054896733
-0.0052603189
-0.0050167572
-0.0047616139
-0.0044973968
-0.0042264509
-0.0039509221
-0.0036727379
-0.0033935986
-0.0031149699
-0.0028380988
-0.0025640322
-0.0022936372
-0.0020276131
-0.0017665248
-0.0015108208
-0.0012608526
-0.0010168965
-0.00077918388
-0.00054794845
-0.00032323181
-0.00010524725
-0.0056469777
-0.0054913767
-0.0053153004
-0.005120999
-0.0049108149
-0.0046871182
-0.0044522527
-0.0042084762
-0.0039579215
-0.003702562
-0.0034441919
-0.0031844102
-0.0029246188
-0.0026660282
-0.0024096702
-0.0021564122
-0.0019069636
-0.0016619047
-0.0014217042
-0.001186734
-0.00095728548
-0.00073359249
-0.00051587973
-0.00030426946
-9.8945786e-05
-0.0052358405
-0.0050942922
-0.0049338734
-0.0047565501
-0.0045643808
-0.0043594652
-0.0041438887
-0.0039196789
-0.0036887721
-0.0034529753
-0.0032139477
-0.0029731846
-0.002732013
-0.0024915937
-0.0022529271
-0.0020168622
-0.0017841093
-0.0015552558
-0.0013307819
-0.0011110754
-0.00089644262
-0.00068711898
-0.00048329309
-0.00028493314
-9.236895e-05
-0.0048334542
-0.0047049772
-0.0045591789
-0.0043977795
-0.0042225889
-0.0040354619
-0.0038382543
-0.0036327867
-0.0034208058
-0.0032039566
-0.002983767
-0.0027616258
-0.0025387771
-0.0023163219
-0.0020952178
-0.0018762863
-0.001660224
-0.0014476145
-0.0012389414
-0.0010346018
-0.00083491552
-0.00064012862
-0.00045041123
-0.00026534029
-8.553862e-05
-0.0044406185
-0.0043243444
-0.0041922421
-0.004045817
-0.0038866606
-0.0037164097
-0.0035367132
-0.0033491971
-0.0031554326
-0.0029569137
-0.0027550337
-0.0025510739
-0.0023461912
-0.0021414195
-0.0019376647
-0.0017357113
-0.0015362313
-0.0013397925
-0.0011468697
-0.00095785553
-0.00077306786
-0.00059275147
-0.00041708124
-0.00024563513
-7.9096536e-05
-0.0040578655
-0.0039530195
-0.0038337821
-0.0037014705
-0.0035574814
-0.0034032589
-0.0032402633
-0.0030699427
-0.0028937047
-0.002712896
-0.0025287815
-0.0023425324
-0.0021552186
-0.0019677968
-0.0017811153
-0.0015959138
-0.0014128306
-0.0012324083
-0.0010551022
-0.00088128845
-0.00071127052
-0.00054528402
-0.00038352472
-0.00022599714
-7.3056678e-05
-0.0036854427
-0.003591335
-0.0034842172
-0.0033652397
-0.003235626
-0.0030966469
-0.0029495922
-0.0027957464
-0.0026363648
-0.0024726548
-0.0023057565
-0.0021367326
-0.0019665588
-0.0017961148
-0.0016261848
-0.0014574589
-0.0012905346
-0.0011259226
-0.00096405407
-0.0008052871
-0.00064991509
-0.00049818121
-0.00035032762
-0.00020653439
-6.6944764e-05
-0.0033233491
-0.003239369
-0.0031437068
-0.003037364
-0.0029214089
-0.0027969548
-0.002665136
-0.0025270871
-0.0023839212
-0.0022367135
-0.0020864848
-0.0019341902
-0.0017807111
-0.0016268478
-0.0014733181
-0.0013207569
-0.0011697173
-0.0010206756
-0.00087403673
-0.00073014181
-0.00058927909
-0.00045170289
-0.00031767865
-0.0001873158
-6.076403e-05
-0.0029713942
-0.0028970013
-0.002812204
-0.0027178698
-0.0026149265
-0.0025043439
-0.0023871137
-0.0022642308
-0.0021366755
-0.0020053979
-0.0018713037
-0.0017352445
-0.001598009
-0.0014603176
-0.0013228196
-0.001186092
-0.0010506415
-0.00091690676
-0.00078526487
-0.00065603823
-0.00052950549
-0.00040591737
-0.00028552562
-0.0001683734
-5.4630562e-05
-0.0026292233
-0.0025639356
-0.0024894746
-0.0024065861
-0.0023160701
-0.0022187647
-0.0021155296
-0.0020072295
-0.0018947196
-0.0017788313
-0.0016603606
-0.0015400587
-0.0014186241
-0.0012966977
-0.0011748594
-0.0010536275
-0.00093345952
-0.00081475456
-0.00069785854
-0.00058307081
-0.00047065278
-0.0003608389
-0.00025385592
-0.00014971344
-4.8580522e-05
-0.0022963069
-0.0022396953
-0.002175098
-0.0021031503
-0.0020245349
-0.0019399681
-0.0018501871
-0.0017559351
-0.0016579491
-0.0015569481
-0.0014536228
-0.0013486272
-0.0012425716
-0.0011360181
-0.0010294776
-0.00092340849
-0.00081821736
-0.00071426129
-0.000611852
-0.00051126113
-0.00041272672
-0.00031646012
-0.00022266191
-0.00013133195
-4.2621437e-05
-0.0019719447
-0.0019236318
-0.001868481
-0.0018070267
-0.0017398429
-0.0016675333
-0.0015907204
-0.0015100336
-0.0014260984
-0.0013395268
-0.0012509084
-0.0011608027
-0.0010697339
-0.00097818638
-0.00088660181
-0.00079537802
-0.00070486947
-0.0006153892
-0.00052721172
-0.00044057732
-0.00035569661
-0.0002727551
-0.00019192729
-0.0001132182
-3.6751495e-05
-0.0016552924
-0.0016149521
-0.0015688865
-0.0015175357
-0.0014613736
-0.001400899
-0.0013366265
-0.001269078
-0.0011987733
-0.0011262222
-0.0010519167
-0.00097632528
-0.00089988755
-0.00082301108
-0.00074606862
-0.00066939707
-0.00059329772
-0.00051803767
-0.000443852
-0.0003709469
-0.00029950301
-0.0002296788
-0.00016162451
-9.535647e-05
-3.0960682e-05
-0.0013453833
-0.00131274
-0.0012754529
-0.0012338745
-0.0011883844
-0.001139383
-0.0010872839
-0.0010325062
-0.00097546866
-0.00091658286
-0.00085624684
-0.00079484035
-0.00073272045
-0.0006702189
-0.0006076399
-0.00054525918
-0.00048332407
-0.0004220544
-0.00036164412
-0.00030226344
-0.00024406126
-0.0001871679
-0.00013171215
-7.7717385e-05
-2.5245014e-05
-0.0010411234
-0.0010159514
-0.00098719204
-0.0009551144
-0.00092000912
-0.00088218298
-0.00084195308
-0.00079964135
-0.00075556889
-0.00071005238
-0.00066339852
-0.00061590044
-0.00056783452
-0.00051945756
-0.00047100573
-0.0004226935
-0.00037471372
-0.00032723812
-0.00028041848
-0.00023438805
-0.00018926298
-0.0001451441
-0.00010213603
-6.026788e-05
-1.9594116e-05
-0.00074125885
-0.00072338471
-0.00070295965
-0.00068017358
-0.00065523165
-0.00062835055
-0.00059975443
-0.00056967121
-0.00053832857
-0.00050595054
-0.00047275464
-0.00043894917
-0.00040473074
-0.00037028234
-0.00033577242
-0.0003013543
-0.00026716601
-0.00023333072
-0.00019995744
-0.0001671421
-0.00013496849
-0.00010350939
-7.2840495e-05
-4.2982313e-05
-1.3973031e-05
-0.00044441714
-0.00043372075
-0.00042149637
-0.00040785713
-0.00039292529
-0.00037682996
-0.00035970482
-0.00034168597
-0.00032290963
-0.00030350962
-0.00028361615
-0.00026335372
-0.00024284002
-0.00022218487
-0.00020148936
-0.00018084564
-0.00016033675
-0.00014003685
-0.00012001181
-0.00010031997
-8.1012875e-05
-6.2136093e-05
-4.3733653e-05
-2.5804738e-05
-8.3769339e-06
-0.00014843456
-0.0001448644
-0.00014078401
-0.00013623111
-0.0001312464
-0.00012587289
-0.00012015516
-0.00011413864
-0.0001078688
-0.00010139038
-9.4746808e-05
-8.7979668e-05
-8.1128181e-05
-7.4229101e-05
-6.7316149e-05
-6.0420117e-05
-5.3568748e-05
-4.6786837e-05
-4.0096484e-05
-3.3517476e-05
-2.7067757e-05
-2.0763836e-05
-1.4620696e-05
-8.6247307e-06
-2.7899395e-06
)
;

boundaryField
{
    Walls
    {
        type            zeroGradient;
    }
    Inlet
    {
        type            fixedValue;
        value           uniform 500;
    }
    Outlet
    {
        type            fixedValue;
        value           uniform 0;
    }
    Front
    {
        type            wedge;
    }
    Back
    {
        type            wedge;
    }
    defaultFaces
    {
        type            empty;
    }
}


// ************************************************************************* //
