/*--------------------------------*- C++ -*----------------------------------*\
| =========                 |                                                 |
| \\      /  F ield         | OpenFOAM: The Open Source CFD Toolbox           |
|  \\    /   O peration     | Version:  4.0                                   |
|   \\  /    A nd           | Web:      www.OpenFOAM.org                      |
|    \\/     M anipulation  |                                                 |
\*---------------------------------------------------------------------------*/
FoamFile
{
    version     2.0;
    format      ascii;
    class       surfaceScalarField;
    location    "0.64";
    object      phi;
}
// * * * * * * * * * * * * * * * * * * * * * * * * * * * * * * * * * * * * * //

dimensions      [0 3 -1 0 0 0 0];

internalField   nonuniform List<scalar> 
3364
(
-8.7628408e-11
1.598759e-08
-4.2133435e-10
5.088935e-08
8.6290556e-08
-5.4864833e-10
1.6536218e-08
-7.9029708e-10
5.1131021e-08
8.5500263e-08
-8.4212997e-10
1.7378334e-08
5.4107795e-11
5.0234812e-08
8.5554378e-08
-3.9797495e-10
1.7776267e-08
-1.0018284e-10
4.9936991e-08
8.5454184e-08
2.0893143e-10
1.7567275e-08
-7.8010095e-10
5.0925944e-08
8.4674042e-08
-4.5232441e-11
1.7612459e-08
-6.8635822e-10
5.1567007e-08
8.3987635e-08
-1.4237539e-11
1.7626677e-08
-6.1664414e-10
5.216937e-08
8.3370952e-08
5.6593324e-10
1.706073e-08
-3.7848678e-10
5.3113751e-08
8.2992436e-08
2.5328481e-10
1.6807406e-08
8.2123654e-10
5.254576e-08
8.3813645e-08
1.6099538e-10
1.6646369e-08
6.5588818e-10
5.2050822e-08
8.4469495e-08
2.7898186e-10
1.6367361e-08
3.3482315e-10
5.1994915e-08
8.4804271e-08
-2.1226189e-10
1.6579598e-08
4.0657956e-10
5.1376026e-08
8.5210815e-08
-3.1735042e-10
1.6896914e-08
8.6637459e-11
5.0972016e-08
8.5297429e-08
1.1932925e-11
1.6884948e-08
7.2712053e-11
5.0911208e-08
8.5370115e-08
2.5023981e-10
1.663468e-08
8.9071303e-10
5.0270681e-08
8.6260777e-08
2.8317476e-11
1.6606342e-08
6.9875379e-10
4.96002e-08
8.6959478e-08
-4.6623954e-10
1.7072577e-08
-1.0116705e-09
5.0145605e-08
8.5947772e-08
-1.212854e-10
1.7193817e-08
-1.2805796e-09
5.1304852e-08
8.4667161e-08
6.6649634e-10
1.6527245e-08
3.8637572e-10
5.1584906e-08
8.5053497e-08
1.6095975e-10
1.6366243e-08
1.1475208e-09
5.0598328e-08
8.6200994e-08
-1.8537308e-10
1.6551574e-08
-1.3252676e-10
5.0545466e-08
8.6068448e-08
3.9647737e-10
1.6155057e-08
-1.3573697e-10
5.1077595e-08
8.593266e-08
5.7856465e-10
1.5576472e-08
3.1948314e-10
5.1336605e-08
8.6252088e-08
-3.3036495e-10
1.5906802e-08
1.5261842e-10
5.0853614e-08
8.6404683e-08
-9.5770843e-10
1.6864463e-08
-1.1422315e-10
5.001012e-08
8.6290441e-08
-4.2319479e-10
1.728762e-08
-1.292834e-09
5.0879737e-08
8.4997579e-08
4.4017447e-11
1.7243553e-08
-1.7547103e-09
5.2678407e-08
8.3242813e-08
-1.1690405e-10
1.7360442e-08
-1.069813e-09
5.3631262e-08
8.2172961e-08
1.2173698e-10
1.7238751e-08
7.8007631e-10
5.2972987e-08
8.2953053e-08
1.4666252e-09
1.577234e-08
5.7953216e-09
4.8644413e-08
8.8748393e-08
1.1389188e-08
4.3824998e-09
4.9047263e-08
1.0984477e-08
1.0596827e-08
1.2719625e-07
4.8539647e-09
-4.719309e-10
1.7127035e-08
-1.290071e-09
-1.4726793e-09
2.9194675e-08
-3.6933869e-10
-1.0255831e-10
-1.3699884e-09
-2.8935095e-10
-4.3850393e-10
-2.4040637e-09
-9.3872525e-11
-8.6710382e-12
-3.5017678e-10
-3.3011535e-11
-7.0612264e-11
-7.1803268e-10
-4.5204315e-12
-4.1488857e-12
-2.9426063e-11
-8.1012924e-12
-6.5496023e-12
-9.3484957e-11
-1.0183499e-12
-3.1305289e-12
-3.4993833e-12
-5.6204901e-12
5.2568969e-13
-1.0574863e-11
-1.7043353e-13
-2.960155e-12
3.7750649e-13
-6.1685559e-12
-2.4981421e-12
3.4019133e-12
4.028415e-13
-3.3628939e-12
2.4775967e-12
-8.2432039e-12
-7.8822999e-12
7.8618651e-12
1.3755494e-13
-3.5003662e-12
1.1497819e-12
-9.255345e-12
-1.1270689e-11
4.5382599e-12
-3.1624816e-13
-3.1840277e-12
-8.4830291e-13
-8.7231571e-12
-1.1558923e-11
-5.5988347e-13
-6.0315815e-13
-2.5807801e-12
-2.1712178e-12
-7.1549371e-12
-9.7298955e-12
-4.0000046e-12
-6.1606164e-13
-1.964644e-12
-2.2937015e-12
-5.4771566e-12
-7.5401605e-12
-4.4832246e-12
-4.5751835e-13
-1.5070738e-12
-1.7427675e-12
-4.1918122e-12
-5.816982e-12
-3.4658007e-12
-2.9115173e-13
-1.2158899e-12
-1.0885438e-12
-3.3943669e-12
-4.7849084e-12
-2.1205363e-12
-1.6831617e-13
-1.0475553e-12
-6.1175972e-13
-2.9508991e-12
-4.2473963e-12
-1.1492361e-12
-1.0193573e-13
-9.456092e-13
-3.6360527e-13
-2.6892212e-12
-3.9498439e-12
-6.6114697e-13
-7.408209e-14
-8.7152112e-13
-2.6325901e-13
-2.5000438e-12
-3.7415244e-12
-4.7157986e-13
-6.1341128e-14
-8.1017682e-13
-2.2063426e-13
-2.3407547e-12
-3.5603475e-12
-4.0181937e-13
-5.2661611e-14
-7.5751414e-13
-1.9154822e-13
-2.2018755e-12
-3.3955953e-12
-3.5631402e-13
-4.349709e-14
-7.1401767e-13
-1.5939102e-13
-2.0859917e-12
-3.2541605e-12
-3.0084367e-13
-3.3101005e-14
-6.8091859e-13
-1.219155e-13
-1.9971896e-12
-3.1458753e-12
-2.3022204e-13
-2.378975e-14
-6.5713177e-13
-8.7009627e-14
-1.9339838e-12
-3.073682e-12
-1.592269e-13
-1.773602e-14
-6.3939937e-13
-6.2569424e-14
-1.8891655e-12
-3.0223867e-12
-1.1389056e-13
-1.3026289e-14
-6.2637712e-13
-4.7050852e-14
-1.8551566e-12
-2.9867712e-12
-8.2692929e-14
-1.0465016e-14
-6.1591636e-13
-3.734563e-14
-1.8282917e-12
-2.9585655e-12
-6.5578129e-14
-9.2125095e-15
-6.0670821e-13
-3.2624617e-14
-1.8048951e-12
-2.9327403e-12
-5.8476096e-14
-8.483941e-15
-5.9822862e-13
-3.1121848e-14
-1.7822723e-12
-2.9062654e-12
-5.7622453e-14
-8.566634e-15
-5.8966625e-13
-3.1982752e-14
-1.7588706e-12
-2.8763283e-12
-6.1944379e-14
-8.851808e-15
-5.8081855e-13
-3.3727933e-14
-1.7340082e-12
-2.8415798e-12
-6.8499716e-14
-9.6637651e-15
-5.7115869e-13
-3.6886097e-14
-1.7067987e-12
-2.8008207e-12
-7.7666866e-14
-1.0681951e-14
-5.604804e-13
-4.1671421e-14
-1.6758211e-12
-2.753806e-12
-8.8706141e-14
-1.1430925e-14
-5.4905289e-13
-4.5199412e-14
-1.6420636e-12
-2.7014636e-12
-9.756017e-14
-1.2164035e-14
-5.3689201e-13
-4.7484475e-14
-1.6067532e-12
-2.6456069e-12
-1.0335802e-13
-1.2943014e-14
-5.2395187e-13
-5.0835946e-14
-1.5688694e-12
-2.5851456e-12
-1.1131244e-13
-1.3640798e-14
-5.1031368e-13
-5.3898425e-14
-1.52862e-12
-2.5204303e-12
-1.1862732e-13
-1.4167853e-14
-4.9614817e-13
-5.6169729e-14
-1.4866255e-12
-2.4526462e-12
-1.2396597e-13
-1.4484716e-14
-4.8166554e-13
-5.7574965e-14
-1.4435418e-12
-2.3827777e-12
-1.2745431e-13
-1.4488731e-14
-4.6717866e-13
-5.7635876e-14
-1.4004005e-12
-2.3123958e-12
-1.2802737e-13
-1.4063343e-14
-4.5311696e-13
-5.6101095e-14
-1.3583678e-12
-2.2437213e-12
-1.2478415e-13
-1.3667429e-14
-4.3945097e-13
-5.4527437e-14
-1.3175124e-12
-2.1767696e-12
-1.2148661e-13
-1.3090707e-14
-4.2636154e-13
-5.211987e-14
-1.2784872e-12
-2.1128736e-12
-1.1602249e-13
-1.2194843e-14
-4.1416781e-13
-4.8593361e-14
-1.2420922e-12
-2.0530045e-12
-1.084683e-13
-1.1131605e-14
-4.0303719e-13
-4.4520773e-14
-1.2087062e-12
-1.9981137e-12
-9.9416759e-14
-9.9731661e-15
-3.9306489e-13
-3.9849051e-14
-1.1788331e-12
-1.9490249e-12
-8.8942507e-14
-8.6645298e-15
-3.8440115e-13
-3.4583075e-14
-1.152917e-12
-1.9064412e-12
-7.7170923e-14
-7.1795263e-15
-3.7722234e-13
-2.8615108e-14
-1.1314837e-12
-1.8712128e-12
-6.3847387e-14
-5.5699221e-15
-3.716531e-13
-2.2115813e-14
-1.11494e-12
-1.8440299e-12
-4.9302247e-14
-3.8478958e-15
-3.6780584e-13
-1.522648e-14
-1.1035634e-12
-1.825325e-12
-3.3934842e-14
-2.0389633e-15
-3.6576749e-13
-8.2660014e-15
-1.0973383e-12
-1.8150658e-12
-1.8528339e-14
-4.0956948e-16
-1.7659832e-15
-3.9965864e-15
1.3672639e-07
-9.5354367e-09
-8.6955398e-09
1.4541566e-07
2.1203591e-08
-1.5455467e-09
-1.4085756e-09
1.3916097e-08
-3.4391435e-09
-5.1033644e-10
-5.7639514e-10
-4.2711794e-09
-1.133548e-09
-9.4769617e-11
-1.2817795e-10
-1.5817025e-09
-1.9287121e-10
4.6266221e-12
1.3031313e-11
-3.3406509e-10
-2.0138195e-11
1.419267e-11
3.4747752e-11
-4.1850985e-11
9.6448158e-12
7.9504582e-12
2.3448237e-11
2.0944878e-11
1.7434118e-11
-1.6218019e-12
8.5076554e-12
3.2374467e-11
1.1148936e-11
-8.2324535e-12
-1.9106655e-12
2.1567162e-11
1.8640328e-12
-1.0656165e-11
-5.8143734e-12
5.7679404e-12
-5.0027773e-12
-9.6530883e-12
-6.2658578e-12
-4.5509432e-12
-6.4890237e-12
-7.6470162e-12
-5.4751014e-12
-7.2794544e-12
-5.1294787e-12
-5.983148e-12
-4.7630317e-12
-5.8413245e-12
-2.975053e-12
-5.1285257e-12
-4.4168663e-12
-3.3210943e-12
-1.5496151e-12
-4.7281007e-12
-4.3312965e-12
-1.63513e-12
-8.5827849e-13
-4.530956e-12
-4.4519324e-12
-7.3762754e-13
-5.8664525e-13
-4.415894e-12
-4.5291055e-12
-5.0947714e-13
-5.008112e-13
-4.3169147e-12
-4.5478904e-12
-4.8204299e-13
-4.5999041e-13
-4.2132579e-12
-4.5737465e-12
-4.3415992e-13
-3.9999823e-13
-4.1141284e-12
-4.5976787e-12
-3.7609846e-13
-3.0356903e-13
-4.0408113e-12
-4.6176431e-12
-2.8364303e-13
-2.0061489e-13
-3.999457e-12
-4.6628151e-12
-1.5548609e-13
-1.3355522e-13
-3.9798284e-12
-4.7146747e-12
-8.1741817e-14
-9.4130842e-14
-3.9684278e-12
-4.7597014e-12
-4.915187e-14
-7.2240926e-14
-3.9618025e-12
-4.8078498e-12
-2.4140453e-14
-6.777241e-14
-3.9525432e-12
-4.8514368e-12
-2.4232951e-14
-7.1001622e-14
-3.9392002e-12
-4.8720794e-12
-5.0405433e-14
-8.3686015e-14
-3.9174933e-12
-4.8642514e-12
-9.1558432e-14
-1.0427258e-13
-3.8817531e-12
-4.8385095e-12
-1.3005634e-13
-1.276026e-13
-3.8318477e-12
-4.7925044e-12
-1.7364651e-13
-1.4649522e-13
-3.7740867e-12
-4.7199013e-12
-2.1913414e-13
-1.6347622e-13
-3.7081963e-12
-4.6447744e-12
-2.3863575e-13
-1.7697082e-13
-3.6346067e-12
-4.5601058e-12
-2.6166887e-13
-1.8999504e-13
-3.5559451e-12
-4.4663839e-12
-2.8374344e-13
-2.0404764e-13
-3.4705436e-12
-4.3640985e-12
-3.0635687e-13
-2.1443753e-13
-3.3800888e-12
-4.2548958e-12
-3.2366153e-13
-2.2103369e-13
-3.2865244e-12
-4.1415347e-12
-3.3441366e-13
-2.2261461e-13
-3.1919505e-12
-4.0269837e-12
-3.371825e-13
-2.1880516e-13
-3.0979413e-12
-3.909289e-12
-3.3651477e-13
-2.1306277e-13
-3.0063755e-12
-3.7951921e-12
-3.2717287e-13
-2.0323089e-13
-2.9191763e-12
-3.6866676e-12
-3.1176711e-13
-1.9049206e-13
-2.8371607e-12
-3.5847512e-12
-2.9241886e-13
-1.7459795e-13
-2.7619867e-12
-3.490906e-12
-2.6845235e-13
-1.5616199e-13
-2.6947737e-12
-3.4069292e-12
-2.4014707e-13
-1.3553118e-13
-2.6364193e-12
-3.3340558e-12
-2.0841201e-13
-1.1216372e-13
-2.5881084e-12
-3.273591e-12
-1.7263549e-13
-8.6598905e-14
-2.5508168e-12
-3.2268922e-12
-1.3330411e-13
-5.9622131e-14
-2.5251342e-12
-3.1947205e-12
-9.1799956e-14
-3.2621158e-14
-2.5110459e-12
-3.1770571e-12
-5.0290341e-14
-7.0006081e-15
-1.0642166e-14
-3.5257985e-12
3.5212901e-12
-5.3261331e-12
1.7855168e-12
-5.7643828e-12
4.2254508e-13
-6.1389083e-12
3.6356329e-13
-8.236078e-12
2.089575e-12
-1.4588293e-11
6.3471545e-12
-2.6524976e-11
1.1933662e-11
-4.5431017e-11
1.8904652e-11
-7.1447337e-11
2.6016225e-11
-1.0448197e-10
3.3035497e-11
-1.4346234e-10
3.8981903e-11
-1.8645808e-10
4.2997675e-11
-2.3152111e-10
4.5065163e-11
-2.771357e-10
4.5616739e-11
-3.2239501e-10
4.5261348e-11
-3.6682048e-10
4.4427264e-11
-4.0975702e-10
4.2938057e-11
-4.5025491e-10
4.0499058e-11
-4.874128e-10
3.7158727e-11
-5.2032228e-10
3.2909987e-11
-5.4814002e-10
2.7817977e-11
-5.7030137e-10
2.216138e-11
-5.8636863e-10
1.6067146e-11
-5.9586804e-10
9.499217e-12
2.5786112e-12
-4.1097488e-11
4.4623432e-11
-8.8793547e-11
4.9488982e-11
-1.445481e-10
5.6185812e-11
-2.1087608e-10
6.6700787e-11
-2.8949946e-10
8.0722335e-11
-3.8428203e-10
1.01139e-10
-4.9745268e-10
1.2511329e-10
-6.2943952e-10
1.5090003e-10
-7.7835248e-10
1.7493713e-10
-9.4063691e-10
1.9532722e-10
-1.1131478e-09
2.1149932e-10
-1.2934965e-09
2.2335224e-10
-1.4793655e-09
2.3093939e-10
-1.6688378e-09
2.350935e-10
-1.8597175e-09
2.3614481e-10
-2.0508313e-09
2.3554409e-10
-2.2513e-09
2.4340912e-10
-2.4418395e-09
2.3104031e-10
-2.6151014e-09
2.1042178e-10
-2.7662817e-09
1.8409074e-10
-2.8917046e-09
1.5324086e-10
-2.9887644e-09
1.1922062e-10
-3.0551594e-09
8.2461179e-11
-3.0869912e-09
4.1329822e-11
1.0664469e-11
-1.2090867e-10
1.6554148e-10
-2.5948817e-10
1.8808334e-10
-4.2078538e-10
2.1750048e-10
-6.1354077e-10
2.5947438e-10
-8.4561532e-10
3.1281487e-10
-1.1184571e-09
3.739979e-10
-1.4349076e-09
4.4157972e-10
-1.8579714e-09
5.7397818e-10
-2.3172727e-09
6.3425117e-10
-2.786195e-09
6.642604e-10
-3.2500415e-09
6.7535514e-10
-3.7001171e-09
6.7343553e-10
-4.1302828e-09
6.6111133e-10
-4.5347493e-09
6.3956491e-10
-4.9073953e-09
6.0879441e-10
-5.2422189e-09
5.7037012e-10
-5.5243331e-09
5.2552467e-10
-5.7683321e-09
4.7503969e-10
-5.977853e-09
4.1994214e-10
-6.1551433e-09
3.613796e-10
-6.3020063e-09
3.001018e-10
-6.4197072e-09
2.3691875e-10
-6.5083838e-09
1.7113449e-10
-6.5701658e-09
1.0310807e-10
3.4200714e-11
-3.6124671e-10
5.268059e-10
-7.6503608e-10
5.9189943e-10
-1.2395641e-09
6.9205793e-10
-2.0241338e-09
1.0440714e-09
-2.8818011e-09
1.170506e-09
-3.7040442e-09
1.1962611e-09
-4.4364978e-09
1.1740498e-09
-4.9828262e-09
1.1203199e-09
-5.3931142e-09
1.04455e-09
-5.6826592e-09
9.5381419e-10
-5.8666122e-09
8.5931501e-10
-5.9573429e-09
7.6417158e-10
-5.9654219e-09
6.6919429e-10
-5.8923824e-09
5.6652844e-10
-5.7543096e-09
4.7072361e-10
-5.5685851e-09
3.8464695e-10
-5.3524939e-09
3.0943403e-10
-5.1230723e-09
2.4561816e-10
-4.8964451e-09
1.933145e-10
-4.686689e-09
1.516227e-10
-4.505546e-09
1.1895764e-10
-4.3617611e-09
9.3132316e-11
-4.2602047e-09
6.9576227e-11
-4.204852e-09
4.7753333e-11
2.5305682e-11
-2.1749869e-09
2.7018213e-09
-3.912559e-09
2.329503e-09
-5.4110169e-09
2.1905465e-09
-6.1002328e-09
1.7333094e-09
-6.183719e-09
1.2540105e-09
-5.7251368e-09
7.3769372e-10
-4.9688845e-09
4.1780976e-10
-3.9825587e-09
1.340044e-10
-2.8316081e-09
-1.063918e-10
-1.5764795e-09
-3.0130725e-10
-3.3213305e-10
-3.8502696e-10
9.0610734e-10
-4.7406979e-10
2.2089015e-09
-6.3360117e-10
3.6257893e-09
-8.5035941e-10
5.0114546e-09
-9.1494012e-10
6.3251851e-09
-9.2908025e-10
7.54419e-09
-9.0956564e-10
8.6537345e-09
-8.6391945e-10
9.6437403e-09
-7.9668263e-10
1.0505892e-08
-7.1051905e-10
1.1232442e-08
-6.075798e-10
1.181508e-08
-4.8949264e-10
1.2243382e-08
-3.5871041e-10
1.2508787e-08
-2.1763625e-10
-6.5173807e-11
1.0604845e-09
1.6414228e-09
4.2529518e-09
-8.6291262e-10
7.9642858e-09
-1.520716e-09
1.164037e-08
-1.942744e-09
1.5355777e-08
-2.4613726e-09
1.9004475e-08
-2.9109771e-09
2.2597714e-08
-3.1753978e-09
2.5975788e-08
-3.244032e-09
2.9047671e-08
-3.1782337e-09
3.1787538e-08
-3.0411288e-09
3.4264677e-08
-2.8621175e-09
3.644038e-08
-2.6497201e-09
3.8237064e-08
-2.4302323e-09
3.9609545e-08
-2.2227858e-09
4.0702085e-08
-2.0074253e-09
4.1565831e-08
-1.792771e-09
4.2240891e-08
-1.5845704e-09
4.2760887e-08
-1.3838606e-09
4.3154954e-08
-1.1906946e-09
4.3448677e-08
-1.0041873e-09
4.3663701e-08
-8.2254956e-10
4.3817517e-08
-6.4325503e-10
4.3922357e-08
-4.6349596e-10
4.3985512e-08
-2.8073811e-10
-8.9174689e-11
1.4936293e-07
-2.3046329e-09
1.4793669e-07
5.6425559e-10
1.4533041e-07
1.08635e-09
1.4185146e-07
1.5369004e-09
1.3729092e-07
2.0997741e-09
1.3180265e-07
2.5778152e-09
1.2575466e-07
2.8730413e-09
1.1953982e-07
2.9711902e-09
1.1342887e-07
2.9330525e-09
1.0757421e-07
2.8138152e-09
1.0204702e-07
2.6653214e-09
9.6897522e-08
2.5000019e-09
9.2156569e-08
2.3109189e-09
8.7823623e-08
2.1103378e-09
8.3909247e-08
1.9071117e-09
8.0411053e-08
1.7055688e-09
7.7317849e-08
1.5087668e-09
7.4615903e-08
1.3182082e-09
7.2291131e-08
1.1341898e-09
7.0330933e-08
9.5611644e-10
6.8725784e-08
7.8269817e-10
6.747055e-08
6.1207192e-10
6.6565788e-08
4.4135474e-10
6.6017304e-08
2.6782986e-10
8.5640891e-11
1.318814e-08
-1.5765525e-09
1.5493836e-08
-1.7413278e-09
1.8108244e-08
-1.5279434e-09
2.0821591e-08
-1.1763359e-09
2.3636678e-08
-7.152064e-10
2.65579e-08
-3.4330627e-10
2.948809e-08
-5.7056191e-11
3.2265462e-08
1.9390727e-10
3.4852234e-08
3.4636836e-10
3.7209879e-08
4.5625738e-10
3.9296493e-08
5.7879402e-10
4.0925503e-08
8.7107682e-10
4.2218223e-08
1.0182819e-09
4.3244747e-08
1.0838944e-09
4.4047631e-08
1.1043068e-09
4.4663959e-08
1.0893174e-09
4.5127264e-08
1.0455365e-09
4.5467158e-08
9.7838565e-10
4.5710009e-08
8.9140904e-10
4.5878831e-08
7.8736156e-10
4.5993193e-08
6.6840256e-10
4.6069069e-08
5.3625847e-10
4.6117968e-08
3.9251715e-10
4.6147066e-08
2.3879132e-10
7.2639866e-11
-5.0783287e-09
-7.6941333e-10
-5.7990077e-09
-1.0206579e-09
-6.1858142e-09
-1.1411467e-09
-6.1569666e-09
-1.2051929e-09
-5.6629568e-09
-1.209224e-09
-4.8406586e-09
-1.16561e-09
-3.8029847e-09
-1.094733e-09
-2.6039629e-09
-1.0051147e-09
-1.3526075e-09
-9.0498458e-10
-9.5686145e-11
-8.006591e-10
1.1789829e-09
-6.9586798e-10
2.636951e-09
-5.8688185e-10
4.135949e-09
-4.8070448e-10
5.6027001e-09
-3.8284289e-10
7.0013404e-09
-2.943178e-10
8.3102753e-09
-2.196003e-10
9.5276098e-09
-1.7177936e-10
1.0638449e-08
-1.3243434e-10
1.1630475e-08
-1.0059623e-10
1.2493672e-08
-7.5814184e-11
1.3219473e-08
-5.73773e-11
1.3799907e-08
-4.4153558e-11
1.4227106e-08
-3.4660593e-11
1.4492497e-08
-2.6578258e-11
-1.6241317e-11
-2.1654519e-09
-1.856643e-10
-2.9568333e-09
-2.2927835e-10
-3.7936564e-09
-3.043279e-10
-4.6118445e-09
-3.8701162e-10
-5.3489386e-09
-4.7213852e-10
-5.8986628e-09
-6.158958e-10
-6.3171598e-09
-6.7624651e-10
-6.6133074e-09
-7.0897804e-10
-6.7946318e-09
-7.2367104e-10
-6.8710039e-09
-7.2429752e-10
-6.8526899e-09
-7.1419227e-10
-6.7436361e-09
-6.9594524e-10
-6.5550378e-09
-6.693117e-10
-6.3026961e-09
-6.3519267e-10
-6.0021248e-09
-5.9489654e-10
-5.6709256e-09
-5.5080609e-10
-5.3387927e-09
-5.0391806e-10
-5.0171866e-09
-4.5404562e-10
-4.7163097e-09
-4.0147763e-10
-4.4458167e-09
-3.463112e-10
-4.2146077e-09
-2.8858997e-10
-4.0304609e-09
-2.2830352e-10
-3.8996721e-09
-1.654525e-10
-3.8260418e-09
-1.0021147e-10
-3.3765397e-11
-5.2535343e-10
5.6272685e-12
-7.5108304e-10
-3.5457185e-12
-1.0288979e-09
-2.6510708e-11
-1.3499138e-09
-6.5994281e-11
-1.7180382e-09
-1.0401362e-10
-2.1916191e-09
-1.423155e-10
-2.6871717e-09
-1.8069586e-10
-3.1833499e-09
-2.1280296e-10
-3.6695047e-09
-2.3752035e-10
-4.1381741e-09
-2.5563317e-10
-4.5831395e-09
-2.6923273e-10
-4.9995182e-09
-2.7957313e-10
-5.3768315e-09
-2.9200546e-10
-5.6948016e-09
-3.1723002e-10
-5.9745152e-09
-3.1519066e-10
-6.2205009e-09
-3.0482841e-10
-6.4365585e-09
-2.8786851e-10
-6.6252199e-09
-2.6539243e-10
-6.7885272e-09
-2.3817849e-10
-6.928109e-09
-2.0673771e-10
-7.0451527e-09
-1.7155443e-10
-7.1402656e-09
-1.3319873e-10
-7.2133043e-09
-9.2421952e-11
-7.2641814e-09
-4.9342383e-11
-1.131468e-11
-8.8204289e-11
5.1982322e-11
-1.5600836e-10
6.4260223e-11
-2.4874256e-10
6.6225293e-11
-3.7399834e-10
5.9263089e-11
-5.2098348e-10
4.2972777e-11
-6.8888526e-10
2.5587136e-11
-8.7780648e-10
8.2257585e-12
-1.0817501e-09
-8.8593987e-12
-1.2937673e-09
-2.5503684e-11
-1.5090669e-09
-4.0334523e-11
-1.7250854e-09
-5.3215679e-11
-1.9447267e-09
-5.9933652e-11
-2.1723773e-09
-6.4357107e-11
-2.4222587e-09
-6.7351309e-11
-2.669036e-09
-6.8416353e-11
-2.90619e-09
-6.7677874e-11
-3.1287914e-09
-6.5270812e-11
-3.3330069e-09
-6.1180899e-11
-3.515524e-09
-5.5665642e-11
-3.6733317e-09
-4.8934468e-11
-3.803717e-09
-4.1173667e-11
-3.9043432e-09
-3.2577195e-11
-3.9734292e-09
-2.3340599e-11
-4.0091225e-09
-1.3653623e-11
-3.7939587e-12
3.2632688e-11
4.0294884e-11
3.8920603e-11
5.7972654e-11
3.4917534e-11
7.0228656e-11
1.9404867e-11
7.4775982e-11
-1.07618e-11
7.3139583e-11
-5.1792521e-11
6.6617895e-11
-1.0348624e-10
5.9919409e-11
-1.6363193e-10
5.1286103e-11
-2.3036023e-10
4.1224318e-11
-3.0179717e-10
3.1102004e-11
-3.7554311e-10
2.0529733e-11
-4.5000792e-10
1.4530527e-11
-5.2461439e-10
1.0248624e-11
-5.9861873e-10
6.6521907e-12
-6.7076291e-10
3.7268709e-12
-7.3996379e-10
1.5219393e-12
-8.0530131e-10
6.5549876e-14
-8.6564333e-10
-8.4011171e-13
-9.1991108e-10
-1.3992017e-12
-9.6712091e-10
-1.7259908e-12
-1.0063997e-09
-1.8962469e-12
-1.0370233e-09
-1.9549729e-12
-1.0585035e-09
-1.8617511e-12
-1.0707432e-09
-1.4152369e-12
-4.3152018e-13
5.1994406e-11
2.0675049e-11
7.6331189e-11
3.3635943e-11
1.0075442e-10
4.5805478e-11
1.2130123e-10
5.4229209e-11
1.3605585e-10
5.8384993e-11
1.435372e-10
5.9136578e-11
1.4626695e-10
5.7189687e-11
1.4567132e-10
5.1881752e-11
1.4174385e-10
4.5151797e-11
1.3443986e-10
3.8406008e-11
1.2309046e-10
3.1879129e-11
1.1161914e-10
2.6001842e-11
1.0115157e-10
2.0716181e-11
9.1920887e-11
1.588286e-11
8.3787966e-11
1.185978e-11
7.6747275e-11
8.5626212e-12
7.0779141e-11
6.0336798e-12
6.5714503e-11
4.2245283e-12
6.1554473e-11
2.7608382e-12
5.8150528e-11
1.677972e-12
5.5362133e-11
8.921752e-13
5.3130663e-11
2.7653446e-13
5.1369689e-11
-1.0072839e-13
5.024995e-11
-2.9543521e-13
-2.0072473e-13
3.6427649e-11
5.8146776e-12
5.47402e-11
1.53235e-11
7.5278133e-11
2.5267649e-11
9.7385605e-11
3.2121845e-11
1.1810703e-10
3.766369e-11
1.364786e-10
4.0765141e-11
1.5224704e-10
4.1421408e-11
1.6439557e-10
3.9733386e-11
1.7228743e-10
3.7260123e-11
1.7746218e-10
3.3231446e-11
1.8111315e-10
2.8228367e-11
1.8360831e-10
2.3506889e-11
1.855704e-10
1.8754318e-11
1.8712654e-10
1.4326953e-11
1.8860065e-10
1.0385904e-11
1.9016563e-10
6.99789e-12
1.9182839e-10
4.3711789e-12
1.9328995e-10
2.7632306e-12
1.9493362e-10
1.1174428e-12
1.965605e-10
5.1363741e-14
1.9804604e-10
-5.9308144e-13
1.9920358e-10
-8.8072477e-13
1.9992374e-10
-8.2060718e-13
2.0018759e-10
-5.5900918e-13
-2.1984722e-13
1.2033042e-11
-4.5032036e-13
2.1632023e-11
5.7246324e-12
3.3473378e-11
1.3426413e-11
4.6105673e-11
1.9489679e-11
5.8885893e-11
2.4883609e-11
7.1165671e-11
2.8485515e-11
8.1944433e-11
3.0642808e-11
9.0317412e-11
3.1360578e-11
9.6492499e-11
3.1085212e-11
9.9973614e-11
2.9750512e-11
1.0098891e-10
2.7213251e-11
1.007113e-10
2.3784675e-11
9.9363669e-11
2.0102132e-11
9.7053693e-11
1.6637104e-11
9.4167222e-11
1.3272547e-11
9.0892022e-11
1.0273259e-11
8.757889e-11
7.6844752e-12
8.4737676e-11
5.6046044e-12
8.1999387e-11
3.8558873e-12
7.9467124e-11
2.5837769e-12
7.7259358e-11
1.6148307e-12
7.5650866e-11
7.2790698e-13
7.4636823e-11
1.9357013e-13
7.4124573e-11
-4.6632054e-14
-9.7882523e-14
-2.8162225e-12
-2.1849783e-12
3.6790245e-13
2.5405832e-12
5.5088225e-12
8.2855806e-12
1.0474922e-11
1.4523676e-11
1.6032404e-11
1.9326232e-11
2.1447694e-11
2.3070334e-11
2.6166471e-11
2.5924145e-11
2.9949688e-11
2.7577476e-11
3.2488853e-11
2.8546159e-11
3.3775706e-11
2.8463767e-11
3.3423001e-11
2.7566058e-11
3.088977e-11
2.6317999e-11
2.681221e-11
2.4179775e-11
2.157329e-11
2.1876096e-11
1.6182791e-11
1.8663108e-11
1.0508516e-11
1.5947583e-11
4.7305589e-12
1.3462471e-11
-9.3727675e-13
1.1272469e-11
-6.2776466e-12
9.1962772e-12
-1.1065756e-11
7.3718983e-12
-1.5194043e-11
5.7431222e-12
-1.8756366e-11
4.290229e-12
-2.1611555e-11
3.0487512e-12
-2.3854314e-11
2.1961158e-12
8.344128e-13
-7.4243772e-12
-2.0400443e-12
-6.7625536e-12
1.8787835e-12
-5.2383529e-12
6.7614143e-12
-2.5073298e-12
1.1792696e-11
1.8932164e-13
1.6629629e-11
2.9960231e-12
2.0263683e-11
5.3911236e-12
2.3529095e-11
7.0693225e-12
2.5899325e-11
8.0891625e-12
2.7526363e-11
8.2573175e-12
2.829565e-11
7.4048737e-12
2.8418533e-11
5.7324103e-12
2.7990486e-11
3.0172132e-12
2.6894987e-11
-3.7694868e-13
2.5270263e-11
-4.8673021e-12
2.3153456e-11
-9.9272471e-12
2.1007513e-11
-1.5101757e-11
1.8636957e-11
-2.0257811e-11
1.6428491e-11
-2.4993416e-11
1.3931842e-11
-2.927143e-11
1.1649866e-11
-3.2975349e-11
9.4469897e-12
-3.5985819e-11
7.3006448e-12
-3.8134565e-11
5.1974386e-12
-3.9084998e-11
3.1464888e-12
1.0589361e-12
-5.9864236e-12
-1.894967e-12
-5.8265221e-12
1.7188715e-12
-4.7953188e-12
5.7302093e-12
-2.7620115e-12
9.7593942e-12
7.9722776e-14
1.3787905e-11
2.3687277e-12
1.7974691e-11
4.6784523e-12
2.1219383e-11
6.7142681e-12
2.3863521e-11
8.4097878e-12
2.5830853e-11
9.5209907e-12
2.7184454e-11
1.0045398e-11
2.7894128e-11
1.0005765e-11
2.8030116e-11
9.3048266e-12
2.7595916e-11
7.9491163e-12
2.6625959e-11
5.8652487e-12
2.5237302e-11
3.376365e-12
2.349637e-11
5.6247171e-13
2.1450818e-11
-2.2588188e-12
1.9249743e-11
-5.1798908e-12
1.6852871e-11
-7.9073301e-12
1.4377258e-11
-1.0308527e-11
1.1848137e-11
-1.2278071e-11
9.2701368e-12
-1.3718492e-11
6.6378063e-12
-1.4498322e-11
3.9262656e-12
1.2403808e-12
-3.1815704e-12
-2.0345318e-12
-2.3410259e-12
8.7829706e-13
-8.6943189e-13
4.2585945e-12
1.4903049e-12
7.3996432e-12
4.1250869e-12
1.1153114e-11
7.0905287e-12
1.5009244e-11
1.0251719e-11
1.8058191e-11
1.3253282e-11
2.0861957e-11
1.6050216e-11
2.3033918e-11
1.8571039e-11
2.4663629e-11
2.0710916e-11
2.5754249e-11
2.2423145e-11
2.6317881e-11
2.3663729e-11
2.6355323e-11
2.4387494e-11
2.5902182e-11
2.46179e-11
2.5006881e-11
2.4421579e-11
2.3692672e-11
2.3841968e-11
2.2030407e-11
2.3017437e-11
2.007425e-11
2.1993549e-11
1.7876733e-11
2.0894256e-11
1.5476522e-11
1.9825646e-11
1.2916717e-11
1.8871325e-11
1.0224427e-11
1.8117456e-11
7.391643e-12
1.7595216e-11
4.4484735e-12
1.465048e-12
-1.1035899e-12
-2.5661259e-12
6.4361129e-14
-2.8969695e-13
1.9837304e-12
2.3391914e-12
4.3444298e-12
5.0389175e-12
7.1729991e-12
8.3245247e-12
1.0536537e-11
1.1645691e-11
1.3984378e-11
1.4610339e-11
1.7673345e-11
1.7172982e-11
2.1296472e-11
1.9410784e-11
2.4744891e-11
2.1215206e-11
2.7961776e-11
2.2537359e-11
3.0901996e-11
2.3377655e-11
3.3481969e-11
2.3775345e-11
3.5660043e-11
2.3724101e-11
3.7436528e-11
2.3230388e-11
3.8804089e-11
2.2325102e-11
3.979703e-11
2.1037455e-11
4.0461033e-11
1.9410234e-11
4.085149e-11
1.7486263e-11
4.1032905e-11
1.5295092e-11
4.1069652e-11
1.2879955e-11
4.1014003e-11
1.0280061e-11
4.0822231e-11
7.583399e-12
4.064817e-11
4.6225188e-12
1.304954e-12
-1.022774e-13
-3.2015397e-12
1.0923222e-12
-1.4843494e-12
2.7543378e-12
6.7713189e-13
4.8348758e-12
2.9583435e-12
7.60318e-12
5.556191e-12
1.0836282e-11
8.4125656e-12
1.4424139e-11
1.1022462e-11
1.8104042e-11
1.3493064e-11
2.1880736e-11
1.5634077e-11
2.5700521e-11
1.7395411e-11
2.9381057e-11
1.8856814e-11
3.285572e-11
1.9902985e-11
3.6099625e-11
2.0531434e-11
3.9075161e-11
2.0748558e-11
4.1738933e-11
2.056661e-11
4.4047571e-11
2.0016457e-11
4.6004684e-11
1.9080335e-11
4.7628701e-11
1.778621e-11
4.8949801e-11
1.6165155e-11
4.999455e-11
1.4250335e-11
5.0807727e-11
1.2066771e-11
5.1446836e-11
9.6409449e-12
5.2082571e-11
6.9476543e-12
5.2476458e-11
4.2286238e-12
1.5540817e-12
3.904099e-14
-3.7501298e-12
1.0433766e-12
-2.4887464e-12
2.5230668e-12
-8.0261078e-13
4.3761864e-12
1.1051791e-12
6.7136314e-12
3.2187078e-12
9.4578535e-12
5.6683109e-12
1.2522435e-11
7.9578523e-12
1.5939025e-11
1.0076451e-11
1.956084e-11
1.2012241e-11
2.3223195e-11
1.373304e-11
2.6886222e-11
1.5193772e-11
3.0473982e-11
1.6315213e-11
3.3928704e-11
1.7076701e-11
3.7201644e-11
1.7475608e-11
4.0220809e-11
1.7547436e-11
4.2972982e-11
1.7264276e-11
4.543505e-11
1.661826e-11
4.7597893e-11
1.562336e-11
4.9444505e-11
1.4318537e-11
5.098636e-11
1.2708472e-11
5.223218e-11
1.0820944e-11
5.319074e-11
8.6823785e-12
5.3784223e-11
6.3541628e-12
5.4125053e-11
3.8877875e-12
1.3910345e-12
-6.7523884e-14
-4.1647278e-12
7.2390321e-13
-3.2802425e-12
1.91279e-12
-1.9915578e-12
3.4756083e-12
-4.5769182e-13
5.3145405e-12
1.3797297e-12
7.7050128e-12
3.2777985e-12
1.0396049e-11
5.2667812e-12
1.3313318e-11
7.159151e-12
1.6421579e-11
8.9039536e-12
1.9681003e-11
1.0473593e-11
2.30574e-11
1.1817354e-11
2.6492365e-11
1.288023e-11
2.9861541e-11
1.370751e-11
3.3173308e-11
1.4163826e-11
3.6269116e-11
1.4451616e-11
3.9146937e-11
1.4386443e-11
4.1795813e-11
1.3969373e-11
4.4174034e-11
1.3245128e-11
4.6268604e-11
1.2223958e-11
4.8056841e-11
1.0920226e-11
4.9521652e-11
9.3561241e-12
5.0634036e-11
7.5699873e-12
5.140226e-11
5.5859295e-12
5.1848022e-11
3.4420179e-12
1.1387975e-12
-1.4821533e-13
-4.4507568e-12
4.6837024e-13
-3.896903e-12
1.443068e-12
-2.9663218e-12
2.6576875e-12
-1.67237e-12
4.2400275e-12
-2.0266214e-13
6.1824694e-12
1.3353108e-12
8.4455924e-12
3.0036177e-12
1.0976233e-11
4.6284749e-12
1.3735671e-11
6.1444842e-12
1.6675847e-11
7.5333883e-12
1.9738068e-11
8.7551093e-12
2.2813348e-11
9.8049269e-12
2.59487e-11
1.0572138e-11
2.8991858e-11
1.1120651e-11
3.1986151e-11
1.1457307e-11
3.4846397e-11
1.1526184e-11
3.7509721e-11
1.1306037e-11
3.9938085e-11
1.0816752e-11
4.210246e-11
1.0059572e-11
4.3977671e-11
9.0450043e-12
4.5538907e-11
7.7948788e-12
4.6768921e-11
6.3399642e-12
4.7653075e-11
4.7017664e-12
4.8203603e-11
2.8914827e-12
9.4463636e-13
-1.4791731e-13
-4.6790252e-12
3.0943742e-13
-4.3543361e-12
1.104328e-12
-3.7612824e-12
2.1332584e-12
-2.7013628e-12
3.4731329e-12
-1.5425923e-12
5.1865873e-12
-3.7819312e-13
7.1449241e-12
1.0452369e-12
9.3525365e-12
2.4208234e-12
1.1770407e-11
3.7265789e-12
1.436909e-11
4.9346746e-12
1.7105632e-11
6.0185397e-12
1.9950319e-11
6.9602155e-12
2.2746562e-11
7.7758741e-12
2.5574005e-11
8.2931882e-12
2.8363881e-11
8.6674137e-12
3.1076811e-11
8.8132385e-12
3.3644409e-11
8.7384255e-12
3.6010625e-11
8.4505234e-12
3.8137093e-11
7.9330929e-12
4.001624e-11
7.1658464e-12
4.15842e-11
6.2269087e-12
4.2849144e-11
5.075012e-12
4.3778941e-11
3.7719601e-12
4.4349135e-11
2.3212809e-12
7.6317649e-13
-6.2188816e-14
-4.9005668e-12
3.5553854e-13
-4.7721428e-12
9.623792e-13
-4.3681947e-12
1.8842697e-12
-3.6233177e-12
3.0818172e-12
-2.7401976e-12
4.4458612e-12
-1.7422889e-12
6.228191e-12
-7.3713901e-13
8.1984568e-12
4.5051654e-13
1.0335287e-11
1.5897124e-12
1.2637233e-11
2.6326959e-12
1.507226e-11
3.5834844e-12
1.760467e-11
4.4277796e-12
2.0233483e-11
5.1470385e-12
2.2821712e-11
5.70494e-12
2.5349307e-11
6.1398005e-12
2.7848187e-11
6.314343e-12
3.0226124e-11
6.3604755e-12
3.2461815e-11
6.2148197e-12
3.4510343e-11
5.8845542e-12
3.6306623e-11
5.3695563e-12
3.7845545e-11
4.6879774e-12
3.9077652e-11
3.8428967e-12
3.9993869e-11
2.8557351e-12
4.0554811e-11
1.7603332e-12
5.8541788e-13
-5.6613931e-15
-5.0504771e-12
4.0105054e-13
-5.1789332e-12
9.35775e-13
-4.9029907e-12
1.7380679e-12
-4.4256753e-12
2.7633515e-12
-3.7655396e-12
4.0252991e-12
-3.004289e-12
5.4478538e-12
-2.1597406e-12
7.2143278e-12
-1.3159995e-12
9.1218911e-12
-3.1788813e-13
1.118044e-11
5.7411393e-13
1.334988e-11
1.4140154e-12
1.5614314e-11
2.1633193e-12
1.7946336e-11
2.8149944e-12
2.0294214e-11
3.3570423e-12
2.2659336e-11
3.7746613e-12
2.4929979e-11
4.0436844e-12
2.7083032e-11
4.2074097e-12
2.9135441e-11
4.1623982e-12
3.1019615e-11
4.0003704e-12
3.2688955e-11
3.7002068e-12
3.4120407e-11
3.2565169e-12
3.5281902e-11
2.6813949e-12
3.6135242e-11
2.0023885e-12
3.6666943e-11
1.2286273e-12
4.095571e-13
7.9684364e-14
-5.2119855e-12
3.7455656e-13
-5.4738816e-12
8.5865271e-13
-5.3871567e-12
1.5585805e-12
-5.1256669e-12
2.4743345e-12
-4.6813513e-12
3.5752744e-12
-4.105281e-12
4.8571905e-12