/*--------------------------------*- C++ -*----------------------------------*\
| =========                 |                                                 |
| \\      /  F ield         | OpenFOAM: The Open Source CFD Toolbox           |
|  \\    /   O peration     | Version:  4.0                                   |
|   \\  /    A nd           | Web:      www.OpenFOAM.org                      |
|    \\/     M anipulation  |                                                 |
\*---------------------------------------------------------------------------*/
FoamFile
{
    version     2.0;
    format      ascii;
    class       volVectorField;
    location    "0.64";
    object      U;
}
// * * * * * * * * * * * * * * * * * * * * * * * * * * * * * * * * * * * * * //

dimensions      [0 1 -1 0 0 0 0];

internalField   nonuniform List<vector> 
1740
(
(1.462367 -0.0039849774 4.7164083e-06)
(1.5378139 -0.00712059 6.6009675e-07)
(1.5909848 -0.0036251892 3.1525958e-08)
(1.4973198 -0.017177165 8.2542295e-06)
(1.6113857 -0.022631841 1.7228553e-06)
(1.5984786 -0.010523626 3.0307879e-07)
(1.5311947 -0.020529022 1.1251682e-05)
(1.5112721 -0.015800573 2.5240795e-06)
(1.5011022 -0.0059586804 4.5403341e-07)
(1.6102799 -0.0021826116 1.3044089e-05)
(1.5071852 -0.0085158374 3.3301571e-06)
(1.5948182 -0.0089853823 5.5206975e-07)
(1.6721465 0.0080435988 1.4724608e-05)
(1.5714964 -0.0015902478 4.0836879e-06)
(1.6021735 -0.0086935312 7.8639236e-07)
(1.5853456 -0.0031028977 1.6348366e-05)
(1.5913827 -0.0080520295 5.0503537e-06)
(1.5274618 -0.0055826402 9.7070477e-07)
(1.6307607 -0.0054039063 1.7379372e-05)
(1.5479778 -0.0083681389 5.9148323e-06)
(1.5409614 -0.0067029913 1.1262488e-06)
(1.5933395 0.011643914 1.796537e-05)
(1.6028429 0.0056058756 6.4984327e-06)
(1.4919658 -0.0046577071 1.34629e-06)
(1.5359332 0.0072459394 1.825831e-05)
(1.6681106 0.019432916 7.1449615e-06)
(1.5471831 0.007247784 1.5231059e-06)
(1.5596215 0.0053493248 1.9041781e-05)
(1.5596192 0.011667798 7.7898202e-06)
(1.559864 0.0054335148 1.7187281e-06)
(1.5000511 0.0078601759 1.9672956e-05)
(1.6027278 0.011433814 8.2682992e-06)
(1.5416386 0.0015339659 1.9077667e-06)
(1.5030112 -0.0096940903 1.9875662e-05)
(1.6104369 0.0017526912 8.9021146e-06)
(1.5799558 0.003995201 2.1374244e-06)
(1.4979313 -0.011406249 1.9872867e-05)
(1.4905867 -0.0055280787 9.3662059e-06)
(1.5098696 -0.0012726682 2.3119167e-06)
(1.5816936 -0.0023867087 2.0319335e-05)
(1.5885843 0.0018175228 9.7729412e-06)
(1.5896245 -0.0016892535 2.4788355e-06)
(1.5712228 -0.00089846123 2.1035642e-05)
(1.5858848 0.017237874 1.0378626e-05)
(1.5894752 0.011856031 2.6608462e-06)
(1.4926215 -0.004240738 2.1274467e-05)
(1.4889018 0.012301945 1.0804685e-05)
(1.5799789 0.0088959874 2.8498704e-06)
(1.5139042 -0.016814948 2.122241e-05)
(1.5208379 -0.022245972 1.1230968e-05)
(1.6034811 -0.0085162276 3.0648406e-06)
(1.6006249 -0.0025442225 2.0916641e-05)
(1.5300942 -0.016332127 1.1546564e-05)
(1.543047 -0.012346005 3.1716218e-06)
(1.5702495 0.022876395 2.105405e-05)
(1.5978259 0.016457965 1.1941859e-05)
(1.5363952 0.0018030336 3.4261229e-06)
(1.4698877 0.011485927 2.1211267e-05)
(1.5733403 0.015026181 1.2326319e-05)
(1.5822333 0.0060730324 3.5780655e-06)
(1.5049673 -0.0019664248 2.1291295e-05)
(1.513509 -0.0077537523 1.2653476e-05)
(1.5956501 -0.0035353762 3.7469144e-06)
(1.5083398 0.013623745 2.1832827e-05)
(1.5361164 0.0070043846 1.2963552e-05)
(1.5403057 -0.0023298781 3.9253622e-06)
(1.4658529 0.016864037 2.2317407e-05)
(1.5779639 0.016526328 1.3405909e-05)
(1.5899293 0.0027104041 4.0648915e-06)
(1.422595 -0.0072844572 2.2271257e-05)
(1.6293922 -0.006858725 1.3801805e-05)
(1.622189 0.0012042514 4.2127223e-06)
(1.5162947 -0.023503738 2.2052549e-05)
(1.5203884 -0.022253096 1.4165333e-05)
(1.5942957 -0.0043883414 4.3761287e-06)
(1.5469034 -0.012781688 2.2275991e-05)
(1.4700729 -0.024103834 1.4359727e-05)
(1.5251781 -0.011065083 4.5632549e-06)
(1.5280899 -0.0038899205 2.2294178e-05)
(1.552857 -0.02123157 1.4601453e-05)
(1.5185392 -0.0087200961 4.7031673e-06)
(1.5811879 -0.011025546 2.2666533e-05)
(1.6269398 -0.011249164 1.4893506e-05)
(1.5026962 -0.008482846 4.8662182e-06)
(1.4452226 0.006267599 2.222721e-05)
(1.5246192 0.0084875093 1.5019674e-05)
(1.4466855 0.0055438824 4.8676497e-06)
(1.2925247 0.035237123 2.3250533e-05)
(1.3196977 0.1098812 1.5646237e-05)
(1.3705368 0.0566842 5.4918477e-06)
(0.8534042 0.37333096 1.1485775e-05)
(0.81745254 0.93660518 9.8988087e-06)
(0.74213353 1.258567 5.3801911e-06)
(0.22436066 0.1124089 1.4449881e-06)
(0.19293311 0.36799195 3.0590382e-06)
(0.088096635 0.50137526 6.9540071e-07)
(-0.026421187 -0.012907877 1.2199739e-06)
(-0.024342339 -0.026453932 1.6681826e-06)
(-0.01774258 -0.030985541 5.6114916e-07)
(-0.0055202027 -0.0027260114 4.4874923e-07)
(-0.0050665175 -0.0071300131 7.1864312e-07)
(-0.0046734669 -0.0096496241 3.1137474e-07)
(-0.0010649222 -6.6469049e-05 1.1739477e-07)
(-0.00086534644 -0.00047846646 2.3067241e-07)
(-0.00084137648 -0.0009476415 8.7099559e-08)
(-0.00042160494 -2.2081759e-05 2.1190041e-08)
(-0.00034169345 -5.3319124e-05 4.2170967e-08)
(-0.00022792898 -8.3082421e-05 -2.7147464e-08)
(-0.00030409521 -6.596821e-06 -8.6520832e-09)
(-0.00021227092 1.2294218e-05 -2.5009201e-08)
(-6.5345721e-05 4.3615401e-05 -7.2124238e-08)
(-0.00027400867 7.8484136e-06 -1.7691689e-08)
(-0.00020836436 3.968734e-05 -4.5645083e-08)
(-9.3142955e-05 8.9200599e-05 -8.3074864e-08)
(-0.0002728919 8.48811e-07 -1.7893403e-08)
(-0.00022856802 1.6606736e-05 -4.6564485e-08)
(-0.00014474998 4.7344446e-05 -7.7549178e-08)
(-0.00026161715 -1.1736691e-05 -1.4737168e-08)
(-0.00023097212 -1.5931796e-05 -3.9938958e-08)
(-0.00016994461 -1.3101795e-05 -6.5588914e-08)
(-0.00023140016 -1.9019555e-05 -1.1329999e-08)
(-0.0002096493 -3.9171967e-05 -3.1889815e-08)
(-0.0001650523 -5.4668436e-05 -5.2734038e-08)
(-0.00019206814 -1.8902641e-05 -8.6055944e-09)
(-0.0001763428 -4.1574216e-05 -2.4843106e-08)
(-0.00014352007 -6.0194166e-05 -4.1405664e-08)
(-0.00015571288 -1.4093236e-05 -6.6846227e-09)
(-0.00014414772 -3.1299455e-05 -1.9311685e-08)
(-0.00011963324 -4.6296459e-05 -3.2175966e-08)
(-0.0001274196 -9.1557254e-06 -5.2655715e-09)
(-0.00011877834 -1.9525016e-05 -1.4995464e-08)
(-0.00010022082 -2.8676139e-05 -2.4812955e-08)
(-0.00010719547 -5.4973643e-06 -4.120832e-09)
(-0.00010065042 -1.1016609e-05 -1.1532807e-08)
(-8.6433624e-05 -1.5838374e-05 -1.8921204e-08)
(-9.3423023e-05 -3.4693135e-06 -3.1509651e-09)
(-8.840379e-05 -6.5966432e-06 -8.7123947e-09)
(-7.735822e-05 -9.2116922e-06 -1.4191568e-08)
(-8.3903383e-05 -2.567688e-06 -2.3333423e-09)
(-8.0007497e-05 -4.7478412e-06 -6.4256622e-09)
(-7.130591e-05 -6.7038043e-06 -1.042099e-08)
(-7.6829526e-05 -2.1177251e-06 -1.6740686e-09)
(-7.3774791e-05 -3.9502986e-06 -4.6155549e-09)
(-6.6850616e-05 -5.6929762e-06 -7.4737087e-09)
(-7.1319087e-05 -1.8029431e-06 -1.1693419e-09)
(-6.8904721e-05 -3.4342869e-06 -3.2331324e-09)
(-6.3346661e-05 -4.9526498e-06 -5.2343862e-09)
(-6.7060827e-05 -1.4886725e-06 -8.0133576e-10)
(-6.5139235e-05 -2.8553516e-06 -2.2171693e-09)
(-6.0635645e-05 -4.1345034e-06 -3.5858005e-09)
(-6.3850944e-05 -1.1470094e-06 -5.4315648e-10)
(-6.2311613e-05 -2.1780454e-06 -1.4953774e-09)
(-5.8629801e-05 -3.1673456e-06 -2.4087066e-09)
(-6.1440192e-05 -8.4102346e-07 -3.6611614e-10)
(-6.0202456e-05 -1.5587378e-06 -9.9610313e-10)
(-5.7170018e-05 -2.2635037e-06 -1.5908189e-09)
(-5.9597984e-05 -6.0684021e-07 -2.4578408e-10)
(-5.8603532e-05 -1.1143607e-06 -6.5709672e-10)
(-5.6087884e-05 -1.5898688e-06 -1.0349964e-09)
(-5.8167637e-05 -4.8950011e-07 -1.6424848e-10)
(-5.7367441e-05 -8.2976329e-07 -4.3008532e-10)
(-5.5263893e-05 -1.1737915e-06 -6.6447156e-10)
(-5.7033758e-05 -4.0363589e-07 -1.0991506e-10)
(-5.6385778e-05 -6.572725e-07 -2.8031636e-10)
(-5.4612121e-05 -9.3355739e-07 -4.2197243e-10)
(-5.6089249e-05 -3.4388553e-07 -7.4744564e-11)
(-5.5563297e-05 -5.6667975e-07 -1.8358855e-10)
(-5.4054888e-05 -8.2898087e-07 -2.6632624e-10)
(-5.5243791e-05 -3.2725574e-07 -5.2553743e-11)
(-5.4817435e-05 -5.4325913e-07 -1.2253629e-10)
(-5.3523267e-05 -8.1130155e-07 -1.6858264e-10)
(-5.4430288e-05 -3.2497804e-07 -3.9027224e-11)
(-5.4084592e-05 -5.5967146e-07 -8.470369e-11)
(-5.2964204e-05 -8.5844818e-07 -1.0849884e-10)
(-5.3600909e-05 -3.2791855e-07 -3.116877e-11)
(-5.3320174e-05 -5.8864157e-07 -6.1717502e-11)
(-5.2341065e-05 -9.3697063e-07 -7.2273724e-11)
(-5.272382e-05 -3.4576005e-07 -2.563808e-11)
(-5.2495293e-05 -6.477163e-07 -4.6935505e-11)
(-5.1631519e-05 -1.0422091e-06 -5.0325173e-11)
(-5.1779546e-05 -3.7340046e-07 -2.2216078e-11)
(-5.1593259e-05 -7.33388e-07 -3.7369465e-11)
(-5.0824403e-05 -1.1842939e-06 -3.6978667e-11)
(-5.0758781e-05 -3.9259186e-07 -2.1496121e-11)
(-5.0606964e-05 -7.9617962e-07 -3.2756608e-11)
(-4.9917013e-05 -1.2861314e-06 -2.9908731e-11)
(-4.9660374e-05 -4.1338156e-07 -2.0993803e-11)
(-4.9536616e-05 -8.4283949e-07 -3.0213187e-11)
(-4.8912834e-05 -1.348833e-06 -2.6375436e-11)
(-4.8488966e-05 -4.3356938e-07 -2.1002202e-11)
(-4.8388022e-05 -9.0099785e-07 -2.8637802e-11)
(-4.7820189e-05 -1.453073e-06 -2.4293236e-11)
(-4.7254058e-05 -4.5075207e-07 -2.0911156e-11)
(-4.717176e-05 -9.5458905e-07 -2.7258991e-11)
(-4.6651701e-05 -1.5452748e-06 -2.2919765e-11)
(-4.5969792e-05 -4.6295986e-07 -2.0735883e-11)
(-4.5902733e-05 -9.9517617e-07 -2.5992913e-11)
(-4.5423814e-05 -1.6123762e-06 -2.192903e-11)
(-4.4654861e-05 -4.6867529e-07 -2.0729912e-11)
(-4.4600312e-05 -1.019664e-06 -2.510498e-11)
(-4.4157044e-05 -1.6554858e-06 -2.1306368e-11)
(-4.3332375e-05 -4.654451e-07 -2.0961219e-11)
(-4.3288193e-05 -1.020644e-06 -2.463208e-11)
(-4.2876002e-05 -1.6604415e-06 -2.1082044e-11)
(-4.2026554e-05 -4.510947e-07 -2.1260278e-11)
(-4.1990888e-05 -9.9374321e-07 -2.4319953e-11)
(-4.1605911e-05 -1.6171891e-06 -2.1020711e-11)
(-4.075723e-05 -4.3714178e-07 -2.1405674e-11)
(-4.0728477e-05 -9.6709024e-07 -2.3972011e-11)
(-4.0367362e-05 -1.5739471e-06 -2.0974067e-11)
(-3.9539611e-05 -4.1756465e-07 -2.1546504e-11)
(-3.9516511e-05 -9.2608518e-07 -2.3742307e-11)
(-3.9176279e-05 -1.5036e-06 -2.1037836e-11)
(-3.8388792e-05 -3.8815992e-07 -2.2033187e-11)
(-3.8370319e-05 -8.6244328e-07 -2.3864669e-11)
(-3.8048312e-05 -1.4031784e-06 -2.1222243e-11)
(-3.7321139e-05 -3.5373612e-07 -2.23981e-11)
(-3.7306468e-05 -7.8920455e-07 -2.3907854e-11)
(-3.7000361e-05 -1.2861175e-06 -2.1366207e-11)
(-3.6352162e-05 -3.1633023e-07 -2.2493686e-11)
(-3.634064e-05 -7.0713938e-07 -2.3802988e-11)
(-3.6048331e-05 -1.1510825e-06 -2.145486e-11)
(-3.5495318e-05 -2.7445479e-07 -2.257586e-11)
(-3.5486357e-05 -6.1423919e-07 -2.372926e-11)
(-3.5205804e-05 -9.9878539e-07 -2.1534323e-11)
(-3.4763494e-05 -2.2741333e-07 -2.280048e-11)
(-3.4756552e-05 -5.0854121e-07 -2.3797565e-11)
(-3.4485713e-05 -8.2626312e-07 -2.1591458e-11)
(-3.4171805e-05 -1.7668177e-07 -2.3010513e-11)
(-3.416639e-05 -3.9339776e-07 -2.375499e-11)
(-3.3903226e-05 -6.3813166e-07 -2.1342829e-11)
(-3.3735034e-05 -1.2256483e-07 -2.3014281e-11)
(-3.3730679e-05 -2.7082126e-07 -2.3134134e-11)
(-3.3473137e-05 -4.3920206e-07 -2.026166e-11)
(-3.3503081e-05 -6.5814762e-08 -2.2351049e-11)
(-3.3499516e-05 -1.4544942e-07 -2.0924272e-11)
(-3.324534e-05 -2.3928634e-07 -1.7415145e-11)
(-3.3445773e-05 -1.421969e-08 -1.9459132e-11)
(-3.3442656e-05 -3.0162068e-08 -1.4999076e-11)
(-3.3189727e-05 -5.1483629e-08 -1.1343168e-11)
(-0.046349191 1.9538488 -3.5862239e-07)
(-0.032906459 1.6977784 -3.4455192e-06)
(-0.061069515 0.34376044 -2.5474356e-07)
(-0.042484944 0.15341242 -1.0152804e-06)
(-0.013987233 -0.039119114 -2.2531483e-07)
(-0.010784897 -0.041973164 -6.4675553e-07)
(-0.0043997368 -0.012294733 -1.3164451e-07)
(-0.0042110164 -0.013997247 -4.2963802e-07)
(-0.00074496402 -0.0017440494 -1.321085e-07)
(-0.00071333564 -0.0026212157 -3.1782286e-07)
(-6.3702977e-05 -0.00016328284 -1.4263323e-07)
(7.1323421e-05 -0.00027860984 -2.5562557e-07)
(0.00010504535 9.2993707e-05 -1.4136761e-07)
(0.0002429679 0.00016285397 -2.1294753e-07)
(3.9079446e-05 0.00016350721 -1.2967986e-07)
(0.00015954289 0.00025446326 -1.7783325e-07)
(-4.6146776e-05 0.00010164439 -1.1175385e-07)
(4.9236456e-05 0.00016397042 -1.4619582e-07)
(-9.5367595e-05 9.198747e-06 -9.196572e-08)
(-2.053888e-05 3.9189908e-05 -1.1774354e-07)
(-0.00010866624 -5.7480188e-05 -7.344503e-08)
(-5.0059396e-05 -4.7851246e-05 -9.3255812e-08)
(-0.00010107768 -6.9751824e-05 -5.7619947e-08)
(-5.5694248e-05 -6.8698664e-05 -7.2941286e-08)
(-8.7382427e-05 -5.5703555e-05 -4.4701614e-08)
(-5.205057e-05 -5.3169429e-05 -5.6485486e-08)
(-7.5451924e-05 -3.3168925e-05 -3.4342871e-08)
(-4.7708401e-05 -3.1552568e-05 -4.3297297e-08)
(-6.72241e-05 -1.7557416e-05 -2.6066583e-08)
(-4.5295168e-05 -1.6171371e-05 -3.2775598e-08)
(-6.2254768e-05 -9.9533458e-06 -1.946901e-08)
(-4.4728503e-05 -8.3648981e-06 -2.4420875e-08)
(-5.9274784e-05 -6.9255528e-06 -1.4257045e-08)
(-4.5116168e-05 -5.9139666e-06 -1.7852402e-08)
(-5.7190235e-05 -5.94249e-06 -1.0212486e-08)
(-4.5680794e-05 -5.2201139e-06 -1.2776815e-08)
(-5.5536304e-05 -5.4103789e-06 -7.1501298e-09)
(-4.6129994e-05 -4.7217307e-06 -8.9431839e-09)
(-5.4266297e-05 -4.6659019e-06 -4.8958674e-09)
(-4.65222e-05 -4.1576473e-06 -6.1221759e-09)
(-5.3389614e-05 -3.5821961e-06 -3.2833889e-09)
(-4.6964997e-05 -3.0926836e-06 -4.1027146e-09)
(-5.2828492e-05 -2.4539684e-06 -2.1605539e-09)
(-4.7466111e-05 -1.8829889e-06 -2.694615e-09)
(-5.246889e-05 -1.6560879e-06 -1.3966811e-09)
(-4.7967011e-05 -1.1472217e-06 -1.7361968e-09)
(-5.2223482e-05 -1.2110142e-06 -8.8816507e-10)
(-4.8414514e-05 -7.8550362e-07 -1.0985365e-09)
(-5.2034171e-05 -9.4988592e-07 -5.5652229e-10)
(-4.8784079e-05 -5.3700455e-07 -6.8327115e-10)
(-5.1850978e-05 -8.5726628e-07 -3.4447424e-10)
(-4.9057618e-05 -4.3966353e-07 -4.1825273e-10)
(-5.1624093e-05 -8.6012175e-07 -2.1166311e-10)
(-4.92053e-05 -6.3379226e-07 -2.5254929e-10)
(-5.1312811e-05 -9.6262563e-07 -1.3026138e-10)
(-4.9199945e-05 -8.9962877e-07 -1.51172e-10)
(-5.0891527e-05 -1.1396229e-06 -8.1380752e-11)
(-4.9028797e-05 -1.1978183e-06 -9.0463039e-11)
(-5.0347379e-05 -1.3455892e-06 -5.2375665e-11)
(-4.8690398e-05 -1.5323224e-06 -5.4760684e-11)
(-4.9676734e-05 -1.538067e-06 -3.5366829e-11)
(-4.8190436e-05 -1.8550192e-06 -3.4170788e-11)
(-4.8882936e-05 -1.6976056e-06 -2.606185e-11)
(-4.7539349e-05 -2.0396806e-06 -2.2824498e-11)
(-4.7974248e-05 -1.8136511e-06 -2.1423543e-11)
(-4.6750844e-05 -2.2215115e-06 -1.7065391e-11)
(-4.696262e-05 -1.9498333e-06 -1.9003427e-11)
(-4.5841506e-05 -2.3923301e-06 -1.4252299e-11)
(-4.5863565e-05 -2.0886918e-06 -1.7625096e-11)
(-4.4830486e-05 -2.583526e-06 -1.2818762e-11)
(-4.4695752e-05 -2.1899181e-06 -1.6877989e-11)
(-4.3739172e-05 -2.7236052e-06 -1.2230185e-11)
(-4.3481326e-05 -2.2554804e-06 -1.6538871e-11)
(-4.2591775e-05 -2.8103989e-06 -1.2123392e-11)
(-4.2246159e-05 -2.2688621e-06 -1.6580096e-11)
(-4.1415626e-05 -2.831274e-06 -1.2365898e-11)
(-4.1016356e-05 -2.2219658e-06 -1.6777695e-11)
(-4.023776e-05 -2.8076114e-06 -1.2752717e-11)
(-3.9813195e-05 -2.1636067e-06 -1.7009771e-11)
(-3.9080262e-05 -2.7316045e-06 -1.3188469e-11)
(-3.8653211e-05 -2.0645649e-06 -1.7311614e-11)
(-3.7960529e-05 -2.604185e-06 -1.3659261e-11)
(-3.7552553e-05 -1.9336972e-06 -1.761221e-11)
(-3.6895409e-05 -2.4428146e-06 -1.4090607e-11)
(-3.6528535e-05 -1.7718902e-06 -1.7902233e-11)
(-3.5902627e-05 -2.2389375e-06 -1.449964e-11)
(-3.5597295e-05 -1.5847449e-06 -1.8142158e-11)
(-3.499851e-05 -2.0028666e-06 -1.4837225e-11)
(-3.4772497e-05 -1.375453e-06 -1.8307518e-11)
(-3.4196854e-05 -1.738765e-06 -1.5059554e-11)
(-3.4067094e-05 -1.1379104e-06 -1.8347605e-11)
(-3.3510657e-05 -1.4394692e-06 -1.5102761e-11)
(-3.3496237e-05 -8.7846913e-07 -1.7986181e-11)
(-3.2955035e-05 -1.1113505e-06 -1.4728718e-11)
(-3.3074688e-05 -6.046557e-07 -1.6751731e-11)
(-3.2544681e-05 -7.652949e-07 -1.3548194e-11)
(-3.2851947e-05 -3.3047861e-07 -1.3936038e-11)
(-3.2328538e-05 -4.1894103e-07 -1.104563e-11)
(-3.2798094e-05 -7.1064708e-08 -8.6493404e-12)
(-3.2276929e-05 -8.9100488e-08 -6.6738463e-12)
(2.7348007e-06 2.497599e-06 -1.1874942e-07)
(-7.7653024e-05 -3.9719247e-05 -2.8168403e-07)
(-0.00021543279 -2.0923614e-05 -3.9880951e-07)
(-0.00035852776 -3.4502656e-05 -4.7307608e-07)
(-0.00048206441 -3.2203766e-05 -5.1362405e-07)
(-0.00057203139 -4.8703525e-05 -5.3083491e-07)
(-0.000625441 -7.9580137e-05 -5.3248492e-07)
(-0.00064825443 -0.00013085715 -5.2401301e-07)
(-0.00064404507 -0.00019793504 -5.0921702e-07)
(-0.00061896569 -0.00027769824 -4.9072807e-07)
(-0.00057916844 -0.00036604428 -4.7038406e-07)
(-0.00052991758 -0.00045749984 -4.4930379e-07)
(-0.00047571711 -0.000546779 -4.2804106e-07)
(-0.00042005093 -0.00062978607 -4.0671817e-07)
(-0.0003655209 -0.00070451805 -3.8521079e-07)
(-0.00031385199 -0.0007702775 -3.6323826e-07)
(-0.00026605689 -0.00082822852 -3.4040544e-07)
(-0.0002225054 -0.00087783928 -3.1613889e-07)
(-0.0001829723 -0.00091719912 -2.8979916e-07)
(-0.00014723693 -0.00094620215 -2.6064998e-07)
(-0.00011496386 -0.00096411694 -2.2790166e-07)
(-8.5457479e-05 -0.00097152355 -1.9035791e-07)
(-5.8225861e-05 -0.00096804012 -1.4700656e-07)
(-3.311088e-05 -0.00096049464 -9.7282867e-08)
(-1.0430076e-05 -0.00091246115 -4.0490506e-08)
(0.00020066156 -0.00011071631 -1.3464207e-07)
(0.00018083172 -0.0004795966 -3.1516747e-07)
(0.00017305416 -0.00067000375 -4.3814243e-07)
(0.00019004022 -0.00096389506 -5.0955698e-07)
(0.00023267829 -0.0011998807 -5.4377918e-07)
(0.00028629652 -0.00146759 -5.5468708e-07)
(0.00033924808 -0.0017449657 -5.5107161e-07)
(0.00038593614 -0.0020541308 -5.3857912e-07)
(0.00041687798 -0.002388483 -5.2078839e-07)
(0.00043270795 -0.0027194483 -5.000459e-07)
(0.00043498869 -0.0030404003 -4.7813556e-07)
(0.00042566547 -0.0033476365 -4.5604051e-07)
(0.00040742692 -0.0036368542 -4.3418863e-07)
(0.00038307082 -0.0039059093 -4.1254628e-07)
(0.00035458203 -0.0041529715 -3.9089675e-07)
(0.00032339205 -0.0043786365 -3.6893405e-07)
(0.00029033774 -0.0045930458 -3.4631106e-07)
(0.00025595338 -0.004788115 -3.2232475e-07)
(0.00022045321 -0.0049405467 -2.9637362e-07)
(0.00018415812 -0.0050435995 -2.6765197e-07)
(0.00014760888 -0.0050950522 -2.3570181e-07)
(0.00011171622 -0.0050976651 -1.9858828e-07)
(7.6802194e-05 -0.005055144 -1.5496508e-07)
(4.3232358e-05 -0.0049532368 -1.0312595e-07)
(1.1939488e-05 -0.0047286335 -4.4616075e-08)
(0.00090204786 -0.0003099428 -1.7284153e-07)
(0.00090368331 -0.0014867785 -3.9015851e-07)
(0.0009600598 -0.0019638603 -5.2091124e-07)
(0.001064195 -0.0028103925 -5.8187661e-07)
(0.0011758802 -0.0035244267 -6.0176494e-07)
(0.0012622872 -0.0043009488 -5.9984443e-07)
(0.0013085175 -0.0050868854 -5.858929e-07)
(0.001316266 -0.006033085 -5.6591372e-07)
(0.001294539 -0.0071029787 -5.4271795e-07)
(0.0012493248 -0.0080893561 -5.1776489e-07)
(0.0011871914 -0.0089497395 -4.9304597e-07)
(0.0011139599 -0.009679828 -4.6919687e-07)
(0.0010333365 -0.010278595 -4.4646221e-07)
(0.00094719838 -0.010754992 -4.244291e-07)
(0.00085779338 -0.011115811 -4.0270865e-07)
(0.0007668778 -0.011362404 -3.8092487e-07)
(0.00067609295 -0.011487341 -3.5913817e-07)
(0.00058643675 -0.011509898 -3.3596672e-07)
(0.00049835031 -0.011459221 -3.1124296e-07)
(0.0004124155 -0.011350336 -2.8418153e-07)
(0.00032890406 -0.011193147 -2.5384558e-07)
(0.00024915201 -0.010996734 -2.186986e-07)
(0.00017247067 -0.010768177 -1.766279e-07)
(9.9176263e-05 -0.010478297 -1.2402099e-07)
(3.0509498e-05 -0.010079786 -6.0818262e-08)
(0.0032497451 -0.00099693866 -2.5521763e-07)
(0.0033160552 -0.0045596137 -5.2950409e-07)
(0.0033665278 -0.005802244 -6.5728709e-07)
(0.0033068168 -0.009000709 -6.9154678e-07)
(0.0031846595 -0.011901627 -6.8605992e-07)
(0.002995591 -0.014503687 -6.6415391e-07)
(0.0027623254 -0.016363802 -6.3493788e-07)
(0.0025078077 -0.017357113 -6.0552333e-07)
(0.0022542803 -0.017662584 -5.7617344e-07)
(0.002007092 -0.017538377 -5.4537228e-07)
(0.0017766179 -0.017094684 -5.1713223e-07)
(0.0015647039 -0.016454417 -4.9104215e-07)
(0.0013689197 -0.015636567 -4.675508e-07)
(0.0011768705 -0.014695227 -4.4529175e-07)
(0.0010034494 -0.013682869 -4.2371507e-07)
(0.00084912841 -0.012645419 -4.0253771e-07)
(0.00071277639 -0.011622462 -3.8141302e-07)
(0.00059276845 -0.010647614 -3.598105e-07)
(0.00048751063 -0.0097445757 -3.3719178e-07)
(0.00039485409 -0.008933613 -3.1287638e-07)
(0.0003126797 -0.0082267223 -2.8598237e-07)
(0.0002370481 -0.007628806 -2.5522632e-07)
(0.00016699529 -0.0071408723 -2.1868924e-07)
(0.00010080753 -0.0067211996 -1.7316998e-07)
(3.7172223e-05 -0.0064180225 -1.0857407e-07)
(0.011071601 -0.0085482318 -4.4315541e-07)
(0.0089482425 -0.025340085 -7.6525344e-07)
(0.0078386766 -0.027847085 -8.5360686e-07)
(0.0061874784 -0.032208225 -8.4262529e-07)
(0.0048245576 -0.029735678 -8.0402531e-07)
(0.0036155554 -0.026015255 -7.5635415e-07)
(0.0026021076 -0.021353216 -7.0892075e-07)
(0.0017901694 -0.016413056 -6.6462087e-07)
(0.0011523611 -0.011470901 -6.2501472e-07)
(0.00065952236 -0.0068877338 -5.8859448e-07)
(0.00028048553 -0.0027346307 -5.5576175e-07)
(-2.6249648e-06 0.00082612362 -5.2525267e-07)
(-0.00020615544 0.0041413349 -5.0071577e-07)
(-0.00033685313 0.0073034935 -4.7751424e-07)
(-0.00041983808 0.010211623 -4.5519457e-07)
(-0.00046242139 0.012735844 -4.3388573e-07)
(-0.0004728617 0.014844226 -4.1323605e-07)
(-0.00045784346 0.016554562 -3.9279801e-07)
(-0.00042276592 0.017895481 -3.7207544e-07)
(-0.00037229395 0.018896234 -3.5050629e-07)
(-0.00031032345 0.019581446 -3.2739468e-07)
(-0.00024216354 0.01997749 -3.0177255e-07)
(-0.00016961309 0.020083073 -2.7209313e-07)
(-9.582432e-05 0.019955894 -2.4301707e-07)
(-2.1793823e-05 0.019255753 -2.1402255e-07)
(0.013843408 0.023662278 -8.0055327e-07)
(0.0033042869 -0.0010821609 -1.1335537e-06)
(0.00078013553 0.048522133 -1.1372172e-06)
(-0.0010341917 0.051117782 -1.0649928e-06)
(-0.0026373966 0.065346635 -9.8846681e-07)
(-0.0038441153 0.075612485 -9.0276501e-07)
(-0.0045119219 0.082782299 -8.2603231e-07)
(-0.0047177374 0.08878268 -7.5938306e-07)
(-0.0046394343 0.093214622 -7.0150108e-07)
(-0.0044163085 0.095971557 -6.5204443e-07)
(-0.0041261648 0.097543461 -6.1031701e-07)
(-0.0037804364 0.098035412 -5.6693154e-07)
(-0.0034298536 0.097779276 -5.4212665e-07)
(-0.0030861782 0.096479927 -5.1537322e-07)
(-0.0027401086 0.094325211 -4.8901305e-07)
(-0.0024027877 0.091900985 -4.6550058e-07)
(-0.002084171 0.089271338 -4.4373435e-07)
(-0.0017849726 0.086522154 -4.230622e-07)
(-0.0015045122 0.083730883 -4.0294399e-07)
(-0.0012410059 0.080955816 -3.8285383e-07)
(-0.00099239326 0.078233986 -3.6222256e-07)
(-0.00075522867 0.075607932 -3.4036362e-07)
(-0.0005278644 0.07305016 -3.1657547e-07)
(-0.00030856518 0.070748234 -2.917838e-07)
(-9.2386138e-05 0.067264935 -2.6739861e-07)
(-0.0019815069 1.1754269 -2.5193194e-06)
(-0.0010453612 0.96239727 -2.0055273e-06)
(-0.0011598637 0.86640601 -1.627026e-06)
(-0.00078878648 0.77404197 -1.3356232e-06)
(-0.00066854977 0.6780669 -1.1183925e-06)
(-0.00057196836 0.58668454 -9.6035629e-07)
(-0.00048439363 0.50828903 -8.4484811e-07)
(-0.00040838969 0.44456191 -7.6001808e-07)
(-0.00034431078 0.39198106 -6.9185465e-07)
(-0.00028743753 0.34709455 -6.397937e-07)
(-0.00023338037 0.30835338 -5.9977578e-07)
(-0.00018593779 0.27501482 -5.6488026e-07)
(-0.00014579889 0.24650698 -5.357969e-07)
(-0.00012188856 0.22210106 -5.1019409e-07)
(-0.00010034485 0.20114026 -4.8693136e-07)
(-8.3068529e-05 0.18314273 -4.6554128e-07)
(-6.8809371e-05 0.1676785 -4.4550777e-07)
(-5.6648175e-05 0.15438475 -4.2638899e-07)
(-4.6293337e-05 0.14295881 -4.0779841e-07)
(-3.7428145e-05 0.13315133 -3.8934699e-07)
(-2.9685359e-05 0.12474615 -3.7059735e-07)
(-2.2316868e-05 0.11760132 -3.5097048e-07)
(-1.5282189e-05 0.1114754 -3.3010322e-07)
(-8.6350654e-06 0.10665081 -3.077396e-07)
(-2.3630573e-06 0.10063599 -2.8337654e-07)
(-0.012804424 0.091548872 -1.2358758e-06)
(-0.0026068013 0.098969438 -1.2774564e-06)
(-0.00025795725 0.10446455 -1.2325755e-06)
(0.0014787657 0.10605292 -1.1420632e-06)
(0.0029980423 0.10804448 -1.0394403e-06)
(0.0041282658 0.1096985 -9.3974372e-07)
(0.0047430754 0.11133295 -8.5088706e-07)
(0.0049080836 0.11284721 -7.7400138e-07)
(0.0047998465 0.11364617 -6.9392731e-07)
(0.0045312903 0.1137103 -6.4961292e-07)
(0.004220243 0.11300719 -6.0960588e-07)
(0.0038876486 0.11133317 -5.6695398e-07)
(0.003518896 0.10880444 -5.312325e-07)
(0.0031487473 0.10577755 -5.0068789e-07)
(0.0027894124 0.10249654 -4.7396317e-07)
(0.0024450337 0.09908675 -4.5011312e-07)
(0.0021191723 0.095632811 -4.2839562e-07)
(0.0018133933 0.092202804 -4.0818218e-07)
(0.0015266381 0.088848055 -3.8890462e-07)
(0.001257399 0.085606612 -3.7000112e-07)
(0.0010036791 0.082500234 -3.508405e-07)
(0.00076334802 0.079558597 -3.3060968e-07)
(0.00053375845 0.076744534 -3.0960702e-07)
(0.00031270873 0.074249644 -2.865811e-07)
(9.436779e-05 0.070552247 -2.6330504e-07)
(-0.0089169 -0.040108739 -8.7154568e-07)
(-0.0076858409 -0.038217508 -9.3712938e-07)
(-0.0063989841 -0.036736133 -9.2418123e-07)
(-0.0050671506 -0.033431511 -8.7788896e-07)
(-0.0037926458 -0.028593639 -8.1933119e-07)
(-0.0026774483 -0.023039316 -7.5787562e-07)
(-0.0017590353 -0.017285759 -7.006874e-07)
(-0.0010371146 -0.011679397 -6.4830877e-07)
(-0.00048311555 -0.0066554798 -6.0009425e-07)
(-7.12359e-05 -0.0022103935 -5.6374552e-07)
(0.00022846153 0.0016166066 -5.3036609e-07)
(0.00043856904 0.0053608067 -4.9930169e-07)
(0.00057585378 0.0089317082 -4.7143928e-07)
(0.0006571104 0.012125746 -4.4644739e-07)
(0.00069426046 0.014872782 -4.2375015e-07)
(0.00069811813 0.017174333 -4.0281578e-07)
(0.00067472595 0.019067174 -3.8319823e-07)
(0.0006290011 0.020589761 -3.6439057e-07)
(0.00056641382 0.02176299 -3.4586393e-07)
(0.00049099389 0.02260892 -3.2700951e-07)
(0.00040611308 0.023149228 -3.069864e-07)
(0.00031477719 0.023404987 -2.8435057e-07)
(0.00021980732 0.023386768 -2.6196396e-07)
(0.00012445835 0.023138139 -2.347183e-07)
(3.0332904e-05 0.022286046 -2.0792815e-07)
(-0.0040768176 -0.015489432 -6.0441111e-07)
(-0.004074158 -0.017924919 -6.8079482e-07)
(-0.0039833743 -0.020754338 -6.9598737e-07)
(-0.0037806297 -0.022837225 -6.7924937e-07)
(-0.0034757821 -0.024162558 -6.4947215e-07)
(-0.0031292873 -0.024628054 -6.1688473e-07)
(-0.0027903986 -0.024406483 -5.7720369e-07)
(-0.0024665295 -0.023731921 -5.4004613e-07)
(-0.0021663339 -0.022776254 -5.0638247e-07)
(-0.0018917214 -0.021612702 -4.7750186e-07)
(-0.0016438524 -0.020326726 -4.5123864e-07)
(-0.0014135464 -0.018904036 -4.2704242e-07)
(-0.0012049168 -0.017416414 -4.0486158e-07)
(-0.0010208908 -0.015917422 -3.8449739e-07)
(-0.0008595441 -0.014442625 -3.6542138e-07)
(-0.00071729406 -0.013027389 -3.4720456e-07)
(-0.00059366785 -0.011710197 -3.2969708e-07)
(-0.00048754458 -0.010519532 -3.1231204e-07)
(-0.00039611864 -0.0094606888 -2.9449221e-07)
(-0.00031716984 -0.0085355359 -2.7556722e-07)
(-0.00024855275 -0.0077446409 -2.5461775e-07)
(-0.00018806608 -0.0070875541 -2.3038897e-07)
(-0.00013355656 -0.0065607085 -2.0158931e-07)
(-8.2617931e-05 -0.0061237949 -1.6262512e-07)
(-3.2496878e-05 -0.0058275567 -1.0421416e-07)
(-0.0007900731 -0.0035557707 -4.4511793e-07)
(-0.0010187629 -0.0044884323 -5.1598458e-07)
(-0.0012442797 -0.0054627334 -5.4403091e-07)
(-0.0014187349 -0.0064250129 -5.4527163e-07)
(-0.0015416811 -0.0073937883 -5.3156921e-07)
(-0.0015983603 -0.0085238938 -5.102033e-07)
(-0.0015936232 -0.0097361573 -4.8387878e-07)
(-0.0015471705 -0.010783038 -4.5711607e-07)
(-0.0014732834 -0.011658812 -4.3181307e-07)
(-0.0013830533 -0.012365499 -4.0865691e-07)
(-0.0012849184 -0.012923181 -3.8724364e-07)
(-0.0011818895 -0.01333532 -3.6728873e-07)
(-0.0010768773 -0.01360949 -3.4864168e-07)
(-0.00097249744 -0.013730526 -3.3144237e-07)
(-0.00087031822 -0.013727286 -3.1480688e-07)
(-0.00077207505 -0.013641133 -2.9879314e-07)
(-0.00067751577 -0.013496082 -2.8273043e-07)
(-0.00058588165 -0.013306046 -2.6629209e-07)
(-0.00049744765 -0.013080438 -2.4895563e-07)
(-0.00041202776 -0.012826586 -2.3005914e-07)
(-0.00032945807 -0.012550267 -2.0859821e-07)
(-0.00024966411 -0.012256979 -1.8310043e-07)
(-0.00017274912 -0.011950082 -1.5140289e-07)
(-9.9124137e-05 -0.011591947 -1.0902555e-07)
(-3.0573911e-05 -0.011140772 -5.5216995e-08)
(0.00014375823 -0.00051961941 -3.435009e-07)
(0.00014984286 -0.00086127191 -4.0061989e-07)
(6.1494807e-05 -0.0012439027 -4.3040851e-07)
(-6.6139206e-05 -0.0016809118 -4.4012711e-07)
(-0.00020844436 -0.0021491754 -4.3659777e-07)
(-0.00033875282 -0.0026284342 -4.2489802e-07)
(-0.00043322153 -0.0031213648 -4.0831284e-07)
(-0.00049063034 -0.0035948258 -3.897243e-07)
(-0.00052149311 -0.0040364841 -3.7088494e-07)
(-0.00053209469 -0.0044341142 -3.5265348e-07)
(-0.00052872669 -0.0047865009 -3.3523976e-07)
(-0.00051516135 -0.0051012931 -3.1865587e-07)
(-0.00049293926 -0.0053968187 -3.0285757e-07)
(-0.00046376988 -0.0056973671 -2.8778846e-07)
(-0.00042966679 -0.0059908936 -2.7312077e-07)
(-0.00039211195 -0.0062415657 -2.5863221e-07)
(-0.00035175847 -0.0064422658 -2.4393127e-07)
(-0.00030938014 -0.0065911882 -2.2862961e-07)
(-0.00026586488 -0.0066883516 -2.1223024e-07)
(-0.00022183923 -0.0067337403 -1.9427504e-07)
(-0.00017781078 -0.0067287798 -1.7387648e-07)
(-0.00013429794 -0.0066766237 -1.4960509e-07)
(-9.1902573e-05 -0.0065820677 -1.2004509e-07)
(-5.1310127e-05 -0.0064273262 -8.271657e-08)
(-1.4057497e-05 -0.0061384071 -3.8084285e-08)
(0.00031576539 0.00022949674 -2.7333975e-07)
(0.0003414185 0.00025879149 -3.169757e-07)
(0.00032478017 0.00023090266 -3.4369142e-07)
(0.00028094038 0.00014884995 -3.5627279e-07)
(0.00023439289 2.2718641e-05 -3.5833305e-07)
(0.00017732995 -0.00013749262 -3.5311934e-07)
(0.00011344315 -0.00031106347 -3.4320614e-07)
(5.668825e-05 -0.00048935284 -3.3067674e-07)
(9.6555936e-06 -0.0006683685 -3.1697783e-07)
(-2.5501838e-05 -0.00084034109 -3.0297472e-07)
(-5.0270938e-05 -0.0010017836 -2.8909128e-07)
(-6.9957154e-05 -0.0011464269 -2.7551e-07)
(-8.3419545e-05 -0.0012743625 -2.6228197e-07)
(-9.0522072e-05 -0.0013907233 -2.4936472e-07)
(-9.2412757e-05 -0.0014936009 -2.3659516e-07)
(-9.0275007e-05 -0.0015800617 -2.2376655e-07)
(-8.4880463e-05 -0.0016509165 -2.105984e-07)
(-7.7152354e-05 -0.0017064428 -1.9676584e-07)
(-6.7953827e-05 -0.0017465533 -1.818806e-07)
(-5.7826175e-05 -0.0017711012 -1.6551375e-07)