/*--------------------------------*- C++ -*----------------------------------*\
| =========                 |                                                 |
| \\      /  F ield         | OpenFOAM: The Open Source CFD Toolbox           |
|  \\    /   O peration     | Version:  4.0                                   |
|   \\  /    A nd           | Web:      www.OpenFOAM.org                      |
|    \\/     M anipulation  |                                                 |
\*---------------------------------------------------------------------------*/
FoamFile
{
    version     2.0;
    format      ascii;
    class       volScalarField;
    location    "0.63";
    object      nut;
}
// * * * * * * * * * * * * * * * * * * * * * * * * * * * * * * * * * * * * * //

dimensions      [0 2 -1 0 0 0 0];

internalField   nonuniform List<scalar> 
1740
(
1.950852e-05
1.3963571e-05
1.2192117e-06
1.7229687e-05
7.1188356e-06
1.8101375e-06
1.3548899e-05
5.4161542e-06
2.2701996e-06
1.9642037e-05
4.7758936e-06
2.7011273e-06
2.0316428e-05
4.3869045e-06
3.0779728e-06
1.6742298e-05
4.1028112e-06
3.3910474e-06
1.3931224e-05
3.8967853e-06
3.6471851e-06
1.2004918e-05
3.7625436e-06
3.8449876e-06
1.0744691e-05
3.6689839e-06
3.9966777e-06
9.7727199e-06
3.5902402e-06
4.1322635e-06
8.8261635e-06
3.5356813e-06
4.2500594e-06
8.0495699e-06
3.5073867e-06
4.3451466e-06
7.4142095e-06
3.4974508e-06
4.4192902e-06
6.9441498e-06
3.4960171e-06
4.4716567e-06
6.565474e-06
3.4834653e-06
4.5474066e-06
6.1758873e-06
3.5045566e-06
4.6030639e-06
5.7959487e-06
3.5196391e-06
4.6066639e-06
5.5131249e-06
3.5129987e-06
4.6122238e-06
5.3316786e-06
3.5083312e-06
4.6349104e-06
5.155175e-06
3.519016e-06
4.6287326e-06
4.9764627e-06
3.5236465e-06
4.6576428e-06
4.8457488e-06
3.5423297e-06
4.6522261e-06
4.7228983e-06
3.5332142e-06
4.6584255e-06
4.5997354e-06
3.5368089e-06
4.6948988e-06
4.4819065e-06
3.5715538e-06
4.6971584e-06
4.3731624e-06
3.5718927e-06
4.6866213e-06
4.2813901e-06
3.5676097e-06
4.6591716e-06
4.2035926e-06
3.5826005e-06
4.6422607e-06
4.1620038e-06
3.6006565e-06
4.5918812e-06
2.7680791e-06
3.592592e-06
4.299916e-06
1.8444168e-06
2.1786118e-06
4.4213197e-06
7.1866861e-06
7.3608927e-06
6.7264966e-06
6.540375e-06
6.7410751e-06
6.3723922e-06
5.1758002e-06
5.1149016e-06
4.8720164e-06
4.3314975e-06
4.259665e-06
4.126803e-06
3.7954439e-06
3.752939e-06
3.6941224e-06
3.4365736e-06
3.4195802e-06
3.4056062e-06
3.1828729e-06
3.1816279e-06
3.192119e-06
2.987304e-06
2.9943029e-06
3.0165764e-06
2.8168239e-06
2.8273997e-06
2.8540567e-06
2.6478716e-06
2.6593921e-06
2.6863367e-06
2.4642999e-06
2.4753767e-06
2.5004672e-06
2.2565848e-06
2.2665446e-06
2.2887604e-06
2.0217054e-06
2.0302679e-06
2.0492195e-06
1.7631393e-06
1.7702368e-06
1.785883e-06
1.4903675e-06
1.4960473e-06
1.5085422e-06
1.2173101e-06
1.2216895e-06
1.2313135e-06
9.595025e-07
9.6274545e-07
9.698688e-07
7.3057227e-07
7.3287266e-07
7.379248e-07
5.3929799e-07
5.4085967e-07
5.442901e-07
3.8843512e-07
3.8945051e-07
3.916835e-07
2.7554152e-07
2.7617568e-07
2.7757442e-07
1.9509744e-07
1.9548502e-07
1.9633832e-07
1.4024689e-07
1.4047982e-07
1.4099093e-07
1.0416047e-07
1.0429917e-07
1.0460302e-07
8.1252248e-08
8.1335664e-08
8.1518341e-08
6.7308956e-08
6.7360955e-08
6.7474913e-08
5.9298502e-08
5.9333034e-08
5.940891e-08
5.5117229e-08
5.5142108e-08
5.519708e-08
5.33484e-08
5.3367839e-08
5.3411164e-08
5.3060603e-08
5.3076816e-08
5.3113311e-08
5.3653169e-08
5.3667311e-08
5.3699427e-08
5.4744844e-08
5.4757528e-08
5.4786498e-08
5.6097175e-08
5.6108733e-08
5.6135192e-08
5.7563243e-08
5.7573862e-08
5.7598155e-08
5.9053847e-08
5.906364e-08
5.908599e-08
6.0515498e-08
6.0524543e-08
6.0545121e-08
6.1916358e-08
6.1924722e-08
6.1943686e-08
6.3237565e-08
6.3245309e-08
6.3262812e-08
6.4468142e-08
6.4475329e-08
6.4491526e-08
6.5602375e-08
6.560907e-08
6.5624117e-08
6.6638935e-08
6.6645215e-08
6.6659279e-08
6.7581041e-08
6.758703e-08
6.7600312e-08
6.8407037e-08
6.8412755e-08
6.8425348e-08
6.9102499e-08
6.9107954e-08
6.9119938e-08
6.9661954e-08
6.9667183e-08
6.9678656e-08
7.0074821e-08
7.0079864e-08
7.0090923e-08
7.0320297e-08
7.0325192e-08
7.0335924e-08
7.0353522e-08
7.0358297e-08
7.0368766e-08
7.0033237e-08
7.0037898e-08
7.0048116e-08
4.1762117e-06
4.4993761e-06
6.7571346e-06
8.4858463e-06
5.9923153e-06
6.0354788e-06
4.7266928e-06
4.8302684e-06
4.082232e-06
4.1925566e-06
3.6983252e-06
3.8013061e-06
3.4361245e-06
3.5310072e-06
3.2354356e-06
3.322326e-06
3.0643591e-06
3.1431926e-06
2.9014028e-06
2.9720807e-06
2.7304969e-06
2.7929813e-06
2.5400261e-06
2.5943928e-06
2.3231084e-06
2.3695738e-06
2.0782264e-06
2.1171379e-06
1.8097021e-06
1.8415179e-06
1.5275106e-06
1.5527949e-06
1.2459031e-06
1.2653303e-06
9.8065975e-07
9.9502133e-07
7.4557534e-07
7.5575523e-07
5.4948459e-07
5.5639569e-07
3.9506636e-07
3.9956711e-07
2.7969568e-07
2.825178e-07
1.9763029e-07
1.9934652e-07
1.4176301e-07
1.4278664e-07
1.0506138e-07
1.0566819e-07
8.1793773e-08
8.2158203e-08
6.7646868e-08
6.7874573e-08
5.9523715e-08
5.9676162e-08
5.5280683e-08
5.5392233e-08
5.3477523e-08
5.3566598e-08
5.3169634e-08
5.3245678e-08
5.37493e-08
5.3816933e-08
5.483166e-08
5.4893057e-08
5.6176492e-08
5.6232682e-08
5.7636053e-08
5.7687581e-08
5.912079e-08
5.9168037e-08
6.0577084e-08
6.0620396e-08
6.1973062e-08
6.2012791e-08
6.3289857e-08
6.3326361e-08
6.4516493e-08
6.4550133e-08
6.564726e-08
6.5678386e-08
6.6680848e-08
6.6709794e-08
6.7620562e-08
6.7647645e-08
6.8444454e-08
6.8469925e-08
6.9138076e-08
6.9162205e-08
6.9695997e-08
6.9719037e-08
7.0107627e-08
7.0129801e-08
7.0352127e-08
7.0373622e-08
7.0384567e-08
7.040551e-08
7.0063514e-08
7.0081363e-08
3.7524486e-10
1.3186354e-08
1.9309873e-07
8.2668588e-07
1.6438671e-06
2.2304499e-06
2.5753844e-06
2.7837372e-06
2.927817e-06
3.0432165e-06
3.1470784e-06
3.2533945e-06
3.3589454e-06
3.4626434e-06
3.5637052e-06
3.6607829e-06
3.7514203e-06
3.8314762e-06
3.8942442e-06
3.9291292e-06
3.9195016e-06
3.8390965e-06
3.6453828e-06
3.2615184e-06
2.4480353e-06
2.1051748e-10
2.688163e-08
3.5990639e-07
1.3772464e-06
2.5703801e-06
3.3787523e-06
3.8518805e-06
4.1585789e-06
4.3932949e-06
4.5987661e-06
4.79558e-06
4.9962119e-06
5.1984067e-06
5.4011566e-06
5.6028043e-06
5.8006084e-06
5.989819e-06
6.1626526e-06
6.3063805e-06
6.4006718e-06
6.4131462e-06
6.2913884e-06
5.9475703e-06
5.2208178e-06
3.6825438e-06
6.6337359e-10
7.878156e-08
8.5710523e-07
2.5067361e-06
3.7921647e-06
4.5287529e-06
4.9924724e-06
5.338246e-06
5.6386373e-06
5.9260352e-06
6.2157588e-06
6.514553e-06
6.8209499e-06
7.1338036e-06
7.4516955e-06
7.7715594e-06
8.0871683e-06
8.3885414e-06
8.6579897e-06
8.8667387e-06
8.9680682e-06
8.8842622e-06
8.4797567e-06
7.4959413e-06
5.2895996e-06
3.1306676e-09
2.8528317e-07
2.0622622e-06
4.002219e-06
5.0423118e-06
5.6297343e-06
6.0363729e-06
6.3789262e-06
6.7075386e-06
7.0407991e-06
7.3895428e-06
7.756793e-06
8.1390846e-06
8.5351008e-06
8.9447147e-06
9.3665566e-06
9.795651e-06
1.0222471e-05
1.0630334e-05
1.0991279e-05
1.1258987e-05
1.1354877e-05
1.1135067e-05
1.0290222e-05
7.8908718e-06
2.3417688e-08
1.1392643e-06
3.9898516e-06
5.5968662e-06
6.4477013e-06
6.9682459e-06
7.351553e-06
7.6977936e-06
8.0469665e-06
8.4015547e-06
8.7749461e-06
9.1735972e-06
9.5878282e-06
1.0012367e-05
1.04504e-05
1.090643e-05
1.1379733e-05
1.1865696e-05
1.2354398e-05
1.2827571e-05
1.325403e-05
1.3583475e-05
1.3739107e-05
1.3624989e-05
1.3212725e-05
1.9531194e-07
2.7572975e-06
5.9091094e-06
7.7115254e-06
8.6246228e-06
9.0406143e-06
9.23628e-06
9.3725762e-06
9.5106316e-06
9.6685704e-06
9.8546238e-06
1.0075139e-05
1.0330653e-05
1.0621497e-05
1.0948949e-05
1.1313978e-05
1.1716632e-05
1.2154848e-05
1.2623541e-05
1.3112866e-05
1.3605125e-05
1.4071421e-05
1.4468514e-05
1.4747623e-05
1.4851209e-05
4.341986e-06
4.319575e-06
4.3666014e-06
4.4783034e-06
4.653754e-06
4.8831651e-06
5.1567889e-06
5.4717129e-06
5.8295028e-06
6.2314108e-06
6.6766059e-06
7.1619447e-06
7.6817708e-06
8.2291433e-06
8.797503e-06
9.3821613e-06
9.9805529e-06
1.0591096e-05
1.1211653e-05
1.1837493e-05
1.2458292e-05
1.305496e-05
1.3596792e-05
1.4046958e-05
1.4337743e-05
9.1126123e-06
9.3776419e-06
9.7772288e-06
1.0194606e-05
1.0369615e-05
1.0332205e-05
1.0214286e-05
1.0116691e-05
1.0079058e-05
1.0103324e-05
1.0185335e-05
1.0320513e-05
1.0507053e-05
1.0744761e-05
1.1033518e-05
1.1372689e-05
1.1760254e-05
1.2192188e-05
1.2661366e-05
1.3155516e-05
1.3654059e-05
1.412492e-05
1.45217e-05
1.4794252e-05
1.4888674e-05
6.4077776e-06
6.8181517e-06
7.2497515e-06
7.6498845e-06
7.951864e-06
8.1691656e-06
8.3617991e-06
8.5690336e-06
8.7998928e-06
9.0688339e-06
9.372288e-06
9.7016318e-06
1.0051741e-05
1.0429023e-05
1.0837319e-05
1.1277207e-05
1.1745676e-05
1.2235406e-05
1.2732863e-05
1.3215235e-05
1.3645872e-05
1.3968397e-05
1.4100245e-05
1.3942564e-05
1.3474358e-05
5.1430632e-06
5.5000052e-06
5.8508818e-06
6.1679446e-06
6.4345598e-06
6.6634334e-06
6.8848154e-06
7.1190647e-06
7.3773382e-06
7.6662533e-06
7.9836973e-06
8.327034e-06
8.6960922e-06
9.091977e-06
9.514244e-06
9.9592006e-06
1.0418655e-05
1.0878259e-05
1.1314891e-05
1.1692499e-05
1.1955162e-05
1.2013883e-05
1.1714831e-05
1.0738353e-05
8.1288321e-06
4.4364966e-06
4.7271659e-06
5.0186564e-06
5.2907194e-06
5.5376111e-06
5.7674701e-06
5.9947515e-06
6.2322461e-06
6.4884806e-06
6.7675978e-06
7.069281e-06
7.3923162e-06
7.7363549e-06
8.1003659e-06
8.4814317e-06
8.8725405e-06
9.2615031e-06
9.6290639e-06
9.946174e-06
1.016988e-05
1.0236762e-05
1.0051398e-05
9.4629062e-06
8.2053881e-06
5.6425329e-06
3.9913619e-06
4.2226944e-06
4.4625741e-06
4.6954967e-06
4.917873e-06
5.1345403e-06
5.3535829e-06
5.5827408e-06
5.8276967e-06
6.0912798e-06
6.3736946e-06
6.674033e-06
6.991001e-06
7.3218289e-06
7.6610917e-06
7.9996118e-06
8.3230819e-06
8.6104477e-06
8.831811e-06
8.9455765e-06
8.894361e-06
8.5984367e-06
7.9427078e-06
6.7388417e-06
4.5021559e-06
3.6838591e-06
3.8703312e-06
4.0693859e-06
4.2695858e-06
4.4677155e-06
4.6660215e-06
4.8691119e-06
5.0817719e-06
5.3077029e-06
5.5488287e-06
5.8053307e-06
6.0762163e-06
6.359463e-06
6.6512998e-06
6.9452696e-06
7.2313529e-06
7.4950196e-06
7.7161103e-06
7.8676058e-06
7.9142777e-06
7.811177e-06
7.501464e-06
6.9107224e-06
5.9200938e-06
4.1543488e-06
3.449274e-06
3.6030465e-06
3.7706031e-06
3.9438494e-06
4.1198707e-06
4.2993961e-06
4.4849288e-06
4.679322e-06
4.8848262e-06
5.1025587e-06
5.3323665e-06
5.5729334e-06
5.821671e-06
6.0742207e-06
6.323796e-06
6.5605439e-06
6.7709168e-06
6.9370898e-06
7.0365417e-06
7.0420069e-06
6.9221977e-06
6.6442022e-06
6.1804169e-06
5.5318682e-06
4.7616843e-06
3.2510041e-06
3.3803647e-06
3.5232364e-06
3.6740277e-06
3.8302323e-06
3.9917469e-06
4.1597714e-06
4.3358618e-06
4.5212304e-06
4.7162995e-06
4.9204999e-06
5.1321609e-06
5.3483335e-06
5.5644171e-06
5.7737191e-06
5.9670411e-06
6.1323461e-06
6.2545945e-06
6.3158863e-06
6.2962008e-06
6.1752847e-06
5.9369951e-06
5.5797984e-06
5.1443842e-06
4.7775373e-06
3.0647316e-06
3.1749845e-06
3.2978163e-06
3.4293706e-06
3.5675788e-06
3.711913e-06
3.862769e-06
4.020835e-06
4.1865768e-06
4.3598754e-06
4.5397842e-06
4.7243767e-06
4.9105386e-06
5.0937039e-06
5.2675715e-06
5.4238757e-06
5.5522687e-06
5.6403994e-06
5.6743103e-06
5.6393653e-06
5.5220655e-06
5.3134996e-06
5.0163129e-06
4.6591935e-06
4.2540372e-06
2.8727914e-06
2.9672191e-06
3.0730366e-06
3.1875518e-06
3.3090816e-06
3.4369046e-06
3.5709278e-06
3.7112704e-06
3.8578866e-06
4.0102674e-06
4.1672169e-06
4.3266809e-06
4.4855671e-06
4.6395591e-06
4.7829494e-06
4.9085303e-06
5.0076021e-06
5.0701435e-06
5.08521e-06
5.0416151e-06
4.9288747e-06
4.7380632e-06
4.4608248e-06
4.0785096e-06
3.4810171e-06
2.6627864e-06
2.7434445e-06
2.8342239e-06
2.9332013e-06
3.0390123e-06
3.1508761e-06
3.2684197e-06
3.3914072e-06
3.5194681e-06
3.6518555e-06
3.7872547e-06
3.9236244e-06
4.0580512e-06
4.1866249e-06
4.3043449e-06
4.4050842e-06
4.4816466e-06
4.5259332e-06
4.5292201e-06
4.4824753e-06
4.376451e-06
4.2006601e-06
3.938206e-06
3.5437171e-06
2.8202219e-06
2.4275381e-06
2.4958066e-06
2.5729092e-06
2.6574461e-06
2.7483116e-06
2.8447444e-06
2.946234e-06
3.0523499e-06
3.1625436e-06
3.2759629e-06
3.3912932e-06
3.5066263e-06
3.619346e-06
3.7260469e-06
3.8224833e-06
3.9035709e-06
3.963449e-06
3.9956017e-06
3.9929982e-06
3.9481347e-06
3.8526597e-06
3.6957551e-06
3.4588313e-06
3.0967474e-06
2.4354601e-06
2.1654686e-06
2.2223909e-06
2.2868707e-06
2.357874e-06
2.4345162e-06
2.5161003e-06
2.6020796e-06
2.6919433e-06
2.7850779e-06
2.8806305e-06
2.9773843e-06
3.0736508e-06
3.1671876e-06
3.2551436e-06
3.3340324e-06
3.3997467e-06
3.4476061e-06
3.4724265e-06
3.4685596e-06
3.4297875e-06
3.34882e-06
3.215832e-06
3.014555e-06
2.7102258e-06
2.1862975e-06
1.8809591e-06
1.927444e-06
1.9802378e-06
2.0385784e-06
2.101766e-06
2.1692022e-06
2.2403638e-06
2.3147409e-06
2.3917406e-06
2.4705835e-06
2.5502125e-06
2.6292145e-06
2.7057581e-06
2.7775575e-06
2.8418572e-06
2.895446e-06
2.9346865e-06
2.9555429e-06
2.95356e-06
2.9237083e-06
2.8599276e-06
2.754047e-06
2.5933182e-06
2.3539359e-06
1.9714081e-06
1.5841191e-06
1.6210717e-06
1.6631389e-06
1.7097594e-06
1.7603968e-06
1.8145581e-06
1.8717886e-06
1.9316295e-06
1.9935576e-06
2.0569141e-06
2.12084e-06
2.1842164e-06
2.2456227e-06
2.3033135e-06
2.3552076e-06
2.3988966e-06
2.4316576e-06
2.450453e-06
2.4518842e-06
2.4320384e-06
2.3861337e-06
2.307781e-06
2.1874664e-06
2.0092188e-06
1.739772e-06
1.2893984e-06
1.3178199e-06
1.3502368e-06
1.3862473e-06
1.4254511e-06
1.4674615e-06
1.5119083e-06
1.5584121e-06
1.6065471e-06
1.6557929e-06
1.7054935e-06
1.7548151e-06
1.8027194e-06
1.8479453e-06
1.8890017e-06
1.9241714e-06
1.9515113e-06
1.9688399e-06
1.9736861e-06
1.9631632e-06
1.9337141e-06
1.8806164e-06
1.7969753e-06
1.6715461e-06
1.4830717e-06
1.0128172e-06
1.0338501e-06
1.0578738e-06
1.08461e-06
1.1137661e-06
1.1450544e-06
1.17819e-06
1.2128797e-06
1.2487992e-06
1.2855659e-06
1.3227083e-06
1.3596444e-06
1.3956613e-06
1.4299031e-06
1.461364e-06
1.4888884e-06
1.5111658e-06
1.5267165e-06
1.5338507e-06
1.530576e-06
1.5144254e-06
1.4821242e-06
1.4288637e-06
1.346456e-06
1.2169044e-06
7.6837103e-07
7.832905e-07
8.0034767e-07
8.1935165e-07
8.4009883e-07
8.6238116e-07
8.8599057e-07
9.107136e-07
9.363181e-07
9.6253781e-07
9.8905719e-07
1.0154958e-06
1.0413964e-06
1.0662158e-06
1.0893175e-06
1.1099685e-06
1.1273344e-06
1.1404715e-06
1.1483003e-06
1.1495469e-06
1.1426321e-06
1.1254504e-06
1.0948479e-06
1.0451869e-06
9.6324512e-07
5.6496089e-07
5.7509295e-07
5.8668164e-07
5.9959873e-07
6.1370562e-07
6.2885839e-07
6.4491084e-07
6.6171446e-07
6.7911166e-07
6.9692801e-07
7.1496467e-07
7.3298989e-07
7.5073188e-07
7.6786971e-07
7.8402527e-07
7.9875692e-07
8.115575e-07
8.218544e-07
8.2900057e-07
8.3224154e-07
8.3064736e-07
8.2297165e-07
8.0730362e-07
7.8007697e-07
7.3243559e-07
4.0514472e-07
4.1174298e-07
4.1928974e-07
4.2770035e-07
4.368823e-07
4.4673915e-07
4.571722e-07
4.6808181e-07
4.7936555e-07
4.9091501e-07
5.0261258e-07
5.143276e-07
5.2591171e-07
5.3719059e-07
5.479533e-07
5.5794274e-07
5.6685431e-07
5.7434683e-07
5.8004848e-07
5.8354062e-07
5.8431545e-07
5.8169021e-07
5.7459807e-07
5.6098504e-07
5.3560495e-07
2.8601404e-07
2.901492e-07
2.9487684e-07
3.0014237e-07
3.0588575e-07
3.1204399e-07
3.1855319e-07
3.2534904e-07
3.3236742e-07
3.3954413e-07
3.4681417e-07
3.5411067e-07
3.6136192e-07
3.6848341e-07
3.7536478e-07
3.8185714e-07
3.8776928e-07
3.9288972e-07
3.9700666e-07
3.998987e-07
4.0130507e-07
4.0087331e-07
3.9804413e-07
3.917225e-07
3.7901201e-07
2.0146925e-07
2.0397546e-07
2.0683559e-07
2.100149e-07
2.1347549e-07
2.1717777e-07
2.2108199e-07
2.251492e-07
2.2934185e-07
2.3362494e-07
2.3796708e-07
2.423415e-07
2.4672448e-07
2.5108674e-07
2.5537447e-07
2.594921e-07
2.633002e-07
2.6665324e-07
2.6942924e-07
2.7151734e-07
2.7279122e-07
2.7307628e-07
2.7208986e-07
2.6927731e-07
2.6316231e-07
1.4405018e-07
1.4553852e-07
1.4723296e-07
1.4911148e-07
1.5115017e-07
1.5332418e-07
1.5560873e-07
1.579799e-07
1.6041538e-07
1.6289534e-07
1.6540344e-07
1.6792848e-07
1.7046565e-07
1.7301868e-07
1.7559921e-07
1.7818341e-07
1.8062732e-07
1.8278652e-07
1.8459104e-07
1.8599202e-07
1.8693337e-07
1.8733135e-07
1.8704524e-07
1.8580031e-07
1.8290833e-07
1.0641603e-07
1.0729529e-07
1.0829422e-07
1.0939914e-07
1.1059514e-07
1.1186677e-07
1.1319875e-07
1.1457651e-07
1.1598679e-07
1.174183e-07
1.1886254e-07
1.2031463e-07
1.2177481e-07
1.2325019e-07
1.2475741e-07
1.2632121e-07
1.2789586e-07
1.2929706e-07
1.3046594e-07
1.3138413e-07
1.3202969e-07
1.323628e-07
1.3231141e-07
1.3173492e-07
1.3029638e-07
8.260702e-08
8.3134273e-08
8.3732667e-08
8.4393806e-08
8.510848e-08
8.5867165e-08
8.6660475e-08
8.7479575e-08
8.8316607e-08
8.9165144e-08
9.0020711e-08
9.0881462e-08
9.1749099e-08
9.2630154e-08
9.3537973e-08
9.4495375e-08
9.5519327e-08
9.6458946e-08
9.724102e-08
9.7858069e-08
9.8302702e-08
9.8555025e-08
9.8573938e-08
9.8274607e-08
9.7443894e-08
6.8155245e-08
6.8485281e-08
6.886021e-08
6.9274873e-08
6.9723599e-08
7.0200482e-08
7.069971e-08
7.1215843e-08
7.1744107e-08
7.2280703e-08
7.2823167e-08
7.3370831e-08
7.392551e-08
7.4492539e-08
7.5082413e-08
7.5713418e-08
7.6413052e-08
7.7083603e-08
7.7643368e-08
7.8087327e-08
7.8413405e-08
7.8610459e-08
7.86516e-08
7.8477027e-08
7.7923347e-08
5.9864637e-08
6.0086999e-08
6.0340536e-08
6.062204e-08
6.0927956e-08
6.1254539e-08
6.1598066e-08
6.1955028e-08
6.2322333e-08
6.2697512e-08
6.3078978e-08
6.3466379e-08
6.3861137e-08
6.4267318e-08
6.4693096e-08
6.5153361e-08
6.5673209e-08
6.6193712e-08
6.6630801e-08
6.6980193e-08
6.7241544e-08
6.7407461e-08
6.7458129e-08
6.7348671e-08
6.6954523e-08
5.5530842e-08
5.5695283e-08
5.5883891e-08
5.6094621e-08
5.632514e-08
5.6572946e-08
5.6835488e-08
5.711031e-08
5.7395184e-08
5.7688261e-08
5.7988277e-08
5.8294842e-08
5.8608893e-08
5.8933433e-08
5.9274811e-08
5.9645128e-08
6.0066162e-08
6.0503321e-08
6.0872848e-08
6.1170791e-08
6.139722e-08
6.1546109e-08
6.1600897e-08
6.152424e-08
6.1215525e-08
5.3677944e-08
5.3810894e-08
5.3964396e-08
5.4137067e-08
5.432726e-08
5.4533152e-08
5.4752828e-08
5.4984382e-08
5.5226017e-08
5.5476168e-08
5.5733676e-08
5.5998035e-08
5.626979e-08
5.6551162e-08
5.6847134e-08
5.71676e-08
5.7531405e-08
5.7919208e-08
5.8248816e-08
5.8516712e-08
5.8722679e-08
5.8860807e-08
5.8915672e-08
5.8853034e-08
5.8580531e-08
5.3341256e-08
5.3456033e-08
5.3589304e-08
5.3740045e-08
5.3906982e-08
5.4088657e-08
5.4283499e-08
5.4489898e-08
5.4706296e-08
5.493129e-08
5.5163784e-08
5.5403211e-08
5.5649866e-08
5.5905438e-08
5.6173919e-08
5.6463466e-08
5.6790352e-08
5.7144528e-08
5.7447033e-08
5.7694593e-08
5.7886301e-08
5.801567e-08
5.8067166e-08
5.8007056e-08
5.774443e-08
5.3902278e-08
5.4005181e-08
5.4125121e-08
5.426127e-08
5.441256e-08
5.457774e-08
5.4755449e-08
5.4944274e-08
5.5142835e-08
5.5349879e-08
5.5564408e-08
5.578587e-08
5.6014441e-08
5.6251466e-08
5.650021e-08
5.6767453e-08
5.7067178e-08
5.7394613e-08
5.767565e-08
5.7907006e-08
5.8086826e-08
5.8207704e-08
5.8253466e-08
5.8190193e-08
5.7927603e-08
5.4970702e-08
5.5064524e-08
5.5174097e-08
5.5298706e-08
5.5437412e-08
5.5589114e-08
5.575261e-08
5.5926664e-08
5.6110076e-08
5.6301764e-08
5.6500876e-08
5.6706943e-08
5.6920112e-08
5.7141501e-08
5.7373826e-08
5.7622745e-08
5.7900202e-08
5.8204124e-08
5.8466337e-08
5.86833e-08
5.8852085e-08
5.8964217e-08
5.9002575e-08
5.8932339e-08
5.866156e-08
5.630378e-08
5.6389745e-08
5.6490199e-08
5.6604504e-08
5.6731826e-08
5.6871193e-08
5.7021564e-08
5.7181879e-08
5.7351135e-08
5.7528446e-08
5.7713139e-08
5.7904871e-08
5.8103807e-08
5.8310915e-08
5.852847e-08
5.8761195e-08
5.9019226e-08
5.9301652e-08
5.9546639e-08
5.9750226e-08
5.9908387e-08
6.0011539e-08
6.0041455e-08
5.9961975e-08
5.9678509e-08
5.7752742e-08
5.7831489e-08
5.7923476e-08
5.8028128e-08
5.8144711e-08
5.8272385e-08
5.8410268e-08
5.8557489e-08
5.8713245e-08
5.8876862e-08
5.9047855e-08
5.9226024e-08
5.9411581e-08
5.9605384e-08
5.9809345e-08
6.0027397e-08
6.0268104e-08
6.0530752e-08
6.0759821e-08
6.0950846e-08
6.1098742e-08
6.1192864e-08
6.1213825e-08
6.1123804e-08
6.082481e-08
5.9227708e-08
5.9299736e-08
5.93838e-08
5.9479388e-08
5.9585863e-08
5.9702517e-08
5.9828628e-08
5.996351e-08
6.0106562e-08
6.0257312e-08
6.0415466e-08
6.0580962e-08
6.075407e-08
6.0935564e-08
6.1127057e-08
6.1331835e-08
6.1557155e-08
6.1801622e-08
6.2015971e-08
6.2195189e-08
6.2333196e-08
6.2418363e-08
6.2430149e-08
6.2328856e-08
6.2012306e-08
6.0675008e-08
6.0740832e-08
6.0817572e-08
6.0904778e-08
6.1001905e-08
6.1108374e-08
6.1223615e-08
6.1347117e-08
6.1478468e-08
6.1617386e-08
6.1763748e-08
6.1917625e-08
6.2079345e-08
6.2249621e-08
6.2429832e-08
6.2622778e-08
6.2834723e-08
6.3062371e-08
6.3263032e-08
6.3431103e-08
6.3559568e-08
6.3635894e-08
6.3638473e-08
6.3525819e-08
6.3191701e-08
6.2062797e-08
6.212298e-08
6.2193065e-08
6.2272661e-08
6.2361314e-08
6.245856e-08
6.2563969e-08
6.2677191e-08
6.279798e-08
6.2926226e-08
6.3061958e-08
6.3205368e-08
6.335684e-08
6.3517051e-08
6.3687231e-08
6.3869881e-08
6.4070597e-08
6.4282384e-08
6.4470086e-08
6.4627491e-08
6.4746672e-08
6.4814268e-08
6.4807731e-08
6.468408e-08
6.433467e-08
6.3372233e-08
6.3427362e-08
6.3491495e-08
6.3564297e-08
6.3645396e-08
6.373443e-08
6.3831096e-08
6.3935181e-08
6.4046591e-08
6.4165359e-08
6.4291652e-08
6.4425767e-08
6.4568145e-08
6.4719459e-08
6.4880878e-08
6.5054776e-08
6.524632e-08
6.5442785e-08
6.5617899e-08
6.5764884e-08
6.5874911e-08
6.5933849e-08
6.5918329e-08
6.578408e-08
6.5419184e-08
6.4592341e-08
6.4642999e-08
6.4701878e-08
6.4768693e-08
6.484314e-08
6.4924954e-08
6.5013936e-08
6.5109997e-08
6.5213169e-08
6.5323616e-08
6.5441622e-08
6.5567575e-08
6.5701972e-08
6.5845506e-08
6.5999347e-08
6.6165788e-08
6.6349371e-08
6.6530895e-08
6.6693574e-08
6.6830198e-08
6.6931093e-08
6.6981424e-08
6.6957144e-08
6.6812677e-08
6.6424653e-08
6.571738e-08
6.576412e-08
6.5818401e-08
6.5879976e-08
6.5948609e-08
6.6024111e-08
6.610638e-08
6.619543e-08
6.6291409e-08
6.6394593e-08
6.6505372e-08
6.662421e-08
6.6751646e-08
6.6888387e-08
6.7035668e-08
6.7195652e-08
6.7370196e-08
6.7537157e-08
6.7687554e-08
6.7813827e-08
6.7905557e-08
6.7947322e-08
6.7914635e-08
6.7761502e-08
6.7365672e-08
6.6745992e-08
6.6789314e-08
6.6839571e-08
6.6896555e-08
6.6960086e-08
6.7030044e-08
6.7106413e-08
6.7189302e-08
6.7278963e-08
6.7375779e-08
6.7480233e-08
6.7592853e-08
6.7714174e-08
6.7844873e-08
6.7986653e-08
6.8142546e-08
6.830132e-08
6.845368e-08
6.8592039e-08
6.8708041e-08
6.8790573e-08
6.8823768e-08
6.8782981e-08
6.8622833e-08
6.8226034e-08
6.768142e-08
6.772174e-08
6.7768428e-08
6.782131e-08
6.7880257e-08
6.7945215e-08
6.8016248e-08
6.8093557e-08
6.8177495e-08
6.8268551e-08
6.8367303e-08
6.8474329e-08
6.8590087e-08
6.8714803e-08
6.8848408e-08
6.8989916e-08
6.9133757e-08
6.9272986e-08
6.9400054e-08
6.950605e-08
6.9579383e-08
6.9603879e-08
6.9554768e-08
6.9386871e-08
6.8984018e-08
6.8501609e-08
6.853934e-08
6.858295e-08
6.8632288e-08
6.8687258e-08
6.8747853e-08
6.8814179e-08
6.8886486e-08
6.8965163e-08
6.9050724e-08
6.9143738e-08
6.9244732e-08
6.9354031e-08
6.9471576e-08
6.9596665e-08
6.9727447e-08
6.9859852e-08
6.9988087e-08
7.0104927e-08
7.020134e-08
7.0265532e-08
7.0281172e-08
7.0223376e-08
7.0046808e-08
6.9634576e-08
6.9192165e-08
6.9227785e-08
6.92689e-08
6.9315378e-08
6.9367147e-08
6.9424224e-08
6.9486747e-08
6.955499e-08
6.9629358e-08
6.9710362e-08
6.9798542e-08
6.9894361e-08
6.9998036e-08
7.0109319e-08
7.0227232e-08
7.0349685e-08
7.0473027e-08
7.0591975e-08
7.0699582e-08
7.0786879e-08
7.0842059e-08
7.0848779e-08
7.078213e-08
7.0596507e-08
7.017357e-08
6.9747607e-08
6.9781533e-08
6.9820657e-08
6.9864858e-08
6.9914076e-08
6.9968348e-08
7.0027826e-08
7.0092797e-08
7.0163673e-08
7.024095e-08
7.0325129e-08
7.0416614e-08
7.0515532e-08
7.0621523e-08
7.0733467e-08
7.0849158e-08
7.0965017e-08
7.1075949e-08
7.1175173e-08
7.1253838e-08
7.1300237e-08
7.1298157e-08
7.1222843e-08
7.1028682e-08
7.0596449e-08
7.015727e-08
7.0189858e-08
7.0227412e-08
7.0269815e-08
7.0317005e-08
7.0369032e-08
7.0426066e-08
7.04884e-08
7.0556452e-08
7.06307e-08
7.0711601e-08
7.0799506e-08
7.0894483e-08
7.0996121e-08
7.1103232e-08
7.1213482e-08
7.132315e-08
7.1427149e-08
7.15188e-08
7.1589396e-08
7.1627419e-08
7.1616928e-08
7.1533592e-08
7.1332571e-08
7.0898592e-08
7.0400228e-08
7.0431769e-08
7.0468098e-08
7.0509084e-08
7.0554625e-08
7.0604805e-08
7.0659829e-08
7.0720005e-08
7.0785766e-08
7.0857572e-08
7.0935814e-08
7.1020809e-08
7.111261e-08
7.1210873e-08
7.1314493e-08
7.1420913e-08
7.1525823e-08
7.1624042e-08
7.1709036e-08
7.1772319e-08
7.1802656e-08
7.1784513e-08
7.1694234e-08
7.148835e-08
7.1056686e-08
7.0431429e-08
7.0462147e-08
7.0497524e-08
7.0537374e-08
7.0581478e-08
7.0630121e-08
7.0683389e-08
7.0741734e-08
7.0805625e-08
7.087551e-08
7.0951636e-08
7.1034317e-08
7.112368e-08
7.1219791e-08
7.1322319e-08
7.1428207e-08
7.1530591e-08
7.1624504e-08
7.1703989e-08
7.1761018e-08
7.1784778e-08
7.1760265e-08
7.1664768e-08
7.1457261e-08
7.1039078e-08
7.010663e-08
7.013661e-08
7.0171168e-08
7.0209991e-08
7.0252811e-08
7.0302047e-08
7.035371e-08
7.0410303e-08
7.0472554e-08
7.0540922e-08
7.0615278e-08
7.0695994e-08
7.0783459e-08
7.0879211e-08
7.09886e-08
7.1107053e-08
7.1211768e-08
7.1303298e-08
7.1378583e-08
7.1430727e-08
7.1449544e-08
7.1420692e-08
7.1322722e-08
7.1118694e-08
7.0735885e-08
)
;

boundaryField
{
    Walls
    {
        type            nutUWallFunction;
        Cmu             0.09;
        kappa           0.41;
        E               9.8;
        value           uniform 0;
    }
    Inlet
    {
        type            calculated;
        value           nonuniform List<scalar> 3(2.5198089e-05 3.1741486e-05 7.896194e-07);
    }
    Outlet
    {
        type            calculated;
        value           nonuniform List<scalar> 
86
(
7.0033237e-08
7.0037898e-08
7.0048116e-08
7.0063514e-08
7.0081363e-08
7.010663e-08
7.013661e-08
7.0171168e-08
7.0209991e-08
7.0252811e-08
7.0302047e-08
7.035371e-08
7.0410303e-08
7.0472554e-08
7.0540922e-08
7.0615278e-08
7.0695994e-08
7.0783459e-08
7.0879211e-08
7.09886e-08
7.1107053e-08
7.1211768e-08
7.1303298e-08
7.1378583e-08
7.1430727e-08
7.1449544e-08
7.1420692e-08
7.1322722e-08
7.1118694e-08
7.0735885e-08
1.4337743e-05
1.4888674e-05
1.3474358e-05
0
0
0
0
0
4.7775373e-06
4.2540372e-06
0
0
0
2.1862975e-06
1.9714081e-06
1.739772e-06
1.4830717e-06
1.2169044e-06
9.6324512e-07
7.3243559e-07
5.3560495e-07
3.7901201e-07
2.6316231e-07
1.8290833e-07
1.3029638e-07
9.7443894e-08
7.7923347e-08
6.6954523e-08
6.1215525e-08
5.8580531e-08
5.774443e-08
5.7927603e-08
5.866156e-08
5.9678509e-08
6.082481e-08
6.2012306e-08
6.3191701e-08
6.433467e-08
6.5419184e-08
0
0
0
0
0
0
0
0
0
0
7.0735885e-08
0
0
0
0
1.3212725e-05
1.4851209e-05
)
;
    }
    Front
    {
        type            wedge;
    }
    Back
    {
        type            wedge;
    }
    defaultFaces
    {
        type            empty;
    }
}


// ************************************************************************* //
