/*--------------------------------*- C++ -*----------------------------------*\
| =========                 |                                                 |
| \\      /  F ield         | OpenFOAM: The Open Source CFD Toolbox           |
|  \\    /   O peration     | Version:  4.0                                   |
|   \\  /    A nd           | Web:      www.OpenFOAM.org                      |
|    \\/     M anipulation  |                                                 |
\*---------------------------------------------------------------------------*/
FoamFile
{
    version     2.0;
    format      ascii;
    class       volScalarField;
    location    "0.63";
    object      omega;
}
// * * * * * * * * * * * * * * * * * * * * * * * * * * * * * * * * * * * * * //

dimensions      [0 0 -1 0 0 0 0];

internalField   nonuniform List<scalar> 
1740
(
57.936887
637.46393
14917.697
165.88106
1373.3277
15027.925
290.80333
1932.4892
15114.473
391.87075
2264.3664
15194.825
492.8723
2523.5156
15266.394
603.37109
2779.3759
15324.28
732.52942
3095.6339
15373.857
852.52422
3324.7665
15412.127
949.28696
3445.7319
15441.752
1038.8867
3499.4012
15467.803
1138.2793
3576.9174
15489.964
1232.7869
3675.3462
15509.107
1322.4529
3769.9762
15521.338
1396.963
3847.8419
15533.39
1450.2565
3864.2974
15548.074
1526.3294
3948.8821
15560.06
1617.7918
4023.4664
15557.103
1689.8931
4044.7314
15558.271
1720.1617
4048.1852
15566.607
1755.282
4089.5491
15563.176
1803.4098
4106.9349
15565.736
1821.8571
4147.8793
15567.213
1839.5648
4106.0396
15570.102
1867.9893
4096.2626
15577.538
1904.0119
4173.2745
15578.043
1940.4141
4188.0198
15576.41
1971.4721
4194.0065
15567.326
1989.8616
4238.5918
15565.507
2004.3946
4263.5644
15558.767
2129.6481
4305.9083
15502.513
3196.7906
4563.5276
10708.207
3318.9797
4216.5141
5898.4309
1572.535
1858.8316
2151.7481
823.97868
899.15608
958.31336
477.14428
495.13997
505.42882
300.08716
303.71929
303.8142
200.96264
201.24484
199.78701
141.60826
141.26909
140.00782
104.18941
103.85186
103.00284
79.569875
79.333826
78.806605
62.765129
62.616314
62.299344
50.933486
50.843365
50.65541
42.396031
42.342461
42.231628
36.127951
36.096316
36.031004
31.482841
31.464075
31.42528
28.037918
28.02654
28.002914
25.504144
25.496931
25.481828
23.67281
23.667923
23.657558
22.383945
22.380389
22.372695
21.508818
21.506094
21.500021
20.941022
20.938919
20.933972
20.590088
20.588478
20.584359
20.368088
20.366504
20.362687
20.203936
20.202375
20.198808
20.073421
20.071978
20.068713
19.962981
19.961672
19.958704
19.863675
19.862506
19.859828
19.769687
19.768671
19.766287
19.677312
19.676467
19.674391
19.584427
19.583765
19.582005
19.490172
19.489682
19.488224
19.394378
19.394028
19.392833
19.296598
19.296346
19.295362
19.194999
19.194809
19.193988
19.085475
19.085321
19.084624
18.961052
18.960918
18.960317
18.811475
18.811352
18.810826
18.622796
18.622682
18.622217
18.376888
18.376781
18.376368
18.050871
18.050772
18.050405
17.616547
17.616457
17.616131
17.040007
17.039923
17.039636
16.281817
16.281728
16.281467
15.30495
15.30487
15.304653
14.068407
14.06835
14.068196
12.531648
12.531622
12.531544
10.664387
10.664398
10.664405
8.4562442
8.456289
8.4563787
5.9286583
5.9287217
5.9288583
3.1206028
3.1206527
3.1207621
13481.332
13535.29
5978.2933
5323.8092
2082.2247
1880.536
922.51983
853.85077
489.45586
462.92101
295.78027
283.98567
195.49641
189.78829
137.64483
134.71356
101.67257
100.09646
78.045445
77.166788
61.858747
61.356685
50.398711
50.107483
42.081458
41.910958
35.942659
35.841954
31.372592
31.31209
27.970535
27.932858
25.46081
25.435776
23.642792
23.62461
22.361397
22.346933
21.49077
21.478441
20.926088
20.915167
20.577484
20.567671
20.35646
20.347601
20.19312
20.18507
20.063524
20.056167
19.953964
19.947198
19.855499
19.849251
19.762353
19.756581
19.670852
19.665542
19.578862
19.574017
19.485469
19.481095
19.390441
19.38654
19.293298
19.289856
19.192211
19.189199
19.083091
19.080468
18.95899
18.956707
18.809672
18.807678
18.621207
18.619456
18.375479
18.373932
18.04962
18.048247
17.615438
17.61422
17.039028
17.037953
16.280941
16.280008
15.304223
15.303448
14.067877
14.067272
12.531354
12.530938
10.664358
10.664149
8.4564703
8.4564606
5.9290346
5.9290617
3.1207949
3.1085068
12058.179
2042.8181
696.2775
368.98599
281.21635
257.01396
249.89326
246.8668
244.53561
242.1558
239.64781
236.91207
234.09033
231.19336
228.18692
225.00656
221.53841
217.58556
212.81407
206.66825
198.22541
185.93153
167.08664
136.63562
82.656846
12058.132
2037.1089
697.60853
374.6066
283.16043
254.33506
242.81127
235.61037
229.51762
223.73688
218.07217
212.45893
206.96525
201.57151
196.2565
190.99198
185.7211
180.33939
174.65902
168.35677
160.88079
151.26388
137.7082
116.50947
78.212139
12058.18
2030.4846
718.61282
430.68704
359.30708
332.37476
315.01088
300.52091
287.29276
274.75339
262.78603
251.20656
240.2408
229.79018
219.79307
210.23555
201.09646
192.32918
183.8327
175.42813
166.80165
157.37207
145.93508
129.53649
98.862761
12058.528
2031.7508
817.58424
608.84657
549.96486
512.75227
479.7334
449.23103
421.25762
394.95064
370.28152
347.2824
326.08294
306.22557
287.57028
270.12312
253.87139
238.78239
224.80121
211.83605
199.74604
188.30524
177.07485
164.87789
146.46844
12061.545
2150.4161
1232.611
1078.6725
989.87825
907.00638
828.51422
757.13087
693.1968
634.08753
579.73598
530.11932
486.01505
445.70054
408.70493
375.0249
344.52162
317.0232
292.34945
270.30492
250.69282
233.33813
218.12768
205.23489
195.73666
12087.274
3813.2361
2806.7876
2404.0684
2096.2437
1827.3566
1591.8715
1388.3634
1212.2735
1060.3083
929.4188
816.76153
719.78144
636.04866
563.64772
501.06541
447.00454
400.33496
360.08093
325.40715
295.60452
270.09817
248.4838
230.85729
218.45378
10352.82
7894.4406
6093.5679
4787.7214
3819.9683
3085.158
2515.6084
2067.8871
1712.6603
1428.7081
1200.1501
1015.047
864.3904
741.2293
640.06047
556.52183
487.17634
429.32791
380.86302
340.12093
305.79552
276.88026
252.65952
233.01318
219.22022
4087.355
3304.8092
2842.7374
2468.2475
2149.1727
1868.4987
1623.4693
1411.6584
1230.0987
1074.488
941.00903
826.22647
727.15567
641.63444
567.81842
504.11484
449.15087
401.75197
360.91644
325.79277
295.66249
269.94566
248.22849
230.5868
218.20652
1594.4418
1399.7718
1269.6289
1161.4261
1059.1819
961.89525
873.23205
794.12086
722.07328
656.77729
598.40524
546.73865
499.28516
455.9263
416.53746
380.92996
348.87393
320.13486
294.48211
271.69899
251.58758
233.98015
218.7667
206.10112
196.94231
771.13916
707.78107
661.50184
620.88618
580.49965
540.34624
502.76399
468.1083
435.98263
406.35655
379.2794
354.4695
331.24456
309.50786
289.24997
270.46041
253.11029
237.15803
222.55325
209.23242
197.1024
185.99851
175.55653
164.72199
148.7064
433.71583
409.92992
391.15772
373.89577
356.1234
337.80733
319.91709
302.88307
286.78296
271.67092
257.55798
244.3204
231.75148
219.80982
208.52461
197.8934
187.90989
178.55366
169.78044
161.4994
153.51905
145.41344
136.15719
122.98206
96.798957
271.72282
261.33289
252.667
244.48266
235.93768
226.97265
217.94729
209.12678
200.63296
192.52429
184.81017
177.44223
170.34923
163.51012
156.93806
150.63759
144.60034
138.79668
133.16039
127.55674
121.71465
115.07684
106.44638
93.058018
67.410974
183.99962
178.92368
174.50748
170.26664
165.82984
161.13236
156.30859
151.49936
146.79375
142.23838
137.84451
133.59418
129.45919
125.42544
121.48935
117.64213
113.86224
110.10524
106.28752
102.25632
97.733744
92.208182
84.712006
73.282079
52.771032
131.76654
129.11169
126.72406
124.40237
121.97551
119.39639
116.71323
113.99667
111.3014
108.65915
106.07989
103.55689
101.07592
98.624095
96.189171
93.752635
91.282936
88.726514
85.99439
82.941049
79.332233
74.802944
68.835897
60.935102
51.06494
98.512855
97.054017
95.709218
94.390185
93.014891
91.552866
90.019559
88.448635
86.870749
85.305517
83.759814
82.229886
80.705589
79.173606
77.616898
76.010966
74.31872
72.483718
70.420929
68.005
65.058922
61.357527
56.698955
51.219419
46.348981
76.282041
75.451808
74.672623
73.904332
73.106218
72.259194
71.366801
70.444079
69.506833
68.565722
67.62377
66.677135
65.716256
64.726928
63.689518
62.576573
61.349125
59.951884
58.307406
56.310107
53.823781
50.693685
46.804175
42.247865
36.883367
60.848842
60.365289
59.905651
59.451339
58.981535
58.484352
57.958985
57.411285
56.848364
56.274699
55.690091
55.089412
54.462534
53.794387
53.064122
52.24323
51.292876
50.160398
48.775039
47.043144
44.842959
42.016562
38.339747
33.362981
25.391486
49.81103
49.525508
49.251817
48.981069
48.702385
48.408324
48.096623
47.768553
47.426215
47.070074
46.697434
46.301724
45.87204
45.392697
44.842335
44.192398
43.405002
42.430054
41.201352
39.630823
37.598275
34.927448
31.315782
26.092073
17.256442
41.736164
41.566242
41.402364
41.240251
41.073917
40.89856
40.711575
40.511986
40.299024
40.070612
39.822237
39.546134
39.230706
38.859869
38.412138
37.859325
37.16471
36.280443
35.143693
33.670286
31.742665
29.183926
25.695199
20.683532
12.699747
35.737839
35.635759
35.536676
35.438434
35.337607
35.230824
35.115533
34.989647
34.850762
34.69523
34.517297
34.308337
34.056205
33.744567
33.351997
32.850828
32.205527
31.370376
30.285954
28.873332
27.023714
24.578779
21.291375
16.738983
10.10789
31.248843
31.186053
31.124397
31.062713
30.998811
30.93022
30.85443
30.768812
30.670088
30.553645
30.412888
30.238586
30.018213
29.735288
29.368526
28.890811
28.267812
27.456042
26.40003
25.027954
23.244572
20.919598
17.869179
13.829989
8.432251
27.892741
27.851994
27.811071
27.769177
27.724784
27.675863
27.620027
27.554368
27.475099
27.377037
27.253061
27.093512
26.885582
26.612689
26.253707
25.782075
25.164659
24.360295
23.31784
21.973504
20.247062
18.036497
15.211857
11.620505
7.1634868
25.408314
25.379385
25.349169
25.317044
25.281783
25.241605
25.194197
25.136525
25.064521
24.972647
24.853422
24.696877
24.489993
24.216101
23.854212
23.378272
22.756292
21.94937
20.910612
19.583991
17.903115
15.789831
13.153533
9.9030499
6.0376676
23.603826
23.580866
23.555681
23.527696
23.495802
23.458362
23.413104
23.356923
23.285582
23.193318
23.072379
22.912541
22.700581
22.419728
22.049093
21.563066
20.930692
20.115105
19.073174
17.755539
16.107155
14.068192
11.57534
8.569985
5.0555637
22.329622
22.309544
22.28647
22.259795
22.228469
22.190912
22.144873
22.087202
22.013544
21.917951
21.792451
21.626571
21.406854
21.116388
20.734334
20.235476
19.589773
18.762093
17.712371
16.396504
14.768099
12.780868
10.391444
7.5680693
4.3443731
21.46304
21.444399
21.42215
21.395639
21.363829
21.325165
21.277396
21.217331
21.140514
21.040836
20.910099
20.737548
20.509437
20.208644
19.814345
19.301715
18.641591
17.800312
16.740185
15.420973
13.802545
11.848403
9.5299433
6.8355236
3.8135623
20.901012
20.883273
20.861473
20.834906
20.80252
20.762763
20.713371
20.65111
20.571431
20.468063
20.332556
20.153811
19.917686
19.60674
19.200138
18.673542
17.998824
17.143702
16.072254
14.746906
13.131813
11.197288
8.9250517
6.3169723
3.4405235
20.554611
20.537821
20.516739
20.490597
20.458301
20.418259
20.36817
20.304738
20.223313
20.117447
19.978397
19.794619
19.551399
19.230793
18.811892
18.271066
17.58173
16.713166
15.630739
14.298483
12.683254
10.759882
8.5171822
5.9674753
3.192427
20.335777
20.320515
20.30121
20.277032
20.246807
20.208848
20.160742
20.099057
20.018969
19.913786
19.774389
19.588634
19.340952
19.012479
18.581855
18.026299
17.322049
16.440758
15.348561
14.010092
12.393628
10.4768
8.2530486
5.7418705
3.0386969
20.174324
20.160425
20.142762
20.120489
20.092414
20.056835
20.011324
19.952442
19.875366
19.773427
19.637536
19.455545
19.211546
18.885157
18.451144
17.883756
17.164836
16.272181
15.172203
13.829191
12.211866
10.299408
8.0880568
5.6022474
2.959485
20.046302
20.033472
20.017058
19.996209
19.969725
19.935901
19.892313
19.835538
19.760785
19.661443
19.528525
19.350025
19.110207
18.788887
18.360779
17.79545
17.067617
16.166898
15.062071
13.716804
12.099776
10.190963
7.9881009
5.5170195
2.8903295
19.938055
19.926069
19.910617
19.89084
19.86554
19.833018
19.790866
19.735685
19.662735
19.565484
19.435068
19.259657
19.023746
18.707413
18.285637
17.727869
17.00099
16.097204
14.991046
13.645993
12.030674
10.125544
7.9291566
5.4677792
2.8523046
19.840717
19.82942
19.814727
19.795781
19.771387
19.739857
19.698805
19.644872
19.573377
19.477883
19.349663
19.177084
18.944891
18.633454
18.218025
17.668161
16.948241
16.046192
14.941958
13.599284
11.986924
10.085816
7.8954871
5.4433833
2.8329248
19.748589
19.737884
19.723827
19.705562
19.681905
19.651186
19.611052
19.55819
19.487993
19.394126
19.26801
19.098202
18.869692
18.563142
18.154108
17.612344
16.901779
16.004608
14.904659
13.565931
11.9574
10.060491
7.8755171
5.4307943
2.8283335
19.658065
19.647911
19.634439
19.616802
19.593833
19.563892
19.524665
19.472899
19.404063
19.311928
19.188046
19.021142
18.796413
18.494778
18.092108
17.5585
16.857954
15.967547
14.87334
13.539515
11.935315
10.042698
7.8627986
5.4247812
2.839813
19.567063
19.557477
19.544622
19.527668
19.505474
19.476438
19.438292
19.387843
19.320633
19.230519
19.109156
18.945391
18.724574
18.427831
18.031324
17.505547
16.814835
15.932225
14.84457
13.516127
11.916456
10.027965
7.8520681
5.4168533
2.831583
19.474695
19.46574
19.453606
19.437485
19.416266
19.388385
19.35162
19.302826
19.237597
19.149849
19.031299
18.870871
18.654019
18.362023
17.971303
17.452752
16.771192
15.896828
14.816012
13.493106
11.898052
10.013788
7.842407
5.4125962
2.8329035
19.380729
19.372486
19.361204
19.3461
19.326091
19.299642
19.264563
19.217738
19.154789
19.069657
18.95409
18.797051
18.584063
18.296529
17.911088
17.399018
16.725696
15.859561
14.785524
13.468133
11.877776
9.9979911
7.8319007
5.4100784
2.8415895
19.284653
19.277181
19.266856
19.252913
19.23429
19.209469
19.176273
19.131596
19.071064
18.98862
18.876018
18.722239
18.512857
18.22938
17.848648
17.342295
16.67627
15.818029
14.750542
13.438625
11.853144
9.9782492
7.8180545
5.404284
2.8443754
19.184591
19.177906
19.168575
19.155848
19.138675
19.115541
19.084268
19.041742
18.98358
18.903711
18.793884
18.643091
18.436949
18.157068
17.780475
17.279145
16.619586
15.768782
14.707637
13.401298
11.821109
9.9517811
7.7983318
5.393595
2.8434183
19.076417
19.070482
19.062111
19.050563
19.034788
19.013269
18.983815
18.943297
18.887313
18.809776
18.702426
18.554267
18.350962
18.074225
17.701273
17.204405
16.55067
15.706933
14.65213
13.351801
11.777775
9.9152483
7.7699626
5.3759218
2.8384944
18.953153
18.947895
18.940397
18.92992
18.915412
18.895345
18.867515
18.828772
18.774697
18.699188
18.593981
18.448098
18.24726
17.973294
17.603615
17.110838
16.462533
15.625776
14.577693
13.284303
11.717958
9.8642872
7.7293914
5.3476502
2.8243971
18.804552
18.799882
18.793141
18.783594
18.770181
18.751366
18.724927
18.6877
18.63525
18.561468
18.458096
18.314189
18.115539
17.844105
17.477512
16.988701
16.345742
15.51634
14.475909
13.191057
11.634745
9.7930305
7.6721504
5.3064337
2.8016268
18.61669
18.612516
18.606414
18.597649
18.585158
18.567394
18.542123
18.506171
18.455097
18.382793
18.281024
18.138896
17.942297
17.673342
17.309895
16.825235
16.187949
15.366921
14.33582
13.061996
11.519164
9.6939246
7.5926869
5.2496264
2.771566
18.371468
18.367708
18.362139
18.354028
18.342307
18.325423
18.301137
18.266272
18.21639
18.145404
18.045121
17.904724
17.71023
17.443951
17.084034
16.604146
15.973457
15.162625
14.143502
12.884357
11.359851
9.5573163
7.4835157
5.1729477
2.7334578
18.046039
18.042629
18.037511
18.029954
18.018889
18.002762
17.979337
17.945446
17.89667
17.826962
17.728199
17.58968
17.397599
17.13453
16.778978
16.305112
15.682892
14.885017
13.881718
12.642386
11.142853
9.3714137
7.3352462
5.0670761
2.6387937
17.612237
17.609136
17.604417
17.597353
17.586879
17.57145
17.54884
17.515906
17.46827
17.399954
17.302943
17.166705
16.977687
16.718814
16.36906
15.903274
15.292868
14.511868
13.529715
12.317174
10.851508
9.1222045
7.1370447
4.928138
2.5701574
17.036183
17.033374
17.029037
17.022453
17.012568
16.997853
16.97611
16.94424
16.897935
16.831325
16.736556
16.603343
16.418485
16.165399
15.823597
15.368607
14.775763
14.017108
13.063248
11.886732
10.466529
8.7934869
6.8759165
4.7440388
2.4615433
16.278454
16.275951
16.272021
16.265961
16.256737
16.242849
16.222148
16.191606
16.147026
16.082697
15.991005
15.862004
15.682996
15.438143
15.108208
14.670644
14.100654
13.371312
12.455044
11.326467
9.9665063
8.36751
6.5383695
4.5083412
2.3372851
15.302124
15.29994
15.296438
15.290937
15.28244
15.2695
15.250048
15.221176
15.178869
15.117668
15.030312
14.907345
14.736734
14.50354
14.189734
13.774281
13.233677
12.542696
11.675907
10.610273
9.3289103
7.8257476
6.1101488
4.2104816
2.1831533
14.066187
14.064327
14.061256
14.056333
14.048616
14.036735
14.01874
13.991902
13.952463
13.895322
13.813695
13.698778
13.539398
13.321746
13.029234
12.642579
12.140236
11.499252
10.696778
9.7124659
8.5318566
7.1504908
5.5778688
3.8405028
1.990138
12.530109
12.528587
12.525973
12.521679
12.514827
12.504166
12.487916
12.463599
12.427824
12.375973
12.301889
12.197608
12.053057
11.855851
11.591193
11.241953
10.789069
10.212382
9.4920604
8.6107898
7.5567416
6.3270609
4.9310532
3.392419
1.7567013
10.663592
10.662427
10.660305
10.656692
10.650754
10.641432
10.62722
10.605985
10.574845
10.529815
10.465512
10.37503
10.249641
10.078744
9.8497644
9.5481989
9.1579786
8.6622034
8.0444505
7.2907106
6.3918978
5.3466838
4.1639839
2.8647188
1.4905655
8.4561726
8.4553811
8.4538094
8.4509254
8.4457974
8.4377779
8.4258234
8.4082838
8.3829379
8.3465965
8.2947432
8.2217489
8.1204477
7.982406
7.7977565
7.5551356
7.2419944
6.845104
6.3517461
5.7513706
5.0375885
4.2103214
3.2776425
2.2569873
1.1828155
5.929
5.9286022
5.927689
5.9256106
5.9211446
5.9150537
5.9056749
5.8926194
5.874473
5.8489938
5.8125206
5.7609514
5.6888717
5.5903703
5.4586805
5.2860655
5.0641149
4.7835743
4.4356211
4.0131815
3.5123234
2.9336948
2.2838446
1.576468
0.83937469
3.1084751
3.1084171
3.1081694
3.1070908
3.1046085
3.1087307
3.1036614
3.0963658
3.0868865
3.0741119
3.0554193
3.0286068
2.9904857
2.9379186
2.8671967
2.7745385
2.656651
2.5082674
2.3246002
2.1020112
1.8386576
1.5352044
1.1956474
0.8287611
0.45790095
)
;

boundaryField
{
    Walls
    {
        Cmu             0.09;
        kappa           0.41;
        E               9.8;
        beta1           0.075;
        type            omegaWallFunction;
        value           nonuniform List<scalar> 
38
(
12058.179
12058.132
12058.18
12058.528
12061.545
12087.274
13481.332
13535.29
14917.697
15027.925
15114.473
15194.825
15266.394
15324.28
15373.857
15412.127
15441.752
15467.803
15489.964
15509.107
15521.338
15533.39
15548.074
15560.06
15557.103
15558.271
15566.607
15563.176
15565.736
15567.213
15570.102
15577.538
15578.043
15576.41
15567.326
15565.507
15558.767
15502.513
)
;
    }
    Inlet
    {
        type            turbulentMixingLengthDissipationRateInlet;
        mixingLength    0.03;
        phi             phi;
        k               k;
        value           nonuniform List<scalar> 3(0.0039521612 0.0040933814 0.0050430252);
    }
    Outlet
    {
        type            inletOutlet;
        inletValue      uniform 1e-05;
        value           nonuniform List<scalar> 
86
(
3.1206028
3.1206527
3.1207621
3.1207949
3.1085068
3.1084751
3.1084171
3.1081694
3.1070908
3.1046085
3.1087307
3.1036614
3.0963658
3.0868865
3.0741119
3.0554193
3.0286068
2.9904857
2.9379186
2.8671967
2.7745385
2.656651
2.5082674
2.3246002
2.1020112
1.8386576
1.5352044
1.1956474
0.8287611
0.45790095
219.22022
218.20652
196.94231
1e-05
1e-05
1e-05
1e-05
1e-05
46.348981
36.883367
1e-05
1e-05
1e-05
10.10789
8.432251
7.1634868
6.0376676
5.0555637
4.3443731
3.8135623
3.4405235
3.192427
3.0386969
2.959485
2.8903295
2.8523046
2.8329248
2.8283335
2.839813
2.831583
2.8329035
2.8415895
2.8443754
2.8434183
2.8384944
2.8243971
2.8016268
2.771566
2.7334578
1e-05
1e-05
1e-05
1e-05
1e-05
1e-05
1e-05
1e-05
1e-05
1e-05
0.45790095
1e-05
1e-05
1e-05
1e-05
195.73666
218.45378
)
;
    }
    Front
    {
        type            wedge;
    }
    Back
    {
        type            wedge;
    }
    defaultFaces
    {
        type            empty;
    }
}


// ************************************************************************* //
