/*--------------------------------*- C++ -*----------------------------------*\
| =========                 |                                                 |
| \\      /  F ield         | OpenFOAM: The Open Source CFD Toolbox           |
|  \\    /   O peration     | Version:  4.0                                   |
|   \\  /    A nd           | Web:      www.OpenFOAM.org                      |
|    \\/     M anipulation  |                                                 |
\*---------------------------------------------------------------------------*/
FoamFile
{
    version     2.0;
    format      ascii;
    class       surfaceScalarField;
    location    "0.63";
    object      phi;
}
// * * * * * * * * * * * * * * * * * * * * * * * * * * * * * * * * * * * * * //

dimensions      [0 3 -1 0 0 0 0];

internalField   nonuniform List<scalar> 
3364
(
-2.0875691e-10
1.6857764e-08
-3.1726639e-10
4.8192983e-08
8.651347e-08
-1.1909581e-10
1.6976843e-08
-1.0715907e-09
4.9145498e-08
8.5441876e-08
4.463395e-10
1.653051e-08
-7.4508479e-10
5.0336956e-08
8.4696792e-08
4.6852024e-10
1.6061964e-08
3.8366303e-10
5.0421822e-08
8.5080452e-08
1.6048604e-10
1.5901415e-08
1.1377301e-09
4.9444506e-08
8.6218144e-08
-1.3292774e-10
1.6034291e-08
-3.4348116e-10
4.9654976e-08
8.5874606e-08
-3.677889e-10
1.6402045e-08
-1.5419618e-09
5.0829079e-08
8.4332607e-08
-5.2060468e-10
1.6922622e-08
-8.9695608e-10
5.1205388e-08
8.3435629e-08
-1.1389826e-10
1.7036473e-08
1.7274913e-10
5.0918721e-08
8.3608372e-08
2.343323e-10
1.6802087e-08
5.007235e-10
5.0652313e-08
8.4109088e-08
1.151973e-10
1.6686857e-08
3.1403868e-10
5.0453436e-08
8.4423091e-08
7.7005342e-11
1.6609832e-08
7.9834019e-10
4.973205e-08
8.5221389e-08
-4.1259162e-10
1.7022397e-08
-2.9204458e-10
4.9611474e-08
8.4929311e-08
-4.4127126e-10
1.7463641e-08
-1.168949e-09
5.0339114e-08
8.3760324e-08
2.4192761e-10
1.7221682e-08
-9.1175258e-11
5.0672156e-08
8.3669103e-08
5.3157033e-10
1.6690075e-08
4.2310015e-10
5.0780564e-08
8.4092173e-08
5.3577142e-10
1.6154266e-08
2.115464e-10
5.1104765e-08
8.4303698e-08
1.695365e-10
1.5984706e-08
-3.8224793e-10
5.1656523e-08
8.3921418e-08
8.0064707e-11
1.5904617e-08
6.6396636e-10
5.1072558e-08
8.4585335e-08
-2.162363e-10
1.6120803e-08
1.5874169e-09
4.9268863e-08
8.6172712e-08
-4.8522334e-10
1.6605995e-08
-4.1473193e-10
4.9198357e-08
8.5757944e-08
-3.4163081e-10
1.6947608e-08
-2.3333358e-09
5.1190051e-08
8.3424569e-08
-1.1717547e-10
1.7064729e-08
-1.0464601e-09
5.2119285e-08
8.2378073e-08
3.3546086e-10
1.6729206e-08
3.0640778e-11
5.2424039e-08
8.2408675e-08
2.4849379e-10
1.6480658e-08
5.9409979e-10
5.2078371e-08
8.3002728e-08
-2.301483e-10
1.6710757e-08
8.3499086e-10
5.1013186e-08
8.3837687e-08
-4.4653077e-10
1.7157257e-08
2.0713259e-10
5.0359503e-08
8.4044782e-08
-2.9627535e-10
1.7453532e-08
-1.6023887e-09
5.166562e-08
8.244235e-08
-1.8678819e-11
1.7472267e-08
-9.67714e-10
5.2614745e-08
8.1474642e-08
1.6560916e-09
1.5816381e-08
5.7923291e-09
4.8478617e-08
8.7266976e-08
1.1479818e-08
4.3359096e-09
4.9018233e-08
1.0938349e-08
1.0177602e-08
1.2610506e-07
4.7606211e-09
-4.2517128e-10
1.6888545e-08
-1.1910244e-09
-1.5060317e-09
2.8570348e-08
-3.6618163e-10
-5.8953465e-11
-1.3687705e-09
-1.8835919e-10
-3.5879704e-10
-2.5158951e-09
-7.9062361e-11
2.0124021e-11
-3.0856056e-10
4.1175116e-11
-1.3073474e-12
-6.6601045e-10
1.6505435e-12
1.8475346e-11
-4.7647321e-12
4.7595217e-11
5.1977283e-11
-5.8043527e-11
5.6131432e-12
1.2862451e-11
1.7245404e-11
3.5963485e-11
5.0221646e-11
1.9001952e-11
3.5405316e-12
9.322125e-12
1.3111108e-11
2.6393348e-11
3.8707258e-11
2.4626597e-11
2.8730591e-12
6.449289e-12
1.0768069e-11
1.8498707e-11
2.7743002e-11
2.173274e-11
1.9533815e-12
4.496059e-12
7.4961484e-12
1.2956186e-11
1.9635593e-11
1.5603858e-11
1.0649695e-12
3.4312179e-12
4.0531637e-12
9.9682234e-12
1.5394153e-11
8.2949442e-12
5.6450546e-13
2.8668279e-12
2.1393856e-12
8.3935595e-12
1.334712e-11
4.1867374e-12
3.1335362e-13
2.553565e-12
1.1840734e-12
7.5230179e-12
1.2062884e-11
2.4685706e-12
2.630042e-13
2.2906246e-12
1.0491406e-12
6.7370076e-12
1.0861101e-11
2.2511126e-12
2.8305993e-13
2.0076068e-12
1.0686309e-12
5.9515179e-12
9.7340464e-12
2.1958098e-12
2.5136733e-13
1.7562673e-12
9.5101736e-13
5.2519198e-12
8.6024896e-12
2.0826539e-12
2.2241958e-13
1.5338665e-12
8.8628293e-13
4.5880896e-12
7.5024452e-12
1.986377e-12
1.9779566e-13
1.3360838e-12
7.9430429e-13
3.9916024e-12
6.5361876e-12
1.7605944e-12
1.7099608e-13
1.1650967e-12
6.8220786e-13
3.4804044e-12
5.7097277e-12
1.5086888e-12
1.475672e-13
1.0175356e-12
5.8529439e-13
3.0426851e-12
5.0001897e-12
1.2948443e-12
1.3024492e-13
8.8729416e-13
5.171595e-13
2.6557732e-12
4.369902e-12
1.1474508e-12
1.1730822e-13
7.6998751e-13
4.6751386e-13
2.305566e-12
3.7979621e-12
1.0394507e-12
1.0636963e-13
6.6361797e-13
4.2467502e-13
1.987256e-12
3.276019e-12
9.4661004e-13
9.5983002e-14
5.6763404e-13
3.8323306e-13
1.6999991e-12
2.8017894e-12
8.5745098e-13
8.6324571e-14
4.8130786e-13
3.4477452e-13
1.4415411e-12
2.3745699e-12
7.7198003e-13
7.6767652e-14
4.045382e-13
3.0688514e-13
1.2114148e-12
1.9946129e-12
6.8682709e-13
6.7655708e-14
3.3688022e-13
2.7034573e-13
1.0087157e-12
1.6605711e-12
6.0437201e-13
5.9355058e-14
2.7752278e-13
2.3715858e-13
8.3090315e-13
1.3666227e-12
5.3109143e-13
5.1679134e-14
2.2584126e-13
2.0694208e-13
6.7563146e-13
1.1117347e-12
4.61815e-13
4.4545515e-14
1.8129341e-13
1.7865329e-13
5.4151535e-13
8.9051807e-13
3.9985561e-13
3.7977659e-14
1.4331354e-13
1.5100317e-13
4.2848207e-13
7.0413165e-13
3.3737632e-13
3.1894373e-14
1.1141711e-13
1.2727603e-13
3.3309328e-13
5.4670211e-13
2.8469345e-13
2.6513333e-14
8.4901889e-14
1.0600604e-13
2.5359412e-13
4.1555489e-13
2.3714235e-13
2.1734001e-14
6.3166202e-14
8.6823889e-14
1.8849848e-13
3.079602e-13
1.944089e-13
1.7599574e-14
4.5565146e-14
7.0290438e-14
1.3580257e-13
2.213257e-13
1.5691646e-13
1.3901408e-14
3.166247e-14
5.5509622e-14
9.419002e-14
1.5292226e-13
1.2390577e-13
1.0630776e-14
2.1030636e-14
4.2434947e-14
6.2382183e-14
1.0044452e-13
9.4906585e-14
7.9423915e-15
1.3087382e-14
3.1687892e-14
3.8633642e-14
6.1691899e-14
7.0435486e-14
5.6819426e-15
7.4047525e-15
2.265379e-14
2.1659323e-14
3.4079146e-14
5.026247e-14
3.7914325e-15
3.6127862e-15
1.5100083e-14
1.0348704e-14
1.5636098e-14
3.3539884e-14
2.228525e-15
1.3838581e-15
8.8290122e-15
3.7466825e-15
5.0451674e-15
1.9417406e-14
1.0749432e-15
3.0862121e-16
4.2432707e-15
5.7718331e-16
1.3373302e-17
9.2731261e-15
2.464347e-16
6.1979561e-17
9.1514626e-16
-9.239716e-17
-8.1738195e-16
1.7444546e-15
-3.1688707e-16
3.7872936e-16
-1.3585558e-15
9.4863401e-16
1.1586624e-15
-3.3356568e-15
-7.9486847e-16
1.1734979e-15
-3.2358006e-15
3.3890962e-15
5.3539204e-15
-7.4318551e-15
-9.6147464e-16
2.134893e-15
-3.8673651e-15
6.294604e-15
1.0169916e-14
-8.6840001e-15
-9.163609e-16
3.0511682e-15
-3.6757607e-15
9.0536662e-15
1.4817433e-14
-8.3238543e-15
-7.0571782e-16
3.7567896e-15
-2.8317573e-15
1.1179387e-14
1.8459894e-14
-6.4747508e-15
-3.3761428e-16
4.0943202e-15
-1.458716e-15
1.2300249e-14
2.0462774e-14
-3.4619698e-15
6.2344271e-17
4.0319606e-15
-2.1404378e-17
1.2383975e-14
2.0702725e-14
-2.6136276e-16
8.4814805e-17
6.2949102e-16
1.5287847e-15
1.3567571e-07
-9.5759178e-09
-8.6223364e-09
1.4429182e-07
2.0581135e-08
-1.5878758e-09
-1.4252066e-09
1.3383491e-08
-3.6030164e-09
-5.006173e-10
-6.0613302e-10
-4.4219393e-09
-1.0928824e-09
-7.3691718e-11
-1.3213132e-10
-1.5668202e-09
-1.7192754e-10
4.0204101e-11
2.4465306e-11
-3.285077e-10
2.3083484e-12
5.6900998e-11
6.1013893e-11
-3.4236217e-11
3.4350396e-11
4.7178059e-11
5.39376e-11
4.1427353e-11
3.546067e-11
3.3450349e-11
3.8926966e-11
5.0471274e-11
2.4727793e-11
2.4326662e-11
2.7575537e-11
3.6079343e-11
1.3224006e-11
1.9397995e-11
2.2060542e-11
1.8739388e-11
6.5074204e-12
1.7077719e-11
1.9961081e-11
8.6073491e-12
3.7370073e-12
1.5809618e-11
1.8946608e-11
4.7518811e-12
3.4492923e-12
1.4611678e-11
1.7831346e-11
4.5648421e-12
3.6230706e-12
1.3184577e-11
1.6229157e-11
5.2254469e-12
3.6299351e-12
1.1637397e-11
1.4451893e-11
5.4073133e-12
3.4441284e-12
1.0179709e-11
1.2641201e-11
5.2548932e-12
3.0312303e-12
8.9091148e-12
1.108633e-11
4.5861489e-12
2.6229722e-12
7.7948579e-12
9.7762406e-12
3.9330919e-12
2.2593765e-12
6.8303405e-12
8.565318e-12
3.4703145e-12
2.0013862e-12
5.9764092e-12
7.4785058e-12
3.0882014e-12
1.8185234e-12
5.1973317e-12
6.5011027e-12
2.7959192e-12
1.6549083e-12
4.489022e-12
5.6225219e-12
2.5334739e-12
1.5010996e-12
3.845357e-12
4.8170713e-12
2.3065292e-12
1.3542508e-12
3.2630669e-12
4.0877238e-12
2.0835734e-12
1.2077901e-12
2.7420828e-12
3.4343414e-12
1.8611456e-12
1.0658549e-12
2.2805778e-12
2.855577e-12
1.644591e-12
9.3485764e-13
1.8767895e-12
2.3490763e-12
1.4413297e-12
8.1345569e-13
1.5251273e-12
1.907401e-12
1.2551032e-12
7.0198098e-13
1.2229817e-12
1.5268947e-12
1.0824612e-12
5.9568369e-13
9.6465561e-13
1.2021105e-12
9.2044384e-13
5.0222798e-13
7.4710403e-13
9.2903435e-13
7.7528225e-13
4.176736e-13
5.6655748e-13
7.0221699e-13
6.4447139e-13
3.4238975e-13
4.1856307e-13
5.1663577e-13
5.2795365e-13
2.7618811e-13
2.9927958e-13
3.6751908e-13
4.2528976e-13
2.1757083e-13
2.0560446e-13
2.5039301e-13
3.3468415e-13
1.668164e-13
1.3368623e-13
1.6105854e-13
2.5614024e-13
1.2309252e-13
8.1022277e-14
9.5098877e-14
1.8904344e-13
8.7530992e-14
4.3748141e-14
4.9834552e-14
1.3278823e-13
5.8452421e-14
1.8831127e-14
2.1694549e-14
8.6586774e-14
3.3501544e-14
4.7434901e-15
2.7246536e-15
5.2467016e-14
1.5837922e-14
-1.8239864e-15
-5.2836986e-15
2.3842889e-14
2.3264098e-15
-2.4079405e-15
-5.1969132e-15
2.2370966e-15
-7.4606768e-15
1.7156074e-15
2.8803554e-16
-1.2947485e-14
-1.2739028e-14
7.0216727e-15
7.7319362e-15
-2.0184346e-14
-1.5363612e-14
1.3700375e-14
1.676519e-14
-2.439803e-14
-1.4983234e-14
2.0358937e-14
2.5587252e-14
-2.3806361e-14
-1.1765588e-14
2.5649016e-14
3.2599885e-14
-1.8779209e-14
-6.5257611e-15
2.8712274e-14
3.696425e-14
-1.0890808e-14
-8.771135e-16
2.9328036e-14
3.8595607e-14
-2.5084557e-15
2.7902585e-15
4.6568913e-15
-2.807202e-12
2.8015138e-12
-5.9120706e-12
3.0943465e-12
-9.9949136e-12
4.0759579e-12
-1.6387649e-11
6.3902538e-12
-2.6877164e-11
1.0489668e-11
-4.2584556e-11
1.570931e-11
-6.400465e-11
2.1423284e-11
-9.2179443e-11
2.8178871e-11
-1.2791511e-10
3.5740351e-11
-1.7055155e-10
4.2641447e-11
-2.1826759e-10
4.7721194e-11
-2.6923558e-10
5.097307e-11
-3.2183355e-10
5.2602848e-11
-3.7463324e-10
5.2804218e-11
-4.258963e-10
5.1267162e-11
-4.7793714e-10
5.2044402e-11
-5.2893168e-10
5.0997559e-11
-5.7669496e-10
4.7765682e-11
-6.1981817e-10
4.3125029e-11
-6.5734466e-10
3.7527751e-11
-6.8861759e-10
3.1273714e-11
-7.1324159e-10
2.4624354e-11
-7.3097043e-10
1.7728897e-11
-7.4140344e-10
1.043285e-11
2.712193e-12
-4.0764467e-11
4.3571091e-11
-9.0731019e-11
5.306889e-11
-1.517412e-10
6.5095449e-11
-2.2539767e-10
8.0056537e-11
-3.1316963e-10
9.8271528e-11
-4.1738424e-10
1.1993366e-10
-5.4057372e-10
1.4462215e-10
-6.8346098e-10
1.7107502e-10
-8.4265702e-10
1.9494464e-10
-1.0147685e-09
2.1476043e-10
-1.1972872e-09
2.3024668e-10
-1.3872412e-09
2.4093315e-10
-1.5818147e-09
2.4718158e-10
-1.7790116e-09
2.5000564e-10
-1.9775449e-09
2.4980422e-10
-2.1744465e-09
2.4894917e-10
-2.3788761e-09
2.5542957e-10
-2.572482e-09
2.4137329e-10
-2.748392e-09
2.1903609e-10
-2.9018701e-09
1.9100633e-10
-3.0292546e-09
1.5865822e-10
-3.127801e-09
1.2317015e-10
-3.1952968e-09
8.5223679e-11
-3.2278088e-09
4.2943536e-11
1.1031705e-11
-1.1793831e-10
1.6151924e-10
-2.6023454e-10
1.953806e-10
-4.3132896e-10
2.3620797e-10
-6.3671606e-10
2.8546244e-10
-8.8069288e-10
3.4226688e-10
-1.1655344e-09
4.0479277e-10
-1.4954374e-09
4.7454142e-10
-1.9336848e-09
6.0933714e-10
-2.4056859e-09
6.6695858e-10
-2.8857083e-09
6.9479401e-10
-3.3587272e-09
7.0327501e-10
-3.8163089e-09
6.9852258e-10
-4.2527057e-09
6.8358471e-10
-4.6622117e-09
6.5951653e-10
-5.0388142e-09
6.2641025e-10
-5.3759188e-09
5.8605623e-10
-5.6596489e-09
5.3916094e-10
-5.9048775e-09
4.8660219e-10
-6.1153779e-09
4.2953593e-10
-6.2934416e-09
3.6906866e-10
-6.4409005e-09
3.0611491e-10
-6.5589473e-09
2.4121412e-10
-6.6478426e-09
1.7411561e-10
-6.7098172e-09
1.0491439e-10
3.4762048e-11
-3.6221179e-10
5.237491e-10
-7.7860768e-10
6.1180375e-10
-1.2694963e-09
7.2712664e-10
-2.0777017e-09
1.0936955e-09
-2.9596163e-09
1.2242058e-09
-3.8031978e-09
1.2483946e-09
-4.5507001e-09
1.2220602e-09
-5.1059079e-09
1.1645584e-09
-5.5235899e-09
1.0846516e-09
-5.8186049e-09
9.8981775e-10
-6.0053375e-09
8.9001441e-10
-6.0977578e-09
7.9094821e-10
-6.107493e-09
6.9332395e-10
-6.0349299e-09
5.8695632e-10
-5.8964079e-09
4.8789024e-10
-5.7095448e-09
3.9919427e-10
-5.4922155e-09
3.2183223e-10
-5.2617833e-09
2.5617001e-10
-5.0344034e-09
2.0215552e-10
-4.8240892e-09
1.5875357e-10
-4.642321e-09
1.2434542e-10
-4.4977997e-09
9.6691271e-11
-4.3958412e-09
7.215519e-11
-4.3404516e-09
4.9522636e-11
2.5779963e-11
-2.1938876e-09
2.7176651e-09
-3.961573e-09
2.379521e-09
-5.5104577e-09
2.2760422e-09
-6.2328153e-09
1.8160755e-09
-6.3460903e-09
1.3374991e-09
-5.9045223e-09
8.0684151e-10
-5.1479574e-09
4.6550779e-10
-4.1612602e-09
1.7787172e-10
-3.0090249e-09
-6.757481e-11
-1.7488682e-09
-2.7033162e-10
-4.9563593e-10
-3.6321337e-10
7.48526e-10
-4.5321461e-10
2.0564789e-09
-6.1463024e-10
3.4773467e-09
-8.3391163e-10
4.8671987e-09
-9.0196026e-10
6.184853e-09
-9.1845668e-10
7.4075093e-09
-9.0081895e-10
8.5204273e-09
-8.5674113e-10
9.5134071e-09
-7.9081572e-10
1.0378024e-08
-7.0585306e-10
1.1106304e-08
-6.0392329e-10
1.1689945e-08
-4.8693557e-10
1.2119046e-08
-3.5693106e-10
1.2385122e-08
-2.1653801e-10
-6.4870312e-11
9.4631268e-10
1.771439e-09
4.0569885e-09
-7.3110162e-10
7.7222948e-09
-1.3891898e-09
1.1372674e-08
-1.8342703e-09
1.5097025e-08
-2.3868268e-09
1.8762268e-08
-2.8583743e-09
2.2366024e-08
-3.1382177e-09
2.5761323e-08
-3.2173905e-09
2.8852425e-08
-3.1586357e-09
3.1608351e-08
-3.0262125e-09
3.4096542e-08
-2.8513554e-09
3.6284411e-08
-2.641032e-09
3.8091323e-08
-2.4214887e-09
3.9472891e-08
-2.2154255e-09
4.057259e-08
-2.0016045e-09
4.1442098e-08
-1.7879101e-09
4.2121785e-08
-1.5804509e-09
4.2645504e-08
-1.3804051e-09
4.3042586e-08
-1.1878429e-09
4.3338649e-08
-1.001862e-09
4.355548e-08
-8.206997e-10
4.3710502e-08
-6.4190328e-10
4.3816183e-08
-4.6255843e-10
4.3879863e-08
-2.8016444e-10
-8.9011199e-11
1.4840783e-07
-2.3433587e-09
1.471991e-07
4.7853906e-10
1.4478062e-07
1.0300798e-09
1.4144149e-07
1.505558e-09
1.3697666e-07
2.078605e-09
1.3155358e-07
2.5652283e-09
1.2554976e-07
2.8660508e-09
1.1936439e-07
2.9683615e-09
1.1327164e-07
2.9344467e-09
1.0743126e-07
2.8144525e-09
1.0191513e-07
2.6650323e-09
9.6773859e-08
2.5004593e-09
9.2040628e-08
2.3119404e-09
8.7713931e-08
2.1114491e-09
8.3804196e-08
1.9082912e-09
8.0309487e-08
1.7069449e-09
7.7218824e-08
1.5103452e-09
7.4518837e-08
1.3197049e-09
7.2195612e-08
1.1354945e-09
7.0236642e-08
9.5721409e-10
6.8632463e-08
7.8357764e-10
6.7377945e-08
6.1270852e-10
6.6473716e-08
4.4175847e-10
6.5925608e-08
2.6802761e-10
8.5710375e-11
1.2756809e-08
-1.7165557e-09
1.5085852e-08
-1.8503922e-09
1.7732013e-08
-1.6159672e-09
2.0485051e-08
-1.2473705e-09
2.3344324e-08
-7.8056171e-10
2.6289711e-08
-3.8005809e-10
2.9245158e-08
-8.9304095e-11
3.2048188e-08
1.6542073e-10
3.4650165e-08
3.3255695e-10
3.7024037e-08
4.4066823e-10
3.9125493e-08
5.6366213e-10
4.0768197e-08
8.5784001e-10
4.2072176e-08
1.0080446e-09
4.3108194e-08
1.0755123e-09
4.3919179e-08
1.0973856e-09
4.4541977e-08
1.0842231e-09
4.5010265e-08
1.0421316e-09
4.5354364e-08
9.7567819e-10
4.5600737e-08
8.8919135e-10
4.5772466e-08
7.8555258e-10
4.5889158e-08
6.6695147e-10
4.5966711e-08
5.352188e-10
4.6016779e-08
3.9175106e-10
4.6046587e-08
2.3827895e-10
7.2469903e-11
-5.2957211e-09
-8.4278506e-10
-6.0413994e-09
-1.1047239e-09
-6.4360985e-09
-1.2212785e-09
-6.4064975e-09
-1.2769815e-09
-5.9139518e-09
-1.2731156e-09
-5.0738698e-09
-1.220146e-09
-4.0212015e-09
-1.1419756e-09
-2.8100319e-09
-1.0457492e-09
-1.5393285e-09
-9.3814419e-10
-2.6920976e-10
-8.2944579e-10
1.0146754e-09
-7.2021603e-10
2.4803948e-09
-6.0787013e-10
3.9871929e-09
-4.9874184e-10
5.461696e-09
-3.9897714e-10
6.8690041e-09
-3.0990698e-10
8.1843628e-09
-2.3111836e-10
9.4042093e-09
-1.7769641e-10
1.0518131e-08
-1.3822338e-10
1.1513057e-08
-1.0571476e-10
1.2378761e-08
-8.0130316e-11
1.310659e-08
-6.0855462e-11
1.3688625e-08
-4.6795125e-11
1.4116869e-08
-3.6471888e-11
1.4382744e-08
-2.7574415e-11
-1.6939874e-11
-2.2094334e-09
-2.0017211e-10
-3.0392463e-09
-2.7491264e-10
-3.9068028e-09
-3.5372641e-10
-4.7507934e-09
-4.3299781e-10
-5.5041614e-09
-5.1975639e-10
-6.058199e-09
-6.6611853e-10
-6.4777497e-09
-7.224356e-10
-6.7723538e-09
-7.5115611e-10
-6.9496341e-09
-7.6087496e-10
-7.0224086e-09
-7.5668205e-10
-7.0002308e-09
-7.4240412e-10
-6.8870257e-09
-7.2108499e-10
-6.6937324e-09
-6.9204411e-10
-6.4373711e-09
-6.5534668e-10
-6.1348941e-09
-6.1239145e-10
-5.8008335e-09
-5.6518562e-10
-5.4632279e-09
-5.1530794e-10
-5.1379155e-09
-4.6354096e-10
-4.8342538e-09
-4.0938104e-10
-4.5615964e-09
-3.5279181e-10
-4.3286932e-09
-2.9376236e-10
-4.1432426e-09
-2.3224905e-10
-4.0114942e-09
-1.6822329e-10
-3.9372277e-09
-1.01844e-10
-3.4314261e-11
-5.334351e-10
4.7587333e-12
-7.837563e-10
-2.4588255e-11
-1.0779253e-09
-5.9554964e-11
-1.4163532e-09
-9.4568289e-11
-1.8008691e-09
-1.3523991e-10
-2.2883066e-09
-1.7868173e-10
-2.7930297e-09
-2.1771444e-10
-3.296437e-09
-2.4775192e-10
-3.7887344e-09
-2.6858177e-10
-4.2615653e-09
-2.8385633e-10
-4.7084166e-09
-2.9555874e-10
-5.1246228e-09
-3.0488545e-10
-5.5008382e-09
-3.1583586e-10
-5.8177244e-09
-3.3846804e-10
-6.0961473e-09
-3.3397633e-10
-6.340193e-09
-3.2114794e-10
-6.5537871e-09
-3.0172205e-10
-6.7401398e-09
-2.7719642e-10
-6.9013826e-09
-2.4814654e-10
-7.039181e-09
-2.150017e-10
-7.1547423e-09
-1.7820933e-10
-7.248679e-09
-1.3832056e-10
-7.3208545e-09
-9.6055923e-11
-7.3712437e-09
-5.1462917e-11
-1.1960784e-11
-9.1834864e-11
6.2359451e-11
-1.7555271e-10
5.9131722e-11
-2.8266695e-10
4.7561282e-11
-4.1505497e-10
3.782146e-11
-5.7373861e-10
2.3445098e-11
-7.5594315e-10
3.5237398e-12
-9.5517764e-10
-1.8479507e-11
-1.1650448e-09
-3.7884794e-11
-1.3822158e-09
-5.1411291e-11
-1.6021827e-09
-6.3890411e-11
-1.8238356e-09
-7.3907305e-11
-2.0477347e-09
-8.098825e-11
-2.2782798e-09
-8.5292959e-11
-2.5297151e-09
-8.7035488e-11
-2.7771303e-09
-8.6564215e-11
-3.0141472e-09
-8.413445e-11
-3.2359711e-09
-7.9901939e-11
-3.4390779e-09
-7.4093719e-11
-3.62033e-09
-6.6898666e-11
-3.7768644e-09
-5.847178e-11
-3.9061101e-09
-4.8968174e-11
-4.0058286e-09
-3.8606708e-11
-4.0742714e-09
-2.7617774e-11
-4.1095828e-09
-1.6156167e-11
-4.5475131e-12
4.4321181e-11
5.9466293e-11
4.0408771e-11
6.3044729e-11
2.2786993e-11
6.5183568e-11
-4.5269825e-12
6.5135845e-11
-4.3106567e-11
6.2024981e-11
-9.4614682e-11
5.5032025e-11
-1.567449e-10
4.3650746e-11
-2.2576187e-10
3.1132076e-11
-2.9945806e-10
2.2284659e-11
-3.7648816e-10
1.3139325e-11
-4.5544135e-10
5.045382e-12
-5.3478785e-10
-1.6423631e-12
-6.1371857e-10
-6.3629692e-12
-6.9129481e-10
-9.4601019e-12
-7.6627049e-10
-1.1589497e-11
-8.3758211e-10
-1.2823904e-11
-9.0423328e-10
-1.3251937e-11
-9.6530744e-10
-1.302081e-11
-1.0199153e-09
-1.2292147e-11
-1.067187e-09
-1.1201471e-11
-1.106411e-09
-9.7455795e-12
-1.1370056e-09
-8.0134222e-12
-1.158568e-09
-6.0567813e-12
-1.1709069e-09
-3.8186261e-12
-1.1736728e-12
6.6902971e-11
4.3034925e-11
8.2524774e-11
4.7423202e-11
9.7416434e-11
5.0292149e-11
1.0929821e-10
5.325429e-11
1.1711264e-10
5.4210749e-11
1.1816326e-10
5.3981584e-11
1.1290232e-10
4.8911847e-11
1.0271294e-10
4.1321594e-11
9.0445565e-11
3.4552152e-11
7.6317228e-11
2.7267754e-11
6.1583887e-11
1.9778792e-11
4.6405358e-11
1.3536216e-11
3.1713995e-11
8.3284255e-12
1.8158382e-11
4.0955294e-12
6.479798e-12
8.9095374e-14
-3.3787284e-12
-2.9653754e-12
-1.1628548e-11
-5.0021184e-12
-1.8462901e-11
-6.186458e-12
-2.4070612e-11
-6.6844341e-12
-2.8648596e-11
-6.6234813e-12
-3.2324303e-11
-6.0698605e-12
-3.5223068e-11
-5.1146335e-12
-3.7422451e-11
-3.8573676e-12
-3.8809232e-11
-2.4318067e-12
-9.1452e-13
4.8894128e-11
3.0220434e-11
6.3494799e-11
3.2822806e-11
7.8407714e-11
3.5379496e-11
9.3804388e-11
3.7857876e-11
1.0826699e-10
3.9748409e-11
1.213852e-10
4.0863646e-11
1.3072801e-10
3.956932e-11
1.3589123e-10
3.6158644e-11
1.3920039e-10
3.1243267e-11
1.391033e-10
2.736512e-11
1.3736967e-10
2.1512689e-11
1.347518e-10
1.6154356e-11
1.3202765e-10
1.1052833e-11
1.2962663e-10
6.4968048e-12
1.2733767e-10
2.3783125e-12
1.2551716e-10
-1.1446075e-12
1.242315e-10
-3.7161976e-12
1.2347611e-10
-5.4308053e-12
1.2315653e-10
-6.3645972e-12
1.2315326e-10
-6.6199439e-12
1.2337548e-10
-6.2918225e-12
1.2373975e-10
-5.4786459e-12
1.2417776e-10
-4.2951123e-12
1.2461877e-10
-2.8725731e-12
-1.1027225e-12
2.4896987e-11
2.4063107e-11
3.1902397e-11
2.5817665e-11
3.9574386e-11
2.7707775e-11
4.8071282e-11
2.9361249e-11
5.662602e-11
3.1193942e-11
6.5055714e-11
3.2434225e-11
7.1826633e-11
3.2798674e-11
7.6103458e-11
3.188209e-11
7.7506938e-11
2.9840052e-11
7.6704252e-11
2.8168063e-11
7.4012051e-11
2.4205137e-11
6.9435506e-11
2.0731136e-11
6.3783309e-11
1.6705251e-11
5.7322424e-11
1.2957898e-11
5.0390274e-11
9.3106577e-12
4.3647438e-11
5.59841e-12
3.7135955e-11
2.7954547e-12
3.0976493e-11
7.2881546e-13
2.5435649e-11
-8.2360547e-13
2.0662615e-11
-1.8467719e-12
1.6713077e-11
-2.3421549e-12
1.3587542e-11
-2.352989e-12
1.1264104e-11
-1.9715621e-12
9.6468645e-12
-1.2552331e-12
-3.9994155e-13
1.0611388e-11
2.2059284e-11
1.234772e-11
2.4081552e-11
1.4669883e-11
2.5385831e-11
1.7087689e-11
2.6943663e-11
1.9489311e-11
2.8792539e-11
2.2079095e-11
2.9844656e-11
2.4002372e-11
3.0875607e-11
2.459784e-11
3.1286824e-11
2.3447663e-11
3.0990423e-11
2.1517045e-11
3.0098861e-11
1.7519414e-11
2.8202933e-11
1.1900774e-11
2.6349923e-11
4.5032994e-12
2.4102854e-11
-3.0643982e-12
2.0525704e-11
-1.151413e-11
1.7760477e-11
-2.064276e-11
1.4727109e-11
-2.9381776e-11
1.1534521e-11
-3.7948839e-11
9.2959114e-12
-4.589857e-11
7.1261429e-12
-5.2983218e-11
5.2378802e-12
-5.9041177e-11
3.7157972e-12
-6.3989793e-11
2.5956112e-12
-6.7709893e-11
1.7485126e-12
-7.007062e-11
1.1054591e-12
4.5506133e-13
5.4171308e-12
2.1394177e-11
6.0728258e-12
2.3426001e-11
6.243243e-12
2.5215557e-11
6.5302765e-12
2.6656771e-11
7.0365369e-12
2.8286417e-11
7.2887879e-12
2.9592539e-11
7.3426913e-12
3.0821831e-11
6.7155745e-12
3.191406e-11
5.3010626e-12
3.2405044e-11
3.2229071e-12
3.2177114e-11
-1.329814e-13
3.1558905e-11
-4.3509619e-12
3.0567973e-11
-9.2346865e-12
2.8986633e-11
-1.5503505e-11
2.679456e-11
-2.2146956e-11
2.4403948e-11
-2.9175242e-11
2.1755399e-11
-3.6664209e-11
1.9023475e-11
-4.3765211e-11
1.6396886e-11
-5.0526417e-11
1.3887309e-11
-5.6686433e-11
1.1397846e-11
-6.202712e-11
9.056425e-12
-6.6318037e-11
6.8864623e-12
-6.9369547e-11
4.7999505e-12
-7.1117335e-11
2.8531658e-12
9.7062142e-13
5.5728765e-12
2.0386226e-11
6.389299e-12
2.2609663e-11
7.0841273e-12
2.4520813e-11
7.8470187e-12
2.5893961e-11
8.3811748e-12
2.775234e-11
8.9796901e-12
2.8994099e-11
9.3295001e-12
3.0472093e-11
9.5145427e-12
3.1729084e-11
9.3329928e-12
3.2586653e-11
8.8940051e-12
3.2616154e-11
7.8282179e-12
3.2624735e-11
5.9428879e-12
3.2453336e-11
3.5755402e-12
3.1354003e-11
4.6522538e-13
2.9904886e-11
-3.196787e-12
2.806596e-11
-7.3371133e-12
2.5895713e-11
-1.1777781e-11
2.346412e-11
-1.6248421e-11
2.0867492e-11
-2.0523047e-11
1.8161894e-11
-2.4511206e-11
1.5385955e-11
-2.8045521e-11
1.2590683e-11
-3.0962319e-11
9.803201e-12
-3.3182414e-11
7.0199818e-12
-3.4552538e-11
4.2232181e-12
1.3715373e-12
6.8592043e-12
1.8752511e-11
8.5249744e-12
2.0943937e-11
1.015473e-11
2.2891101e-11
1.1468338e-11
2.4580396e-11
1.3458857e-11
2.5761865e-11
1.4882735e-11
2.7570263e-11
1.6344762e-11
2.9010105e-11
1.8225595e-11
2.9848288e-11
1.9971137e-11
3.0841146e-11
2.0865206e-11
3.1722115e-11
2.1449643e-11
3.2040324e-11
2.1935912e-11
3.1967086e-11
2.2177458e-11
3.111247e-11
2.1893374e-11
3.0188977e-11
2.0975771e-11
2.8983563e-11
1.9594007e-11
2.727747e-11
1.7924422e-11
2.5133691e-11
1.6055634e-11
2.273626e-11
1.4096234e-11
2.0121266e-11
1.212979e-11
1.7352367e-11
1.0273406e-11
1.4447032e-11
8.6909351e-12
1.1385634e-11
7.4150013e-12
8.2958745e-12
6.6011633e-12
5.03701e-12
1.5697681e-12
7.3360233e-12
1.6823815e-11
9.6607117e-12
1.8619264e-11
1.1825956e-11
2.0725874e-11
1.4066466e-11
2.2339906e-11
1.608167e-11
2.3746679e-11
1.8706808e-11
2.4945144e-11
2.136943e-11
2.6347504e-11
2.367247e-11
2.7545266e-11
2.598456e-11
2.8529074e-11
2.8692294e-11
2.9014399e-11
3.1219732e-11
2.9512902e-11
3.3258375e-11
2.9928456e-11
3.4760966e-11
2.960989e-11
3.5933663e-11
2.9016286e-11
3.688828e-11
2.8028947e-11
3.7598223e-11
2.6567525e-11
3.8040268e-11
2.469164e-11
3.8129271e-11
2.2647246e-11
3.7991591e-11
2.0258933e-11
3.7637099e-11
1.7706842e-11
3.7211342e-11
1.4872769e-11
3.6777942e-11
1.1819015e-11
3.6488111e-11
8.5856829e-12
3.6319446e-11
5.2056482e-12
1.7139392e-12
7.2698958e-12
1.4808805e-11
9.2439961e-12
1.6645159e-11
1.1621947e-11
1.8347921e-11
1.4088961e-11
1.9872892e-11
1.6599634e-11
2.1236009e-11
1.9122548e-11
2.2422233e-11
2.1936554e-11
2.3533502e-11
2.4978242e-11
2.4503584e-11
2.7956724e-11
2.5550597e-11
3.0715379e-11
2.625575e-11
3.3445088e-11
2.6783198e-11
3.6510017e-11
2.6863533e-11
3.9304177e-11
2.6815734e-11
4.1630872e-11
2.6689594e-11
4.3748239e-11
2.5911581e-11
4.5556247e-11
2.4759515e-11
4.6966459e-11
2.3281423e-11
4.8130286e-11
2.1483413e-11
4.9025028e-11
1.9364182e-11
4.9763017e-11
1.6968842e-11
5.0342929e-11
1.4292846e-11
5.0752089e-11
1.1409843e-11
5.1079537e-11
8.2582214e-12
5.1249968e-11
5.0352009e-12
1.7900378e-12
6.3808958e-12
1.3014032e-11
8.3022959e-12
1.4723738e-11
1.0502811e-11
1.6147387e-11
1.2794613e-11
1.7581075e-11
1.5245017e-11
1.8785591e-11
1.7776208e-11
1.9891031e-11
2.0432672e-11
2.087703e-11
2.3149892e-11
2.1786356e-11
2.6323242e-11
2.2377241e-11
2.928117e-11
2.3297818e-11
3.2306063e-11
2.3758301e-11
3.519754e-11
2.3972052e-11
3.7996754e-11
2.4016516e-11
4.0858439e-11
2.3827903e-11
4.3667092e-11
2.3102922e-11
4.6134106e-11
2.2292495e-11
4.8197662e-11
2.1217859e-11
5.0006452e-11
1.9674615e-11
5.1563033e-11
1.7807591e-11
5.2866322e-11
1.5665542e-11
5.3885696e-11
1.3273461e-11
5.4685456e-11
1.0610074e-11
5.5157178e-11
7.7864886e-12
5.5435311e-11
4.7570549e-12
1.5775603e-12
5.5105002e-12
1.1436585e-11
7.2731489e-12
1.2961054e-11
9.1223762e-12
1.4298129e-11
1.1197166e-11
1.5506257e-11
1.33872e-11
1.6595532e-11
1.5723398e-11
1.755481e-11
1.819219e-11
1.8408218e-11
2.0815565e-11
1.9162963e-11
2.3405254e-11
1.9787536e-11
2.631907e-11
2.0383988e-11
2.9264642e-11
2.0812716e-11
3.2149993e-11
2.1086688e-11
3.5030763e-11
2.1135734e-11
3.7927239e-11
2.0931416e-11
4.0580594e-11
2.0449557e-11
4.3114683e-11
1.9758394e-11
4.5526473e-11
1.8806057e-11
4.7674676e-11
1.75264e-11
4.9616679e-11
1.5865576e-11
5.1255778e-11
1.402643e-11
5.2552327e-11
1.19769e-11
5.3530803e-11
9.6315891e-12
5.4264792e-11
7.0524878e-12
5.4695946e-11
4.3258887e-12
1.4418381e-12
4.8379725e-12
1.0068877e-11
6.368143e-12
1.1430839e-11
8.0318428e-12
1.2634388e-11
9.849444e-12
1.3688619e-11
1.1819386e-11
1.4625556e-11
1.3930924e-11
1.5443241e-11
1.6149465e-11
1.6189649e-11
1.8494241e-11
1.681816e-11
2.0917919e-11
1.7363834e-11
2.3504673e-11
1.7797211e-11
2.6192115e-11
1.8125254e-11
2.8967333e-11
1.8311451e-11
3.1749494e-11
1.8353556e-11
3.4478664e-11
1.820223e-11
3.7099923e-11
1.7828282e-11
3.9626655e-11
1.7231646e-11
4.2042186e-11
1.6390512e-11
4.4273626e-11
1.5294944e-11
4.6216361e-11
1.3922827e-11
4.7909842e-11
1.2332935e-11
4.9361599e-11
1.0525131e-11
5.0510971e-11
8.4822059e-12
5.1305098e-11
6.2583501e-12
5.1808848e-11
3.8221265e-12
1.2549946e-12
4.3061209e-12
8.8509023e-12
5.7032467e-12
1.0033662e-11
7.2244059e-12
1.1113182e-11
8.8740761e-12
1.2038906e-11
1.0657895e-11
1.2841698e-11
1.2546797e-11
1.3554303e-11
1.4592053e-11
1.4144359e-11
1.6730809e-11
1.4679373e-11
1.8981496e-11
1.511312e-11
2.1339202e-11
1.543948e-11
2.3788935e-11
1.5675498e-11
2.6304737e-11
1.5795628e-11
2.8866205e-11
1.5792068e-11
3.1435977e-11
1.5632439e-11
3.3975177e-11
1.5289064e-11
3.6413228e-11
1.4793579e-11
3.8735799e-11
1.4067924e-11
4.0898357e-11
1.3132371e-11
4.2832038e-11
1.1989132e-11
4.4535827e-11
1.0629132e-11
4.599518e-11
9.065765e-12
4.715443e-11
7.322946e-12
4.7984426e-11
5.4283444e-12
4.844939e-11
3.3571511e-12
9.6193779e-13
3.924329e-12
7.722434e-12
5.1872091e-12
8.7707282e-12
6.6063572e-12
9.6939841e-12
8.1392195e-12
1.0505997e-11
9.7825715e-12
1.1198304e-11
1.155842e-11
1.1778416e-11
1.3416103e-11
1.228664e-11
1.5400902e-11
1.2694542e-11
1.7463872e-11
1.3050119e-11
1.9619893e-11
1.3283432e-11
2.1870728e-11
1.3424639e-11
2.4184544e-11
1.3481789e-11
2.6542257e-11
1.3434334e-11
2.8908906e-11
1.326577e-11
3.1239135e-11
1.2958817e-11
3.352522e-11
1.2507477e-11
3.5706283e-11
1.1886845e-11
3.7768025e-11
1.1070614e-11
3.9624477e-11
1.0132665e-11
4.1271716e-11
8.9818804e-12
4.2685795e-11
7.6516745e-12
4.3856882e-11
6.1518504e-12
4.4820989e-11
4.4642285e-12
4.5472179e-11
2.7059518e-12
1.0662245e-12
3.5898199e-12
6.6660294e-12
4.7786484e-12
7.581845e-12
6.0801425e-12
8.3924395e-12
7.4966857e-12
9.0894071e-12
9.0199511e-12
9.6749953e-12
1.0639178e-11
1.0159149e-11
1.2373804e-11
1.0551978e-11
1.4185185e-11
1.0883128e-11
1.6115801e-11
1.1119473e-11
1.810899e-11
1.1290217e-11
2.0159152e-11
1.1374453e-11
2.2269161e-11
1.1371759e-11
2.4415755e-11
1.128772e-11
2.6575912e-11
1.1105595e-11
2.8717639e-11
1.0817073e-11
3.0817612e-11
1.0407488e-11
3.2834716e-11
9.8697264e-12
3.4708827e-11
9.1964888e-12
3.6447439e-11
8.3940419e-12
3.7990147e-11
7.4391607e-12
3.9299907e-11
6.3419051e-12
4.0339574e-11
5.1121766e-12
4.1042521e-11
3.7612744e-12
4.1438832e-11
2.3096326e-12
7.4849144e-13
3.2677316e-12
5.7047704e-12
4.3560665e-12
6.4934571e-12
5.5598141e-12
7.1886425e-12
6.8670284e-12
7.7821472e-12
8.2711361e-12
8.2708456e-12
9.7634873e-12
8.6667595e-12
1.1338933e-11
8.976497e-12
1.3014212e-11
9.2078181e-12
1.475858e-11
9.3750767e-12
1.6590724e-11
9.4580476e-12
1.8458651e-11
9.5065026e-12
2.0353396e-11
9.4769926e-12
2.2284779e-11
9.3563185e-12
2.423392e-11
9.1564364e-12
2.6170041e-11
8.8809367e-12
2.8062845e-11
8.5146692e-12
2.9881137e-11
8.0514217e-12
3.1592146e-11
7.4854677e-12
3.3175661e-11
6.8105167e-12
3.4585675e-11
6.0291364e-12