/*--------------------------------*- C++ -*----------------------------------*\
| =========                 |                                                 |
| \\      /  F ield         | OpenFOAM: The Open Source CFD Toolbox           |
|  \\    /   O peration     | Version:  4.0                                   |
|   \\  /    A nd           | Web:      www.OpenFOAM.org                      |
|    \\/     M anipulation  |                                                 |
\*---------------------------------------------------------------------------*/
FoamFile
{
    version     2.0;
    format      ascii;
    class       volVectorField;
    location    "0.63";
    object      U;
}
// * * * * * * * * * * * * * * * * * * * * * * * * * * * * * * * * * * * * * //

dimensions      [0 1 -1 0 0 0 0];

internalField   nonuniform List<vector> 
1740
(
(1.5155468 -0.0049989073 4.3981369e-06)
(1.4738668 -0.0097074977 6.5915471e-07)
(1.5945875 -0.0027084326 2.0228316e-08)
(1.6178054 -0.0062537594 7.4936649e-06)
(1.4988957 -0.019154817 1.5988473e-06)
(1.6094634 -0.014523232 3.0714589e-07)
(1.5044086 0.01496912 1.0825508e-05)
(1.4857247 -0.006695764 2.4884616e-06)
(1.4925003 -0.012337694 4.6253051e-07)
(1.4774287 0.017237568 1.3022797e-05)
(1.5567553 0.011992371 3.2522588e-06)
(1.5592659 -0.0010945603 5.8171474e-07)
(1.4646283 0.0034152903 1.4902212e-05)
(1.5492343 0.022750904 4.4208392e-06)
(1.5819424 0.011157127 7.962755e-07)
(1.4552897 -0.0082434322 1.6406507e-05)
(1.4673263 -0.0036546475 5.2306142e-06)
(1.598453 -0.00093609118 9.8327023e-07)
(1.488968 -0.0069613013 1.7367791e-05)
(1.5622732 -0.023310251 5.8565735e-06)
(1.569977 -0.022678892 1.1617144e-06)
(1.5398704 -0.0041210962 1.8064289e-05)
(1.5756136 -0.022903904 6.7064719e-06)
(1.5394921 -0.016472977 1.3496913e-06)
(1.5903323 0.0075189453 1.8445712e-05)
(1.5692836 -0.0028257528 7.1157346e-06)
(1.51783 -0.005485459 1.5296525e-06)
(1.5264555 0.0061897814 1.8862001e-05)
(1.5396227 0.011084965 7.9243626e-06)
(1.539685 0.001230561 1.707318e-06)
(1.5444199 -0.0050682471 1.9544989e-05)
(1.5491333 0.010197542 8.4337197e-06)
(1.5546769 0.0070829083 1.9509895e-06)
(1.5479037 -0.0054093897 2.0069042e-05)
(1.5498932 0.016071148 9.1004062e-06)
(1.5489692 0.0097427666 2.1309101e-06)
(1.4714223 -0.018820539 2.0211456e-05)
(1.4807668 -0.0085024839 9.5423489e-06)
(1.5720337 -0.00067740632 2.3362638e-06)
(1.5993109 -0.020374873 2.0246392e-05)
(1.5158942 -0.019958275 1.0069782e-05)
(1.5162264 -0.0091382149 2.5311851e-06)
(1.6190057 0.0069271955 2.0420186e-05)
(1.5536648 0.0019538575 1.0532984e-05)
(1.5466474 -0.0030011224 2.7109179e-06)
(1.5562678 0.020174047 2.064843e-05)
(1.5526618 0.016003207 1.0930157e-05)
(1.5258807 -0.0010203944 2.8879184e-06)
(1.5145889 0.01435258 2.1323989e-05)
(1.5792825 0.013449568 1.1504866e-05)
(1.5660724 0.0026983196 3.098545e-06)
(1.4557617 -0.0008654716 2.1720718e-05)
(1.5545213 0.0008301096 1.1991912e-05)
(1.5601072 0.0015003765 3.2479118e-06)
(1.4677817 0.0017231506 2.1619776e-05)
(1.5803661 0.013273471 1.2181808e-05)
(1.5051318 0.0069363244 3.452439e-06)
(1.4451443 -0.0052930249 2.1571755e-05)
(1.5646705 0.01586738 1.2643816e-05)
(1.5627206 0.015418472 3.622745e-06)
(1.5031037 -0.01603436 2.1769424e-05)
(1.42904 -0.017009469 1.2928821e-05)
(1.6184924 -0.0047280806 3.7698521e-06)
(1.5266876 -0.012609262 2.1852532e-05)
(1.5526314 -0.040823565 1.3141039e-05)
(1.5300477 -0.020860406 3.9815622e-06)
(1.5693681 -0.0056594916 2.1761136e-05)
(1.5888319 -0.015099711 1.3451577e-05)
(1.4993718 -0.0089757571 4.1543362e-06)
(1.582767 0.0090639313 2.1776774e-05)
(1.6018341 0.0077543922 1.372899e-05)
(1.5215289 0.00096340931 4.3008532e-06)
(1.4958979 0.010929926 2.1874677e-05)
(1.6007529 0.013855831 1.4030016e-05)
(1.51223 0.0045245949 4.4187288e-06)
(1.482213 -0.007310182 2.2099455e-05)
(1.5631656 0.010912942 1.4364209e-05)
(1.498621 0.0043368009 4.5505143e-06)
(1.5559313 -0.016080625 2.2223015e-05)
(1.5384598 -0.0074761172 1.461804e-05)
(1.5493743 0.0049103148 4.6919116e-06)
(1.533294 -0.012599032 2.2782807e-05)
(1.476731 -0.029129988 1.4850452e-05)
(1.514289 -0.013283952 4.8768336e-06)
(1.4577407 -0.0018934306 2.2281238e-05)
(1.5151871 -0.015129067 1.4938203e-05)
(1.4103692 -0.012543132 4.9075446e-06)
(1.3412187 0.04352695 2.3549702e-05)
(1.3381046 0.11424743 1.562761e-05)
(1.3389713 0.057553187 5.4935098e-06)
(0.82660851 0.37611522 1.1722508e-05)
(0.79839475 0.93800382 9.9859201e-06)
(0.73770622 1.2499362 5.4018401e-06)
(0.22416378 0.11067305 1.4702731e-06)
(0.19108123 0.36191043 3.0714016e-06)
(0.083676906 0.49263426 6.8793427e-07)
(-0.023109214 -0.012869145 1.2235275e-06)
(-0.022274677 -0.026500819 1.6679657e-06)
(-0.018354716 -0.032016978 5.5927699e-07)
(-0.0025877442 -0.0023008037 4.4424222e-07)
(-0.0032183007 -0.0063278127 7.174027e-07)
(-0.0043057592 -0.0088050299 3.1241559e-07)
(0.0017693796 0.00010045537 1.1964498e-07)
(0.0013562623 -3.1495002e-05 2.3219032e-07)
(0.00046435031 -0.00041961606 8.8794487e-08)
(0.0014144011 0.00017821086 2.1844509e-08)
(0.0012503624 0.00035583365 4.280596e-08)
(0.00090406179 0.00037339787 -2.6445798e-08)
(0.00097575537 0.00010509143 -8.2763847e-09)
(0.00090776516 0.00023988889 -2.4679989e-08)
(0.00076468885 0.00034417478 -7.1702954e-08)
(0.00070332961 8.532082e-05 -1.7564513e-08)
(0.00066768368 0.00019591132 -4.5442827e-08)
(0.00059423042 0.00028531877 -8.2580636e-08)
(0.00050638196 5.7160546e-05 -1.7772424e-08)
(0.00048675301 0.00013382877 -4.6264814e-08)
(0.00044370928 0.00020843587 -7.6977418e-08)
(0.00037240003 3.147811e-05 -1.474781e-08)
(0.00036016632 7.4867392e-05 -3.9569463e-08)
(0.0003324354 0.0001144527 -6.4941262e-08)
(0.00029511747 1.6283654e-05 -1.1255692e-08)
(0.00028767979 3.8339425e-05 -3.1458159e-08)
(0.00027038499 5.8268449e-05 -5.2079099e-08)
(0.00025045423 9.2867792e-06 -8.5843711e-09)
(0.00024565545 2.0946904e-05 -2.4448095e-08)
(0.00023410846 3.4792599e-05 -4.0789725e-08)
(0.00021870464 7.7804263e-06 -6.6791553e-09)
(0.00021544941 1.8784641e-05 -1.8965026e-08)
(0.00020710011 3.0012103e-05 -3.1622114e-08)
(0.00019260552 8.5303906e-06 -5.2535953e-09)
(0.00019049221 1.9777953e-05 -1.4695174e-08)
(0.0001844737 2.8915616e-05 -2.4320794e-08)
(0.00016938086 7.4560448e-06 -4.1011817e-09)
(0.00016799036 1.724466e-05 -1.1282622e-08)
(0.00016357177 2.6859872e-05 -1.8492391e-08)
(0.00014833147 6.4277842e-06 -3.1301996e-09)
(0.00014734727 1.5748869e-05 -8.5031319e-09)
(0.00014401893 2.5615708e-05 -1.382351e-08)
(0.00012954053 5.7201319e-06 -2.313356e-09)
(0.00012884314 1.4167733e-05 -6.2477485e-09)
(0.00012629742 2.2792157e-05 -1.0108261e-08)
(0.00011312755 4.9719812e-06 -1.6524984e-09)
(0.00011263009 1.2275515e-05 -4.4641248e-09)
(0.00011065617 1.9492444e-05 -7.2122227e-09)
(9.8810503e-05 4.3170191e-06 -1.1497329e-09)
(9.8448709e-05 1.0532075e-05 -3.1082877e-09)
(9.6885402e-05 1.6780414e-05 -5.0222682e-09)
(8.6159025e-05 3.8205328e-06 -7.8578286e-10)
(8.5890277e-05 9.2914835e-06 -2.1185662e-09)
(8.4631969e-05 1.4867165e-05 -3.419577e-09)
(7.4845186e-05 3.4432595e-06 -5.3159166e-10)
(7.4642187e-05 8.3910669e-06 -1.4197632e-09)
(7.3618463e-05 1.3466053e-05 -2.2823651e-09)
(6.4673857e-05 3.1271978e-06 -3.5848027e-10)
(6.4517316e-05 7.6109946e-06 -9.3946825e-10)
(6.367675e-05 1.2235191e-05 -1.4973663e-09)
(5.5529513e-05 2.8241484e-06 -2.4191133e-10)
(5.5405431e-05 6.8657907e-06 -6.1588667e-10)
(5.4708271e-05 1.1080305e-05 -9.6791265e-10)
(4.7332678e-05 2.5361356e-06 -1.6453234e-10)
(4.7231312e-05 6.1762952e-06 -4.0219285e-10)
(4.664764e-05 9.9747444e-06 -6.183518e-10)
(4.0020896e-05 2.252687e-06 -1.1265254e-10)
(3.9935684e-05 5.4945001e-06 -2.6184388e-10)
(3.944418e-05 8.8659091e-06 -3.9107473e-10)
(3.3539867e-05 1.9834859e-06 -7.9138672e-11)
(3.3466613e-05 4.8412521e-06 -1.718482e-10)
(3.305152e-05 7.7804051e-06 -2.4613278e-10)
(2.7835029e-05 1.7376264e-06 -5.8259304e-11)
(2.7770687e-05 4.2441871e-06 -1.1544959e-10)
(2.7419564e-05 6.8145184e-06 -1.557001e-10)
(2.2870531e-05 1.5090285e-06 -4.5337144e-11)
(2.2812552e-05 3.6860635e-06 -8.0569676e-11)
(2.251512e-05 5.9468207e-06 -1.0044016e-10)
(1.8582564e-05 1.2971191e-06 -3.7719652e-11)
(1.8529327e-05 3.2006423e-06 -5.9686966e-11)
(1.8273173e-05 5.1610591e-06 -6.7476585e-11)
(1.4865348e-05 1.1026016e-06 -3.2886322e-11)
(1.4816856e-05 2.7103735e-06 -4.6948867e-11)
(1.4598848e-05 4.3605033e-06 -4.8111179e-11)
(1.1678449e-05 9.2198995e-07 -3.0059771e-11)
(1.1635436e-05 2.285052e-06 -3.9216804e-11)
(1.145732e-05 3.6794447e-06 -3.6767475e-11)
(9.0238046e-06 7.623928e-07 -2.8229206e-11)
(8.9858448e-06 1.9035086e-06 -3.425147e-11)
(8.8390339e-06 3.0648589e-06 -3.0110678e-11)
(6.8449033e-06 6.2085025e-07 -2.7232451e-11)
(6.8107935e-06 1.5606024e-06 -3.1221096e-11)
(6.688013e-06 2.5106596e-06 -2.6343821e-11)
(5.0681265e-06 4.9848474e-07 -2.7064017e-11)
(5.037286e-06 1.2656388e-06 -2.9804411e-11)
(4.9355608e-06 2.0288073e-06 -2.4528774e-11)
(3.6456486e-06 3.8908616e-07 -2.6772532e-11)
(3.61812e-06 1.0008261e-06 -2.8587283e-11)
(3.5348122e-06 1.6028041e-06 -2.3410974e-11)
(2.5324209e-06 2.9265955e-07 -2.6363509e-11)
(2.5081063e-06 7.6589904e-07 -2.7428712e-11)
(2.4405701e-06 1.2266487e-06 -2.2599859e-11)
(1.6853424e-06 2.138429e-07 -2.6411416e-11)
(1.6641021e-06 5.7427188e-07 -2.686042e-11)
(1.6098862e-06 9.1258247e-07 -2.2180424e-11)
(1.0636732e-06 1.4767659e-07 -2.645859e-11)
(1.0453662e-06 4.124756e-07 -2.6424777e-11)
(1.0022941e-06 6.5200505e-07 -2.2022311e-11)
(6.2967586e-07 9.2727386e-08 -2.6461955e-11)
(6.1407864e-07 2.7673748e-07 -2.6040607e-11)
(5.8016353e-07 4.3494933e-07 -2.1947511e-11)
(3.4873391e-07 4.7792596e-08 -2.6442908e-11)
(3.3556024e-07 1.6417925e-07 -2.570479e-11)
(3.090083e-07 2.5249029e-07 -2.1899584e-11)
(1.8930928e-07 1.5149297e-08 -2.6461045e-11)
(1.7815218e-07 8.1537589e-08 -2.5426231e-11)
(1.574501e-07 1.2097596e-07 -2.1904279e-11)
(1.2307923e-07 -7.8255982e-09 -2.6519891e-11)
(1.1350922e-07 2.1693494e-08 -2.5211466e-11)
(9.7468204e-08 2.4216072e-08 -2.1914744e-11)
(1.2510295e-07 -2.3292094e-08 -2.6600213e-11)
(1.1707545e-07 -1.9369331e-08 -2.5069389e-11)
(1.0466598e-07 -4.1282589e-08 -2.1961724e-11)
(1.7423339e-07 -3.5932028e-08 -2.657521e-11)
(1.6774075e-07 -5.4031375e-08 -2.4959822e-11)
(1.5798473e-07 -9.5258534e-08 -2.2030969e-11)
(2.5186188e-07 -3.9204112e-08 -2.6693697e-11)
(2.4664271e-07 -6.6118703e-08 -2.5007494e-11)
(2.3880445e-07 -1.1217466e-07 -2.2182072e-11)
(3.3900053e-07 -3.6108044e-08 -2.6894487e-11)
(3.3489685e-07 -6.3317561e-08 -2.5131709e-11)
(3.2858295e-07 -1.0710027e-07 -2.2289506e-11)
(4.1393966e-07 -2.8051353e-08 -2.7062188e-11)
(4.1069409e-07 -4.8829826e-08 -2.510381e-11)
(4.0542628e-07 -8.3031965e-08 -2.2064719e-11)
(4.5518234e-07 -1.5214352e-08 -2.7037662e-11)
(4.5215857e-07 -2.4206186e-08 -2.4475891e-11)
(4.4717153e-07 -4.3848579e-08 -2.0979009e-11)
(4.5509788e-07 -1.4571046e-09 -2.6398368e-11)
(4.5214643e-07 2.2758987e-09 -2.2274933e-11)
(4.4782991e-07 -2.3763852e-09 -1.8130912e-11)
(3.8927027e-07 9.3204127e-10 -2.3447902e-11)
(3.8777267e-07 1.0965787e-08 -1.615558e-11)
(3.8669633e-07 1.9332936e-08 -1.195027e-11)
(-0.046438688 1.9400662 -3.670011e-07)
(-0.032535977 1.6841948 -3.4446539e-06)
(-0.061792346 0.33573972 -2.5893337e-07)
(-0.042956389 0.14761722 -1.0213558e-06)
(-0.015186015 -0.040986372 -2.3050946e-07)
(-0.01189735 -0.043668477 -6.469395e-07)
(-0.0046278254 -0.01169114 -1.3068277e-07)
(-0.0045633227 -0.013706763 -4.2842467e-07)
(-0.00023802513 -0.0013794059 -1.3058176e-07)
(-0.00066897299 -0.0024599133 -3.1654517e-07)
(0.00059747686 0.00017668877 -1.4176902e-07)
(0.00039299218 -0.00011567871 -2.5461007e-07)
(0.00062221012 0.00039274284 -1.4064728e-07)
(0.00051642901 0.00039297178 -2.1198743e-07)
(0.00051514105 0.00036943417 -1.2888698e-07)
(0.00044796925 0.00043575103 -1.7679215e-07)
(0.00039394217 0.00026408944 -1.109085e-07)
(0.00034977211 0.00030661821 -1.4513126e-07)
(0.00029887005 0.00014116761 -9.1083188e-08)
(0.0002680652 0.00016092026 -1.1666075e-07)
(0.00024769095 6.9059939e-05 -7.2578123e-08)
(0.00022387235 7.4737342e-05 -9.2193653e-08)
(0.00021883872 4.2717929e-05 -5.6800854e-08)
(0.00020135718 4.3574326e-05 -7.1932612e-08)
(0.00019608006 3.9082369e-05 -4.3955378e-08)
(0.0001832 4.2009879e-05 -5.555577e-08)
(0.00017625048 3.7363166e-05 -3.3670952e-08)
(0.00016674281 4.4746929e-05 -4.2457167e-08)
(0.00015737211 3.6915018e-05 -2.5473251e-08)
(0.00015010153 4.7137953e-05 -3.2031438e-08)
(0.00013925001 3.5130998e-05 -1.8954775e-08)
(0.00013358792 4.4169023e-05 -2.3773096e-08)
(0.00012261648 3.09555e-05 -1.3819554e-08)
(0.00011812755 3.8491474e-05 -1.7300926e-08)
(0.00010776971 2.6678052e-05 -9.8489e-09)
(0.00010419284 3.311328e-05 -1.2318875e-08)
(9.4573081e-05 2.283098e-05 -6.8566102e-09)
(9.1680514e-05 2.8875118e-05 -8.5737288e-09)
(8.2751727e-05 2.0331768e-05 -4.6665415e-09)
(8.0374582e-05 2.5692336e-05 -5.8335737e-09)
(7.2075039e-05 1.8464644e-05 -3.1094682e-09)
(7.010622e-05 2.3274039e-05 -3.8839736e-09)
(6.2399793e-05 1.6787164e-05 -2.032312e-09)
(6.0758972e-05 2.1115268e-05 -2.5336909e-09)
(5.3644381e-05 1.5220443e-05 -1.305133e-09)
(5.2266894e-05 1.9205498e-05 -1.6214582e-09)
(4.5755169e-05 1.366894e-05 -8.2488845e-10)
(4.459196e-05 1.730346e-05 -1.0191023e-09)
(3.8691346e-05 1.2174367e-05 -5.1392359e-10)
(3.7705982e-05 1.5452604e-05 -6.2966883e-10)
(3.2413859e-05 1.0762356e-05 -3.1636255e-10)
(3.1577804e-05 1.3682621e-05 -3.827567e-10)
(2.6881502e-05 9.4392591e-06 -1.9345866e-10)
(2.617306e-05 1.2000546e-05 -2.2953119e-10)
(2.2060499e-05 8.2313735e-06 -1.1869295e-10)
(2.146138e-05 1.0448262e-05 -1.3655738e-10)
(1.7879689e-05 7.1138257e-06 -7.4228392e-11)
(1.7366997e-05 9.0132895e-06 -8.1397398e-11)
(1.4265069e-05 6.0269755e-06 -4.835864e-11)
(1.3830596e-05 7.6568881e-06 -4.9402924e-11)
(1.118743e-05 5.0831488e-06 -3.3536777e-11)
(1.0830559e-05 6.4524518e-06 -3.1275976e-11)
(8.6168838e-06 4.2294727e-06 -2.521907e-11)
(8.3221003e-06 5.3646383e-06 -2.1309495e-11)
(6.5019946e-06 3.4667852e-06 -2.0775396e-11)
(6.2571982e-06 4.3962611e-06 -1.6118131e-11)
(4.7826499e-06 2.7966742e-06 -1.8629521e-11)
(4.58192e-06 3.5432601e-06 -1.3628221e-11)
(3.4106851e-06 2.2051797e-06 -1.7537122e-11)
(3.2480221e-06 2.7884803e-06 -1.2495959e-11)
(2.3409398e-06 1.6900252e-06 -1.7023853e-11)
(2.2106189e-06 2.1352053e-06 -1.215338e-11)
(1.5308007e-06 1.2485202e-06 -1.6859884e-11)
(1.4275501e-06 1.5747218e-06 -1.2234304e-11)
(9.4027203e-07 8.8950602e-07 -1.6992076e-11)
(8.5942516e-07 1.1115668e-06 -1.2559796e-11)
(5.3214771e-07 5.9397087e-07 -1.7202907e-11)
(4.6964593e-07 7.3221661e-07 -1.2968888e-11)
(2.7223309e-07 3.4113678e-07 -1.742137e-11)
(2.2445804e-07 4.333238e-07 -1.3394509e-11)
(1.2953378e-07 1.6163715e-07 -1.7673975e-11)
(9.3429469e-08 1.9978415e-07 -1.3819465e-11)
(7.6513413e-08 2.6018508e-08 -1.7902605e-11)
(4.9501628e-08 2.2403855e-08 -1.4213633e-11)
(8.9050124e-08 -6.9881476e-08 -1.8124222e-11)
(6.8969004e-08 -1.0394006e-07 -1.4569743e-11)
(1.4631133e-07 -1.3104214e-07 -1.834814e-11)
(1.3141726e-07 -1.6679812e-07 -1.4900962e-11)
(2.2999616e-07 -1.5585301e-07 -1.8561728e-11)
(2.1887754e-07 -2.0113646e-07 -1.5158823e-11)
(3.2190804e-07 -1.5086035e-07 -1.864404e-11)
(3.1351926e-07 -1.9622807e-07 -1.5239552e-11)
(4.0005853e-07 -1.1800872e-07 -1.8310051e-11)
(3.9310821e-07 -1.5449086e-07 -1.4892661e-11)
(4.4217784e-07 -6.4541603e-08 -1.7078251e-11)
(4.3552062e-07 -8.7995269e-08 -1.3720244e-11)
(4.4415556e-07 -7.001367e-09 -1.4263818e-11)
(4.3926828e-07 -1.6725147e-08 -1.1223179e-11)
(3.8786482e-07 2.8209014e-08 -8.9286262e-12)
(3.8973007e-07 3.7567665e-08 -6.799842e-12)
(-0.0024638817 1.0110667e-05 -1.1828745e-07)
(-0.002441449 -4.4911085e-05 -2.8065443e-07)
(-0.002384598 -4.0670594e-05 -3.973232e-07)
(-0.0023064169 -7.3793389e-05 -4.7127084e-07)
(-0.0022109604 -0.00010154017 -5.1160551e-07)
(-0.0021006167 -0.00015229183 -5.2867905e-07)
(-0.0019764401 -0.00021151026 -5.3024754e-07)
(-0.0018388949 -0.00028522968 -5.2173721e-07)
(-0.0016908233 -0.00037307071 -5.0693465e-07)
(-0.0015372351 -0.00047081778 -4.8846767e-07)
(-0.0013829645 -0.00057367919 -4.6816846e-07)
(-0.0012320817 -0.00067610268 -4.4714816e-07)
(-0.0010875925 -0.00077335888 -4.2596048e-07)
(-0.00095123529 -0.00086239923 -4.0472402e-07)
(-0.00082397828 -0.00094067181 -3.8331115e-07)
(-0.00070631002 -0.0010100492 -3.6144569e-07)
(-0.00059932752 -0.0010735918 -3.3872974e-07)
(-0.00050252356 -0.0011280084 -3.1458935e-07)
(-0.00041487434 -0.0011696518 -2.8838946e-07)
(-0.00033542948 -0.0011982138 -2.5939502e-07)
(-0.00026317482 -0.0012129067 -2.2681627e-07)
(-0.00019700862 -0.0012161706 -1.8946087e-07)
(-0.00013581453 -0.0012089642 -1.4631101e-07)
(-7.8895994e-05 -0.0011946414 -9.6761741e-08)
(-2.5668156e-05 -0.0011354415 -4.0112775e-08)
(0.00023722561 -0.00010928171 -1.3421898e-07)
(0.00024466665 -0.0004817512 -3.1417233e-07)
(0.00026044699 -0.00069718773 -4.3671633e-07)
(0.00028358447 -0.0010206648 -5.0783414e-07)
(0.00031824406 -0.0012921566 -5.4186306e-07)
(0.00036156465 -0.0015914092 -5.5265023e-07)
(0.0004073075 -0.0018965726 -5.4896644e-07)
(0.0004472212 -0.0022320769 -5.3644635e-07)
(0.00047209667 -0.0025893614 -5.1865964e-07)
(0.00048156781 -0.0029382448 -4.9794229e-07)
(0.00047713371 -0.00327437 -4.7607755e-07)
(0.00046166252 -0.003594665 -4.5404275e-07)
(0.00043822919 -0.0038937591 -4.3226202e-07)
(0.00040917473 -0.00416928 -4.1069962e-07)
(0.00037542414 -0.0044208774 -3.8913771e-07)
(0.00033706986 -0.0046485344 -3.6727111e-07)
(0.00029887833 -0.0048607723 -3.4475532e-07)
(0.00026061586 -0.005051106 -3.2087875e-07)
(0.0002224333 -0.0051979352 -2.950506e-07)
(0.00018453348 -0.005295116 -2.6647543e-07)
(0.00014722031 -0.0053405031 -2.3467303e-07)
(0.00011094837 -0.0053368226 -1.9773193e-07)
(7.6034456e-05 -0.0052878586 -1.5430384e-07)
(4.2714476e-05 -0.0051791076 -1.0266897e-07)
(1.1796749e-05 -0.0049445029 -4.4374986e-08)
(0.0010602304 -0.00029706284 -1.7241306e-07)
(0.0010907573 -0.0014798928 -3.8918477e-07)
(0.0011511265 -0.0019983823 -5.1954262e-07)
(0.0012384413 -0.0029002991 -5.8025449e-07)
(0.0013260783 -0.0036650316 -5.9998257e-07)
(0.0013919019 -0.0044803519 -5.9797103e-07)
(0.0014235767 -0.0053016708 -5.8397558e-07)
(0.0014176245 -0.0062831704 -5.6399046e-07)
(0.0013823585 -0.0073816675 -5.4081783e-07)
(0.0013251753 -0.0083864176 -5.1589858e-07)
(0.0012521028 -0.0092575744 -4.9123358e-07)
(0.0011688386 -0.0099921692 -4.6744873e-07)
(0.0010794209 -0.010591053 -4.4478397e-07)
(0.00098526463 -0.011064523 -4.2282413e-07)
(0.00088887331 -0.011420074 -4.0117933e-07)
(0.00079301035 -0.011658794 -3.7947937e-07)
(0.00069732464 -0.011774027 -3.5777925e-07)
(0.00060342741 -0.011786733 -3.3469171e-07)
(0.00051165094 -0.011726457 -3.1006512e-07)
(0.00042254031 -0.011608318 -2.8311365e-07)
(0.00033659866 -0.011442245 -2.5290169e-07)
(0.00025437962 -0.01123724 -2.1789647e-07)
(0.00017586047 -0.011000424 -1.7599306e-07)
(0.00010108791 -0.010702625 -1.2357934e-07)
(3.1112625e-05 -0.010293771 -6.0600746e-08)
(0.0035176722 -0.00098990191 -2.5470086e-07)
(0.0035687417 -0.0046051272 -5.2850923e-07)
(0.0036108674 -0.0059362292 -6.5592853e-07)
(0.0035264603 -0.0092254443 -6.8998744e-07)
(0.0033812595 -0.012219385 -6.8436721e-07)
(0.0031645211 -0.014890295 -6.6240473e-07)
(0.0029061407 -0.01678938 -6.3316609e-07)
(0.002629675 -0.017792004 -6.0381909e-07)
(0.0023569891 -0.018093113 -5.7446364e-07)
(0.0020937454 -0.017959229 -5.4373268e-07)
(0.0018474062 -0.017500847 -5.155633e-07)
(0.0016231589 -0.016842326 -4.8955103e-07)
(0.001418485 -0.01600635 -4.6613997e-07)
(0.0012174261 -0.015047588 -4.4395839e-07)
(0.0010365794 -0.014017347 -4.2245468e-07)
(0.00087662279 -0.012961764 -4.0134763e-07)
(0.00073549139 -0.011921566 -3.8029151e-07)
(0.00061136086 -0.010931172 -3.5874939e-07)
(0.0005024899 -0.010014311 -3.3619393e-07)
(0.00040656766 -0.0091911339 -3.1194684e-07)
(0.00032113776 -0.0084730982 -2.8513167e-07)
(0.0002433965 -0.0078647093 -2.5447056e-07)
(0.00017133323 -0.0073672421 -2.1805089e-07)
(0.00010331174 -0.0069392013 -1.7267448e-07)
(3.7911586e-05 -0.0066255148 -1.0827279e-07)
(0.011207833 -0.0086210246 -4.4290841e-07)
(0.0090889428 -0.025595022 -7.6467438e-07)
(0.0080946249 -0.028305211 -8.5279544e-07)
(0.0064299871 -0.032839362 -8.4167606e-07)
(0.0050474402 -0.030447409 -8.0291748e-07)
(0.0038162945 -0.026760892 -7.5511482e-07)
(0.0027751959 -0.022067943 -7.0756636e-07)
(0.0019353674 -0.017067909 -6.6319479e-07)
(0.0012717838 -0.012075345 -6.2355223e-07)
(0.00075463157 -0.0074406366 -5.871267e-07)
(0.00035736059 -0.003235927 -5.5433648e-07)
(5.8247323e-05 0.00037477811 -5.2390149e-07)
(-0.0001599278 0.0037359417 -4.9945995e-07)
(-0.00030061322 0.0069310072 -4.763597e-07)
(-0.00039115726 0.0098678937 -4.5413521e-07)
(-0.00043932432 0.012417769 -4.3291121e-07)
(-0.00045411361 0.014549134 -4.1233701e-07)
(-0.00044260952 0.016279614 -3.9195853e-07)
(-0.00041048961 0.017638377 -3.7128023e-07)
(-0.00036264885 0.01865473 -3.4974364e-07)
(-0.00030340006 0.019353198 -3.2666199e-07)
(-0.00023689246 0.019760209 -3.0107777e-07)
(-0.00016598663 0.01987521 -2.714542e-07)
(-9.3718229e-05 0.019756513 -2.4244145e-07)
(-2.1190168e-05 0.019066493 -2.1351796e-07)
(0.014050516 0.023042671 -8.0153198e-07)
(0.0037864533 -0.0026598885 -1.1344176e-06)
(0.0011446667 0.047423367 -1.1385216e-06)
(-0.00075688937 0.049650522 -1.0663996e-06)
(-0.0024225049 0.064087039 -9.8991493e-07)
(-0.0036670611 0.074525545 -9.04015e-07)
(-0.0043689081 0.081842403 -8.2683361e-07)
(-0.0046037069 0.087965738 -7.5960646e-07)
(-0.0045488024 0.092520304 -7.0113365e-07)
(-0.004346451 0.095379786 -6.5119648e-07)
(-0.0040703645 0.097029963 -6.0916807e-07)
(-0.0037366607 0.097585243 -5.6566887e-07)
(-0.0033959738 0.09738536 -5.4083399e-07)
(-0.0030592732 0.096129938 -5.1418723e-07)
(-0.0027193603 0.094012061 -4.8795881e-07)
(-0.0023860169 0.091617799 -4.645767e-07)
(-0.0020705009 0.08901243 -4.4293011e-07)
(-0.0017739134 0.086283264 -4.2236024e-07)
(-0.0014956817 0.083508743 -4.0231301e-07)
(-0.0012340775 0.080747761 -3.8225666e-07)
(-0.00098680143 0.078037812 -3.6163029e-07)
(-0.00075128625 0.075421767 -3.3976455e-07)
(-0.0005251882 0.072872442 -3.1597555e-07)
(-0.00030700166 0.070577992 -2.9119623e-07)
(-9.1938618e-05 0.067103005 -2.6683178e-07)
(-0.0020031936 1.1659601 -2.5269191e-06)
(-0.00088359899 0.95715009 -2.0097492e-06)
(-0.0010949742 0.86280008 -1.6269018e-06)
(-0.00073297815 0.77147209 -1.335488e-06)
(-0.00061801993 0.67633392 -1.1197688e-06)
(-0.00052523501 0.58547664 -9.6351507e-07)
(-0.00044333286 0.50739046 -8.4917765e-07)
(-0.00037194106 0.44386655 -7.6422185e-07)
(-0.0003092485 0.39141563 -6.9474606e-07)
(-0.00025751157 0.34661756 -6.411373e-07)
(-0.00021002756 0.30794584 -5.998717e-07)
(-0.0001666124 0.27466017 -5.6416123e-07)
(-0.00012797048 0.24619306 -5.3465978e-07)
(-0.00010675678 0.22182086 -5.0896398e-07)
(-8.7491223e-05 0.20088732 -4.8578982e-07)
(-7.1938295e-05 0.18291114 -4.6454666e-07)
(-5.9038606e-05 0.16746418 -4.4467093e-07)
(-4.8433624e-05 0.15418463 -4.2569883e-07)
(-3.9595631e-05 0.14277073 -4.0722042e-07)
(-3.2069781e-05 0.1329736 -3.8882936e-07)
(-2.5407453e-05 0.12457742 -3.7009026e-07)
(-1.9172975e-05 0.11744045 -3.5044327e-07)
(-1.3157404e-05 0.11132138 -3.2955082e-07)
(-7.428112e-06 0.10650312 -3.0717421e-07)
(-1.9892715e-06 0.10049525 -2.8281052e-07)
(-0.013510649 0.087695643 -1.2401706e-06)
(-0.0032322909 0.095983097 -1.2810838e-06)
(-0.00064233485 0.10203262 -1.2347321e-06)
(0.0012387992 0.10414371 -1.143729e-06)
(0.0028476749 0.10653334 -1.0409859e-06)
(0.0040243088 0.10848005 -9.4116051e-07)
(0.0046719097 0.11031533 -8.5181029e-07)
(0.0048587448 0.1120046 -7.7467102e-07)
(0.0047622563 0.11293233 -6.9380078e-07)
(0.0045040406 0.11309865 -6.4860769e-07)
(0.0042010537 0.11247911 -6.0857221e-07)
(0.0038775774 0.11087883 -5.6581785e-07)
(0.0035134779 0.10840662 -5.3006818e-07)
(0.0031454057 0.10542731 -4.9960296e-07)
(0.002787413 0.10218497 -4.7299522e-07)
(0.00244498 0.098806737 -4.4927111e-07)
(0.0021209156 0.095378101 -4.2767333e-07)
(0.0018152637 0.091968755 -4.0755947e-07)
(0.0015283135 0.088631492 -3.8834736e-07)
(0.0012588304 0.08540489 -3.6946984e-07)
(0.0010048679 0.082311114 -3.503039e-07)
(0.00076423297 0.079380089 -3.3005461e-07)
(0.00053434714 0.076574855 -3.0903848e-07)
(0.00031301954 0.074087557 -2.860177e-07)
(9.445377e-05 0.070398288 -2.6275691e-07)
(-0.0096484902 -0.041652162 -8.7167977e-07)
(-0.0082632974 -0.039793673 -9.3677619e-07)
(-0.0068198861 -0.03823819 -9.2346091e-07)
(-0.0053676304 -0.034776729 -8.7708516e-07)
(-0.0040153512 -0.029799845 -8.1845513e-07)
(-0.0028515444 -0.024096246 -7.5691802e-07)
(-0.0018943132 -0.018185743 -6.9963992e-07)
(-0.0011421539 -0.012457711 -6.4730302e-07)
(-0.00056695592 -0.0073224173 -5.9881721e-07)
(-0.00013182192 -0.002776292 -5.6248217e-07)
(0.00018657205 0.0011195339 -5.2918534e-07)
(0.00041024431 0.0049143144 -4.9819866e-07)
(0.00055679572 0.0085316915 -4.7041138e-07)
(0.00064420779 0.011766948 -4.4550337e-07)
(0.00068514254 0.01455157 -4.2288734e-07)
(0.00068976829 0.016885517 -4.0202643e-07)
(0.00066594539 0.018801489 -3.8247001e-07)
(0.00062135453 0.020341565 -3.6370587e-07)
(0.00056011974 0.021531146 -3.4520445e-07)
(0.00048599271 0.022391589 -3.263613e-07)
(0.00040228593 0.022944482 -3.0634507e-07)
(0.00031207845 0.0232111 -2.8375127e-07)
(0.0002180087 0.023202121 -2.6134086e-07)
(0.00012345238 0.022961278 -2.341761e-07)
(3.0191328e-05 0.022118328 -2.0744551e-07)
(-0.0046290044 -0.015597632 -6.0308832e-07)
(-0.0045541917 -0.018365445 -6.7932665e-07)
(-0.004365899 -0.021353348 -6.945019e-07)
(-0.0040773149 -0.023518071 -6.7778136e-07)
(-0.0037154212 -0.024872461 -6.4796876e-07)
(-0.0033211195 -0.025315387 -6.1553882e-07)
(-0.0029435248 -0.02504473 -5.7582185e-07)
(-0.0025871028 -0.024317783 -5.3873187e-07)
(-0.0022564599 -0.023309537 -5.050566e-07)
(-0.0019613949 -0.022096949 -4.7624956e-07)
(-0.0016967094 -0.020768725 -4.5005925e-07)
(-0.0014542741 -0.01930833 -4.2592005e-07)
(-0.0012360862 -0.017785859 -4.0379453e-07)
(-0.0010446453 -0.016256029 -3.8348811e-07)
(-0.00087798795 -0.014756976 -3.6446025e-07)
(-0.00073346154 -0.013321028 -3.4628598e-07)
(-0.0006088579 -0.011981311 -3.2881629e-07)
(-0.00050035749 -0.010769292 -3.1146438e-07)
(-0.00040651833 -0.0096934618 -2.9367607e-07)
(-0.0003253822 -0.0087541739 -2.7478586e-07)
(-0.00025482666 -0.0079512342 -2.5388079e-07)
(-0.00019262721 -0.0072837455 -2.297141e-07)
(-0.00013660185 -0.0067478892 -2.0100037e-07)
(-8.4307095e-05 -0.0063030501 -1.6215507e-07)
(-3.2883922e-05 -0.0059978966 -1.0391957e-07)
(-0.0010432175 -0.0035558007 -4.4383121e-07)
(-0.001318482 -0.0046261954 -5.1461094e-07)
(-0.0015379797 -0.0057114868 -5.4262026e-07)
(-0.0016948912 -0.0067349542 -5.4384678e-07)
(-0.0017811631 -0.0077533773 -5.3011831e-07)
(-0.0017978243 -0.0089156426 -5.0874832e-07)
(-0.0017610301 -0.010139949 -4.8242444e-07)
(-0.001686395 -0.011184467 -4.5569369e-07)
(-0.0015857453 -0.012053207 -4.3041483e-07)
(-0.0014745133 -0.012748909 -4.0729884e-07)
(-0.0013598656 -0.013290832 -3.8592538e-07)
(-0.0012450592 -0.013683115 -3.660086e-07)
(-0.0011306731 -0.013935791 -3.4740752e-07)
(-0.001017803 -0.01403639 -3.3024995e-07)
(-0.00090789442 -0.014014692 -3.1365378e-07)
(-0.00080199097 -0.013910923 -2.9768597e-07)
(-0.00070052794 -0.01374866 -2.8166886e-07)
(-0.0006042719 -0.013542512 -2.6527996e-07)
(-0.00051213154 -0.013302577 -2.4799964e-07)
(-0.00042359657 -0.013036054 -2.2916885e-07)
(-0.00033835324 -0.012748586 -2.0779011e-07)
(-0.00025623143 -0.012445515 -1.823924e-07)
(-0.00017725547 -0.012130071 -1.5082396e-07)
(-0.00010175339 -0.011764453 -1.0861333e-07)
(-3.1470504e-05 -0.011304513 -5.5014044e-08)
(0.00024004805 -0.00050293805 -3.4231571e-07)
(9.1876639e-05 -0.00093792642 -3.9931183e-07)
(-5.9885052e-05 -0.0014077569 -4.2900078e-07)
(-0.00021714686 -0.0018852944 -4.3865649e-07)
(-0.00036587526 -0.0023719545 -4.3508288e-07)
(-0.00048881902 -0.0028891421 -4.2334818e-07)
(-0.00057171841 -0.0034092381 -4.0674891e-07)
(-0.00062041078 -0.0038892783 -3.8816523e-07)
(-0.00064333436 -0.0043278946 -3.6933841e-07)
(-0.00064477901 -0.0047209181 -3.5112842e-07)
(-0.00063028612 -0.0050699944 -3.3374224e-07)
(-0.00060352775 -0.0053813836 -3.1719117e-07)
(-0.00056820207 -0.0056703606 -3.0143131e-07)
(-0.00052730881 -0.0059616347 -2.864094e-07)
(-0.000483043 -0.0062442229 -2.7178946e-07)
(-0.00043648627 -0.0064831116 -2.5735521e-07)
(-0.00038829739 -0.0066715964 -2.4271525e-07)
(-0.00033951339 -0.0068083964 -2.2748227e-07)
(-0.00029052631 -0.006894012 -2.1116059e-07)
(-0.00024166095 -0.0069286182 -1.9328805e-07)
(-0.0001932647 -0.0069138595 -1.7300923e-07)
(-0.00014579433 -0.0068529451 -1.4885565e-07)
(-9.9796744e-05 -0.0067507154 -1.194465e-07)
(-5.5872853e-05 -0.0065892198 -8.2311776e-08)
(-1.5528354e-05 -0.0062920254 -3.7913207e-08)
(0.00043697624 0.00036490425 -2.7217941e-07)
(0.00036959663 0.00030762001 -3.1565756e-07)
(0.00030944176 0.00019964459 -3.4222852e-07)
(0.00024812928 5.0760651e-05 -3.5471508e-07)
(0.00018014662 -0.00011545285 -3.5670815e-07)
(0.00010788494 -0.00030097169 -3.5144787e-07)
(3.9766594e-05 -0.00050069486 -3.4150774e-07)
(-1.7537566e-05 -0.0007015216 -3.2896837e-07)
(-6.9120379e-05 -0.0008919925 -3.152731e-07)
(-0.00010767804 -0.0010675294 -3.0128595e-07)
(-0.00013279807 -0.0012289742 -2.8742893e-07)
(-0.00014631493 -0.0013738305 -2.7388288e-07)
(-0.00015070922 -0.0015019235 -2.6069807e-07)
(-0.00014867329 -0.0016158816 -2.4783262e-07)
(-0.00014247892 -0.0017147294 -2.3512133e-07)
(-0.00013316761 -0.0017959056 -2.2235858e-07)
(-0.00012148638 -0.0018603756 -2.0926453e-07)
(-0.00010821907 -0.0019086902 -1.9551511e-07)
(-9.3949898e-05 -0.0019412467 -1.8072347e-07)
(-7.9108717e-05 -0.001958229 -1.6445847e-07)
(-6.4063683e-05 -0.001959993 -1.4618767e-07)
(-4.9078724e-05 -0.0019474328 -1.2517403e-07)
(-3.4327546e-05 -0.0019233366 -1.0051026e-07)
(-1.9800174e-05 -0.0018868054 -7.1289861e-08)
(-5.5497396e-06 -0.0017929905 -3.577482e-08)
(0.00039425423 0.00048891839 -2.1903956e-07)
(0.00035073804 0.00052912133 -2.5170351e-07)
(0.00031292444 0.00055234732 -2.7386797e-07)
(0.00027709321 0.00055883822 -2.8638434e-07)
(0.00024126212 0.00054729908 -2.9100163e-07)