/*--------------------------------*- C++ -*----------------------------------*\
| =========                 |                                                 |
| \\      /  F ield         | OpenFOAM: The Open Source CFD Toolbox           |
|  \\    /   O peration     | Version:  4.0                                   |
|   \\  /    A nd           | Web:      www.OpenFOAM.org                      |
|    \\/     M anipulation  |                                                 |
\*---------------------------------------------------------------------------*/
FoamFile
{
    version     2.0;
    format      ascii;
    class       volScalarField;
    location    "0.31";
    object      k;
}
// * * * * * * * * * * * * * * * * * * * * * * * * * * * * * * * * * * * * * //

dimensions      [0 2 -2 0 0 0 0];

internalField   nonuniform List<scalar> 
1740
(
0.0086918438
0.0089809968
0.018412984
0.0090950491
0.0098691998
0.027413126
0.0094512293
0.01048795
0.034513448
0.0096994377
0.01078158
0.041614106
0.0098557587
0.011093164
0.047454872
0.0099832561
0.011437467
0.051337163
0.010110783
0.011616379
0.055538058
0.01017084
0.011881373
0.059300632
0.01027201
0.012383144
0.062071171
0.01023799
0.012770555
0.064629984
0.010146923
0.013058374
0.065992812
0.010031912
0.013058197
0.067719584
0.0099067754
0.01315626
0.06913979
0.0097771954
0.013329101
0.069207773
0.0096773209
0.013475148
0.070124972
0.0095501822
0.013767898
0.071785342
0.0094921703
0.0143814
0.072485147
0.009372856
0.01468974
0.072372894
0.009227822
0.014460418
0.072334475
0.0091163903
0.014497359
0.072507036
0.0089673523
0.014339582
0.072465629
0.0088431779
0.014215497
0.072554664
0.0087505489
0.014446235
0.072919565
0.0086516956
0.014833964
0.073290018
0.0085599311
0.01477862
0.073127161
0.0084476004
0.014582594
0.07293083
0.0083944734
0.014686827
0.072898153
0.0083988651
0.015204205
0.072831354
0.0084447574
0.015426081
0.07192436
0.0090363213
0.016395097
0.066663124
0.012796834
0.018255921
0.047247122
0.023922499
0.031217314
0.039825538
0.010270048
0.012537159
0.01372948
0.0042639219
0.0046004521
0.004667442
0.0020660619
0.0021100557
0.0020876267
0.0011312167
0.0011326041
0.0011156423
0.00067754554
0.00067518846
0.00066743729
0.00043201031
0.0004306543
0.00042783187
0.00028629277
0.0002858001
0.00028507606
0.00019307387
0.00019297737
0.0001929957
0.00013010868
0.00013014183
0.00013033782
8.6317104e-05
8.6367342e-05
8.6539535e-05
5.5769955e-05
5.5802621e-05
5.590474e-05
3.4894082e-05
3.4906997e-05
3.4950162e-05
2.1158459e-05
2.1159003e-05
2.1167412e-05
1.2541818e-05
1.2537264e-05
1.2530825e-05
7.4065565e-06
7.4014267e-06
7.3919542e-06
4.5041562e-06
4.5003914e-06
4.4929934e-06
2.9503374e-06
2.948228e-06
2.9440036e-06
2.1675133e-06
2.1667152e-06
2.1651572e-06
1.8056853e-06
1.8057534e-06
1.8059963e-06
1.6644191e-06
1.6649868e-06
1.6662782e-06
1.6343381e-06
1.6351559e-06
1.6369729e-06
1.658302e-06
1.6592194e-06
1.6612432e-06
1.7076458e-06
1.7085799e-06
1.7106342e-06
1.7685257e-06
1.7694347e-06
1.7714302e-06
1.8344806e-06
1.8353452e-06
1.8372415e-06
1.9025685e-06
1.9033813e-06
1.9051629e-06
1.9714483e-06
1.9722076e-06
1.9738709e-06
2.0404665e-06
2.041173e-06
2.0427202e-06
2.1092405e-06
2.109896e-06
2.1113312e-06
2.1774737e-06
2.1780805e-06
2.1794088e-06
2.244874e-06
2.2454344e-06
2.246661e-06
2.3111097e-06
2.3116261e-06
2.3127562e-06
2.3757737e-06
2.3762484e-06
2.3772872e-06
2.4383333e-06
2.4387687e-06
2.4397213e-06
2.4980497e-06
2.4984481e-06
2.4993197e-06
2.553848e-06
2.5542118e-06
2.5550075e-06
2.6041129e-06
2.6044444e-06
2.6051697e-06
2.6463863e-06
2.6466881e-06
2.6473481e-06
2.676944e-06
2.6772183e-06
2.6778185e-06
2.6902434e-06
2.6904927e-06
2.6910381e-06
2.6782768e-06
2.6785031e-06
2.6789983e-06
2.6299323e-06
2.6301372e-06
2.6305863e-06
2.5305984e-06
2.5307833e-06
2.5311891e-06
2.3624253e-06
2.3625906e-06
2.3629545e-06
2.1058558e-06
2.1060008e-06
2.1063215e-06
1.7432469e-06
1.7433685e-06
1.7436396e-06
1.2654805e-06
1.2655723e-06
1.265779e-06
6.7938302e-07
6.79435e-07
6.7955336e-07
0.05624701
0.060957269
0.046215932
0.04671561
0.0124784
0.011348781
0.0043544535
0.0041193205
0.0019968723
0.0019370754
0.0010868684
0.0010718777
0.00065854647
0.00065643496
0.00042573038
0.0004271644
0.00028517422
0.0002872062
0.00019362584
0.00019534191
0.00013093009
0.00013213171
8.6944849e-05
8.768311e-05
5.6130164e-05
5.6527478e-05
3.5050269e-05
3.5231455e-05
2.119733e-05
2.1260908e-05
1.2529655e-05
1.2540012e-05
7.3818985e-06
7.374513e-06
4.4838893e-06
4.4747521e-06
2.9386168e-06
2.9329077e-06
2.1632809e-06
2.1614936e-06
1.8065926e-06
1.8077257e-06
1.6683393e-06
1.6712385e-06
1.6397702e-06
1.6435582e-06
1.664324e-06
1.6684439e-06
1.7137461e-06
1.7178848e-06
1.7744456e-06
1.7784445e-06
1.8401026e-06
1.8438907e-06
1.9078483e-06
1.9114001e-06
1.9763767e-06
1.9796886e-06
2.0450499e-06
2.0481277e-06
2.1134917e-06
2.1163448e-06
2.1814078e-06
2.1840469e-06
2.2485065e-06
2.2509424e-06
2.3144562e-06
2.3166997e-06
2.3788496e-06
2.380911e-06
2.4411539e-06
2.4430437e-06
2.5006303e-06
2.5023588e-06
2.556204e-06
2.5577817e-06
2.60626e-06
2.6076975e-06
2.6483403e-06
2.6496484e-06
2.6787206e-06
2.6799099e-06
2.691858e-06
2.692939e-06
2.6797433e-06
2.6807259e-06
2.6312626e-06
2.6321553e-06
2.5318015e-06
2.5326112e-06
2.3635057e-06
2.3642367e-06
2.1068104e-06
2.107463e-06
1.7440578e-06
1.7446259e-06
1.2661053e-06
1.2665874e-06
6.7975868e-07
6.802876e-07
5.781238e-06
2.706445e-05
0.00013445527
0.0003050113
0.0004621936
0.00057305342
0.00064318202
0.00068660055
0.00071507528
0.00073570947
0.00075249555
0.0007683321
0.00078304648
0.00079637209
0.00080799358
0.00081737805
0.00082358113
0.00082500247
0.00081901975
0.00080147783
0.0007659825
0.0007030352
0.00059934874
0.00043810594
0.00019959063
2.6058492e-06
5.4809093e-05
0.00025127815
0.00051632196
0.00072829512
0.0008597036
0.00093543405
0.00097968761
0.0010078925
0.0010280507
0.001044367
0.001059301
0.0010728249
0.0010846415
0.0010943545
0.001101359
0.0011045656
0.0011021292
0.0010909581
0.0010660709
0.0010196489
0.00093965233
0.00080807748
0.00059970578
0.00028368226
8.0081408e-06
0.00016017038
0.00061664718
0.0010807302
0.0013637316
0.0015062948
0.0015735293
0.0016048287
0.0016201609
0.0016279525
0.0016325625
0.0016349866
0.0016362903
0.0016358559
0.0016331918
0.001627837
0.0016187675
0.0016042471
0.0015809711
0.0015434871
0.0014829619
0.0013849227
0.0012249753
0.00096061294
0.00051690309
3.7685395e-05
0.00057994019
0.0016871773
0.0024385277
0.0027753276
0.0028890736
0.0028982392
0.0028677893
0.0028274587
0.0027821855
0.0027370395
0.0026939042
0.0026532408
0.0026118551
0.0025691936
0.0025256519
0.0024807446
0.0024330898
0.002380021
0.0023168908
0.0022359687
0.002124201
0.0019575501
0.0016834791
0.0011459584
0.0002817124
0.0024488593
0.0049175285
0.0060389976
0.0063853464
0.0063236705
0.0060943757
0.0058314991
0.0055818147
0.0053306968
0.0050900514
0.0048652591
0.0046611565
0.0044630265
0.0042704953
0.0040881635
0.0039169302
0.0037562448
0.0036043293
0.0034577704
0.0033110493
0.003156106
0.0029821432
0.0027810122
0.0025710714
0.0023619477
0.010543645
0.016593425
0.018543894
0.018082787
0.01652349
0.014705518
0.013015253
0.011532231
0.010254983
0.0091627266
0.0082327197
0.0074394072
0.0067589046
0.006173556
0.0056699925
0.0052367963
0.0048636318
0.0045411063
0.0042604263
0.0040128264
0.0037894749
0.0035819537
0.0033897693
0.0032285128
0.045038208
0.034151937
0.026631737
0.021455812
0.017790467
0.015076431
0.012979949
0.011318705
0.009985151
0.0089027821
0.0080126894
0.0072700011
0.0066410446
0.0061010801
0.0056321465
0.005221764
0.004861304
0.0045442869
0.0042652611
0.0040190525
0.0038001684
0.0036027724
0.0034213095
0.0032573143
0.0031261426
0.037320808
0.031012322
0.027796539
0.02516013
0.022283764
0.019304193
0.016582195
0.014281158
0.012398725
0.01085686
0.0095855559
0.0085278989
0.0076403921
0.0068931563
0.0062623797
0.0057285655
0.0052753929
0.0048891769
0.0045582307
0.0042721151
0.004020891
0.003794937
0.003585255
0.003391115
0.0032282863
0.010213741
0.0095420137
0.0092029403
0.0088837587
0.0084221678
0.0078577321
0.0073012737
0.0068045908
0.0063532645
0.0059544264
0.0056052395
0.0052995954
0.0050122651
0.0047463725
0.0045033718
0.0042825526
0.004081862
0.0038984916
0.0037286873
0.0035675718
0.0034086077
0.0032430449
0.0030595751
0.0028496832
0.0026315034
0.0039621669
0.0038902151
0.0038682832
0.003827662
0.0037331803
0.0035978783
0.0034577918
0.0033276567
0.003210076
0.0031071448
0.0030179271
0.0029393083
0.0028657183
0.0027966012
0.0027318284
0.0026706444
0.0026114898
0.002551913
0.0024883108
0.0024153835
0.0023250352
0.0022040781
0.0020284043
0.0017446719
0.0011917067
0.0019195943
0.0019330706
0.0019581259
0.0019726138
0.0019655409
0.0019404898
0.0019084577
0.0018764056
0.0018474033
0.0018227608
0.0018023
0.0017847906
0.0017686069
0.0017531208
0.0017380885
0.0017224204
0.0017043946
0.0016813985
0.0016495662
0.001603136
0.0015332743
0.0014258427
0.0012569716
0.00098434209
0.00053200503
0.0010762081
0.0010943437
0.0011174194
0.0011367099
0.0011476488
0.0011509845
0.0011503237
0.0011486456
0.0011476831
0.001148184
0.0011501333
0.0011530048
0.0011560774
0.0011587637
0.0011604464
0.0011600849
0.0011560537
0.0011459338
0.0011262127
0.0010918114
0.0010353375
0.00094593031
0.00080762345
0.00059771874
0.00028723038
0.00066336212
0.00067704784
0.00069347606
0.00070881867
0.00072091902
0.00072972589
0.00073645411
0.00074240372
0.0007484637
0.00075507188
0.00076226472
0.00076979602
0.0007772672
0.00078420875
0.00078999344
0.00079367181
0.00079384412
0.00078850359
0.00077484038
0.00074899659
0.000705782
0.00063840994
0.00053840886
0.00039570411
0.00019532837
0.0004330703
0.00044248355
0.00045356907
0.00046452736
0.0004742576
0.00048254445
0.00048977577
0.00049650111
0.00050315973
0.00050998983
0.00051702357
0.00052412531
0.00053103725
0.00053739554
0.00054268246
0.00054613885
0.00054667429
0.00054276951
0.00053238133
0.0005128798
0.00048109661
0.00043368946
0.00036836514
0.00028751998
0.00020862404
0.00029155989
0.00029781769
0.0003051133
0.00031256386
0.00031957531
0.00032594422
0.00033176669
0.000337262
0.00034263393
0.00034800176
0.00035337854
0.00035867729
0.0003637227
0.00036824665
0.00037185801
0.00037399233
0.0003738565
0.00037037687
0.000362171
0.00034758312
0.00032487099
0.00029272991
0.00025153974
0.00020605711
0.00017019257
0.00019831069
0.00020233738
0.00020700395
0.00021185756
0.00021656473
0.00022097095
0.00022507351
0.0002289481
0.00023268068
0.0002363236
0.0002398752
0.00024327516
0.00024640357
0.00024907321
0.00025100975
0.00025182274
0.00025097405
0.00024775427
0.00024128488
0.00023057879
0.00021471557
0.00019322634
0.00016682574
0.00013855397
0.00011189617
0.00013401878
0.00013649587
0.00013935348
0.00014235321
0.00014530293
0.0001480936
0.00015069428
0.0001531215
0.00015540519
0.00015756317
0.00015958672
0.00016143409
0.00016302661
0.00016424213
0.00016490334
0.00016476122
0.0001634783
0.00016061878
0.00015565705
0.00014802125
0.00013718953
0.00012283924
0.00010494553
8.3295475e-05
5.3716388e-05
8.8789575e-05
9.0217597e-05
9.1859273e-05
9.3586373e-05
9.5287499e-05
9.6889395e-05
9.8359069e-05
9.9691408e-05
0.00010089167
0.00010196255
0.00010289425
0.00010365958
0.00010421069
0.00010447481
0.00010434766
0.00010368493
0.00010229358
9.9927221e-05
9.6290995e-05
9.1060775e-05
8.3914616e-05
7.4549566e-05
6.258484e-05
4.708142e-05
2.525939e-05
5.7113743e-05
5.7866149e-05
5.8728818e-05
5.9632428e-05
6.051284e-05
6.1323657e-05
6.2038333e-05
6.2646392e-05
6.3144753e-05
6.3530872e-05
6.3797187e-05
6.3927816e-05
6.3896601e-05
6.3664644e-05
6.3177245e-05
6.2359524e-05
6.1111913e-05
5.9307142e-05
5.6790612e-05
5.3384094e-05
4.8887166e-05
4.3059063e-05
3.5546169e-05
2.5720269e-05
1.2574267e-05
3.5502702e-05
3.5852889e-05
3.6253874e-05
3.6668552e-05
3.706103e-05
3.7403367e-05
3.7677538e-05
3.7874149e-05
3.7988818e-05
3.8018523e-05
3.7958747e-05
3.7801576e-05
3.7534482e-05
3.7139297e-05
3.659077e-05
3.5854376e-05
3.4883807e-05
3.3618553e-05
3.1981995e-05
2.9879125e-05
2.7190751e-05
2.3759112e-05
1.9364979e-05
1.3723659e-05
6.5855803e-06
2.136317e-05
2.1499018e-05
2.1654725e-05
2.1811042e-05
2.1948806e-05
2.2052148e-05
2.2110095e-05
2.2116257e-05
2.2067362e-05
2.1961419e-05
2.179627e-05
2.1568694e-05
2.1273688e-05
2.0904013e-05
2.0449471e-05
1.989578e-05
1.9223028e-05
1.8403771e-05
1.7400779e-05
1.6163966e-05
1.4625757e-05
1.2695459e-05
1.0260767e-05
7.2223356e-06
3.5795848e-06
1.2564754e-05
1.2601917e-05
1.2644926e-05
1.2684515e-05
1.271071e-05
1.2715115e-05
1.2691642e-05
1.2636579e-05
1.2547958e-05
1.2424795e-05
1.2266348e-05
1.2071599e-05
1.1838967e-05
1.1565975e-05
1.1248974e-05
1.0882349e-05
1.0457554e-05
9.9617219e-06
9.3758874e-06
8.6727907e-06
7.8145148e-06
6.7517155e-06
5.4303029e-06
3.8181166e-06
1.9530411e-06
7.3714523e-06
7.3721003e-06
7.3735085e-06
7.3713582e-06
7.360811e-06
7.3376524e-06
7.2987267e-06
7.2421061e-06
7.1667963e-06
7.0723775e-06
6.9586916e-06
6.825571e-06
6.67263e-06
6.4990753e-06
6.3034558e-06
6.0832347e-06
5.8340518e-06
5.5487245e-06
5.2160357e-06
4.8197299e-06
4.3373789e-06
3.7412924e-06
3.0042205e-06
2.1138078e-06
1.0904616e-06
4.4665244e-06
4.4590852e-06
4.4512027e-06
4.4409189e-06
4.4260217e-06
4.404473e-06
4.3747443e-06
4.3358635e-06
4.2873585e-06
4.2290603e-06
4.1609536e-06
4.0830199e-06
3.9951104e-06
3.896794e-06
3.787093e-06
3.6642565e-06
3.5251659e-06
3.3646529e-06
3.174781e-06
2.9440238e-06
2.6573275e-06
2.2971779e-06
1.8476695e-06
1.3025124e-06
6.716118e-07
2.9273971e-06
2.9221083e-06
2.9165512e-06
2.9098626e-06
2.9010354e-06
2.8891172e-06
2.8733563e-06
2.8532618e-06
2.8285663e-06
2.7991535e-06
2.764962e-06
2.7258927e-06
2.6817055e-06
2.631886e-06
2.575431e-06
2.510598e-06
2.4344814e-06
2.3425037e-06
2.2279035e-06
2.0812417e-06
1.8905934e-06
1.6428399e-06
1.3266695e-06
9.3770612e-07
4.8122493e-07
2.1600628e-06
2.1590263e-06
2.1581829e-06
2.1571424e-06
2.1554306e-06
2.1525786e-06
2.1481954e-06
2.1419904e-06
2.1337687e-06
2.1233869e-06
2.1106991e-06
2.095489e-06
2.0773779e-06
2.0556971e-06
2.0292965e-06
1.9962755e-06
1.953638e-06
1.8968629e-06
1.8194923e-06
1.7128842e-06
1.5663615e-06
1.368538e-06
1.1099058e-06
7.8701511e-07
4.0470753e-07
1.8095151e-06
1.8119741e-06
1.8149993e-06
1.8183905e-06
1.8218956e-06
1.825251e-06
1.828215e-06
1.8305788e-06
1.8321609e-06
1.8327844e-06
1.8322366e-06
1.8302114e-06
1.8262237e-06
1.8194809e-06
1.8086935e-06
1.7918117e-06
1.7656921e-06
1.7257135e-06
1.6654148e-06
1.5763185e-06
1.4481639e-06
1.2701529e-06
1.0334411e-06
7.3508444e-07
3.8285795e-07
1.6750131e-06
1.6796472e-06
1.6850642e-06
1.6911343e-06
1.6976933e-06
1.704561e-06
1.7115561e-06
1.7185005e-06
1.7252142e-06
1.7314969e-06
1.7370955e-06
1.7416498e-06
1.7446071e-06
1.7450922e-06
1.7417157e-06
1.7323112e-06
1.7136012e-06
1.6808282e-06
1.627411e-06
1.5447967e-06
1.4227476e-06
1.2505731e-06
1.0196106e-06
7.2692653e-07
3.8244173e-07
1.64833e-06
1.6540483e-06
1.6606407e-06
1.668002e-06
1.6760026e-06
1.684497e-06
1.6933297e-06
1.7023365e-06
1.7113385e-06
1.720125e-06
1.728423e-06
1.7358433e-06
1.7417943e-06
1.7453485e-06
1.7450476e-06
1.7386354e-06
1.7227204e-06
1.692404e-06
1.6409422e-06
1.5596081e-06
1.4380103e-06
1.2653428e-06
1.0329081e-06
7.3782148e-07
3.9036359e-07
1.6735736e-06
1.6796632e-06
1.6866395e-06
1.6944071e-06
1.7028516e-06
1.7118441e-06
1.7212431e-06
1.7308938e-06
1.7406211e-06
1.7502126e-06
1.7593878e-06
1.7677436e-06
1.7746658e-06
1.7791926e-06
1.7798146e-06
1.7742021e-06
1.7588617e-06
1.7287541e-06
1.676955e-06
1.5945193e-06
1.4708181e-06
1.2948131e-06
1.0576292e-06
7.5628389e-07
4.009803e-07
1.7230102e-06
1.7290665e-06
1.735981e-06
1.7436636e-06
1.7520089e-06
1.7608985e-06
1.7702012e-06
1.7797707e-06
1.7894377e-06
1.7989928e-06
1.8081543e-06
1.8165128e-06
1.8234401e-06
1.8279486e-06
1.8284868e-06
1.8226592e-06
1.8068745e-06
1.775953e-06
1.7227804e-06
1.6381699e-06
1.5112114e-06
1.3305618e-06
1.0870439e-06
7.7741155e-07
4.1198694e-07
1.7833824e-06
1.7892025e-06
1.7958335e-06
1.8031902e-06
1.8111745e-06
1.8196764e-06
1.8285734e-06
1.8377274e-06
1.846976e-06
1.8561146e-06
1.8648633e-06
1.8728095e-06
1.8793144e-06
1.8833687e-06
1.8833822e-06
1.8768959e-06
1.8602211e-06
1.8280364e-06
1.7730302e-06
1.6857613e-06
1.5550165e-06
1.3691205e-06
1.1185812e-06
7.9998726e-07
4.2402765e-07
1.8485606e-06
1.8540562e-06
1.8603094e-06
1.8672397e-06
1.8747556e-06
1.8827548e-06
1.8911226e-06
1.8997287e-06
1.9084177e-06
1.9169901e-06
1.9251686e-06
1.9325386e-06
1.9384519e-06
1.9418788e-06
1.9411908e-06
1.9338661e-06
1.9161173e-06
1.8824783e-06
1.8254357e-06
1.735286e-06
1.6005037e-06
1.4090802e-06
1.1512547e-06
8.2365646e-07
4.3911518e-07
1.9157743e-06
1.9209167e-06
1.9267628e-06
1.9332374e-06
1.9402547e-06
1.9477195e-06
1.9555243e-06
1.9635461e-06
1.9716359e-06
1.9795993e-06
1.9871614e-06
1.9939057e-06
1.9991747e-06
2.0019181e-06
2.0004693e-06
1.9922426e-06
1.9733508e-06
1.9381805e-06
1.8790134e-06
1.7858785e-06
1.6469299e-06
1.4498132e-06
1.184458e-06
8.4734883e-07
4.5175897e-07
1.9837644e-06
1.9885528e-06
1.9939931e-06
2.0000148e-06
2.0065382e-06
2.0134739e-06
2.0207216e-06
2.0281645e-06
2.0356594e-06
2.0430169e-06
2.0499638e-06
2.0560812e-06
2.0607025e-06
2.062756e-06
2.0605365e-06
2.0513936e-06
2.0313392e-06
1.9946113e-06
1.9332855e-06
1.8371211e-06
1.6939486e-06
1.4910624e-06
1.2180792e-06
8.713499e-07
4.6529366e-07
2.0519134e-06
2.0563589e-06
2.0614071e-06
2.0669923e-06
2.0730401e-06
2.079467e-06
2.0861785e-06
2.0930639e-06
2.0999855e-06
2.1067576e-06
2.1131088e-06
2.1186174e-06
2.1226066e-06
2.1239832e-06
2.1210029e-06
2.1109498e-06
2.0897348e-06
2.051447e-06
1.9879566e-06
1.8887556e-06
1.7413533e-06
1.5326963e-06
1.2521045e-06
8.9579146e-07
4.7622819e-07
2.1198529e-06
2.1239707e-06
2.128645e-06
2.1338143e-06
2.1394093e-06
2.145352e-06
2.1515532e-06
2.1579077e-06
2.1642827e-06
2.1704958e-06
2.1762768e-06
2.1812006e-06
2.18458e-06
2.1852999e-06
2.1815762e-06
2.1706276e-06
2.1482635e-06
2.1084256e-06
2.0427812e-06
1.9405613e-06
1.7889631e-06
1.5745971e-06
1.2864988e-06
9.2081877e-07
4.9024774e-07
2.1872909e-06
2.1910974e-06
2.1954168e-06
2.2001917e-06
2.2053576e-06
2.2108411e-06
2.2165585e-06
2.2224093e-06
2.228265e-06
2.2339465e-06
2.239184e-06
2.2435487e-06
2.2463426e-06
2.2464282e-06
2.2419814e-06
2.2301554e-06
2.2066588e-06
2.1652874e-06
2.0975094e-06
1.9923023e-06
1.8365654e-06
1.6165993e-06
1.321199e-06
9.4647881e-07
5.0697658e-07
2.2539359e-06
2.2574474e-06
2.2614305e-06
2.2658321e-06
2.2705916e-06
2.2756406e-06
2.2808998e-06
2.2862734e-06
2.2916368e-06
2.2968134e-06
2.3015336e-06
2.3053649e-06
2.3075977e-06
2.307072e-06
2.3019236e-06
2.2892405e-06
2.2646313e-06
2.2217478e-06
2.1518624e-06
2.0437048e-06
1.8838849e-06
1.6584038e-06
1.3558167e-06
9.7212382e-07
5.2173822e-07
2.3194559e-06
2.3226881e-06
2.3263533e-06
2.3304017e-06
2.3347771e-06
2.3394151e-06
2.3442408e-06
2.3491627e-06
2.3540596e-06
2.3587574e-06
2.3629862e-06
2.3663091e-06
2.368005e-06
2.3668913e-06
2.3610638e-06
2.3475456e-06
2.3218466e-06
2.2774762e-06
2.2055144e-06
2.0944454e-06
1.9305908e-06
1.6996443e-06
1.3898904e-06
9.9715863e-07
5.358118e-07
2.383443e-06
2.3864115e-06
2.3897763e-06
2.3934913e-06
2.3975039e-06
2.4017538e-06
2.4061701e-06
2.4106651e-06
2.4151209e-06
2.4193651e-06
2.4231278e-06
2.425967e-06
2.4271502e-06
2.425472e-06
2.4189885e-06
2.4046589e-06
2.3778957e-06
2.3320685e-06
2.2580671e-06
2.1441328e-06
1.9762951e-06
1.7399233e-06
1.4229813e-06
1.0210729e-06
5.4876101e-07
2.4453643e-06
2.4480841e-06
2.451166e-06
2.4545669e-06
2.4582377e-06
2.462122e-06
2.4661524e-06
2.4702449e-06
2.4742844e-06
2.4781003e-06
2.4814217e-06
2.4838018e-06
2.4844967e-06
2.4822778e-06
2.4751626e-06
2.4600471e-06
2.4322484e-06
2.3849995e-06
2.3090039e-06
2.1922628e-06
2.0205142e-06
1.7787944e-06
1.4547296e-06
1.0437057e-06
5.606806e-07
2.5044809e-06
2.5069673e-06
2.5097835e-06
2.5128895e-06
2.5162395e-06
2.5197804e-06
2.5234485e-06
2.5271628e-06
2.5308109e-06
2.5342234e-06
2.5371285e-06
2.5390745e-06
2.5393054e-06
2.5365704e-06
2.5288486e-06
2.5129746e-06
2.4841731e-06
2.4355442e-06
2.3576111e-06
2.238142e-06
2.0625905e-06
1.8156682e-06
1.4846715e-06
1.0647824e-06
5.7144578e-07
2.5597182e-06
2.5619864e-06
2.5645543e-06
2.5673848e-06
2.570435e-06
2.5736551e-06
2.5769846e-06
2.5803452e-06
2.5836269e-06
2.5866614e-06
2.5891756e-06
2.5907124e-06
2.5905042e-06
2.5872783e-06
2.5789763e-06
2.5623739e-06
2.532607e-06
2.4826492e-06
2.4028529e-06
2.2807667e-06
2.1015793e-06
1.8497021e-06
1.5121181e-06
1.0837778e-06
5.8066073e-07
2.6094615e-06
2.6115269e-06
2.6138642e-06
2.6164388e-06
2.6192107e-06
2.6221329e-06
2.6251478e-06
2.6281797e-06
2.6311206e-06
2.6338029e-06
2.6359519e-06
2.6371052e-06
2.6364835e-06
2.6327928e-06
2.623939e-06
2.6066421e-06
2.575955e-06
2.5247349e-06
2.4431786e-06
2.3186398e-06
2.1360813e-06
1.8796767e-06
1.5361855e-06
1.1004043e-06
5.8865657e-07
2.6512531e-06
2.6531315e-06
2.6552561e-06
2.6575949e-06
2.6601104e-06
2.6627581e-06
2.6654831e-06
2.6682119e-06
2.6708381e-06
2.6731946e-06
2.6750048e-06
2.6758008e-06
2.6747921e-06
2.6706645e-06
2.6612908e-06
2.64334e-06
2.6117916e-06
2.5594018e-06
2.4762369e-06
2.349495e-06
2.1639717e-06
1.903685e-06
1.5552498e-06
1.1131836e-06
5.9250134e-07
2.6813687e-06
2.6830759e-06
2.685006e-06
2.6871292e-06
2.6894104e-06
2.6918074e-06
2.6942675e-06
2.6967193e-06
2.6990575e-06
2.7011151e-06
2.7026136e-06
2.7030798e-06
2.7017125e-06
2.6971792e-06
2.6873239e-06
2.6687728e-06
2.6364465e-06
2.5830245e-06
2.4984825e-06
2.3699221e-06
2.1820575e-06
1.9188649e-06
1.5669593e-06
1.1208384e-06
5.9563245e-07
2.6942651e-06
2.6958166e-06
2.69757e-06
2.6994976e-06
2.7015663e-06
2.7037361e-06
2.7059562e-06
2.7081569e-06
2.7102339e-06
2.71202e-06
2.7132347e-06
2.7134001e-06
2.7117059e-06
2.706805e-06
2.6965193e-06
2.6774457e-06
2.6444685e-06
2.5902295e-06
2.5046734e-06
2.3748952e-06
2.1856483e-06
1.921014e-06
1.5677478e-06
1.1203823e-06
5.9414692e-07
2.6819314e-06
2.6833419e-06
2.6849353e-06
2.6866857e-06
2.6885621e-06
2.6905265e-06
2.69253e-06
2.6945042e-06
2.6963457e-06
2.6978872e-06
2.6988468e-06
2.6987431e-06
2.6967602e-06
2.6915425e-06
2.680902e-06
2.6614275e-06
2.6280034e-06
2.5732923e-06
2.4872988e-06
2.3572418e-06
2.1680911e-06
1.9042495e-06
1.5528603e-06
1.1087624e-06
5.8723991e-07
2.6332512e-06
2.6345331e-06
2.6359804e-06
2.6375687e-06
2.6392689e-06
2.6410454e-06
2.6428514e-06
2.6446199e-06
2.6462486e-06
2.6475707e-06
2.6483041e-06
2.6479675e-06
2.6457452e-06
2.6402843e-06
2.6294071e-06
2.6097288e-06
2.5761904e-06
2.521563e-06
2.4360428e-06
2.3071601e-06
2.1203454e-06
1.8606102e-06
1.5157606e-06
1.0810874e-06
5.7161279e-07
2.5336058e-06
2.5347687e-06
2.5360795e-06
2.5375149e-06
2.539048e-06
2.540646e-06
2.542265e-06
2.5438407e-06
2.5452726e-06
2.5463959e-06
2.546932e-06
2.5464053e-06
2.5440114e-06
2.5384185e-06
2.527492e-06
2.5079285e-06
2.4748113e-06
2.4211483e-06
2.3375131e-06
2.2120028e-06
2.0308357e-06
1.7799972e-06
1.4482595e-06
1.0313401e-06
5.432755e-07
2.3651358e-06
2.3661864e-06
2.3673672e-06
2.3686541e-06
2.3700213e-06
2.3714387e-06
2.3728681e-06
2.3742497e-06
2.3754873e-06
2.3764238e-06
2.3767896e-06
2.3761266e-06
2.3736593e-06
2.3681035e-06
2.3574194e-06
2.3384695e-06
2.3066073e-06
2.2552569e-06
2.1756211e-06
2.0566972e-06
1.8859009e-06
1.650642e-06
1.3410844e-06
9.537807e-07
5.0187273e-07
2.1082707e-06
2.109217e-06
2.1102788e-06
2.1114269e-06
2.1126317e-06
2.1138586e-06
2.1150788e-06
2.1162421e-06
2.1172628e-06
2.118008e-06
2.118229e-06
2.1175034e-06
2.1151103e-06
2.1098481e-06
2.0998489e-06
2.0822607e-06
2.0528908e-06
2.0058155e-06
1.9331907e-06
1.8253238e-06
1.6713016e-06
1.4604482e-06
1.1847518e-06
8.4196708e-07
4.4426162e-07
1.7453533e-06
1.7462078e-06
1.747174e-06
1.7482148e-06
1.7492841e-06
1.7503158e-06
1.7512923e-06
1.7521796e-06
1.7529177e-06
1.753448e-06
1.7535509e-06
1.7528716e-06
1.7507785e-06
1.7461988e-06
1.7375473e-06
1.7223928e-06
1.6972451e-06
1.6571087e-06
1.5954882e-06
1.5044745e-06
1.3753211e-06
1.1997254e-06
9.7185396e-07
6.9090941e-07
3.6813791e-07
1.2674131e-06
1.2681802e-06
1.2690505e-06
1.2700043e-06
1.2709683e-06
1.2718018e-06
1.2724908e-06
1.2730207e-06
1.2733901e-06
1.273828e-06
1.2738601e-06
1.2733694e-06
1.2718771e-06
1.2685269e-06
1.2621684e-06
1.2508368e-06
1.2321077e-06
1.2021625e-06
1.156304e-06
1.0889084e-06
9.9385277e-07
8.6550103e-07
7.0028059e-07
4.9841397e-07
2.6812027e-07
6.827033e-07
6.8341289e-07
6.8403675e-07
6.8473902e-07
6.854533e-07
6.8599911e-07
6.8635774e-07
6.8653155e-07
6.867193e-07
6.8905459e-07
6.8921147e-07
6.8900352e-07
6.8831745e-07
6.8668193e-07
6.8349005e-07
6.7474503e-07
6.646128e-07
6.4816984e-07
6.2292798e-07
5.8598831e-07
5.3635375e-07
4.6645897e-07
3.7719826e-07
2.6962709e-07
1.4985887e-07
)
;

boundaryField
{
    Walls
    {
        type            kqRWallFunction;
        value           nonuniform List<scalar> 
38
(
5.781238e-06
2.6058492e-06
8.0081408e-06
3.7685395e-05
0.0002817124
0.0023619477
0.05624701
0.060957269
0.018412984
0.027413126
0.034513448
0.041614106
0.047454872
0.051337163
0.055538058
0.059300632
0.062071171
0.064629984
0.065992812
0.067719584
0.06913979
0.069207773
0.070124972
0.071785342
0.072485147
0.072372894
0.072334475
0.072507036
0.072465629
0.072554664
0.072919565
0.073290018
0.073127161
0.07293083
0.072898153
0.072831354
0.07192436
0.066663124
)
;
    }
    Inlet
    {
        type            turbulentIntensityKineticEnergyInlet;
        intensity       0.05;
        value           nonuniform List<scalar> 3(0.00842548 0.0079615177 0.0097234865);
    }
    Outlet
    {
        type            inletOutlet;
        inletValue      uniform 0;
        value           nonuniform List<scalar> 
86
(
0
0
0
0
0
0
0
0
0
0
0
0
0
0
0
0
0
0
0
0
0
0
0
0
0
0
0
0
0
0
0.0031261426
0.0032282863
0.0026315034
0
0
0
0
0.00020862404
0.00017019257
0.00011189617
0
0
0
0
0
1.9530411e-06
1.0904616e-06
6.716118e-07
4.8122493e-07
4.0470753e-07
3.8285795e-07
3.8244173e-07
3.9036359e-07
4.009803e-07
4.1198694e-07
4.2402765e-07
4.3911518e-07
4.5175897e-07
4.6529366e-07
0
0
0
0
0
0
0
0
0
0
0
0
0
0
0
0
0
0
0
0
0
0
0
0
0
0.0025710714
0.0032285128
)
;
    }
    Front
    {
        type            wedge;
    }
    Back
    {
        type            wedge;
    }
    defaultFaces
    {
        type            empty;
    }
}


// ************************************************************************* //
