/*--------------------------------*- C++ -*----------------------------------*\
| =========                 |                                                 |
| \\      /  F ield         | OpenFOAM: The Open Source CFD Toolbox           |
|  \\    /   O peration     | Version:  4.0                                   |
|   \\  /    A nd           | Web:      www.OpenFOAM.org                      |
|    \\/     M anipulation  |                                                 |
\*---------------------------------------------------------------------------*/
FoamFile
{
    version     2.0;
    format      ascii;
    class       surfaceScalarField;
    location    "0.31";
    object      phi;
}
// * * * * * * * * * * * * * * * * * * * * * * * * * * * * * * * * * * * * * //

dimensions      [0 3 -1 0 0 0 0];

internalField   nonuniform List<scalar> 
3364
(
1.4317499e-11
1.6333842e-08
-6.7004632e-10
4.8359446e-08
8.7141854e-08
-4.8184212e-10
1.6815659e-08
-1.5169005e-09
4.9394525e-08
8.562495e-08
-5.7594254e-10
1.739158e-08
-6.7020918e-10
4.9488812e-08
8.4954741e-08
-3.8882575e-11
1.7430406e-08
-1.8528862e-10
4.9635203e-08
8.476945e-08
3.2279476e-10
1.7107536e-08
-1.0191932e-09
5.0977128e-08
8.3750223e-08
3.9242089e-10
1.6715094e-08
-1.0539306e-09
5.2423419e-08
8.269625e-08
5.3426347e-11
1.6661654e-08
4.247071e-10
5.2052082e-08
8.3120916e-08
8.3562629e-11
1.6578042e-08
2.251878e-10
5.1910385e-08
8.3346062e-08
1.3831253e-10
1.6439688e-08
-6.6028317e-10
5.270894e-08
8.2685732e-08
-3.980982e-10
1.6837785e-08
-3.451527e-10
5.2655971e-08
8.2340528e-08
-2.5518747e-10
1.7092984e-08
-1.5206367e-10
5.2552833e-08
8.2188433e-08
1.8681221e-10
1.6906129e-08
4.1299476e-10
5.232662e-08
8.2601415e-08
-1.0124122e-10
1.7007309e-08
1.8367581e-10
5.2041654e-08
8.2785067e-08
2.3110773e-10
1.6776165e-08
-4.0756513e-10
5.2680304e-08
8.2377468e-08
6.0108054e-10
1.6175068e-08
1.6192053e-09
5.1662124e-08
8.3996609e-08
-6.4059e-11
1.6239088e-08
9.1761004e-10
5.0680375e-08
8.4914163e-08
-3.069052e-10
1.6545932e-08
-1.0692779e-10
5.0480335e-08
8.4807199e-08
-6.0126517e-11
1.6606011e-08
4.1834921e-10
5.0001849e-08
8.5225533e-08
-7.1678666e-11
1.6677667e-08
6.8050254e-11
4.9862095e-08
8.5293561e-08
1.413183e-10
1.6536324e-08
-1.0122189e-09
5.1015586e-08
8.428131e-08
1.9134558e-10
1.6344942e-08
-2.3200597e-10
5.1438903e-08
8.4049256e-08
-5.3917794e-10
1.6884101e-08
7.9415969e-10
5.0105535e-08
8.4843363e-08
-4.9844606e-10
1.73825e-08
-3.4298725e-10
4.9950019e-08
8.4500332e-08
-1.9345614e-10
1.7575903e-08
-1.018583e-09
5.0775091e-08
8.3481707e-08
-1.2069398e-10
1.7696553e-08
-1.8432738e-10
5.0838686e-08
8.3297343e-08
3.1989018e-10
1.7376622e-08
1.4194208e-10
5.1016601e-08
8.3439254e-08
7.6796797e-10
1.660862e-08
2.9391239e-10
5.1490617e-08
8.3733124e-08
2.8875909e-10
1.6319832e-08
-6.7127697e-11
5.1846491e-08
8.3665963e-08
-2.9859996e-10
1.661845e-08
-6.3010826e-11
5.1611004e-08
8.360297e-08
1.1287957e-09
1.5489858e-08
4.6370474e-09
4.8102895e-08
8.8240033e-08
1.1294874e-08
4.1943255e-09
4.8801772e-08
1.0594124e-08
1.022862e-08
1.2681059e-07
4.7498393e-09
-5.5598114e-10
1.6857599e-08
-1.5151203e-09
-1.7239877e-09
2.880834e-08
-4.1352419e-10
-1.4242227e-10
-1.5224156e-09
-4.0615675e-10
-5.9299285e-10
-2.6533057e-09
-1.1032798e-10
-3.2079298e-11
-4.1607916e-10
-1.0036987e-10
-1.7781429e-10
-8.3121852e-10
-1.3916949e-11
-1.8160798e-11
-6.172193e-11
-5.2560497e-11
-8.169977e-11
-1.5783063e-10
-4.4521821e-12
-1.3708375e-11
-1.9286452e-11
-3.7725553e-11
-5.3618948e-11
-4.73675e-11
-3.0776187e-12
-1.0630871e-11
-1.0893894e-11
-2.9909771e-11
-4.3365459e-11
-2.1147171e-11
-1.1949891e-12
-9.4357837e-12
-4.2697396e-12
-2.6834966e-11
-3.9888256e-11
-7.7466425e-12
-1.1320848e-12
-8.3035328e-12
-4.0100658e-12
-2.3956725e-11
-3.6050629e-11
-7.8472906e-12
-1.3009519e-12
-7.0024183e-12
-4.9623572e-12
-2.0295025e-11
-3.0919934e-11
-1.0092599e-11
-1.3118936e-12
-5.690378e-12
-5.0603555e-12
-1.6546285e-11
-2.5471189e-11
-1.0508679e-11
-1.1009193e-12
-4.5893417e-12
-4.2508442e-12
-1.3396144e-11
-2.0835141e-11
-8.8865666e-12
-8.0891832e-13
-3.7803379e-12
-3.1375557e-12
-1.106736e-11
-1.7304315e-11
-6.6681662e-12
-5.8718573e-13
-3.1930919e-12
-2.288383e-12
-9.3660663e-12
-1.4792202e-11
-4.8003662e-12
-4.3021846e-13
-2.7628312e-12
-1.6613204e-12
-8.1348989e-12
-1.2917989e-11
-3.5354564e-12
-3.3889539e-13
-2.4239062e-12
-1.3248116e-12
-7.1489362e-12
-1.138861e-11
-2.8541361e-12
-2.8080529e-13
-2.1430815e-12
-1.0948925e-12
-6.3348184e-12
-1.0146471e-11
-2.3370007e-12
-2.3198753e-13
-1.9110817e-12
-9.0459258e-13
-5.6621958e-12
-9.1166788e-12
-1.9343687e-12
-1.9027848e-13
-1.7207961e-12
-7.4510575e-13
-5.1073606e-12
-8.2556995e-12
-1.6060805e-12
-1.587282e-13
-1.5620642e-12
-6.2573848e-13
-4.6403493e-12
-7.5142861e-12
-1.3671556e-12
-1.3432666e-13
-1.4277363e-12
-5.2779469e-13
-4.2468851e-12
-6.8973085e-12
-1.1447824e-12
-1.1179476e-13
-1.315942e-12
-4.3855788e-13
-3.9201293e-12
-6.3855514e-12
-9.5032981e-13
-9.2511486e-14
-1.2234322e-12
-3.6440922e-13
-3.6482413e-12
-5.9583476e-12
-7.9163118e-13
-7.776107e-14
-1.1456736e-12
-3.0570732e-13
-3.4203063e-12
-5.5975201e-12
-6.6655513e-13
-6.6120157e-14
-1.0795565e-12
-2.6126804e-13
-3.2251705e-12
-5.2876956e-12
-5.7111401e-13
-5.7358755e-14
-1.0222011e-12
-2.2669445e-13
-3.0558474e-12
-5.0181086e-12
-4.9630333e-13
-5.0390492e-14
-9.7181406e-13
-1.990375e-13
-2.9072129e-12
-4.7810231e-12
-4.3614474e-13
-4.5049126e-14
-9.2676844e-13
-1.7755418e-13
-2.7747202e-12
-4.5681744e-12
-3.9042415e-13
-4.1674062e-14
-8.8509784e-13
-1.6283863e-13
-2.6535676e-12
-4.3734979e-12
-3.5753556e-13
-3.7314835e-14
-8.4778633e-13
-1.5031864e-13
-2.5405751e-12
-4.1905511e-12
-3.332847e-13
-3.4907114e-14
-8.1288238e-13
-1.3943801e-13
-2.4360548e-12
-4.0210334e-12
-3.0897368e-13
-3.2798387e-14
-7.8008696e-13
-1.3044499e-13
-2.338418e-12
-3.8621854e-12
-2.8930969e-13
-3.099979e-14
-7.4908993e-13
-1.2333879e-13
-2.2460881e-12
-3.7115256e-12
-2.7401392e-13
-2.9463309e-14
-7.1962917e-13
-1.1734372e-13
-2.1582161e-12
-3.5677663e-12
-2.6111708e-13
-2.8063855e-14
-6.9156766e-13
-1.1181709e-13
-2.0744704e-12
-3.4304816e-12
-2.4911452e-13
-2.6706724e-14
-6.6486306e-13
-1.0647629e-13
-1.9947078e-12
-3.2994437e-12
-2.3752557e-13
-2.5422641e-14
-6.3944236e-13
-1.0143878e-13
-1.9186979e-12
-3.1743032e-12
-2.2658956e-13
-2.4167776e-14
-6.1527633e-13
-9.6552665e-14
-1.8463185e-12
-3.0553432e-12
-2.1552178e-13
-2.2716902e-14
-5.9256099e-13
-9.0778814e-14
-1.7782616e-12
-2.9433065e-12
-2.0282377e-13
-2.1171252e-14
-5.7139114e-13
-8.4594152e-14
-1.7148432e-12
-2.838727e-12
-1.8918094e-13
-1.9547783e-14
-5.5184461e-13
-7.8116382e-14
-1.6562785e-12
-2.7420902e-12
-1.7475974e-13
-1.7827756e-14
-5.3401795e-13
-7.1286342e-14
-1.6028234e-12
-2.6538538e-12
-1.5952842e-13
-1.5973783e-14
-5.1804515e-13
-6.3966555e-14
-1.5548337e-12
-2.5746147e-12
-1.4321079e-13
-1.3945631e-14
-5.0410038e-13
-5.6176451e-14
-1.5126056e-12
-2.5049573e-12
-1.2583841e-13
-1.2041115e-14
-4.9206002e-13
-4.7778386e-14
-1.4768707e-12
-2.4459051e-12
-1.0683454e-13
-9.8725427e-15
-4.8218815e-13
-3.9281043e-14
-1.4474644e-12
-2.3972586e-12
-8.7931085e-14
-7.6292307e-15
-4.7455951e-13
-3.0373692e-14
-1.4247218e-12
-2.3596973e-12
-6.7938187e-14
-5.3177984e-15
-4.6924225e-13
-2.1146432e-14
-1.408895e-12
-2.3335681e-12
-4.727863e-14
-2.9386072e-15
-4.6630417e-13
-1.1862454e-14
-1.3999728e-12
-2.3188069e-12
-2.6626561e-14
-7.0564904e-16
-2.9740059e-15
-6.7490612e-15
1.3651042e-07
-9.7051237e-09
-8.78132e-09
1.4528546e-07
2.0832249e-08
-1.7302248e-09
-1.5202173e-09
1.3570617e-08
-3.721069e-09
-6.6232975e-10
-7.023837e-10
-4.538759e-09
-1.2739418e-09
-2.195555e-10
-2.413643e-10
-1.7348993e-09
-2.8615299e-10
-9.122385e-11
-8.0576817e-11
-4.4692535e-10
-8.3373466e-11
-5.5215137e-11
-4.0688723e-11
-1.2325748e-10
-3.0287943e-11
-4.6073017e-11
-3.7063308e-11
-3.3912192e-11
-9.393329e-12
-4.4425792e-11
-4.1183906e-11
-5.2723805e-12
-9.9708138e-12
-4.2301792e-11
-4.2549444e-11
-8.6048656e-12
-1.4704016e-11
-3.7689819e-11
-3.9774442e-11
-1.747843e-11
-1.6544493e-11
-3.1653464e-11
-3.4597604e-11
-2.1720708e-11
-1.4333245e-11
-2.6206363e-11
-2.9043764e-11
-1.988658e-11
-1.0909934e-11
-2.1964314e-11
-2.4714296e-11
-1.5239065e-11
-7.8073543e-12
-1.8957166e-11
-2.1622324e-11
-1.0899132e-11
-5.8262843e-12
-1.6666257e-11
-1.9264059e-11
-8.1844593e-12
-4.658774e-12
-1.4861574e-11
-1.7461708e-11
-6.4610873e-12
-3.8196578e-12
-1.3378892e-11
-1.5894968e-11
-5.3863825e-12
-3.1981132e-12
-1.2115139e-11
-1.4462776e-11
-4.6303064e-12
-2.7266509e-12
-1.0994572e-11
-1.3218737e-11
-3.9707018e-12
-2.3012843e-12
-1.0060455e-11
-1.2177744e-11
-3.3422992e-12
-1.9237028e-12
-9.2815527e-12
-1.1313385e-11
-2.7880895e-12
-1.5992693e-12
-8.632637e-12
-1.0587732e-11
-2.3249562e-12
-1.3388371e-12
-8.0854587e-12
-9.9692426e-12
-1.9573635e-12
-1.131804e-12
-7.6202398e-12
-9.4380037e-12
-1.6630828e-12
-9.7267857e-13
-7.2187065e-12
-8.9754143e-12
-1.4353091e-12
-8.4705231e-13
-6.8679891e-12
-8.5662661e-12
-1.2562419e-12
-7.4778387e-13
-6.5563811e-12
-8.1988385e-12
-1.1152521e-12
-6.709658e-13
-6.2758698e-12
-7.864264e-12
-1.0055795e-12
-6.1450412e-13
-6.0189301e-12
-7.5531092e-12
-9.2569627e-13
-5.7950833e-13
-5.7727338e-12
-7.2603394e-12
-8.723133e-13
-5.3660092e-13
-5.5451319e-12
-6.9863363e-12
-8.106366e-13
-5.0344641e-13
-5.3310186e-12
-6.7248428e-12
-7.6497002e-13
-4.7818475e-13
-5.1268693e-12
-6.4735516e-12
-7.2950334e-13
-4.567923e-13
-4.9312136e-12
-6.231601e-12
-6.9876767e-13
-4.3655985e-13
-4.7437858e-12
-5.9980978e-12
-6.7008528e-13
-4.1705425e-13
-4.5642729e-12
-5.7745456e-12
-6.4062647e-13
-3.9809588e-13
-4.3927807e-12
-5.5603903e-12
-6.122691e-13
-3.7873218e-13
-4.229583e-12
-5.3562448e-12
-5.828937e-13
-3.5692109e-13
-4.075497e-12
-5.1624565e-12
-5.5072375e-13
-3.3326236e-13
-3.9314258e-12
-4.9811397e-12
-5.1459203e-13
-3.079349e-13
-3.7982596e-12
-4.8133076e-12
-4.7577851e-13
-2.8118517e-13
-3.6766109e-12
-4.660265e-12
-4.3423796e-13
-2.5248354e-13
-3.5673452e-12
-4.5226904e-12
-3.900672e-13
-2.2182589e-13
-3.4713641e-12
-4.4017932e-12
-3.427312e-13
-1.8840219e-13
-3.389802e-12
-4.2986052e-12
-2.9159737e-13
-1.5529695e-13
-3.3224411e-12
-4.2135324e-12
-2.4037609e-13
-1.1988124e-13
-3.2705026e-12
-4.1479243e-12
-1.854951e-13
-8.3394083e-14
-3.2343913e-12
-4.1021192e-12
-1.2920457e-13
-4.701316e-14
-3.2140087e-12
-4.0764559e-12
-7.2681574e-14
-1.1938485e-14
-1.8309987e-14
-1.3815866e-11
1.3815931e-11
-2.7163081e-11
1.3336247e-11
-3.8831643e-11
1.1655078e-11
-4.8843713e-11
9.9995886e-12
-5.8931359e-11
1.0080746e-11
-7.1432838e-11
1.2497274e-11
-8.8559842e-11
1.7124689e-11
-1.1158709e-10
2.3026413e-11
-1.4064116e-10
2.9054338e-11
-1.7499551e-10
3.4355461e-11
-2.135037e-10
3.8509849e-11
-2.5473985e-10
4.123817e-11
-2.9716645e-10
4.242878e-11
-3.3987991e-10
4.2715672e-11
-3.8244104e-10
4.2563233e-11
-4.2438173e-10
4.1942613e-11
-4.6493571e-10
4.0555609e-11
-5.0310563e-10
3.8171235e-11
-5.3803353e-10
3.4928863e-11
-5.6890722e-10
3.0874312e-11
-5.9500393e-10
2.6097018e-11
-6.1583482e-10
2.0830965e-11
-6.309819e-10
1.5146987e-11
-6.3995433e-10
8.9722677e-12
2.4236168e-12
-5.2712731e-11
6.6532652e-11
-1.1273628e-10
7.3366179e-11
-1.7982299e-10
7.874932e-11
-2.5503326e-10
8.5217838e-11
-3.4178189e-10
9.6837422e-11
-4.4335952e-10
1.1408278e-10
-5.6174132e-10
1.3551402e-10
-6.974141e-10
1.5870625e-10
-8.4802032e-10
1.7966704e-10
-1.0107302e-09
1.9707119e-10
-1.1827003e-09
2.104852e-10
-1.3613757e-09
2.1991811e-10
-1.5451062e-09
2.2616324e-10
-1.7319392e-09
2.2955209e-10
-1.9194801e-09
2.3010693e-10
-2.1068199e-09
2.2928456e-10
-2.3037839e-09
2.375213e-10
-2.4914856e-09
2.2587405e-10
-2.6623203e-09
2.0576413e-10
-2.8114113e-09
1.7996541e-10
-2.9351955e-09
1.4988096e-10
-3.0310201e-09
1.166548e-10
-3.0965353e-09
8.0661195e-11
-3.1277471e-09
4.0182745e-11
1.0322907e-11
-1.3434683e-10
2.0088783e-10
-2.8863879e-10
2.2767142e-10
-4.6473482e-10
2.5486091e-10
-6.7067654e-10
2.9117565e-10
-9.1224719e-10
3.3842378e-10
-1.1914137e-09
3.9326404e-10
-1.509933e-09
4.5404685e-10
-1.9307604e-09
5.7954565e-10
-2.3874034e-09
6.3632045e-10
-2.8533806e-09
6.6305712e-10
-3.3146404e-09
6.7175217e-10
-3.7627487e-09
6.6803226e-10
-4.1912274e-09
6.546464e-10
-4.5940493e-09
6.3237729e-10
-4.9651894e-09
6.012493e-10
-5.298715e-09
5.628113e-10
-5.5794852e-09
5.1829179e-10
-5.8219332e-09
4.6832153e-10
-6.0300867e-09
4.1391637e-10
-6.2061702e-09
3.5604706e-10
-6.3521897e-09
2.9589792e-10
-6.4692029e-09
2.3366499e-10
-6.5572901e-09
1.687449e-10
-6.6186442e-09
1.0153309e-10
3.3686243e-11
-3.8678452e-10
5.876886e-10
-8.1327678e-10
6.5418828e-10
-1.3040463e-09
7.456574e-10
-2.097861e-09
1.0850149e-09
-2.9574916e-09
1.1980754e-09
-3.7768562e-09
1.2126459e-09
-4.5054635e-09
1.1826678e-09
-5.0494162e-09
1.1235091e-09
-5.4570289e-09
1.0439417e-09
-5.7441895e-09
9.5022418e-10
-5.9267338e-09
8.5430143e-10
-6.0166573e-09
7.5795922e-10
-6.0240973e-09
6.6208889e-10
-5.9508072e-09
5.5908883e-10
-5.8127904e-09
4.6323329e-10
-5.6273025e-09
3.7732371e-10
-5.4114629e-09
3.0245194e-10
-5.1822584e-09
2.3911634e-10
-4.95577e-09
1.8742705e-10
-4.7465175e-09
1.467933e-10
-4.5662067e-09
1.1558556e-10
-4.4229552e-09
9.0411742e-11
-4.3217107e-09
6.7498397e-11
-4.2661281e-09
4.5948278e-11
2.4659565e-11
-2.2271283e-09
2.8148433e-09
-3.9884898e-09
2.4155788e-09
-5.4915095e-09
2.2487051e-09
-6.175807e-09
1.7693321e-09
-6.2498338e-09
1.2721182e-09
-5.7843182e-09
7.471431e-10
-5.0224068e-09
4.2076707e-10
-4.0317493e-09
1.3286061e-10
-2.8780044e-09
-1.0979547e-10
-1.6229517e-09
-3.0482198e-10
-3.7973709e-10
-3.8890899e-10
8.5744293e-10
-4.7922157e-10
2.1615451e-09
-6.4201418e-10
3.5780697e-09
-8.5743545e-10
4.9627905e-09
-9.2148554e-10
6.2752756e-09
-9.3515749e-10
7.4928366e-09
-9.1510347e-10
8.6008014e-09
-8.6884113e-10
9.5891035e-09
-8.0086611e-10
1.0449942e-08
-7.1403515e-10
1.1175617e-08
-6.1007711e-10
1.1757294e-08
-4.9125186e-10
1.2184736e-08
-3.5992855e-10
1.2449176e-08
-2.1847586e-10
-6.5456886e-11
9.6565646e-10
1.8492721e-09
4.1591727e-09
-7.7788621e-10
7.8848903e-09
-1.4769419e-09
1.158121e-08
-1.9269574e-09
1.5311267e-08
-2.4579142e-09
1.8970725e-08
-2.9122865e-09
2.2569865e-08
-3.1783407e-09
2.5950537e-08
-3.247774e-09
2.9023189e-08
-3.1824041e-09
3.1764692e-08
-3.0462788e-09
3.424342e-08
-2.8675876e-09
3.6419824e-08
-2.655573e-09
3.8214351e-08
-2.4364865e-09
3.9585956e-08
-2.2289848e-09
4.067784e-08
-2.013314e-09
4.1541014e-08
-1.7982761e-09
4.2215568e-08
-1.5896017e-09
4.2735117e-08
-1.3883346e-09
4.3128891e-08
-1.1945848e-09
4.3422411e-08
-1.0074997e-09
4.363753e-08
-8.2514145e-10
4.3791503e-08
-6.4517007e-10
4.3896447e-08
-4.648188e-10
4.3959569e-08
-2.815446e-10
-8.9446861e-11
1.4941927e-07
-2.283321e-09
1.4803772e-07
6.0458419e-10
1.4543506e-07
1.1265126e-09
1.4192935e-07
1.5794442e-09
1.373433e-07
2.1287436e-09
1.3183613e-07
2.5954112e-09
1.257761e-07
2.8821394e-09
1.1955419e-07
2.9745203e-09
1.1343955e-07
2.9325614e-09
1.0758258e-07
2.8109774e-09
1.0205373e-07
2.6615213e-09
9.6903168e-08
2.495208e-09
9.21614e-08
2.3054808e-09
8.7828161e-08
2.1044324e-09
8.3914148e-08
1.9008594e-09
8.0416878e-08
1.6991395e-09
7.7325145e-08
1.5022648e-09
7.4625097e-08
1.3118369e-09
7.2302509e-08
1.1281168e-09
7.0344608e-08
9.5050634e-10
6.8741805e-08
7.7776119e-10
6.7488754e-08
6.0797386e-10
6.6585787e-08
4.3823622e-10
6.6038483e-08
2.6584399e-10
8.4951273e-11
1.2932656e-08
-1.6452375e-09
1.5310568e-08
-1.7732153e-09
1.7976025e-08
-1.5388295e-09
2.0729963e-08
-1.1743834e-09
2.3565478e-08
-7.0666474e-10
2.6502883e-08
-3.4189259e-10
2.9441892e-08
-5.6777113e-11
3.2224194e-08
1.9230653e-10
3.4815171e-08
3.4167242e-10
3.7176045e-08
4.5019093e-10
3.9265518e-08
5.72135e-10
4.0899083e-08
8.6172786e-10
4.2195407e-08
1.0092406e-09
4.322531e-08
1.0746103e-09
4.4031294e-08
1.0949555e-09
4.4650259e-08
1.080251e-09
4.5115946e-08
1.0366527e-09
4.5457924e-08
9.6993075e-10
4.5702506e-08
8.83605e-10
4.5872694e-08
7.8038594e-10
4.5988095e-08
6.6242629e-10
4.6064754e-08
5.3137759e-10
4.6114125e-08
3.8892755e-10
4.6143416e-08
2.3661209e-10
7.1919766e-11
-5.3050894e-09
-8.7891806e-10
-5.9935675e-09
-1.0847472e-09
-6.3470712e-09
-1.1853362e-09
-6.2851033e-09
-1.2363612e-09
-5.760468e-09
-1.2313081e-09
-4.9210476e-09
-1.1813189e-09
-3.8712295e-09
-1.1065984e-09
-2.6639078e-09
-1.0150156e-09
-1.4084261e-09
-9.138069e-10
-1.488086e-10
-8.0942188e-10
1.1280117e-09
-7.0467833e-10
2.5855859e-09
-5.9583701e-10
4.0848342e-09
-4.8999609e-10
5.5518974e-09
-3.9243916e-10
6.9510929e-09
-3.042245e-10
8.258822e-09
-2.274609e-10
9.475234e-09
-1.7974087e-10
1.0584862e-08
-1.3967767e-10
1.1575515e-08
-1.0702718e-10
1.2437285e-08
-8.1363043e-11
1.3161697e-08
-6.1964192e-11
1.3740798e-08
-4.7701932e-11
1.4166868e-08
-3.7121929e-11
1.4431438e-08
-2.7936502e-11
-1.6680453e-11
-2.3396801e-09
-2.7413859e-10
-3.1273625e-09
-2.9706737e-10
-3.9509072e-09
-3.617967e-10
-4.7500516e-09
-4.3722423e-10
-5.4698631e-09
-5.11506e-10
-6.0055755e-09
-6.4561703e-10
-6.4116857e-09
-7.0049938e-10
-6.6980652e-09
-7.2864744e-10
-6.8720272e-09
-7.3985628e-10
-6.9435903e-09
-7.3786994e-10
-6.9225649e-09
-7.2571432e-10
-6.8123836e-09
-7.0602832e-10
-6.6241585e-09
-6.7823051e-10
-6.3733444e-09
-6.4326182e-10
-6.0752973e-09
-6.022793e-10
-5.7453497e-09
-5.5741539e-10
-5.415087e-09
-5.1000964e-10
-5.0951821e-09
-4.5958808e-10
-4.7958206e-09
-4.0639345e-10
-4.5266395e-09
-3.5054852e-10
-4.2964996e-09
-2.9210785e-10
-4.1131376e-09
-2.3106746e-10
-3.982831e-09
-1.6743182e-10
-3.9093932e-09
-1.0137748e-10
-3.411879e-11
-6.4135149e-10
-7.9709813e-11
-8.680151e-10
-7.0401308e-11
-1.1456271e-09
-8.418292e-11
-1.4680312e-09
-1.1481931e-10
-1.8341402e-09
-1.4539712e-10
-2.2995384e-09
-1.8022007e-10
-2.7857462e-09
-2.1429411e-10
-3.2730283e-09
-2.4136906e-10
-3.7512286e-09
-2.6166067e-10
-4.2127563e-09
-2.7634776e-10
-4.6527311e-09
-2.8574592e-10
-5.0664825e-09
-2.9228395e-10
-5.4441285e-09
-3.00592e-10
-5.7624153e-09
-3.2498284e-10
-6.042142e-09
-3.2256071e-10
-6.2881995e-09
-3.1136622e-10
-6.5046637e-09
-2.9355386e-10
-6.6938135e-09
-2.7044681e-10
-6.8575408e-09
-2.4267458e-10
-6.9974106e-09
-2.1068716e-10
-7.1145647e-09
-1.7496226e-10
-7.2095919e-09
-1.3604854e-10
-7.2823588e-09
-9.467321e-11
-7.332677e-09
-5.1067593e-11
-1.1833009e-11
-1.8031501e-10
-2.2650854e-11
-2.4728684e-10
-3.427942e-12
-3.3724518e-10
5.7768546e-12
-4.5946247e-10
7.3991948e-12
-6.0134373e-10
-3.5149717e-12
-7.7031874e-10
-1.1244586e-11
-9.5904493e-10
-2.5567908e-11
-1.1596586e-09
-4.0755881e-11
-1.3674194e-09
-5.3900791e-11
-1.5781939e-09
-6.5574515e-11
-1.7903521e-09
-7.3589487e-11
-2.005569e-09
-7.7069178e-11
-2.2266409e-09
-7.9522591e-11
-2.47125e-09
-8.0376673e-11
-2.7142733e-09
-7.9540658e-11
-2.9484886e-09
-7.7154488e-11
-3.1687737e-09
-7.3272716e-11
-3.3711972e-09
-6.802737e-11
-3.5523683e-09
-6.1507796e-11
-3.7092166e-09
-5.3843402e-11
-3.8389695e-09
-4.5213998e-11
-3.9392492e-09
-3.577347e-11
-4.0082289e-09
-2.569818e-11
-4.0441938e-09
-1.5107316e-11
-4.289056e-12
-3.5232438e-11
-2.133013e-11
-3.4750945e-11
-3.9090248e-12
-4.000942e-11
1.1035654e-11
-5.3917584e-11
2.130759e-11
-8.3310342e-11
2.5877917e-11
-1.211138e-10
2.6558887e-11
-1.6876268e-10
2.2080876e-11
-2.2659997e-10
1.7081185e-11
-2.9084168e-10
1.0340579e-11
-3.5900899e-10
2.5923331e-12
-4.2868678e-10
-3.9122615e-12
-4.9895194e-10
-6.8046947e-12
-5.6923887e-10
-9.2364285e-12
-6.387218e-10
-1.0894613e-11
-7.0651446e-10
-1.1748963e-11
-7.717493e-10
-1.1920711e-11
-8.3344415e-10
-1.1579011e-11
-8.9057822e-10
-1.0894511e-11
-9.4214696e-10
-9.9403236e-12
-9.8716334e-10
-8.828323e-12
-1.0247679e-09
-7.6107334e-12
-1.0542619e-09
-6.2808105e-12
-1.0750633e-09
-4.898053e-12
-1.0869164e-09
-3.2554818e-12
-1.0587943e-12
4.9405087e-12
-3.1542684e-11
2.0304471e-11
-1.9272701e-11
3.7915922e-11
-6.5755672e-12
5.5593942e-11
3.6297533e-12
7.0289327e-11
1.1182682e-11
8.1086193e-11
1.5762148e-11
8.5469601e-11
1.7697575e-11
8.555204e-11
1.6998834e-11
8.3166301e-11
1.2726388e-11
7.7460565e-11
8.2981241e-12
6.9873705e-11
3.6746397e-12
6.2321987e-11
7.4705393e-13
5.5288953e-11
-2.2033697e-12
4.9242106e-11
-4.8477446e-12
4.4196232e-11
-6.7030657e-12
4.0103268e-11
-7.8277182e-12
3.6972413e-11
-8.4481201e-12
3.4696333e-11
-8.6183839e-12
3.3004893e-11
-8.2488255e-12
3.1731512e-11
-7.5548729e-12
3.0751008e-11
-6.6301474e-12
2.9976965e-11
-5.5066729e-12
2.9291264e-11
-4.212243e-12
2.8760569e-11
-2.7246621e-12
-1.0718015e-12
-1.7954584e-12
-3.8351786e-11
9.7149099e-12
-3.0782771e-11
2.4858722e-11
-2.1719099e-11
4.1722267e-11
-1.3233527e-11
5.8928896e-11
-6.0236939e-12
7.5318169e-11
-6.2687779e-13
9.0277545e-11
2.7384427e-12
1.0321227e-10
4.0643566e-12
1.1271872e-10
3.2201706e-12
1.1897389e-10
2.0432033e-12
1.2382867e-10
-1.1798986e-12
1.2834441e-10
-3.7684464e-12
1.3248329e-10
-6.3420026e-12
1.3623522e-10
-8.59942e-12
1.3956185e-10
-1.0029439e-11
1.4250267e-10
-1.0768274e-11
1.4553201e-10
-1.1477193e-11
1.486073e-10
-1.1693389e-11
1.5167293e-10
-1.1314166e-11
1.5458757e-10
-1.0469221e-11
1.5728758e-10
-9.3298543e-12
1.594432e-10
-7.6619926e-12
1.6091189e-10
-5.6806348e-12
1.6164312e-10
-3.4555961e-12
-1.1377358e-12
-1.7467772e-11
-3.8362226e-11
-1.4330301e-11
-3.3920017e-11
-8.2527603e-12
-2.7796414e-11
-4.0436618e-13
-2.1081698e-11
7.9273555e-12
-1.4355196e-11
1.6377493e-11
-9.0768011e-12
2.4552252e-11
-5.436107e-12
3.1739096e-11
-3.1222846e-12
3.6767867e-11
-1.8084037e-12
3.9872023e-11
-1.0607633e-12
4.0683719e-11
-1.9914129e-12
4.0271358e-11
-3.3559113e-12
3.9167317e-11
-5.2377946e-12
3.7303787e-11
-6.7357309e-12
3.5269568e-11
-7.9950648e-12
3.3154208e-11
-8.6527634e-12
3.0508403e-11
-8.8312423e-12
2.8145836e-11
-9.3306795e-12
2.6096012e-11
-9.2642032e-12
2.4315432e-11
-8.688506e-12
2.280885e-11
-7.8231417e-12
2.17425e-11
-6.5955173e-12
2.1133549e-11
-5.0715642e-12
2.0922319e-11
-3.2442511e-12
-1.1710771e-12
-2.5799334e-11
-3.4283483e-11
-2.8086561e-11
-3.1632658e-11
-2.8623253e-11
-2.7259584e-11
-2.766688e-11
-2.2037933e-11
-2.5433008e-11
-1.6588933e-11
-2.3559644e-11
-1.0950035e-11
-2.2247987e-11
-6.7476418e-12
-2.1262215e-11
-4.1079449e-12
-2.1172408e-11
-1.8981091e-12
-2.1750281e-11
-4.8280016e-13
-2.3765626e-11
2.4009775e-14
-2.7486634e-11
3.6516141e-13
-3.2442934e-11
-2.8144289e-13
-3.8157854e-11
-1.020771e-12
-4.3903244e-11
-2.249647e-12
-4.9633686e-11
-2.9223034e-12
-5.5125856e-11
-3.3390627e-12
-6.0676074e-11
-3.7804608e-12
-6.5894309e-11
-4.0459753e-12
-7.0553409e-11
-4.0294187e-12
-7.4663359e-11
-3.7132106e-12
-7.8132258e-11
-3.1266429e-12
-8.0896755e-11
-2.3070977e-12
-8.2864634e-11
-1.2764021e-12
-2.6104185e-13
-2.4757873e-11
-2.9412152e-11
-2.857544e-11
-2.7815033e-11
-3.126066e-11
-2.4574294e-11
-3.2935108e-11
-2.0363413e-11
-3.3858602e-11
-1.5665368e-11
-3.4016431e-11
-1.0792138e-11
-3.3975922e-11
-6.788091e-12
-3.5192135e-11
-2.8916788e-12
-3.6523374e-11
-5.6682721e-13
-3.8421507e-11
1.4153651e-12
-4.1317764e-11
2.9202879e-12
-4.4801455e-11
3.8488615e-12
-4.9171965e-11
4.0890643e-12
-5.406508e-11
3.8723315e-12
-5.9595205e-11
3.2804542e-12
-6.5201829e-11
2.6842879e-12
-7.0808594e-11
2.2676607e-12
-7.6322949e-11
1.7338448e-12
-8.1359402e-11
9.9042234e-13
-8.5894331e-11
5.0544795e-13
-8.9811135e-11
2.0352718e-13
-9.29959e-11
5.8050824e-14
-9.5361324e-11
5.8250717e-14
-9.6687944e-11
5.0143226e-14
-3.9805328e-14
-1.9162857e-11
-2.5488377e-11
-2.2423948e-11
-2.4553933e-11
-2.4850138e-11
-2.2148079e-11
-2.649778e-11
-1.8715738e-11
-2.7489959e-11
-1.4673151e-11
-2.7739921e-11
-1.0542137e-11
-2.7960703e-11
-6.5672732e-12
-2.7848554e-11
-3.003795e-12
-2.8370664e-11
-4.4691032e-14
-2.9254731e-11
2.2994514e-12
-3.0500433e-11
4.1660024e-12
-3.2318467e-11
5.6668996e-12
-3.4636449e-11
6.4070428e-12
-3.7411003e-11
6.6468737e-12
-4.0710133e-11
6.5795643e-12
-4.4315387e-11
6.2895151e-12
-4.7912142e-11
5.8643818e-12
-5.1439313e-11
5.2609766e-12
-5.4941117e-11
4.4921811e-12
-5.8159577e-11
3.7238568e-12
-6.0952304e-11
2.9962e-12
-6.3234373e-11
2.34006e-12
-6.5050378e-11
1.8741922e-12
-6.6064262e-11
1.0639648e-12
-4.5695382e-14
-1.3744586e-11
-2.2642991e-11
-1.6002545e-11
-2.2296007e-11
-1.7558709e-11
-2.0591926e-11
-1.8392469e-11
-1.7881972e-11
-1.8402923e-11
-1.4662681e-11
-1.798175e-11
-1.0963288e-11
-1.7201792e-11
-7.3472059e-12
-1.6267168e-11
-3.9383948e-12
-1.5404466e-11
-9.0736905e-13
-1.4757431e-11
1.6524371e-12
-1.4206522e-11
3.6151108e-12
-1.3863655e-11
5.3240459e-12
-1.4038046e-11
6.5814426e-12
-1.4573385e-11
7.1822158e-12
-1.5540782e-11
7.5469586e-12
-1.688471e-11
7.6334355e-12
-1.8498667e-11
7.4783268e-12
-2.0195538e-11
6.9578307e-12
-2.1944912e-11
6.241533e-12
-2.3615821e-11
5.3947385e-12
-2.5094558e-11
4.4749067e-12
-2.6217289e-11
3.4627562e-12
-2.6560545e-11
2.2174103e-12
-2.6773736e-11
1.2771195e-12
6.9410401e-13
-1.0173334e-11
-2.0654232e-11
-1.1755517e-11
-2.07139e-11
-1.275764e-11
-1.9589852e-11
-1.3069712e-11
-1.7569927e-11
-1.2852147e-11
-1.4880258e-11
-1.1721266e-11
-1.209417e-11
-1.0204765e-11
-8.8636995e-12
-8.4590797e-12
-5.6840685e-12
-6.6050379e-12
-2.7613967e-12
-4.7884216e-12
-1.6416409e-13
-3.2222542e-12
2.048958e-12
-1.7944568e-12
3.8962616e-12
-5.8353972e-13
5.3705366e-12
2.7336251e-13
6.325322e-12
9.6391426e-13
6.8564123e-12
1.2805046e-12
7.3168475e-12
1.2994083e-12
7.459422e-12
1.0627778e-12
7.1944566e-12
6.984007e-13
6.605902e-12
2.6890489e-13
5.8242229e-12
-2.1739046e-13
4.9611876e-12
-7.1921475e-13
3.9645626e-12
-1.4780063e-12
2.9761807e-12
-1.9506076e-12
1.7497031e-12
3.5632671e-13
-8.1028603e-12
-1.9012608e-11
-9.4565421e-12
-1.9360336e-11
-1.032746e-11
-1.8719021e-11
-1.0550176e-11
-1.7347273e-11
-1.0052801e-11
-1.5377675e-11
-9.1960183e-12
-1.2950982e-11
-7.7306802e-12
-1.0329055e-11
-5.6747239e-12
-7.7400347e-12
-3.5901097e-12
-4.8460152e-12
-1.3899921e-12
-2.3642822e-12
7.6954293e-13
-1.1057519e-13
2.848844e-12
1.8169635e-12
4.8089535e-12
3.4104305e-12
6.4949494e-12
4.6393291e-12
7.8258607e-12
5.5255032e-12
9.004184e-12
6.1385251e-12
1.0037477e-11
6.4261283e-12
1.0837326e-11
6.3946054e-12
1.1400811e-11
6.0424119e-12
1.1789484e-11
5.4355436e-12
1.2042745e-11
4.7079187e-12
1.2214227e-11
3.7930692e-12
1.2574849e-11
2.6155456e-12
1.2677676e-11
1.6468671e-12
8.2217579e-13
-6.9265035e-12
-1.7472634e-11
-8.1982828e-12
-1.8088689e-11
-8.9895361e-12
-1.792788e-11
-9.3109775e-12
-1.7025922e-11
-9.0893126e-12
-1.5599411e-11
-8.3318855e-12
-1.3708463e-11
-7.1394418e-12
-1.1521541e-11
-5.6364782e-12
-9.24303e-12
-3.6482407e-12
-6.8342767e-12
-1.4715485e-12
-4.5409923e-12
7.6368987e-13
-2.345827e-12
2.9817391e-12
-4.0109578e-13
5.1440812e-12
1.2480806e-12
7.1607888e-12
2.6226154e-12
8.9926242e-12
3.6936625e-12
1.0674203e-11
4.4569409e-12
1.2179263e-11
4.9210634e-12
1.3477734e-11
5.0961289e-12
1.4527098e-11
4.9930419e-12
1.5320318e-11
4.6423167e-12
1.5938321e-11
4.0899073e-12
1.6391689e-11
3.3396924e-12
1.6528045e-11
2.479178e-12
1.6634509e-11
1.5403968e-12
5.4398867e-13
-6.0506063e-12
-1.6052469e-11
-7.1949534e-12
-1.6944468e-11
-8.0024849e-12
-1.7120463e-11
-8.393393e-12
-1.6635115e-11
-8.4110293e-12
-1.558186e-11
-7.9679842e-12
-1.4151579e-11
-7.0813699e-12
-1.2408213e-11
-5.87717e-12
-1.0447277e-11
-4.2823114e-12
-8.429174e-12
-2.4380938e-12
-6.3852414e-12
-3.8999163e-13
-4.393955e-12
1.7676122e-12
-2.5587207e-12
3.9245383e-12
-9.0886276e-13
5.9637139e-12
5.8342536e-13
7.9716618e-12
1.6857024e-12
9.8460384e-12
2.5825537e-12
1.1565019e-11
3.2020736e-12
1.310452e-11
3.5566179e-12
1.4430552e-11
3.6670015e-12
1.5530478e-11
3.5423821e-12
1.641616e-11
3.2042163e-12
1.7063019e-11
2.6928223e-12
1.7507104e-11
2.0350827e-12
1.7813323e-11
1.2341716e-12
3.9449723e-13
-5.1810573e-12
-1.4842238e-11
-6.2304703e-12
-1.5895172e-11
-7.0356418e-12
-1.63154e-11
-7.5147847e-12
-1.615607e-11
-7.6153348e-12
-1.5481397e-11
-7.4029542e-12
-1.4364035e-11
-6.7779619e-12
-1.303327e-11
-5.8058353e-12
-1.1419458e-11
-4.526374e-12
-9.7086812e-12
-2.9808842e-12
-7.93077e-12
-1.2032288e-12
-6.171643e-12
7.1626587e-13
-4.4782429e-12
2.7169079e-12
-2.909528e-12
4.8043962e-12
-1.5040826e-12
6.8096677e-12
-3.1958566e-13
8.6857213e-12
7.064856e-13
1.0478211e-11
1.4095717e-12
1.2127571e-11
1.9072454e-12
1.3596308e-11
2.1982543e-12
1.4859612e-11
2.2790677e-12
1.5903934e-11
2.1598852e-12
1.670803e-11
1.8887157e-12
1.723133e-11
1.5117723e-12
1.7532045e-11
9.3345091e-13
1.8761241e-13
-4.3722339e-12
-1.3812417e-11
-5.3083378e-12
-1.4959179e-11
-6.0811204e-12
-1.554272e-11
-6.5658401e-12
-1.5671444e-11
-6.7495859e-12
-1.5297735e-11
-6.5774581e-12
-1.4536237e-11
-6.1631013e-12
-1.3447691e-11
-5.379577e-12
-1.2203038e-11
-4.3240553e-12
-1.0764251e-11
-3.012962e-12
-9.2419048e-12
-1.4824848e-12
-7.7021558e-12
2.2805029e-13
-6.1888085e-12
2.0707074e-12
-4.7522111e-12
3.987294e-12
-3.4206914e-12
5.9013532e-12
-2.2336638e-12
7.8188598e-12
-1.2110372e-12
9.6256908e-12
-3.9727326e-13
1.1278331e-11
2.5459242e-13
1.2790047e-11
6.8652783e-13
1.4114958e-11
9.5414682e-13
1.524939e-11
1.0254433e-12
1.6169392e-11
9.6870432e-13
1.6889413e-11
7.9174074e-13
1.7315132e-11
5.0772726e-13
1.5052654e-13
-3.6608943e-12
-1.293971e-11
-4.4720973e-12
-1.4148072e-11
-5.1331389e-12
-1.488177e-11
-5.6188523e-12
-1.5185817e-11
-5.8348267e-12
-1.508184e-11
-5.7659833e-12
-1.4605151e-11
-5.3879205e-12
-1.3825817e-11
-4.7884801e-12
-1.2802534e-11
-3.8903821e-12
-1.1662397e-11
-2.7501059e-12
-1.0382223e-11
-1.4188048e-12
-9.0334933e-12
9.2471608e-14
-7.7001163e-12
1.7322774e-12
-6.392044e-12
3.4657679e-12
-5.1542051e-12
5.2523372e-12
-4.020253e-12
7.0434082e-12
-3.002125e-12
8.7688687e-12
-2.1227482e-12
1.0413356e-11
-1.3899072e-12
1.1920398e-11
-8.2052513e-13
1.3270269e-11
-3.9573358e-13
1.4418591e-11
-1.2288789e-13
1.5363047e-11
2.4239502e-14
1.6090883e-11
6.3896622e-14
1.6519876e-11
7.8731073e-14
1.5796072e-14
-3.0721313e-12
-1.219262e-11
-3.7727154e-12
-1.3447571e-11
-4.3561676e-12
-1.4298398e-11
-4.7867281e-12
-1.4755332e-11
-5.0151109e-12
-1.4853528e-11
-4.9982018e-12
-1.4622125e-11
-4.7293797e-12
-1.4094697e-11
-4.191802e-12
-1.3340164e-11
-3.4664376e-12
-1.2387809e-11
-2.5009933e-12
-1.1347709e-11
-1.3304578e-12
-1.0204065e-11
-7.8849528e-15
-9.0227206e-12
1.4458853e-12
-7.8458415e-12
2.9846724e-12
-6.6930155e-12
4.5864159e-12
-5.6220166e-12
6.2048254e-12
-4.6205515e-12
7.7973074e-12
-3.7152445e-12
9.3328216e-12