/*--------------------------------*- C++ -*----------------------------------*\
| =========                 |                                                 |
| \\      /  F ield         | OpenFOAM: The Open Source CFD Toolbox           |
|  \\    /   O peration     | Version:  4.0                                   |
|   \\  /    A nd           | Web:      www.OpenFOAM.org                      |
|    \\/     M anipulation  |                                                 |
\*---------------------------------------------------------------------------*/
FoamFile
{
    version     2.0;
    format      ascii;
    class       volVectorField;
    location    "0.31";
    object      U;
}
// * * * * * * * * * * * * * * * * * * * * * * * * * * * * * * * * * * * * * //

dimensions      [0 1 -1 0 0 0 0];

internalField   nonuniform List<vector> 
1740
(
(1.497205 0.0007789682 4.8460768e-06)
(1.4445022 -0.010396995 7.4042905e-07)
(1.6057338 -0.0065196013 3.9641042e-08)
(1.5026462 -0.013129563 8.3267097e-06)
(1.5268122 -0.030999237 1.6103287e-06)
(1.5993633 -0.018766117 2.9064741e-07)
(1.5919816 -0.011416269 1.0468643e-05)
(1.5051424 -0.021483191 2.3703741e-06)
(1.5170856 -0.01224731 4.4635043e-07)
(1.6043638 0.0062320902 1.2669939e-05)
(1.5233283 -0.0025117841 2.9860561e-06)
(1.593728 -0.0099228195 5.2047252e-07)
(1.5936125 0.0090948389 1.4550383e-05)
(1.5209186 -0.0055605257 4.192547e-06)
(1.5783923 -0.011568241 8.1950222e-07)
(1.5648263 0.0054598688 1.6049437e-05)
(1.5934237 -0.0034737401 4.8744829e-06)
(1.4884761 -0.0082259759 9.7697431e-07)
(1.4962315 0.0013008731 1.6795843e-05)
(1.614769 0.0081824496 5.677974e-06)
(1.5135171 0.0035079171 1.1262499e-06)
(1.5273528 0.00017604271 1.7701975e-05)
(1.5483127 0.0072944156 6.3203557e-06)
(1.5363501 -0.0015423718 1.3499148e-06)
(1.5211236 -0.0037640961 1.8589719e-05)
(1.6281309 -0.0039098533 7.0435055e-06)
(1.5266854 -0.0033139098 1.5107402e-06)
(1.505929 -0.011403234 1.9651265e-05)
(1.6012059 -0.010565087 7.7694868e-06)
(1.513946 -0.0030109435 1.7105452e-06)
(1.5595916 0.0018286213 1.9763491e-05)
(1.5805839 -0.0098291195 8.2329889e-06)
(1.4793198 -0.0065091091 1.9093956e-06)
(1.6037394 0.013799599 1.9631486e-05)
(1.6767605 0.0074407622 8.8736048e-06)
(1.545935 -0.0031298494 2.0523235e-06)
(1.5183413 -0.0032101558 1.9942244e-05)
(1.5672906 0.0021555058 9.3763193e-06)
(1.550965 -0.0016185746 2.3362561e-06)
(1.5560165 -0.002022236 2.0389736e-05)
(1.5554586 0.00024248759 9.9014359e-06)
(1.4368458 0.00015367598 2.5134765e-06)
(1.5221966 0.0070875449 2.0629451e-05)
(1.6375293 0.039517077 1.0319657e-05)
(1.5212811 0.024719319 2.6788258e-06)
(1.4251599 -0.0063970214 2.0449585e-05)
(1.5338512 0.016495772 1.0802875e-05)
(1.6031948 0.013293984 2.8533051e-06)
(1.5493642 -0.011342509 2.0464597e-05)
(1.5675127 -0.0068643179 1.1136155e-05)
(1.5391671 -0.0024773514 3.0242334e-06)
(1.5625551 0.0041582637 2.0734428e-05)
(1.5723095 -0.00054727386 1.1688114e-05)
(1.5855036 -0.0016347976 3.2413963e-06)
(1.4861239 7.0973942e-05 2.150756e-05)
(1.4905105 -0.003771388 1.2039131e-05)
(1.570114 -0.0047364752 3.3870091e-06)
(1.5176387 0.00054218028 2.1967511e-05)
(1.5090023 -0.009757218 1.2417821e-05)
(1.5276119 -0.01038125 3.6026627e-06)
(1.5088398 0.0035815848 2.1959667e-05)
(1.5910087 -0.00096966625 1.2742417e-05)
(1.5260889 0.0011488064 3.7885966e-06)
(1.4939735 -0.015092216 2.1923732e-05)
(1.5720556 0.0015098149 1.314568e-05)
(1.5611419 0.0083325219 3.9457179e-06)
(1.5971876 -0.010273989 2.1849505e-05)
(1.4945929 -0.010371389 1.3424506e-05)
(1.577073 -0.0031557622 4.1322503e-06)
(1.5979247 -0.0079190042 2.2221599e-05)
(1.5548238 -0.015630003 1.3881598e-05)
(1.523968 -0.0059330876 4.2471103e-06)
(1.6217886 -0.0080558093 2.2517026e-05)
(1.5583964 -0.0041559651 1.4174314e-05)
(1.5281722 -0.00019471546 4.4295519e-06)
(1.6021984 0.00962562 2.2780219e-05)
(1.5112199 0.0070054496 1.4446959e-05)
(1.4944859 0.00046978843 4.5876138e-06)
(1.5217218 0.025253646 2.2689453e-05)
(1.5326126 0.017579199 1.470439e-05)
(1.4964669 0.0016847505 4.7329448e-06)
(1.4682338 0.010108358 2.2633138e-05)
(1.5826038 0.0027802548 1.5042244e-05)
(1.5544492 -0.0042035231 4.8641455e-06)
(1.3622804 -0.0053855972 2.1964909e-05)
(1.4679483 -0.012261393 1.5184624e-05)
(1.4814484 -0.0011122157 4.9295013e-06)
(1.2729542 0.028873853 2.3045694e-05)
(1.2888784 0.084378411 1.573388e-05)
(1.3426789 0.047241753 5.5481195e-06)
(0.82608609 0.36936907 1.1418504e-05)
(0.80979662 0.93266778 9.9191355e-06)
(0.74244227 1.2531214 5.4053267e-06)
(0.21382585 0.10868405 1.4893585e-06)
(0.18289007 0.3635808 3.0712292e-06)
(0.082330392 0.49533947 7.0599824e-07)
(-0.032498702 -0.014358591 1.2331853e-06)
(-0.030129242 -0.029374173 1.6863546e-06)
(-0.021860632 -0.034601505 6.0057749e-07)
(-0.0083744454 -0.0032655709 4.5834655e-07)
(-0.0082932418 -0.0083073045 7.4627314e-07)
(-0.0074645135 -0.011118112 3.5545043e-07)
(-0.0024439994 -0.00033009007 1.2524688e-07)
(-0.0024819545 -0.0010640103 2.5774304e-07)
(-0.0025133307 -0.0018320559 1.3026317e-07)
(-0.0016569192 -0.00012872034 2.9867861e-08)
(-0.0015918556 -0.00030510513 6.8399579e-08)
(-0.001438134 -0.00054877985 1.5017755e-08)
(-0.0011956924 -9.789796e-05 3.78828e-10)
(-0.0011267088 -0.00019849113 4.0740321e-10)
(-0.00097047988 -0.00029133236 -3.0999403e-08)
(-0.00093277345 -4.1625235e-05 -9.241839e-09)
(-0.0008821217 -7.6846763e-05 -2.136585e-08)
(-0.00076455356 -0.00011184898 -4.3531432e-08)
(-0.00078046296 -3.8343419e-05 -9.7814829e-09)
(-0.00074360117 -7.1828008e-05 -2.3589286e-08)
(-0.00065768042 -0.00010802079 -4.0186562e-08)
(-0.00066546496 -4.1099585e-05 -7.2457008e-09)
(-0.00063898962 -8.7328386e-05 -1.8657759e-08)
(-0.00057671394 -0.00013696254 -3.1026898e-08)
(-0.00056003439 -4.039632e-05 -4.5238557e-09)
(-0.00054095792 -9.0139248e-05 -1.267751e-08)
(-0.00049579986 -0.000138527 -2.1539392e-08)
(-0.00046524624 -3.3440284e-05 -2.6916708e-09)
(-0.0004514978 -7.5819947e-05 -8.0189721e-09)
(-0.00041853938 -0.00011702133 -1.3985653e-08)
(-0.00038572165 -2.4892809e-05 -1.6966547e-09)
(-0.00037568834 -5.5887032e-05 -4.9854183e-09)
(-0.00035126892 -8.7367817e-05 -8.7361483e-09)
(-0.00032228133 -1.8216363e-05 -1.1500288e-09)
(-0.00031483517 -4.0742733e-05 -3.1165432e-09)
(-0.00029646911 -6.3212216e-05 -5.3321944e-09)
(-0.00027372824 -1.3468453e-05 -8.0124152e-10)
(-0.00026816099 -2.9710453e-05 -1.9553378e-09)
(-0.00025420603 -4.6440919e-05 -3.1900505e-09)
(-0.00023712078 -1.0696171e-05 -5.4814653e-10)
(-0.00023293479 -2.359341e-05 -1.2076837e-09)
(-0.00022219941 -3.7456365e-05 -1.8593751e-09)
(-0.0002087112 -8.8859036e-06 -3.4913305e-10)
(-0.00020550865 -1.9468673e-05 -7.1265977e-10)
(-0.0001970812 -3.0716334e-05 -1.0430471e-09)
(-0.0001855646 -7.3322672e-06 -2.1192348e-10)
(-0.00018307776 -1.6128138e-05 -3.9801522e-10)
(-0.00017636585 -2.5349088e-05 -5.5711864e-10)
(-0.00016628366 -6.0164145e-06 -1.2822562e-10)
(-0.00016435132 -1.326134e-05 -2.1517311e-10)
(-0.00015897939 -2.1022911e-05 -2.8266504e-10)
(-0.000150286 -5.0164905e-06 -8.2604101e-11)
(-0.00014878218 -1.1128786e-05 -1.1773129e-10)
(-0.00014444585 -1.7839821e-05 -1.395852e-10)
(-0.00013704232 -4.2459881e-06 -6.0206777e-11)
(-0.00013586195 -9.3950147e-06 -7.2162224e-11)
(-0.00013231449 -1.4976415e-05 -7.1276946e-11)
(-0.00012600728 -3.5223605e-06 -4.9056186e-11)
(-0.00012507595 -7.8006921e-06 -5.2755307e-11)
(-0.0001221443 -1.2439709e-05 -4.1758421e-11)
(-0.00011674321 -2.9284241e-06 -4.3031549e-11)
(-0.0001160103 -6.4744664e-06 -4.5023973e-11)
(-0.00011357284 -1.0348576e-05 -3.0609696e-11)
(-0.0001089213 -2.4498576e-06 -3.9102853e-11)
(-0.00010834693 -5.4282694e-06 -4.1517008e-11)
(-0.00010630686 -8.7058525e-06 -2.6714286e-11)
(-0.00010226612 -2.1082891e-06 -3.5402538e-11)
(-0.00010181694 -4.6345524e-06 -3.8755006e-11)
(-0.00010009397 -7.4513419e-06 -2.4833686e-11)
(-9.653374e-05 -1.8363971e-06 -3.2042047e-11)
(-9.6183715e-05 -4.0223263e-06 -3.6128382e-11)
(-9.471484e-05 -6.4794756e-06 -2.3656827e-11)
(-9.1516496e-05 -1.6179319e-06 -2.9703734e-11)
(-9.1245946e-05 -3.5371968e-06 -3.4413551e-11)
(-8.9983422e-05 -5.6900571e-06 -2.3303759e-11)
(-8.7052955e-05 -1.448586e-06 -2.88398e-11)
(-8.684597e-05 -3.1541008e-06 -3.3776712e-11)
(-8.5752177e-05 -5.0848736e-06 -2.2996764e-11)
(-8.303925e-05 -1.3388347e-06 -2.7256324e-11)
(-8.2882067e-05 -2.9029862e-06 -3.2059388e-11)
(-8.1924998e-05 -4.6778125e-06 -2.2128178e-11)
(-7.940778e-05 -1.197832e-06 -2.6064956e-11)
(-7.9289644e-05 -2.6621222e-06 -3.0260409e-11)
(-7.8442397e-05 -4.3326964e-06 -2.131115e-11)
(-7.6083497e-05 -1.1207419e-06 -2.5274456e-11)
(-7.5996646e-05 -2.4702704e-06 -2.9007528e-11)
(-7.5239545e-05 -4.010676e-06 -2.0842892e-11)
(-7.2982663e-05 -1.0519424e-06 -2.4862254e-11)
(-7.292112e-05 -2.313052e-06 -2.8162422e-11)
(-7.2240594e-05 -3.7524937e-06 -2.0618566e-11)
(-7.0048035e-05 -9.9275788e-07 -2.458678e-11)
(-7.000689e-05 -2.1870684e-06 -2.7454097e-11)
(-6.9391563e-05 -3.5513347e-06 -2.0457483e-11)
(-6.7256632e-05 -9.4217964e-07 -2.4429978e-11)
(-6.723149e-05 -2.081058e-06 -2.686825e-11)
(-6.6670735e-05 -3.3820653e-06 -2.0371156e-11)
(-6.459984e-05 -8.9596158e-07 -2.4376925e-11)
(-6.4587084e-05 -1.9840356e-06 -2.633711e-11)
(-6.4072076e-05 -3.2256229e-06 -2.0290707e-11)
(-6.2072646e-05 -8.5108491e-07 -2.433342e-11)
(-6.2069619e-05 -1.8902605e-06 -2.5719619e-11)
(-6.1593814e-05 -3.0753469e-06 -2.0028123e-11)
(-5.9671566e-05 -8.084601e-07 -2.4179095e-11)
(-5.9676241e-05 -1.8008386e-06 -2.4932017e-11)
(-5.9234456e-05 -2.9301694e-06 -1.9597893e-11)
(-5.7395042e-05 -7.6676509e-07 -2.3869029e-11)
(-5.7405684e-05 -1.7143123e-06 -2.3995498e-11)
(-5.6993355e-05 -2.7884322e-06 -1.9096167e-11)
(-5.5246496e-05 -7.1964467e-07 -2.4005259e-11)
(-5.5261655e-05 -1.6118405e-06 -2.3633939e-11)
(-5.4874812e-05 -2.6233958e-06 -1.8965807e-11)
(-5.3234019e-05 -6.6983292e-07 -2.4233786e-11)
(-5.3252564e-05 -1.5021353e-06 -2.3466222e-11)
(-5.2887862e-05 -2.4461761e-06 -1.8981083e-11)
(-5.1367182e-05 -6.176959e-07 -2.4400174e-11)
(-5.1388217e-05 -1.3872341e-06 -2.3283994e-11)
(-5.1042848e-05 -2.2593205e-06 -1.9002456e-11)
(-4.9655982e-05 -5.6264743e-07 -2.4510075e-11)
(-4.9678577e-05 -1.2659033e-06 -2.3068985e-11)
(-4.9350063e-05 -2.0621606e-06 -1.8996748e-11)
(-4.8112515e-05 -5.0364383e-07 -2.4639513e-11)
(-4.813502e-05 -1.135724e-06 -2.2916782e-11)
(-4.7821052e-05 -1.850939e-06 -1.9036689e-11)
(-4.6773288e-05 -4.3946497e-07 -2.4809355e-11)
(-4.6800518e-05 -9.9620101e-07 -2.2865697e-11)
(-4.6497375e-05 -1.626195e-06 -1.9144114e-11)
(-4.5586384e-05 -3.7919912e-07 -2.5034991e-11)
(-4.5616086e-05 -8.5045343e-07 -2.2934011e-11)
(-4.5325975e-05 -1.3813478e-06 -1.9312553e-11)
(-4.4544766e-05 -3.1097276e-07 -2.5326179e-11)
(-4.4571654e-05 -6.9857942e-07 -2.3086394e-11)
(-4.4292708e-05 -1.1361444e-06 -1.9453117e-11)
(-4.3721952e-05 -2.4060214e-07 -2.5509762e-11)
(-4.3749367e-05 -5.4014335e-07 -2.3053158e-11)
(-4.3475539e-05 -8.7811506e-07 -1.9292705e-11)
(-4.3122312e-05 -1.6815927e-07 -2.5510727e-11)
(-4.3150459e-05 -3.7604137e-07 -2.2531657e-11)
(-4.2881505e-05 -6.112641e-07 -1.8415044e-11)
(-4.2790178e-05 -9.3670381e-08 -2.4992126e-11)
(-4.2818442e-05 -2.0940769e-07 -2.068875e-11)
(-4.2552222e-05 -3.4384301e-07 -1.6020074e-11)
(-4.2633342e-05 -2.3392882e-08 -2.2307943e-11)
(-4.2661038e-05 -5.1240222e-08 -1.545926e-11)
(-4.2395916e-05 -8.6753025e-08 -1.0762231e-11)
(-0.04744564 1.9487311 -3.4796628e-07)
(-0.03332355 1.6964199 -3.4460691e-06)
(-0.063368081 0.3384805 -2.4164772e-07)
(-0.043536285 0.14980118 -1.0005734e-06)
(-0.016315723 -0.042612876 -1.8143159e-07)
(-0.012044562 -0.04475251 -6.0511584e-07)
(-0.0063361352 -0.013821568 -7.8235703e-08)
(-0.0054227168 -0.015477998 -3.6939492e-07)
(-0.0021436135 -0.0027545604 -7.6605805e-08)
(-0.0017342333 -0.0036578181 -2.5232827e-07)
(-0.0011188549 -0.00081635913 -8.6837901e-08)
(-0.00077290415 -0.0010168504 -1.8852544e-07)
(-0.00072941891 -0.00032701299 -8.6319502e-08)
(-0.00047813667 -0.00031296098 -1.4607576e-07)
(-0.00059470486 -0.00010548338 -7.645115e-08)
(-0.00041064515 -7.1878742e-05 -1.1275571e-07)
(-0.00053619389 -0.00011477165 -6.1296089e-08)
(-0.00040141997 -9.4778871e-05 -8.4170405e-08)
(-0.0004894618 -0.0001604875 -4.5168458e-08)
(-0.00039036652 -0.00016312596 -5.9986894e-08)
(-0.00043269996 -0.00017305704 -3.1076195e-08)
(-0.00035945393 -0.00019271412 -4.0765024e-08)
(-0.00037207249 -0.00014841215 -2.024869e-08)
(-0.00031716696 -0.00017147484 -2.6483508e-08)
(-0.00031649013 -0.00011347967 -1.2651443e-08)
(-0.0002747132 -0.0001302751 -1.6516495e-08)
(-0.00027014384 -8.1326937e-05 -7.6447772e-09)
(-0.00023812346 -9.4158805e-05 -9.9245187e-09)
(-0.00023407713 -6.0314871e-05 -4.4813638e-09)
(-0.00020930412 -7.0692997e-05 -5.7570871e-09)
(-0.00020657638 -4.8568146e-05 -2.5425278e-09)
(-0.00018711373 -5.6056531e-05 -3.2209696e-09)
(-0.00018473172 -3.9846165e-05 -1.387891e-09)
(-0.00016921851 -4.6536254e-05 -1.731553e-09)
(-0.00016650364 -3.3231237e-05 -7.2267388e-10)
(-0.00015404863 -3.960819e-05 -8.8888746e-10)
(-0.00015106183 -2.8034569e-05 -3.5691613e-10)
(-0.00014099807 -3.3854529e-05 -4.3316609e-10)
(-0.00013802346 -2.3707293e-05 -1.6820176e-10)
(-0.00012980764 -2.8546131e-05 -1.9912373e-10)
(-0.00012703917 -1.9837347e-05 -7.7117776e-11)
(-0.00012026284 -2.3845523e-05 -8.592012e-11)
(-0.00011777326 -1.6521806e-05 -3.675567e-11)
(-0.0001121419 -1.9865985e-05 -3.5252762e-11)
(-0.00010992838 -1.3790046e-05 -2.0905204e-11)
(-0.00010521698 -1.6699188e-05 -1.4639944e-11)
(-0.00010324556 -1.164261e-05 -1.5471748e-11)
(-9.9273344e-05 -1.4164661e-05 -7.4093656e-12)
(-9.749888e-05 -1.0001577e-05 -1.3811852e-11)
(-9.4120415e-05 -1.2187003e-05 -5.5238791e-12)
(-9.2494448e-05 -8.7003949e-06 -1.3583847e-11)
(-8.9595219e-05 -1.0634774e-05 -5.5224969e-12)
(-8.8067783e-05 -7.6620965e-06 -1.3827658e-11)
(-8.5559392e-05 -9.4245901e-06 -5.9742685e-12)
(-8.4086533e-05 -6.8772782e-06 -1.3851612e-11)
(-8.1899908e-05 -8.4926084e-06 -6.4153354e-12)
(-8.0462801e-05 -6.310387e-06 -1.371107e-11)
(-7.8539218e-05 -7.7992308e-06 -6.8248928e-12)
(-7.7143698e-05 -5.908686e-06 -1.367112e-11)
(-7.5431978e-05 -7.344626e-06 -7.358443e-12)
(-7.4074745e-05 -5.4726268e-06 -1.3785987e-11)
(-7.2536419e-05 -6.8138492e-06 -7.9203924e-12)
(-7.1189759e-05 -5.1296641e-06 -1.4019307e-11)
(-6.9799139e-05 -6.4162216e-06 -8.4938012e-12)
(-6.8438259e-05 -4.8663958e-06 -1.4278433e-11)
(-6.7174414e-05 -6.1105669e-06 -9.0573731e-12)
(-6.5799208e-05 -4.6440743e-06 -1.4577515e-11)
(-6.4641856e-05 -5.847257e-06 -9.6203938e-12)
(-6.3269174e-05 -4.4374228e-06 -1.4839778e-11)
(-6.2201356e-05 -5.5985604e-06 -1.0111535e-11)
(-6.0849966e-05 -4.2336731e-06 -1.4890833e-11)
(-5.9859498e-05 -5.3476394e-06 -1.041329e-11)
(-5.8542114e-05 -4.0387054e-06 -1.4778057e-11)
(-5.7619298e-05 -5.1081795e-06 -1.0562648e-11)
(-5.6345706e-05 -3.8422503e-06 -1.4639695e-11)
(-5.5481576e-05 -4.8615639e-06 -1.0680784e-11)
(-5.4265879e-05 -3.6171078e-06 -1.4726868e-11)
(-5.3452617e-05 -4.5870602e-06 -1.0911483e-11)
(-5.2312724e-05 -3.3748696e-06 -1.4914472e-11)
(-5.1544023e-05 -4.2836707e-06 -1.1236217e-11)
(-5.04974e-05 -3.1192263e-06 -1.5106594e-11)
(-4.9767929e-05 -3.9601591e-06 -1.1564714e-11)
(-4.8830741e-05 -2.8488918e-06 -1.5272801e-11)
(-4.8135803e-05 -3.6149347e-06 -1.1873477e-11)
(-4.7324602e-05 -2.5579871e-06 -1.5469189e-11)
(-4.6659906e-05 -3.2461851e-06 -1.218263e-11)
(-4.601592e-05 -2.2473144e-06 -1.5701806e-11)
(-4.5371779e-05 -2.852645e-06 -1.2500383e-11)
(-4.4864223e-05 -1.908052e-06 -1.594054e-11)
(-4.4245883e-05 -2.4253292e-06 -1.2788104e-11)
(-4.3849909e-05 -1.5720044e-06 -1.6066542e-11)
(-4.3256156e-05 -1.999627e-06 -1.2937136e-11)
(-4.3040599e-05 -1.2138756e-06 -1.5853347e-11)
(-4.2457739e-05 -1.5432637e-06 -1.2747136e-11)
(-4.2453815e-05 -8.445326e-07 -1.4876283e-11)
(-4.1880443e-05 -1.0743508e-06 -1.1850008e-11)
(-4.2128749e-05 -4.7600282e-07 -1.2510075e-11)
(-4.1560963e-05 -6.049374e-07 -9.783832e-12)
(-4.1974328e-05 -1.2076476e-07 -7.9559518e-12)
(-4.1409164e-05 -1.5287996e-07 -6.0497748e-12)
(0.0032186935 -3.7849509e-05 -8.7775763e-08)
(0.0030904552 -0.00015629208 -2.0728261e-07)
(0.0028442436 -0.0001924701 -2.9152052e-07)
(0.0025487502 -0.00023874237 -3.4304413e-07)
(0.0022470248 -0.00025624661 -3.6888559e-07)
(0.0019657911 -0.00028413574 -3.769669e-07)
(0.0017180036 -0.00031767664 -3.7347004e-07)
(0.0015073404 -0.00036588794 -3.6283245e-07)
(0.0013314663 -0.00042771772 -3.4812065e-07)
(0.0011846959 -0.0004981144 -3.3141738e-07)
(0.0010608166 -0.00057345967 -3.141434e-07)
(0.00095400823 -0.00064964615 -2.9711332e-07)
(0.00085961172 -0.00072231287 -2.8067856e-07)
(0.00077415506 -0.00078883931 -2.6485656e-07)
(0.00069492648 -0.00084878704 -2.4949853e-07)
(0.00061997257 -0.00090163859 -2.3437198e-07)
(0.00054791413 -0.00094791065 -2.1917006e-07)
(0.00047783376 -0.00098758965 -2.0345551e-07)
(0.00040946253 -0.001018157 -1.8674348e-07)
(0.0003425641 -0.0010389897 -1.6845746e-07)
(0.00027699176 -0.0010499894 -1.4793686e-07)
(0.00021298292 -0.0010514532 -1.242289e-07)
(0.00015060261 -0.0010439726 -9.645648e-08)
(8.9624296e-05 -0.0010311879 -6.4067132e-08)
(2.9224444e-05 -0.00098115609 -2.6749624e-08)
(0.0003348451 -0.000159135 -1.0427432e-07)
(0.00030573975 -0.0006026206 -2.4260279e-07)
(0.00027755667 -0.00084941745 -3.3449502e-07)
(0.00027144443 -0.0011764906 -3.8516918e-07)
(0.00029258164 -0.0014318369 -4.0622811e-07)
(0.00033096736 -0.0017105179 -4.0907221e-07)
(0.0003735057 -0.0019907791 -4.0106574e-07)
(0.00040946319 -0.0022965661 -3.8692159e-07)
(0.00043041574 -0.0026221395 -3.6949916e-07)
(0.00043738048 -0.0029403668 -3.506441e-07)
(0.00043278306 -0.003246858 -3.317605e-07)
(0.00041904709 -0.0035385254 -3.1354914e-07)
(0.00039855265 -0.0038118922 -2.9625741e-07)
(0.00037351831 -0.0040655542 -2.7975834e-07)
(0.00034532098 -0.0042974039 -2.6381984e-07)
(0.0003147377 -0.0045080749 -2.4818386e-07)
(0.0002823202 -0.0047086765 -2.3258165e-07)
(0.00024865805 -0.0048921264 -2.1645648e-07)
(0.00021396357 -0.0050349917 -1.993573e-07)
(0.00017856682 -0.0051299531 -1.8065034e-07)
(0.00014313706 -0.0051746835 -1.5988424e-07)
(0.00010837348 -0.0051717815 -1.3558588e-07)
(7.4507832e-05 -0.0051247925 -1.0658161e-07)
(4.1895541e-05 -0.0050192988 -7.143183e-08)
(1.1535879e-05 -0.0047921294 -3.1041278e-08)
(0.0012073744 -0.00034985708 -1.4356789e-07)
(0.0011654328 -0.001611386 -3.2145543e-07)
(0.0011583748 -0.0021786815 -4.2489509e-07)
(0.0012107825 -0.003083893 -4.6868132e-07)
(0.0012807644 -0.0038228102 -4.7782691e-07)
(0.0013354054 -0.0046053866 -4.6957633e-07)
(0.0013569556 -0.0053814499 -4.5250936e-07)
(0.0013449131 -0.0063039424 -4.3173033e-07)
(0.0013077453 -0.0073455396 -4.092691e-07)
(0.0012514896 -0.0083063816 -3.8623307e-07)
(0.0011820578 -0.0091445806 -3.6430271e-07)
(0.0011041007 -0.0098565061 -3.4387356e-07)
(0.0010211614 -0.010440398 -3.2505408e-07)
(0.00093396531 -0.010903914 -3.0735143e-07)
(0.00084434897 -0.011253384 -2.9037464e-07)
(0.00075393345 -0.01149018 -2.7381646e-07)
(0.00066413302 -0.011606367 -2.5774299e-07)
(0.00057574824 -0.011620675 -2.4101353e-07)
(0.00048904891 -0.011562442 -2.2353458e-07)
(0.00040446673 -0.011446944 -2.0469568e-07)
(0.00032275357 -0.011284169 -1.8372355e-07)
(0.00024456043 -0.011083057 -1.5936925e-07)
(0.00016924048 -0.010850388 -1.298611e-07)
(9.716272e-05 -0.010556836 -9.218727e-08)
(2.9875238e-05 -0.01015504 -4.5711443e-08)
(0.0037749374 -0.0011013837 -2.2716186e-07)
(0.0037249957 -0.0048162144 -4.6692064e-07)
(0.0036588819 -0.0061474874 -5.73344e-07)
(0.003504586 -0.0093734684 -5.9517326e-07)
(0.0033138041 -0.012261518 -5.8195427e-07)
(0.0030729626 -0.014827763 -5.5607584e-07)
(0.0028046094 -0.016646152 -5.2547338e-07)
(0.0025276169 -0.017605773 -4.9657456e-07)
(0.0022598516 -0.017883941 -4.6834209e-07)
(0.00200317 -0.017736661 -4.3930391e-07)
(0.0017680368 -0.017274544 -4.1321793e-07)
(0.0015529725 -0.016620082 -3.8957835e-07)
(0.001355649 -0.015791046 -3.6880477e-07)
(0.0011631818 -0.014840265 -3.4944352e-07)
(0.00099007443 -0.0138202 -3.3094714e-07)
(0.00083663194 -0.012776384 -3.1309603e-07)
(0.00070155689 -0.011747817 -2.9561054e-07)
(0.00058299413 -0.010767897 -2.7817852e-07)
(0.00047924173 -0.0098601284 -2.6037391e-07)
(0.00038811517 -0.0090450928 -2.4165763e-07)
(0.00030683186 -0.008335102 -2.2132532e-07)
(0.0002322959 -0.0077343872 -1.98327e-07)
(0.00016356037 -0.0072434707 -1.7103997e-07)
(9.8843003e-05 -0.0068202591 -1.3669705e-07)
(3.6474297e-05 -0.0065128485 -8.6647067e-08)
(0.011829557 -0.0087709114 -4.1593096e-07)
(0.0094537979 -0.025783876 -7.1313243e-07)
(0.0081658482 -0.028322799 -7.8818164e-07)
(0.0063862791 -0.03262515 -7.7213187e-07)
(0.0049345979 -0.030077269 -7.3027812e-07)
(0.0036716793 -0.026288535 -6.8128288e-07)
(0.0026257693 -0.021577733 -6.3347105e-07)
(0.0017951356 -0.016602469 -5.8913106e-07)
(0.0011472618 -0.011632608 -5.5017052e-07)
(0.00064970219 -0.0070344337 -5.1450326e-07)
(0.00026724823 -0.002872878 -4.8245402e-07)
(-1.672873e-05 0.00069385049 -4.5272576e-07)
(-0.00022056596 0.0040155169 -4.2918303e-07)
(-0.00035084049 0.0071859344 -4.0695557e-07)
(-0.0004328226 0.010098413 -3.8557883e-07)
(-0.0004740845 0.012625705 -3.6526567e-07)
(-0.00048304622 0.01473632 -3.457551e-07)
(-0.0004664911 0.016448393 -3.2674279e-07)
(-0.00042987721 0.017790604 -3.0787258e-07)
(-0.00037790868 0.018792735 -2.8873978e-07)
(-0.00031513212 0.019479981 -2.688279e-07)
(-0.00024602238 0.019878257 -2.4738174e-07)
(-0.00017235911 0.019985741 -2.231316e-07)
(-9.736121e-05 0.019860961 -1.997139e-07)
(-2.2357215e-05 0.019162535 -1.7641423e-07)
(0.015087663 0.023153549 -7.8499904e-07)
(0.0038782254 -0.0016974251 -1.1068135e-06)
(0.0010447858 0.047937424 -1.1065659e-06)
(-0.00091158139 0.050779676 -1.0319262e-06)
(-0.0025857347 0.065096385 -9.5430755e-07)
(-0.003824103 0.075436125 -8.6807105e-07)
(-0.0045085766 0.082657604 -7.907748e-07)
(-0.0047232633 0.088684824 -7.2335894e-07)
(-0.0046488902 0.093129504 -6.6443717e-07)
(-0.0044278098 0.09589629 -6.1369738e-07)
(-0.0041401 0.097478024 -5.7053468e-07)
(-0.0037944698 0.097976777 -5.2529722e-07)
(-0.0034440357 0.097722513 -4.9931928e-07)
(-0.0030997928 0.096421728 -4.7120396e-07)
(-0.0027525457 0.094269322 -4.4346688e-07)
(-0.0024139216 0.09184603 -4.1861451e-07)
(-0.0020938763 0.089217709 -3.9555814e-07)
(-0.0017932555 0.086469944 -3.7372379e-07)
(-0.0015114141 0.083680139 -3.5269595e-07)
(-0.0012466616 0.080906709 -3.3210647e-07)
(-0.00099648633 0.078186753 -3.1156831e-07)
(-0.00075809754 0.075562913 -2.9059621e-07)
(-0.00052979091 0.073006638 -2.6867155e-07)
(-0.00030977862 0.070707813 -2.465041e-07)
(-9.2776794e-05 0.067223719 -2.2500085e-07)
(-0.0011251909 1.1752723 -2.511798e-06)
(-0.000603054 0.96267584 -1.992946e-06)
(-0.0009354348 0.86695298 -1.6146851e-06)
(-0.00067881271 0.77447143 -1.32527e-06)
(-0.00061192357 0.67834073 -1.1085814e-06)
(-0.00054527795 0.58687983 -9.5010229e-07)
(-0.00047446418 0.50840495 -8.3396744e-07)
(-0.00040829304 0.44462166 -7.4826761e-07)
(-0.00034957294 0.3920186 -6.7846689e-07)
(-0.00029740949 0.34712223 -6.2435038e-07)
(-0.00024441527 0.30837444 -5.8197662e-07)
(-0.00019779005 0.27503083 -5.4414022e-07)
(-0.00015798328 0.24651947 -5.1184707e-07)
(-0.00013396727 0.22211174 -4.8312446e-07)
(-0.00011203672 0.20115058 -4.5698311e-07)
(-9.4018825e-05 0.18315405 -4.3288585e-07)
(-7.8741162e-05 0.16769202 -4.1022002e-07)
(-6.5595982e-05 0.1544013 -3.8853936e-07)
(-5.4216517e-05 0.14297881 -3.6754578e-07)
(-4.4240984e-05 0.13317493 -3.4699981e-07)
(-3.5223027e-05 0.12477313 -3.266506e-07)
(-2.6579344e-05 0.11763168 -3.0613164e-07)
(-1.8318218e-05 0.1115071 -2.8525974e-07)
(-1.0478597e-05 0.10668687 -2.6385363e-07)
(-2.9758941e-06 0.10066743 -2.4113847e-07)
(-0.013001392 0.089027573 -1.2173932e-06)
(-0.002580367 0.097442826 -1.256842e-06)
(-0.00017847179 0.10353025 -1.2102808e-06)
(0.0015496108 0.10543752 -1.1191176e-06)
(0.0030502461 0.10764667 -1.0163161e-06)
(0.0041586277 0.10942042 -9.1649247e-07)
(0.0047561063 0.11113 -8.2728896e-07)
(0.0049086766 0.11268649 -7.5010685e-07)
(0.0047906757 0.11351475 -6.6830664e-07)
(0.004518639 0.11359886 -6.2332808e-07)
(0.0042053045 0.11291151 -5.8188631e-07)
(0.0038705058 0.11125219 -5.3756844e-07)
(0.0035013098 0.10873976 -5.001007e-07)
(0.0031313343 0.10572529 -4.6780313e-07)
(0.0027725355 0.10245457 -4.3932128e-07)
(0.0024293266 0.099053146 -4.1367336e-07)
(0.0021048468 0.095606055 -3.9012402e-07)
(0.001800286 0.092181826 -3.6810943e-07)
(0.0015149337 0.088831783 -3.4717566e-07)
(0.0012472607 0.08559404 -3.2691471e-07)
(0.00099526076 0.082490423 -3.068845e-07)
(0.00075674102 0.079550995 -2.8649464e-07)
(0.00052901099 0.076737709 -2.6613162e-07)
(0.00030985686 0.07424541 -2.4471199e-07)
(9.3430617e-05 0.070545152 -2.2352182e-07)
(-0.0095300077 -0.042171085 -8.2506171e-07)
(-0.0080107861 -0.039715254 -8.8818426e-07)
(-0.0065688352 -0.037819828 -8.7458911e-07)
(-0.0051559449 -0.034215959 -8.2845097e-07)
(-0.0038428039 -0.029137975 -7.7038828e-07)
(-0.0027096069 -0.023427795 -7.0924657e-07)
(-0.0017839408 -0.017583609 -6.5269346e-07)
(-0.0010599995 -0.011914252 -6.0094099e-07)
(-0.0005070194 -0.0068520049 -5.5282362e-07)
(-9.4531522e-05 -0.0023790327 -5.1678047e-07)
(0.00020491083 0.0014666168 -4.8357626e-07)
(0.00041512272 0.0052186456 -4.5250094e-07)
(0.00055332463 0.0087978131 -4.2448323e-07)
(0.00063592243 0.011999401 -3.992321e-07)
(0.00067460823 0.014754025 -3.761976e-07)
(0.00067967161 0.017060752 -3.5488739e-07)
(0.000657585 0.01895655 -3.3493592e-07)
(0.00061382194 0.020481819 -3.1593211e-07)
(0.00055329095 0.021657109 -2.9747235e-07)
(0.00047996167 0.022504747 -2.7910652e-07)
(0.0003972042 0.023046618 -2.6019935e-07)
(0.00030795726 0.023303858 -2.3957477e-07)
(0.00021510653 0.023287283 -2.1995831e-07)
(0.00012182013 0.023041097 -1.966565e-07)
(2.9567314e-05 0.022190815 -1.7411834e-07)
(-0.0048054775 -0.01686032 -5.3887351e-07)
(-0.0045297837 -0.019145796 -6.118976e-07)
(-0.0042860846 -0.021755049 -6.2535813e-07)
(-0.003988733 -0.023633341 -6.0817758e-07)
(-0.0036184724 -0.024788158 -5.7886131e-07)
(-0.0032301817 -0.025124981 -5.4695022e-07)
(-0.0028649692 -0.024808128 -5.083737e-07)
(-0.0025239617 -0.024060536 -4.7225212e-07)
(-0.0022117987 -0.023051436 -4.3960627e-07)
(-0.0019298397 -0.02184961 -4.1185966e-07)
(-0.0016758603 -0.020536987 -3.867002e-07)
(-0.0014409716 -0.019096295 -3.6354891e-07)
(-0.0012289274 -0.017596973 -3.4236603e-07)
(-0.0010420409 -0.016090695 -3.229764e-07)
(-0.00087823571 -0.014611637 -3.0489492e-07)
(-0.00073425777 -0.013192364 -2.8773354e-07)
(-0.00060901732 -0.0118709 -2.7147929e-07)
(-0.0005008246 -0.010676771 -2.5562363e-07)
(-0.0004073675 -0.0096144498 -2.3973626e-07)
(-0.000326454 -0.0086857639 -2.2331074e-07)
(-0.00025592815 -0.0078912188 -2.0564576e-07)
(-0.00019359261 -0.0072303107 -1.8576762e-07)
(-0.00013730616 -0.0066994305 -1.6269306e-07)
(-8.4681157e-05 -0.0062578722 -1.3167825e-07)
(-3.3062943e-05 -0.0059562614 -8.4845676e-08)
(-0.0014800118 -0.0045140613 -3.7204978e-07)
(-0.0015005109 -0.0053091564 -4.3764494e-07)
(-0.0015966173 -0.0061806467 -4.6232777e-07)
(-0.0016784345 -0.0070587034 -4.6169858e-07)
(-0.0017430881 -0.0079594532 -4.4723222e-07)
(-0.0017521813 -0.0090135092 -4.258216e-07)
(-0.0017111916 -0.010147826 -4.000011e-07)
(-0.0016366264 -0.011128266 -3.7416384e-07)
(-0.0015428526 -0.011949684 -3.5010323e-07)
(-0.0014381057 -0.012612341 -3.2843922e-07)
(-0.0013277776 -0.013136074 -3.0866849e-07)
(-0.0012159595 -0.013524813 -2.9046275e-07)
(-0.001104862 -0.013785409 -2.7364302e-07)
(-0.00099580045 -0.013897514 -2.5837965e-07)
(-0.00088997366 -0.013886323 -2.4383482e-07)
(-0.00078847213 -0.013792544 -2.3012717e-07)
(-0.00069120358 -0.013640933 -2.1661058e-07)
(-0.00059750583 -0.013445428 -2.0309148e-07)
(-0.00050721059 -0.013214858 -1.891819e-07)
(-0.00042007912 -0.012956264 -1.7437712e-07)
(-0.00033591258 -0.01267529 -1.5791027e-07)
(-0.00025461272 -0.012377435 -1.386389e-07)
(-0.00017625068 -0.012066076 -1.1487314e-07)
(-0.00010119574 -0.01170295 -8.3012688e-08)
(-3.1252027e-05 -0.011246336 -4.223365e-08)
(-0.00049841498 -0.0012440608 -2.6741116e-07)
(-0.00032445232 -0.0015025919 -3.1777181e-07)
(-0.00029047102 -0.0018007774 -3.4274238e-07)
(-0.000329984 -0.0021568868 -3.4928402e-07)
(-0.00041649691 -0.002548901 -3.4389578e-07)
(-0.0005076273 -0.0029829125 -3.3136822e-07)
(-0.00056905029 -0.0034459829 -3.1477312e-07)
(-0.00060110801 -0.0038869896 -2.9683449e-07)
(-0.00061013123 -0.0042940154 -2.7916725e-07)
(-0.00060378929 -0.0046601003 -2.6251457e-07)
(-0.00058652151 -0.0049854654 -2.4698676e-07)
(-0.00056114079 -0.0052765087 -2.3253055e-07)
(-0.00052919711 -0.0055475705 -2.1906877e-07)
(-0.0004924321 -0.0058251366 -2.0654183e-07)
(-0.00045249408 -0.0061014983 -1.9465868e-07)
(-0.00041041539 -0.0063393455 -1.8324058e-07)
(-0.0003666253 -0.006529951 -1.7195118e-07)
(-0.00032164889 -0.0066708343 -1.6049984e-07)
(-0.00027598816 -0.0067615814 -1.4850951e-07)
(-0.00023007971 -0.0068018641 -1.3562457e-07)
(-0.00018441462 -0.0067927789 -1.2118129e-07)
(-0.00013939734 -0.0067374205 -1.0407069e-07)
(-9.557568e-05 -0.0066404721 -8.3269598e-08)
(-5.355476e-05 -0.006483928 -5.7012516e-08)
(-1.4832725e-05 -0.0061932375 -2.5912523e-08)
(-0.00027902323 -0.0002735442 -1.9674654e-07)
(-0.00011983732 -0.00023541315 -2.3271206e-07)
(-2.7568436e-05 -0.00022452892 -2.5364439e-07)
(7.6734013e-06 -0.00025042089 -2.6210743e-07)
(2.4149138e-05 -0.00032833556 -2.6146047e-07)
(7.0840762e-06 -0.00044450062 -2.5473438e-07)
(-2.7385207e-05 -0.00057868376 -2.4430114e-07)
(-6.1410073e-05 -0.00072562063 -2.3207418e-07)
(-8.747611e-05 -0.00087800474 -2.19349e-07)
(-0.00010554775 -0.0010267122 -2.0686039e-07)
(-0.00011816725 -0.0011641969 -1.9492293e-07)
(-0.00012696719 -0.0012874064 -1.8363947e-07)
(-0.00013024822 -0.0013971338 -1.7301385e-07)
(-0.000128809 -0.0014957221 -1.6298859e-07)
(-0.00012347366 -0.0015827498 -1.5341465e-07)
(-0.0001153923 -0.0016555551 -1.4411929e-07)
(-0.00010534389 -0.0017147512 -1.3487329e-07)
(-9.3948855e-05 -0.0017604461 -1.2542554e-07)
(-8.1629273e-05 -0.0017924803 -1.1547816e-07)
(-6.8760074e-05 -0.0018105654 -1.0469776e-07)
(-5.5715742e-05 -0.00181463 -9.2661299e-08)