/*--------------------------------*- C++ -*----------------------------------*\
| =========                 |                                                 |
| \\      /  F ield         | OpenFOAM: The Open Source CFD Toolbox           |
|  \\    /   O peration     | Version:  4.0                                   |
|   \\  /    A nd           | Web:      www.OpenFOAM.org                      |
|    \\/     M anipulation  |                                                 |
\*---------------------------------------------------------------------------*/
FoamFile
{
    version     2.0;
    format      ascii;
    class       volScalarField;
    location    "0.16";
    object      k;
}
// * * * * * * * * * * * * * * * * * * * * * * * * * * * * * * * * * * * * * //

dimensions      [0 2 -2 0 0 0 0];

internalField   nonuniform List<scalar> 
1740
(
0.0086405934
0.0092462983
0.018586623
0.0091592523
0.010103002
0.027469203
0.0095673163
0.010608318
0.034532296
0.009944447
0.010750708
0.04151532
0.010076483
0.011042519
0.047536711
0.010155727
0.011336068
0.051789015
0.01022493
0.011605349
0.056338457
0.01018528
0.012221568
0.060082997
0.010157611
0.012635735
0.061936378
0.010103002
0.012525436
0.064433385
0.010024727
0.012858363
0.066608917
0.0099641478
0.013286956
0.06751307
0.009875569
0.013291384
0.068703455
0.009774705
0.013340518
0.069589373
0.0096891261
0.013445759
0.070536915
0.009591388
0.013863453
0.071977893
0.0094681712
0.014457408
0.072366761
0.0094036387
0.014605824
0.072475218
0.0092579576
0.014405082
0.072327077
0.0091206982
0.014247152
0.072826499
0.0090118033
0.01423907
0.073163505
0.0088409006
0.014496809
0.073358392
0.0086958811
0.014735107
0.073552077
0.0086190265
0.014841652
0.073807722
0.0086112238
0.01512361
0.073767654
0.0085284853
0.015052921
0.072892125
0.0083690351
0.014982673
0.072627517
0.0082787197
0.015051061
0.072520604
0.0082991732
0.014922565
0.071820716
0.0089351603
0.016051717
0.066799773
0.012691505
0.018050518
0.047462493
0.023995122
0.031227412
0.039878084
0.010290285
0.012549812
0.013749938
0.0042813297
0.0046146459
0.0046700492
0.0020707192
0.0021128962
0.002082488
0.0011115332
0.0011116867
0.0010907749
0.00063385211
0.0006303975
0.00061994818
0.00036848317
0.00036609158
0.00036093606
0.00021035179
0.00020894229
0.00020620466
0.00011456789
0.00011375013
0.00011218847
5.8686858e-05
5.8225373e-05
5.7332196e-05
2.8440145e-05
2.8196893e-05
2.7717773e-05
1.3468905e-05
1.3351762e-05
1.3118263e-05
6.6996789e-06
6.64912e-06
6.5476401e-06
3.9047823e-06
3.885899e-06
3.8480386e-06
2.87254e-06
2.8673589e-06
2.8573051e-06
2.5667771e-06
2.567043e-06
2.5681004e-06
2.5418898e-06
2.5441082e-06
2.5491419e-06
2.6196822e-06
2.6224777e-06
2.628666e-06
2.7334888e-06
2.7363574e-06
2.7426649e-06
2.8599032e-06
2.8626744e-06
2.8687524e-06
2.9911929e-06
2.9938161e-06
2.9995632e-06
3.1249311e-06
3.1273961e-06
3.1327933e-06
3.2603526e-06
3.2626617e-06
3.2677161e-06
3.3971543e-06
3.3993137e-06
3.4040393e-06
3.5351262e-06
3.5371425e-06
3.5415547e-06
3.6740448e-06
3.6759247e-06
3.6800383e-06
3.8136451e-06
3.8153951e-06
3.8192244e-06
3.9536139e-06
3.9552402e-06
3.9587988e-06
4.0935881e-06
4.0950966e-06
4.0983975e-06
4.233155e-06
4.2345513e-06
4.2376068e-06
4.3718522e-06
4.3731419e-06
4.375964e-06
4.5091687e-06
4.510357e-06
4.5129573e-06
4.6445457e-06
4.6456378e-06
4.6480276e-06
4.7773767e-06
4.7783776e-06
4.7805679e-06
4.9070042e-06
4.907919e-06
4.9099208e-06
5.0327059e-06
5.0335394e-06
5.0353636e-06
5.1536507e-06
5.154408e-06
5.1560654e-06
5.2687877e-06
5.2694738e-06
5.2709754e-06
5.3765837e-06
5.3772036e-06
5.3785604e-06
5.4744571e-06
5.4750159e-06
5.4762391e-06
5.557647e-06
5.5581498e-06
5.5592507e-06
5.6171329e-06
5.617585e-06
5.6185752e-06
5.6361432e-06
5.6365502e-06
5.6374418e-06
5.5849364e-06
5.5853043e-06
5.5861105e-06
5.41426e-06
5.4145955e-06
5.4153307e-06
5.0498497e-06
5.0501584e-06
5.0508351e-06
4.3942314e-06
4.3945121e-06
4.3951289e-06
3.3477975e-06
3.3480312e-06
3.3485473e-06
1.8686144e-06
1.8687575e-06
1.869076e-06
0.056353057
0.060984877
0.046150369
0.046644982
0.012493693
0.011356558
0.0043559306
0.0041164699
0.0019853259
0.0019207604
0.0010569839
0.0010369954
0.00060715181
0.00060045354
0.00035541156
0.00035257313
0.00020332327
0.00020154067
0.00011045696
0.0001091041
5.6279227e-05
5.5315814e-05
2.7126636e-05
2.6534986e-05
1.2822004e-05
1.2510764e-05
6.4169728e-06
6.2766973e-06
3.7994249e-06
3.7476653e-06
2.8452498e-06
2.8339441e-06
2.5708015e-06
2.5760289e-06
2.5571161e-06
2.5682316e-06
2.6381238e-06
2.6508166e-06
2.752211e-06
2.7648862e-06
2.87792e-06
2.8900477e-06
3.0082194e-06
3.0196549e-06
3.1409176e-06
3.1516442e-06
3.2753219e-06
3.2853617e-06
3.4111491e-06
3.4205331e-06
3.5481922e-06
3.5569526e-06
3.6862266e-06
3.6943939e-06
3.8249851e-06
3.832588e-06
3.9641522e-06
3.971218e-06
4.1033632e-06
4.1099175e-06
4.2422036e-06
4.2482711e-06
4.3802098e-06
4.3858142e-06
4.5168695e-06
4.5220338e-06
4.6516232e-06
4.6563696e-06
4.7838636e-06
4.7882142e-06
4.912933e-06
4.9169095e-06
5.0381087e-06
5.0417327e-06
5.1585597e-06
5.1618529e-06
5.2732353e-06
5.2762194e-06
5.3806027e-06
5.3832995e-06
5.4780804e-06
5.4805125e-06
5.5609084e-06
5.5630984e-06
5.6200666e-06
5.6220378e-06
5.6387851e-06
5.6405615e-06
5.5873252e-06
5.5889321e-06
5.4164379e-06
5.4179026e-06
5.0518544e-06
5.0532033e-06
4.3960606e-06
4.3973008e-06
3.3493346e-06
3.3504031e-06
1.8695694e-06
1.8702619e-06
4.8438266e-06
2.6149315e-05
0.00012959553
0.00029320374
0.00044278335
0.00054600493
0.0006074806
0.00064136977
0.00065913505
0.00066751146
0.00066995581
0.00066798638
0.00066204926
0.00065206334
0.00063786443
0.00061926307
0.0005961772
0.0005686481
0.00053669829
0.00049998738
0.0004571508
0.00040483093
0.00033680782
0.00024414264
0.00011483504
2.5333514e-06
5.4066589e-05
0.00024731138
0.00050664643
0.00071206178
0.00083618353
0.00090351541
0.00093839243
0.00095580143
0.00096333111
0.00096464652
0.00096125195
0.00095344516
0.0009408931
0.00092322372
0.00090016559
0.00087156444
0.00083730042
0.00079711354
0.00075010868
0.00069381514
0.00062266323
0.00052593617
0.0003861661
0.00018023486
7.9601409e-06
0.00016001777
0.00061506424
0.001075712
0.0013539176
0.0014904243
0.0015509103
0.0015740915
0.0015796601
0.001575551
0.0015656236
0.0015514006
0.0015329847
0.0015094434
0.0014799184
0.0014442295
0.0014022214
0.0013535615
0.0012976701
0.0012329695
0.0011557537
0.0010578908
0.00092251946
0.00071648162
0.00037965619
3.7636636e-05
0.00058048555
0.0016882091
0.0024386744
0.0027735556
0.0028842976
0.0028892229
0.0028530396
0.0028058107
0.0027519218
0.0026956908
0.0026388465
0.0025815636
0.0025207365
0.0024545305
0.0023831361
0.0023064443
0.0022239806
0.0021349443
0.002037764
0.001929056
0.0018013667
0.0016374677
0.0013939615
0.0009360504
0.00028102129
0.0024472451
0.0049177493
0.0060421944
0.0063912621
0.0063311235
0.0061012879
0.0058352411
0.0055831463
0.0053284283
0.0050813344
0.0048471184
0.00463075
0.0044209873
0.0042115254
0.0040071398
0.0038087558
0.0036159537
0.0034277973
0.0032427892
0.0030584959
0.0028711456
0.0026749782
0.0024666217
0.0022642052
0.0023565044
0.010524397
0.016573042
0.018533385
0.018083616
0.016535097
0.014725008
0.013040169
0.0115593
0.010281977
0.0091874234
0.0082531142
0.007454611
0.0067673116
0.0061714628
0.0056530441
0.0052000402
0.0048016248
0.0044482418
0.0041316108
0.0038444757
0.0035807412
0.0033356564
0.0031132134
0.0029330572
0.045052758
0.034114279
0.026566109
0.021386249
0.017734153
0.015041234
0.012964779
0.011317698
0.0099922989
0.008914058
0.008025745
0.0072832842
0.0066531475
0.0061101885
0.0056356764
0.0052161991
0.0048421519
0.0045061498
0.0042020982
0.0039247371
0.0036693676
0.0034321172
0.003210471
0.0030101082
0.0028524544
0.037330441
0.031010702
0.027793358
0.025159732
0.022288553
0.019315356
0.016600478
0.014303106
0.012421563
0.010878414
0.0096043955
0.0085430277
0.0076503027
0.0068954029
0.0062536853
0.005704903
0.0052320205
0.0048207934
0.0044593834
0.0041379145
0.0038479676
0.0035826036
0.0033363465
0.0031127718
0.0029314985
0.010219493
0.0095474404
0.0092086903
0.0088892597
0.0084274593
0.0078616343
0.0073013775
0.0068033418
0.006348164
0.0059435298
0.005586664
0.0052720917
0.0049745563
0.0046949318
0.0044339394
0.0041903582
0.0039620001
0.0037463852
0.0035407904
0.0033422274
0.0031471256
0.0029508059
0.0027466795
0.0025306945
0.0023205369
0.0039566803
0.0038825894
0.0038586063
0.0038157643
0.0037183183
0.0035788332
0.0034331313
0.0032967495
0.0031712163
0.0030583962
0.002957168
0.0028643093
0.0027738346
0.0026844181
0.0025954545
0.0025061526
0.0024154407
0.0023220129
0.0022242393
0.0021197866
0.002004603
0.0018705938
0.0016998251
0.0014475639
0.00097419134
0.0018993877
0.0019093292
0.0019308456
0.0019410978
0.0019287442
0.0018970299
0.001856842
0.0018151848
0.0017748039
0.0017367588
0.0017006415
0.0016650184
0.0016279788
0.0015885428
0.0015463098
0.0015008574
0.0014514733
0.0013973011
0.0013371144
0.0012687575
0.001187946
0.0010859468
0.0009452973
0.00073242827
0.00038761511
0.0010365379
0.0010500136
0.0010680922
0.0010815706
0.0010855426
0.0010805129
0.0010699697
0.0010567832
0.0010425022
0.0010277034
0.0010121976
0.00099529122
0.00097611969
0.00095404157
0.00092865419
0.00089968217
0.0008668343
0.00082975446
0.00078783918
0.00073978416
0.00068270204
0.00061070003
0.00051306841
0.00037317998
0.00017159818
0.00060237549
0.00061068064
0.00062117951
0.00062975329
0.0006339893
0.00063364125
0.00062979932
0.00062367548
0.00061605773
0.00060727693
0.00059727
0.00058571188
0.00057218086
0.00055632004
0.00053788754
0.00051675214
0.00049286055
0.00046620079
0.00043668316
0.00040385378
0.00036637378
0.00032129481
0.0002634554
0.00018581605
8.1244529e-05
0.00035353368
0.0003574069
0.00036230533
0.00036628959
0.00036810632
0.00036741858
0.00036453458
0.00035994785
0.00035405231
0.00034704635
0.00033893949
0.00032960735
0.00031887198
0.00030658081
0.00029265322
0.00027710022
0.0002600221
0.00024158859
0.00022196957
0.0002011768
0.00017879974
0.00015372028
0.0001241791
8.9265521e-05
5.485503e-05
0.00020137365
0.00020248672
0.00020403204
0.00020508536
0.00020499348
0.00020350343
0.00020068242
0.00019673597
0.00019186667
0.00018620495
0.00017979825
0.00017263041
0.00016466224
0.00015586973
0.00014627285
0.00013595109
0.00012504458
0.00011374019
0.00010223009
9.063078e-05
7.8865968e-05
6.6578532e-05
5.3285206e-05
3.9250967e-05
2.7746542e-05
0.00010838377
0.00010818102
0.00010813179
0.00010781227
0.00010689911
0.00010524357
0.00010285405
9.9823331e-05
9.626182e-05
9.2258253e-05
8.7867315e-05
8.3117126e-05
7.8025385e-05
7.2617529e-05
6.6940138e-05
6.1067524e-05
5.5100529e-05
4.9156376e-05
4.3346592e-05
3.77405e-05
3.2320401e-05
2.6959174e-05
2.1498489e-05
1.6042644e-05
1.1141004e-05
5.4569292e-05
5.4012223e-05
5.3499276e-05
5.285004e-05
5.1919382e-05
5.0635506e-05
4.8998826e-05
4.7054522e-05
4.4862287e-05
4.2476533e-05
3.9938713e-05
3.7278595e-05
3.4520588e-05
3.1690841e-05
2.8822323e-05
2.5956842e-05
2.3143321e-05
2.0432288e-05
1.786571e-05
1.546221e-05
1.3200549e-05
1.1011278e-05
8.7928833e-06
6.438925e-06
3.6337986e-06
2.6006294e-05
2.5540339e-05
2.5085842e-05
2.4572742e-05
2.394227e-05
2.3164788e-05
2.2241171e-05
2.1192848e-05
2.0049326e-05
1.8839009e-05
1.7585271e-05
1.6306313e-05
1.501724e-05
1.3732543e-05
1.2467809e-05
1.124018e-05
1.0067224e-05
8.9641779e-06
7.9393085e-06
6.9874497e-06
6.0826833e-06
5.1730977e-06
4.1808567e-06
3.0000149e-06
1.451353e-06
1.2214459e-05
1.1938298e-05
1.1666382e-05
1.1374034e-05
1.1039499e-05
1.065184e-05
1.0211962e-05
9.7291889e-06
9.2164264e-06
8.686357e-06
8.1496067e-06
7.6143997e-06
7.0875383e-06
6.5749901e-06
6.0823907e-06
5.6149954e-06
5.1769313e-06
4.7696027e-06
4.3890583e-06
4.0222556e-06
3.6426006e-06
3.2061154e-06
2.6509275e-06
1.9029477e-06
8.8952884e-07
6.1398739e-06
6.0105682e-06
5.8845833e-06
5.7538594e-06
5.6109633e-06
5.4520241e-06
5.2774553e-06
5.0907601e-06
4.8968256e-06
4.7004914e-06
4.5057783e-06
4.3157344e-06
4.1327205e-06
3.9585884e-06
3.7947218e-06
3.64183e-06
3.4993344e-06
3.3641609e-06
3.2287316e-06
3.0780541e-06
2.8862035e-06
2.6134607e-06
2.2072427e-06
1.6134583e-06
8.033686e-07
3.6980889e-06
3.6528015e-06
3.6109233e-06
3.569881e-06
3.5271435e-06
3.4812476e-06
3.4321313e-06
3.3807893e-06
3.3287038e-06
3.2773477e-06
3.22791e-06
3.1812164e-06
3.1377676e-06
3.0977962e-06
3.0611699e-06
3.0271269e-06
2.9936892e-06
2.9565538e-06
2.9072506e-06
2.8304673e-06
2.7008683e-06
2.4807376e-06
2.1216468e-06
1.5768083e-06
8.2949128e-07
2.8253804e-06
2.8204114e-06
2.8188146e-06
2.8196856e-06
2.8220149e-06
2.8250792e-06
2.8285708e-06
2.8325176e-06
2.8371124e-06
2.8425525e-06
2.8489445e-06
2.856269e-06
2.8643713e-06
2.8729341e-06
2.8813642e-06
2.8884972e-06
2.8920014e-06
2.8872787e-06
2.8656451e-06
2.8116958e-06
2.7002054e-06
2.4939021e-06
2.1451712e-06
1.6075886e-06
8.6012437e-07
2.5844104e-06
2.5961718e-06
2.6111315e-06
2.6288328e-06
2.6487247e-06
2.6703057e-06
2.6931831e-06
2.7170624e-06
2.7417025e-06
2.7668697e-06
2.7923075e-06
2.8177196e-06
2.8427496e-06
2.8669294e-06
2.8895439e-06
2.9093338e-06
2.9238813e-06
2.9284925e-06
2.9143516e-06
2.8658499e-06
2.757443e-06
2.5513695e-06
2.199155e-06
1.6523969e-06
8.8994155e-07
2.582593e-06
2.60015e-06
2.6206848e-06
2.6438539e-06
2.6692503e-06
2.6964554e-06
2.7250682e-06
2.7547118e-06
2.7850257e-06
2.8156559e-06
2.8462456e-06
2.8764259e-06
2.9057926e-06
2.9338466e-06
2.9598489e-06
2.9825149e-06
2.999386e-06
3.0056843e-06
2.9924216e-06
2.9436602e-06
2.8332795e-06
2.6226079e-06
2.2618844e-06
1.7009324e-06
9.1623693e-07
2.6666627e-06
2.685507e-06
2.7071123e-06
2.7311735e-06
2.7573406e-06
2.7852407e-06
2.8144933e-06
2.8447192e-06
2.8755427e-06
2.906592e-06
2.9374968e-06
2.9678808e-06
2.9973383e-06
3.025371e-06
3.0512392e-06
3.0736417e-06
3.0900765e-06
3.0956637e-06
3.0812018e-06
3.0303489e-06
2.9162866e-06
2.699278e-06
2.3282903e-06
1.7524038e-06
9.4768414e-07
2.78055e-06
2.7990161e-06
2.8200476e-06
2.8433626e-06
2.8686452e-06
2.8955562e-06
2.9237422e-06
2.9528442e-06
2.9825011e-06
3.0123539e-06
3.0420439e-06
3.0712063e-06
3.0994462e-06
3.1262733e-06
3.1509494e-06
3.1721567e-06
3.1873428e-06
3.1915113e-06
3.1752241e-06
3.1217e-06
3.0033789e-06
2.779433e-06
2.3976509e-06
1.806682e-06
9.8167158e-07
2.9049823e-06
2.9225345e-06
2.9424776e-06
2.96455e-06
2.9884618e-06
3.0139013e-06
3.040542e-06
3.0680485e-06
3.0960814e-06
3.1243009e-06
3.1523667e-06
3.1799301e-06
3.2066094e-06
3.2319237e-06
3.2551351e-06
3.2749091e-06
3.2886374e-06
3.2911995e-06
3.2729079e-06
3.2165235e-06
3.0937211e-06
2.8625736e-06
2.4697663e-06
1.8638391e-06
1.0193204e-06
3.0337189e-06
3.0502292e-06
3.0689728e-06
3.0897064e-06
3.1121623e-06
3.1360523e-06
3.1610739e-06
3.1869146e-06
3.2132567e-06
3.2397803e-06
3.2661638e-06
3.2920755e-06
3.3171476e-06
3.340908e-06
3.3626188e-06
3.3809267e-06
3.3931658e-06
3.3940866e-06
3.3737435e-06
3.3144245e-06
3.1870132e-06
2.9484288e-06
2.5440664e-06
1.9215814e-06
1.0613244e-06
3.1648299e-06
3.1803031e-06
3.1978642e-06
3.2172877e-06
3.2383242e-06
3.2607068e-06
3.2841541e-06
3.3083746e-06
3.3330711e-06
3.3579428e-06
3.382686e-06
3.4069852e-06
3.4304865e-06
3.4527266e-06
3.4729667e-06
3.4898333e-06
3.5006016e-06
3.4998889e-06
3.4774842e-06
3.4151898e-06
3.2830774e-06
3.0368722e-06
2.620587e-06
1.9804023e-06
1.0908301e-06
3.2977005e-06
3.3121784e-06
3.3286085e-06
3.3467812e-06
3.3664647e-06
3.38741e-06
3.4093551e-06
3.4320277e-06
3.4551493e-06
3.4784376e-06
3.5016057e-06
3.5243538e-06
3.546341e-06
3.5671124e-06
3.585928e-06
3.6013926e-06
3.6107212e-06
3.608393e-06
3.583924e-06
3.5186185e-06
3.3817106e-06
3.1276441e-06
2.6986922e-06
2.038993e-06
1.1255502e-06
3.4320655e-06
3.4455965e-06
3.4609525e-06
3.4779377e-06
3.4963363e-06
3.5159163e-06
3.5364325e-06
3.5576309e-06
3.5792504e-06
3.6010256e-06
3.6226861e-06
3.6439469e-06
3.6644796e-06
3.683837e-06
3.7012769e-06
3.7153819e-06
3.7233034e-06
3.7193786e-06
3.6928422e-06
3.6244873e-06
3.4826921e-06
3.2205906e-06
2.7786829e-06
2.0992087e-06
1.1630268e-06
3.5677183e-06
3.58035e-06
3.594686e-06
3.6105436e-06
3.6277216e-06
3.6460034e-06
3.6651602e-06
3.6849538e-06
3.70514e-06
3.7254695e-06
3.7456872e-06
3.7655225e-06
3.7846586e-06
3.8026557e-06
3.8187684e-06
3.8315556e-06
3.8381024e-06
3.8325996e-06
3.8039918e-06
3.7325494e-06
3.5857839e-06
3.3155188e-06
2.8605044e-06
2.1610777e-06
1.1970543e-06
3.7044308e-06
3.7162077e-06
3.729574e-06
3.7443595e-06
3.7603763e-06
3.7774225e-06
3.7952839e-06
3.8137379e-06
3.8325555e-06
3.8515028e-06
3.8703394e-06
3.8888081e-06
3.9066035e-06
3.9232921e-06
3.9381248e-06
3.9496351e-06
3.9548393e-06
3.947777e-06
3.917095e-06
3.84253e-06
3.6907172e-06
3.4121685e-06
2.9438379e-06
2.2238348e-06
1.2307349e-06
3.8419317e-06
3.8528953e-06
3.8653389e-06
3.8791038e-06
3.8940149e-06
3.9098836e-06
3.9265098e-06
3.9436852e-06
3.9611954e-06
3.9788209e-06
3.9963352e-06
4.0134939e-06
4.0300024e-06
4.0454328e-06
4.0590313e-06
4.0693046e-06
4.073198e-06
4.0645951e-06
4.0318374e-06
3.9541148e-06
3.797168e-06
3.5101809e-06
3.0283082e-06
2.2874687e-06
1.2651674e-06
3.9799017e-06
3.9900912e-06
4.0016562e-06
4.0144489e-06
4.0283064e-06
4.0430524e-06
4.0585002e-06
4.074455e-06
4.090716e-06
4.1070774e-06
4.1233259e-06
4.1392293e-06
4.154503e-06
4.168724e-06
4.181133e-06
4.1902085e-06
4.1928221e-06
4.1826977e-06
4.1478637e-06
4.0669484e-06
3.904771e-06
3.6091441e-06
3.1133684e-06
2.3512088e-06
1.2998874e-06
4.117973e-06
4.1274254e-06
4.1381536e-06
4.1500202e-06
4.1628734e-06
4.1765489e-06
4.1908724e-06
4.2056618e-06
4.2207294e-06
4.2358823e-06
4.2509196e-06
4.2656209e-06
4.2797106e-06
4.29277e-06
4.3040333e-06
4.3119493e-06
4.313314e-06
4.3016873e-06
4.2647785e-06
4.1806414e-06
4.0131515e-06
3.7087192e-06
3.1988016e-06
2.4151598e-06
1.3345899e-06
4.2557284e-06
4.2644791e-06
4.2744105e-06
4.2853951e-06
4.2972913e-06
4.3099463e-06
4.3231975e-06
4.3368749e-06
4.350803e-06
4.3648012e-06
4.3786806e-06
4.3922314e-06
4.4051868e-06
4.4171316e-06
4.4272924e-06
4.4340869e-06
4.4342331e-06
4.4211242e-06
4.3821446e-06
4.2947656e-06
4.1219009e-06
3.8085217e-06
3.2842151e-06
2.4790373e-06
1.3690508e-06
4.3927024e-06
4.4007853e-06
4.4099584e-06
4.4201032e-06
4.4310883e-06
4.4427711e-06
4.4550004e-06
4.4676175e-06
4.4804587e-06
4.4933548e-06
4.5061282e-06
4.5185794e-06
4.5304495e-06
4.5413261e-06
4.550427e-06
4.5561378e-06
4.5550965e-06
4.5405263e-06
4.4994838e-06
4.4088551e-06
4.230589e-06
3.9082255e-06
3.369605e-06
2.5435934e-06
1.4066535e-06
4.5283811e-06
4.5358291e-06
4.5442812e-06
4.5536275e-06
4.5637458e-06
4.5745037e-06
4.5857602e-06
4.5973676e-06
4.6091732e-06
4.6210188e-06
4.6327374e-06
4.6441391e-06
4.6549723e-06
4.6648267e-06
4.6729107e-06
4.6775761e-06
4.6753791e-06
4.659371e-06
4.6162795e-06
4.5224074e-06
4.3387481e-06
4.0074174e-06
3.45449e-06
2.6075568e-06
1.4373155e-06
4.6622035e-06
4.6690488e-06
4.6768164e-06
4.6854044e-06
4.6946994e-06
4.7045785e-06
4.7149105e-06
4.7255581e-06
4.7363787e-06
4.7472247e-06
4.7579391e-06
4.7683411e-06
4.7781857e-06
4.7870641e-06
4.7941742e-06
4.7978333e-06
4.7945145e-06
4.7770963e-06
4.7319783e-06
4.6348903e-06
4.4458996e-06
4.1057632e-06
3.5388694e-06
2.6714865e-06
1.4741028e-06
4.7935616e-06
4.7998359e-06
4.8069549e-06
4.8148241e-06
4.8233388e-06
4.8323847e-06
4.8418399e-06
4.8515769e-06
4.8614628e-06
4.8713598e-06
4.8811204e-06
4.8905722e-06
4.8994765e-06
4.9074251e-06
4.9136052e-06
4.9162987e-06
4.9118948e-06
4.8930996e-06
4.845988e-06
4.7457284e-06
4.5514957e-06
4.2027524e-06
3.6222281e-06
2.7345447e-06
1.5095693e-06
4.9217972e-06
4.9275318e-06
4.9340375e-06
4.9412274e-06
4.9490042e-06
4.9572621e-06
4.965888e-06
4.9747634e-06
4.9837647e-06
4.9927632e-06
5.0016204e-06
5.0101718e-06
5.0181843e-06
5.02525e-06
5.0305448e-06
5.0323148e-06
5.026866e-06
5.0067328e-06
4.9576702e-06
4.8542967e-06
4.6549203e-06
4.29775e-06
3.7038677e-06
2.7962214e-06
1.5448021e-06
5.0461872e-06
5.0514132e-06
5.0573412e-06
5.0638907e-06
5.0709721e-06
5.0784872e-06
5.0863314e-06
5.0943943e-06
5.1025611e-06
5.110712e-06
5.1187165e-06
5.1264176e-06
5.1335872e-06
5.1398175e-06
5.1442727e-06
5.1451635e-06
5.1387131e-06
5.117287e-06
5.0663258e-06
4.9599096e-06
4.7554967e-06
4.3900507e-06
3.7829348e-06
2.8550628e-06
1.5758763e-06
5.1659007e-06
5.1706495e-06
5.1760351e-06
5.1819836e-06
5.1884122e-06
5.1952301e-06
5.2023401e-06
5.20964e-06
5.2170232e-06
5.2243776e-06
5.2315807e-06
5.2384822e-06
5.2448588e-06
5.2503021e-06
5.2539647e-06
5.2540222e-06
5.2466167e-06
5.2239488e-06
5.1711522e-06
5.0617822e-06
4.8524699e-06
4.4789587e-06
3.8588851e-06
2.9110372e-06
1.5984491e-06
5.2798873e-06
5.2841902e-06
5.2890693e-06
5.2944566e-06
5.3002755e-06
5.3064422e-06
5.3128666e-06
5.3194538e-06
5.3261046e-06
5.3327147e-06
5.3391685e-06
5.3453222e-06
5.3509565e-06
5.3556623e-06
5.3585806e-06
5.3578527e-06
5.3495421e-06
5.3256896e-06
5.2711326e-06
5.1589213e-06
4.9448965e-06
4.5636551e-06
3.9312607e-06
2.9650072e-06
1.6320716e-06
5.3866147e-06
5.3905037e-06
5.3949128e-06
5.3997794e-06
5.4050328e-06
5.4105954e-06
5.4163837e-06
5.4223097e-06
5.4282811e-06
5.4342003e-06
5.4399584e-06
5.4454172e-06
5.4503613e-06
5.4543803e-06
5.456604e-06
5.4551404e-06
5.4459777e-06
5.4210041e-06
5.3647752e-06
5.2498637e-06
5.031369e-06
4.6428291e-06
3.9988578e-06
3.0149593e-06
1.6581626e-06
5.4835026e-06
5.4870105e-06
5.490987e-06
5.4953748e-06
5.5001085e-06
5.5051162e-06
5.5103202e-06
5.5156387e-06
5.5209857e-06
5.5262696e-06
5.5313875e-06
5.5362064e-06
5.5405138e-06
5.5438982e-06
5.545478e-06
5.5433298e-06
5.5333704e-06
5.507345e-06
5.449547e-06
5.3321097e-06
5.1094626e-06
4.7142275e-06
4.0599208e-06
3.0610507e-06
1.684275e-06
5.5657918e-06
5.5689523e-06
5.5725355e-06
5.5764886e-06
5.5807512e-06
5.5852563e-06
5.5899314e-06
5.5946999e-06
5.5994812e-06
5.6041891e-06
5.6087257e-06
5.6129622e-06
5.6166888e-06
5.6194921e-06
5.6204797e-06
5.6176985e-06
5.6069989e-06
5.5799957e-06
5.5207476e-06
5.401003e-06
5.1746209e-06
4.7734718e-06
4.1102127e-06
3.0985925e-06
1.7050546e-06
5.6244636e-06
5.6273119e-06
5.630543e-06
5.634109e-06
5.6379535e-06
5.6420135e-06
5.646221e-06
5.6505034e-06
5.6547844e-06
5.6589817e-06
5.6630011e-06
5.6667172e-06
5.6699216e-06
5.6721991e-06
5.6726466e-06
5.6692838e-06
5.6579025e-06
5.6300049e-06
5.5694571e-06
5.4477104e-06
5.2182216e-06
4.812399e-06
4.1424726e-06
3.1219348e-06
1.717437e-06
5.6427496e-06
5.6453222e-06
5.6482452e-06
5.6514753e-06
5.6549605e-06
5.6586408e-06
5.662451e-06
5.6663212e-06
5.6701772e-06
5.6739385e-06
5.6775129e-06
5.6807765e-06
5.6835216e-06
5.6853307e-06
5.6852917e-06
5.6814016e-06
5.6694062e-06
5.6407272e-06
5.5791102e-06
5.4558628e-06
5.2243395e-06
4.8160224e-06
4.143576e-06
3.1213629e-06
1.7168516e-06
5.5909136e-06
5.5932484e-06
5.5959092e-06
5.5988585e-06
5.6020484e-06
5.6054217e-06
5.6089146e-06
5.6124577e-06
5.6159755e-06
5.6193856e-06
5.6225955e-06
5.6254813e-06
5.6278354e-06
5.6292385e-06
5.6287734e-06
5.624424e-06
5.611917e-06
5.5826558e-06
5.5204017e-06
5.3965969e-06
5.1650205e-06
4.7581406e-06
4.0904624e-06
3.0790752e-06
1.6935807e-06
5.4197107e-06
5.421848e-06
5.4242954e-06
5.4270178e-06
5.429974e-06
5.4331115e-06
5.4363675e-06
5.4396699e-06
5.4429361e-06
5.4460781e-06
5.4490026e-06
5.451586e-06
5.4536209e-06
5.4546916e-06
5.4538839e-06
5.4491873e-06
5.4363647e-06
5.4069295e-06
5.3449244e-06
5.2224355e-06
4.994591e-06
4.596404e-06
3.9465163e-06
2.9672648e-06
1.6313553e-06
5.0548727e-06
5.0568601e-06
5.0591506e-06
5.0616914e-06
5.0644511e-06
5.0673924e-06
5.0704573e-06
5.0735671e-06
5.0766255e-06
5.0795376e-06
5.0822188e-06
5.084551e-06
5.0863343e-06
5.0871695e-06
5.0861617e-06
5.0813322e-06
5.0685876e-06
5.0398038e-06
4.9798127e-06
4.8622636e-06
4.6451607e-06
4.2685341e-06
3.6587234e-06
2.7472434e-06
1.510865e-06
4.3988563e-06
4.4007492e-06
4.4029531e-06
4.4053316e-06
4.407865e-06
4.4105579e-06
4.4133708e-06
4.4162181e-06
4.4189862e-06
4.4215829e-06
4.4239582e-06
4.4260184e-06
4.4275896e-06
4.4283196e-06
4.4273584e-06
4.4227909e-06
4.4108523e-06
4.3842255e-06
4.3294318e-06
4.2232884e-06
4.0290003e-06
3.6950878e-06
3.1602713e-06
2.3702386e-06
1.3071631e-06
3.3517963e-06
3.353584e-06
3.3557029e-06
3.3578385e-06
3.359979e-06
3.3622036e-06
3.3645144e-06
3.3668303e-06
3.3690327e-06
3.3710544e-06
3.3729086e-06
3.3745519e-06
3.3758682e-06
3.3766008e-06
3.3759999e-06
3.3723025e-06
3.3623694e-06
3.340349e-06
3.2958058e-06
3.2112768e-06
3.0583652e-06
2.7981888e-06
2.3873412e-06
1.7903334e-06
9.9652113e-07
1.8712227e-06
1.8725482e-06
1.8741546e-06
1.8756412e-06
1.8769984e-06
1.8783472e-06
1.8797262e-06
1.8810846e-06
1.8823382e-06
1.8834593e-06
1.8845004e-06
1.8854658e-06
1.8863131e-06
1.8869187e-06
1.8867789e-06
1.8846405e-06
1.878506e-06
1.8648404e-06
1.8377707e-06
1.7883058e-06
1.700061e-06
1.5461631e-06
1.3162508e-06
9.9309369e-07
5.7177787e-07
)
;

boundaryField
{
    Walls
    {
        type            kqRWallFunction;
        value           nonuniform List<scalar> 
38
(
4.8438266e-06
2.5333514e-06
7.9601409e-06
3.7636636e-05
0.00028102129
0.0023565044
0.056353057
0.060984877
0.018586623
0.027469203
0.034532296
0.04151532
0.047536711
0.051789015
0.056338457
0.060082997
0.061936378
0.064433385
0.066608917
0.06751307
0.068703455
0.069589373
0.070536915
0.071977893
0.072366761
0.072475218
0.072327077
0.072826499
0.073163505
0.073358392
0.073552077
0.073807722
0.073767654
0.072892125
0.072627517
0.072520604
0.071820716
0.066799773
)
;
    }
    Inlet
    {
        type            turbulentIntensityKineticEnergyInlet;
        intensity       0.05;
        value           nonuniform List<scalar> 3(0.0084717518 0.0084370654 0.0099205964);
    }
    Outlet
    {
        type            inletOutlet;
        inletValue      uniform 0;
        value           nonuniform List<scalar> 
86
(
1.8686144e-06
1.8687575e-06
1.869076e-06
1.8695694e-06
1.8702619e-06
1.8712227e-06
1.8725482e-06
1.8741546e-06
1.8756412e-06
1.8769984e-06
1.8783472e-06
1.8797262e-06
1.8810846e-06
1.8823382e-06
1.8834593e-06
1.8845004e-06
1.8854658e-06
1.8863131e-06
1.8869187e-06
1.8867789e-06
1.8846405e-06
1.878506e-06
1.8648404e-06
1.8377707e-06
1.7883058e-06
1.700061e-06
1.5461631e-06
1.3162508e-06
9.9309369e-07
5.7177787e-07
0.0028524544
0.0029314985
0.0023205369
0
0
0
0
5.485503e-05
2.7746542e-05
1.1141004e-05
0
0
0
0
8.2949128e-07
8.6012437e-07
8.8994155e-07
9.1623693e-07
9.4768414e-07
9.8167158e-07
1.0193204e-06
1.0613244e-06
1.0908301e-06
1.1255502e-06
1.1630268e-06
1.1970543e-06
1.2307349e-06
1.2651674e-06
1.2998874e-06
1.3345899e-06
0
0
0
0
0
0
0
0
0
0
0
0
0
0
0
0
0
0
0
0
0
0
0
0
0.0022642052
0.0029330572
)
;
    }
    Front
    {
        type            wedge;
    }
    Back
    {
        type            wedge;
    }
    defaultFaces
    {
        type            empty;
    }
}


// ************************************************************************* //
