/*--------------------------------*- C++ -*----------------------------------*\
| =========                 |                                                 |
| \\      /  F ield         | OpenFOAM: The Open Source CFD Toolbox           |
|  \\    /   O peration     | Version:  4.0                                   |
|   \\  /    A nd           | Web:      www.OpenFOAM.org                      |
|    \\/     M anipulation  |                                                 |
\*---------------------------------------------------------------------------*/
FoamFile
{
    version     2.0;
    format      ascii;
    class       volScalarField;
    location    "0.16";
    object      nut;
}
// * * * * * * * * * * * * * * * * * * * * * * * * * * * * * * * * * * * * * //

dimensions      [0 2 -1 0 0 0 0];

internalField   nonuniform List<scalar> 
1740
(
1.7322863e-05
1.3233658e-05
1.2455656e-06
1.2329141e-05
6.8101112e-06
1.8275496e-06
3.4579859e-05
5.4116582e-06
2.2844711e-06
2.6329433e-05
4.8737251e-06
2.731095e-06
2.0775054e-05
4.4325002e-06
3.112364e-06
1.6840159e-05
4.1155686e-06
3.3797119e-06
1.0516817e-05
3.8953509e-06
3.6637916e-06
1.199792e-05
3.7427714e-06
3.8962126e-06
1.0353504e-05
3.6395748e-06
4.010644e-06
9.36884e-06
3.5583857e-06
4.1638534e-06
8.6254578e-06
3.5284049e-06
4.2970797e-06
7.9195135e-06
3.5202967e-06
4.3529707e-06
7.4254991e-06
3.4920414e-06
4.4261002e-06
6.9840285e-06
3.4794069e-06
4.4804085e-06
6.5886896e-06
3.478625e-06
4.5376195e-06
6.1743658e-06
3.5057978e-06
4.6257271e-06
5.8301072e-06
3.5410419e-06
4.6491579e-06
5.5430137e-06
3.5468903e-06
4.6560004e-06
5.3479536e-06
3.5264827e-06
4.6470071e-06
5.1623192e-06
3.5106148e-06
4.6771799e-06
4.9828296e-06
3.5072624e-06
4.6976968e-06
4.8419916e-06
3.5269766e-06
4.7093976e-06
4.7070466e-06
3.5469285e-06
4.7209218e-06
4.5661376e-06
3.5569796e-06
4.7364935e-06
4.4351875e-06
3.5787411e-06
4.7343603e-06
4.3360205e-06
3.5715915e-06
4.6806741e-06
4.2669818e-06
3.5637257e-06
4.6644738e-06
4.1912315e-06
3.56644e-06
4.657792e-06
4.1420252e-06
3.5622987e-06
4.6150891e-06
2.6429946e-06
3.3981067e-06
4.3088976e-06
1.8471483e-06
2.150569e-06
4.4152873e-06
7.1774591e-06
7.3538844e-06
6.6984949e-06
6.5369061e-06
6.7446421e-06
6.3779428e-06
5.1797114e-06
5.1199103e-06
4.8696805e-06
4.3017069e-06
4.2306157e-06
4.091241e-06
3.6550543e-06
3.6115034e-06
3.5443461e-06
3.0807041e-06
3.0588587e-06
3.0293573e-06
2.48068e-06
2.4694299e-06
2.45448e-06
1.8328219e-06
1.8252157e-06
1.8135033e-06
1.2011639e-06
1.1949509e-06
1.1839583e-06
6.8976461e-07
6.8510246e-07
6.7628012e-07
3.5434129e-07
3.5144647e-07
3.4580821e-07
1.7180778e-07
1.7029339e-07
1.6732519e-07
8.647163e-08
8.581499e-08
8.4510196e-08
5.0913593e-08
5.0662074e-08
5.0166981e-08
3.7815242e-08
3.7740671e-08
3.7604227e-08
3.4084326e-08
3.4082e-08
3.4091798e-08
3.3995515e-08
3.4020751e-08
3.4084969e-08
3.5227691e-08
3.526239e-08
3.5343925e-08
3.690776e-08
3.6944834e-08
3.7029504e-08
3.8733116e-08
3.8769856e-08
3.8852518e-08
4.0608679e-08
4.0644067e-08
4.0722976e-08
4.2508399e-08
4.2542066e-08
4.2616707e-08
4.4426587e-08
4.4458414e-08
4.452871e-08
4.6362247e-08
4.6392218e-08
4.6458244e-08
4.8314557e-08
4.8342699e-08
4.8404587e-08
5.0281787e-08
5.0308148e-08
5.0366047e-08
5.2261151e-08
5.2285788e-08
5.2339854e-08
5.4248857e-08
5.4271833e-08
5.4322223e-08
5.6240183e-08
5.6261564e-08
5.6308433e-08
5.8229528e-08
5.8249378e-08
5.8292877e-08
6.021045e-08
6.0228835e-08
6.0269113e-08
6.2175699e-08
6.2192684e-08
6.2229886e-08
6.4117254e-08
6.4132902e-08
6.4167173e-08
6.6026366e-08
6.6040743e-08
6.6072226e-08
6.7893628e-08
6.7906797e-08
6.7935634e-08
6.9709055e-08
6.9721082e-08
6.9747416e-08
7.1462219e-08
7.1473169e-08
7.1497145e-08
7.3142446e-08
7.3152387e-08
7.3174153e-08
7.4739147e-08
7.4748148e-08
7.4767856e-08
7.6242331e-08
7.6250464e-08
7.6268273e-08
7.7643345e-08
7.7650686e-08
7.7666762e-08
7.8935687e-08
7.8942319e-08
7.8956843e-08
8.0115429e-08
8.0121439e-08
8.0134604e-08
8.1180255e-08
8.1185739e-08
8.1197753e-08
8.2125802e-08
8.2130857e-08
8.2141936e-08
8.2937828e-08
8.2942555e-08
8.2952915e-08
8.3577766e-08
8.3582254e-08
8.3592093e-08
8.3955785e-08
8.3960108e-08
8.3969587e-08
8.3838715e-08
8.3842911e-08
8.3852116e-08
4.1800724e-06
4.5054731e-06
6.6719432e-06
8.376515e-06
5.9942314e-06
6.0353479e-06
4.7191867e-06
4.8184764e-06
4.0346795e-06
4.1318219e-06
3.5308811e-06
3.6096951e-06
3.0310443e-06
3.0860955e-06
2.4554004e-06
2.4852215e-06
1.8078767e-06
1.8161695e-06
1.1737431e-06
1.1690075e-06
6.6631886e-07
6.5787806e-07
3.3896015e-07
3.3225491e-07
1.6361501e-07
1.597779e-07
8.2849164e-08
8.1089942e-08
4.9542885e-08
4.8892246e-08
3.7449726e-08
3.7315464e-08
3.4130026e-08
3.4209843e-08
3.4193637e-08
3.435045e-08
3.5473293e-08
3.565071e-08
3.7160826e-08
3.7337751e-08
3.897929e-08
3.9148686e-08
4.0843212e-08
4.1003166e-08
4.2729985e-08
4.2880293e-08
4.4635115e-08
4.4776075e-08
4.6558012e-08
4.6690042e-08
4.8497991e-08
4.8621512e-08
5.0453362e-08
5.0568774e-08
5.2421344e-08
5.2529021e-08
5.4398142e-08
5.4498437e-08
5.6379025e-08
5.647227e-08
5.8358381e-08
5.8444895e-08
6.0329757e-08
6.0409846e-08
6.2285894e-08
6.2359857e-08
6.4218764e-08
6.4286892e-08
6.6119617e-08
6.6182197e-08
6.7979041e-08
6.8036361e-08
6.9787056e-08
6.9839401e-08
7.1533237e-08
7.1580897e-08
7.3206919e-08
7.325019e-08
7.4797526e-08
7.483671e-08
7.6295085e-08
7.6330501e-08
7.7690971e-08
7.7722953e-08
7.8978719e-08
7.9007625e-08
8.0154438e-08
8.0180654e-08
8.1215857e-08
8.1239794e-08
8.2158636e-08
8.2180725e-08
8.2968536e-08
8.2989204e-08
8.3606933e-08
8.362658e-08
8.3983892e-08
8.4002848e-08
8.3866023e-08
8.388448e-08
4.0170448e-10
1.2792974e-08
1.8598818e-07
7.9674101e-07
1.5894306e-06
2.1576673e-06
2.4829337e-06
2.6695596e-06
2.7887467e-06
2.8751779e-06
2.9440529e-06
3.0011709e-06
3.047858e-06
3.0834778e-06
3.107139e-06
3.1172593e-06
3.1124121e-06
3.0918355e-06
3.0553715e-06
3.0028322e-06
2.9320312e-06
2.8346252e-06
2.6890009e-06
2.4473171e-06
1.9613597e-06
2.1009484e-10
2.6531407e-08
3.5435675e-07
1.3540134e-06
2.5254224e-06
3.3090809e-06
3.7548529e-06
4.0322982e-06
4.2328817e-06
4.3974679e-06
4.5432601e-06
4.6760173e-06
4.7958218e-06
4.9004993e-06
4.9873785e-06
5.0533647e-06
5.0955219e-06
5.111346e-06
5.0986396e-06
5.054111e-06
4.9695125e-06
4.823359e-06
4.5650854e-06
4.080567e-06
3.0300287e-06
6.6014453e-10
7.8811729e-08
8.5604994e-07
2.4982248e-06
3.7685945e-06
4.4870698e-06
4.9282558e-06
5.2466729e-06
5.5132451e-06
5.7579563e-06
5.9931079e-06
6.2215092e-06
6.4404437e-06
6.645976e-06
6.8338047e-06
6.9994174e-06
7.1377339e-06
7.2431256e-06
7.3095139e-06
7.3277473e-06
7.2805861e-06
7.1311067e-06
6.7975562e-06
6.0934455e-06
4.4895926e-06
3.1211638e-09
2.857235e-07
2.0650461e-06
4.0041872e-06
5.0395961e-06
5.6193315e-06
6.0147701e-06
6.3417525e-06
6.6494297e-06
6.95416e-06
7.2641358e-06
7.5801965e-06
7.8959382e-06
8.2062102e-06
8.5059195e-06
8.7900292e-06
9.0516419e-06
9.2822617e-06
9.4717973e-06
9.6070825e-06
9.6674852e-06
9.6139298e-06
9.3601339e-06
8.6861888e-06
6.8468855e-06
2.3298986e-08
1.1376358e-06
3.9901716e-06
5.6017027e-06
6.4554617e-06
6.9771313e-06
7.3592759e-06
7.7012862e-06
8.0447096e-06
8.3888907e-06
8.7445472e-06
9.1174278e-06
9.4949713e-06
9.8706967e-06
1.0238695e-05
1.0598774e-05
1.0945363e-05
1.1269981e-05
1.1562016e-05
1.1808486e-05
1.1992545e-05
1.2090357e-05
1.2064963e-05
1.1869275e-05
1.1498604e-05
1.949585e-07
2.747167e-06
5.8942653e-06
7.7053848e-06
8.6274483e-06
9.0507495e-06
9.2515006e-06
9.3915511e-06
9.5320309e-06
9.6907729e-06
9.8747833e-06
1.0089121e-05
1.0333275e-05
1.0604029e-05
1.0897942e-05
1.1210711e-05
1.1536196e-05
1.1865563e-05
1.2187453e-05
1.2488396e-05
1.2752894e-05
1.2963812e-05
1.3101862e-05
1.3155861e-05
1.311585e-05
4.3423638e-06
4.3115328e-06
4.3537362e-06
4.465429e-06
4.644445e-06
4.8789474e-06
5.157272e-06
5.4754504e-06
5.8350974e-06
6.2381198e-06
6.6841356e-06
7.1696214e-06
7.6873775e-06
8.2275454e-06
8.7793592e-06
9.3327705e-06
9.8787126e-06
1.0408048e-05
1.0910654e-05
1.1375057e-05
1.1788334e-05
1.2136841e-05
1.2406927e-05
1.2594253e-05
1.2688972e-05
9.1114559e-06
9.3677957e-06
9.772561e-06
1.0195287e-05
1.0374795e-05
1.0341058e-05
1.0226014e-05
1.0129984e-05
1.0092756e-05
1.011526e-05
1.0192622e-05
1.0319094e-05
1.0490243e-05
1.0702503e-05
1.0951392e-05
1.1231003e-05
1.153312e-05
1.1847103e-05
1.2160082e-05
1.2457165e-05
1.272139e-05
1.2934107e-05
1.3074301e-05
1.3129591e-05
1.3090146e-05
6.40757e-06
6.8180816e-06
7.2502032e-06
7.6504247e-06
7.9516239e-06
8.1662903e-06
8.3533506e-06
8.5540644e-06
8.7733635e-06
9.0244563e-06
9.3029164e-06
9.5982784e-06
9.9018108e-06
1.0214408e-05
1.0534829e-05
1.085847e-05
1.1177846e-05
1.1483111e-05
1.1762164e-05
1.2000344e-05
1.2178987e-05
1.2272168e-05
1.2240355e-05
1.2033678e-05
1.1645572e-05
5.1271554e-06
5.4794032e-06
5.8245203e-06
6.1341053e-06
6.3899966e-06
6.6035063e-06
6.8040764e-06
7.0111776e-06
7.2336504e-06
7.4759918e-06
7.7341637e-06
8.0025463e-06
8.276595e-06
8.552833e-06
8.8266562e-06
9.0917671e-06
9.3400829e-06
9.5618571e-06
9.74541e-06
9.875635e-06
9.9295219e-06
9.864865e-06
9.5910045e-06
8.8798675e-06
6.9623229e-06
4.3616672e-06
4.6370421e-06
4.9109889e-06
5.1611249e-06
5.3794721e-06
5.5722492e-06
5.7526818e-06
5.931935e-06
6.1163585e-06
6.3077407e-06
6.5032738e-06
6.6986177e-06
6.8896665e-06
7.0721237e-06
7.2414711e-06
7.3924748e-06
7.5188325e-06
7.6136198e-06
7.6687482e-06
7.6727903e-06
7.6054027e-06
7.425291e-06
7.0453248e-06
6.2746536e-06
4.5863221e-06
3.77073e-06
3.9696555e-06
4.1730409e-06
4.3626807e-06
4.5318372e-06
4.6827376e-06
4.8218596e-06
4.9551597e-06
5.0862387e-06
5.2157051e-06
5.3413856e-06
5.4596948e-06
5.5666923e-06
5.6582265e-06
5.7300886e-06
5.778224e-06
5.7988533e-06
5.7887303e-06
5.7448304e-06
5.6625324e-06
5.5309334e-06
5.3236038e-06
4.9823953e-06
4.3847365e-06
3.1808393e-06
3.1908654e-06
3.323227e-06
3.4617678e-06
3.5921921e-06
3.7077608e-06
3.8079029e-06
3.8953588e-06
3.9733585e-06
4.0439512e-06
4.1073659e-06
4.1620491e-06
4.2052971e-06
4.2339012e-06
4.2445496e-06
4.2341549e-06
4.2002241e-06
4.1412449e-06
4.0570793e-06
3.948901e-06
3.8178928e-06
3.6616499e-06
3.4672623e-06
3.2006329e-06
2.7898231e-06
2.0406707e-06
2.5438735e-06
2.6207241e-06
2.7027544e-06
2.779396e-06
2.8444452e-06
2.8959309e-06
2.9346121e-06
2.9621325e-06
2.9797399e-06
2.9876527e-06
2.9849833e-06
2.9700235e-06
2.940674e-06
2.8948703e-06
2.8309884e-06
2.7482525e-06
2.6471284e-06
2.5296549e-06
2.3993778e-06
2.260301e-06
2.1140984e-06
1.9549453e-06
1.7621632e-06
1.4953045e-06
1.1402697e-06
1.8398329e-06
1.8742034e-06
1.9118128e-06
1.9454986e-06
1.9703257e-06
1.9840782e-06
1.9866398e-06
1.9788657e-06
1.9616588e-06
1.9354444e-06
1.9000478e-06
1.8548174e-06
1.7989361e-06
1.7317465e-06
1.6530802e-06
1.5635604e-06
1.4648401e-06
1.3597221e-06
1.2519582e-06
1.1454529e-06
1.0425976e-06
9.4174898e-07
8.3485612e-07
7.1042718e-07
5.8544341e-07
1.1714199e-06
1.1792444e-06
1.1886309e-06
1.1953501e-06
1.1961466e-06
1.189334e-06
1.1746402e-06
1.1525935e-06
1.1239404e-06
1.0892809e-06
1.0489414e-06
1.0030416e-06
9.5166037e-07
8.9502743e-07
8.3369747e-07
7.6868528e-07
7.0153683e-07
6.3430196e-07
5.6934599e-07
5.089313e-07
4.5457493e-07
4.0640326e-07
3.6320844e-07
3.2504419e-07
3.0109042e-07
6.5221959e-07
6.4890534e-07
6.4621649e-07
6.4205043e-07
6.3467568e-07
6.2314617e-07
6.0730473e-07
5.8750319e-07
5.6428333e-07
5.3816411e-07
5.0955724e-07
4.7878181e-07
4.4614906e-07
4.1203311e-07
3.7693387e-07
3.4151882e-07
3.066291e-07
2.7324341e-07
2.423851e-07
2.149697e-07
1.9163175e-07
1.7267507e-07
1.5845134e-07
1.5079767e-07
1.5692479e-07
3.2645519e-07
3.2155262e-07
3.1690671e-07
3.1163231e-07
3.0496466e-07
2.9648131e-07
2.861272e-07
2.7410116e-07
2.6070925e-07
2.4625704e-07
2.310055e-07
2.1516771e-07
1.9896116e-07
1.8261529e-07
1.66389e-07
1.505824e-07
1.3553474e-07
1.2160742e-07
1.0914964e-07
9.8450147e-08
8.9696387e-08
8.2991988e-08
7.8491301e-08
7.6754735e-08
7.9494762e-08
1.5619907e-07
1.5294802e-07
1.4981769e-07
1.464844e-07
1.4265615e-07
1.3817364e-07
1.3302539e-07
1.2730663e-07
1.2115983e-07
1.1472886e-07
1.0812938e-07
1.0143677e-07
9.4750218e-08
8.8170003e-08
8.1800442e-08
7.5752044e-08
7.0140005e-08
6.5078593e-08
6.0671062e-08
5.6996527e-08
5.4100869e-08
5.1983725e-08
5.0632777e-08
5.0062799e-08
5.01621e-08
7.9404558e-08
7.7848057e-08
7.6366635e-08
7.4854327e-08
7.3210881e-08
7.1379736e-08
6.9357337e-08
6.7177548e-08
6.489005e-08
6.254394e-08
6.0181139e-08
5.7836736e-08
5.5540302e-08
5.3329875e-08
5.1240214e-08
4.9305058e-08
4.7557579e-08
4.6029301e-08
4.4747422e-08
4.3730842e-08
4.2986305e-08
4.2506499e-08
4.2247065e-08
4.2151554e-08
4.2029615e-08
4.8287201e-08
4.7757842e-08
4.7293741e-08
4.6860937e-08
4.642445e-08
4.5961455e-08
4.5465481e-08
4.4942232e-08
4.4403196e-08
4.3860795e-08
4.3326333e-08
4.2809959e-08
4.231621e-08
4.1855705e-08
4.1437331e-08
4.1069257e-08
4.0759684e-08
4.0517042e-08
4.0349432e-08
4.0263137e-08
4.0260425e-08
4.0337615e-08
4.0460069e-08
4.0583398e-08
4.0594122e-08
3.7229761e-08
3.7206396e-08
3.7243254e-08
3.7327892e-08
3.7445184e-08
3.7582482e-08
3.7731504e-08
3.7887791e-08
3.8049215e-08
3.8214682e-08
3.8383418e-08
3.8554702e-08
3.8727483e-08
3.8900047e-08
3.9073406e-08
3.9248632e-08
3.9427624e-08
3.9613661e-08
3.9811367e-08
4.0025747e-08
4.026019e-08
4.0513958e-08
4.0759486e-08
4.0958542e-08
4.101526e-08
3.4341212e-08
3.4529297e-08
3.477208e-08
3.5062652e-08
3.5391859e-08
3.5750413e-08
3.6129979e-08
3.6523435e-08
3.6924727e-08
3.7328611e-08
3.7730467e-08
3.8126183e-08
3.8512064e-08
3.888504e-08
3.9242036e-08
3.9582666e-08
3.9907666e-08
4.0219625e-08
4.0523053e-08
4.0823414e-08
4.1124937e-08
4.1427566e-08
4.170639e-08
4.1923311e-08
4.1983819e-08
3.4557984e-08
3.4817173e-08
3.5125217e-08
3.5476661e-08
3.5864513e-08
3.6281186e-08
3.6719141e-08
3.7171246e-08
3.7630905e-08
3.8092087e-08
3.8549312e-08
3.8997655e-08
3.9432781e-08
3.9851184e-08
4.0249142e-08
4.0625723e-08
4.098159e-08
4.1319504e-08
4.1644321e-08
4.1961917e-08
4.2276764e-08
4.2588451e-08
4.2873007e-08
4.3091273e-08
4.3147412e-08
3.5875871e-08
3.6147781e-08
3.6463256e-08
3.6817504e-08
3.7204687e-08
3.7618413e-08
3.8052115e-08
3.849934e-08
3.8953901e-08
3.9409972e-08
3.9862135e-08
4.0305431e-08
4.073545e-08
4.1148482e-08
4.1541669e-08
4.1913182e-08
4.2263966e-08
4.2597088e-08
4.291775e-08
4.3232112e-08
4.3544654e-08
4.3854361e-08
4.4137685e-08
4.4354333e-08
4.4407066e-08
3.7558896e-08
3.7822456e-08
3.8125207e-08
3.8462861e-08
3.8830387e-08
3.9222288e-08
3.9632845e-08
4.0056323e-08
4.0487097e-08
4.0919763e-08
4.1349197e-08
4.1770639e-08
4.2179815e-08
4.2573124e-08
4.2947991e-08
4.3302687e-08
4.3638246e-08
4.3958025e-08
4.4267557e-08
4.4573252e-08
4.4879562e-08
4.5184859e-08
4.5465802e-08
4.5680837e-08
4.5730315e-08
3.935895e-08
3.9607973e-08
3.9892656e-08
4.0209133e-08
4.055297e-08
4.0919344e-08
4.1303204e-08
4.1699412e-08
4.2102856e-08
4.2508549e-08
4.2911701e-08
4.330781e-08
4.36928e-08
4.4063237e-08
4.4416663e-08
4.4752033e-08
4.5070137e-08
4.5374713e-08
4.5671647e-08
4.596761e-08
4.6267028e-08
4.6567665e-08
4.6846119e-08
4.705913e-08
4.7103227e-08
4.1200989e-08
4.1434494e-08
4.1700761e-08
4.1996266e-08
4.2317035e-08
4.2658751e-08
4.3016879e-08
4.3386764e-08
4.3763723e-08
4.414314e-08
4.4520542e-08
4.4891698e-08
4.5252757e-08
4.5600491e-08
4.5932657e-08
4.6248536e-08
4.6549142e-08
4.6838513e-08
4.7122886e-08
4.7409198e-08
4.7701863e-08
4.799804e-08
4.8273998e-08
4.8484239e-08
4.8521604e-08
4.3065795e-08
4.328434e-08
4.3533178e-08
4.3809087e-08
4.4108439e-08
4.4427318e-08
4.4761591e-08
4.5106998e-08
4.545922e-08
4.5813968e-08
4.616706e-08
4.6514524e-08
4.6852749e-08
4.7178724e-08
4.7490436e-08
4.7787433e-08
4.8071087e-08
4.834572e-08
4.8617925e-08
4.8894916e-08
4.9181104e-08
4.9473063e-08
4.9746529e-08
4.9953311e-08
4.9978732e-08
4.4949819e-08
4.5154271e-08
4.5386853e-08
4.564459e-08
4.5924149e-08
4.6221928e-08
4.6534129e-08
4.6856819e-08
4.7185994e-08
4.7517658e-08
4.7847897e-08
4.8172989e-08
4.8489551e-08
4.8794799e-08
4.9086946e-08
4.9365758e-08
4.9633166e-08
4.989362e-08
5.0154106e-08
5.0422125e-08
5.0702091e-08
5.098999e-08
5.1260818e-08
5.1463495e-08
5.1478698e-08
4.6852646e-08
4.7043843e-08
4.7261226e-08
4.7502027e-08
4.7763164e-08
4.8041307e-08
4.8332936e-08
4.8634404e-08
4.8941984e-08
4.9251943e-08
4.956062e-08
4.9864527e-08
5.0160507e-08
5.0446e-08
5.071945e-08
5.098089e-08
5.123261e-08
5.1479413e-08
5.1728618e-08
5.1988002e-08
5.2261984e-08
5.2546002e-08
5.2814344e-08
5.3013565e-08
5.3021089e-08
4.8773555e-08
4.8952245e-08
4.9155332e-08
4.9380235e-08
4.9624094e-08
4.9883815e-08
5.0156126e-08
5.0437625e-08
5.072484e-08
5.101428e-08
5.1302518e-08
5.158629e-08
5.1862657e-08
5.2129279e-08
5.2384831e-08
5.2629609e-08
5.2866198e-08
5.3099894e-08
5.3338249e-08
5.3589333e-08
5.385758e-08
5.4137906e-08
5.4403853e-08
5.4599548e-08
5.4596464e-08
5.0710785e-08
5.0877625e-08
5.1067195e-08
5.1277089e-08
5.150464e-08
5.1746969e-08
5.2001025e-08
5.2263634e-08
5.2531547e-08
5.2801504e-08
5.3070296e-08
5.3334871e-08
5.3592503e-08
5.3841063e-08
5.4079459e-08
5.4308248e-08
5.4530325e-08
5.4751368e-08
5.4979281e-08
5.5222396e-08
5.5485149e-08
5.5761926e-08
5.6025396e-08
5.6217061e-08
5.6202037e-08
5.2661482e-08
5.2817066e-08
5.2993808e-08
5.3189468e-08
5.3401559e-08
5.3627395e-08
5.3864128e-08
5.4108792e-08
5.4358352e-08
5.4609752e-08
5.4859992e-08
5.5106227e-08
5.5345931e-08
5.5577184e-08
5.5799117e-08
5.6012546e-08
5.6220675e-08
5.6429536e-08
5.664741e-08
5.6882878e-08
5.7140356e-08
5.7413657e-08
5.7674429e-08
5.7861455e-08
5.7833725e-08
5.4621795e-08
5.476666e-08
5.49312e-08
5.5113324e-08
5.5310715e-08
5.5520865e-08
5.5741113e-08
5.5968688e-08
5.620075e-08
5.6434442e-08
5.6666959e-08
5.6895647e-08
5.7118178e-08
5.7332832e-08
5.7538961e-08
5.7737632e-08
5.7932347e-08
5.8129473e-08
5.8337719e-08
5.8565849e-08
5.8818259e-08
5.9088159e-08
5.9346049e-08
5.9527892e-08
5.9486519e-08
5.6586944e-08
5.6721593e-08
5.6874507e-08
5.7043738e-08
5.7227125e-08
5.7422329e-08
5.7626863e-08
5.7838138e-08
5.8053497e-08
5.8270271e-08
5.8485839e-08
5.8697732e-08
5.8903807e-08
5.9102541e-08
5.9293497e-08
5.947799e-08
5.9659817e-08
5.9845685e-08
6.0044662e-08
6.026575e-08
6.05133e-08
6.0779914e-08
6.1034877e-08
6.1211341e-08
6.1156122e-08
5.8551281e-08
5.8676185e-08
5.8818015e-08
5.8974955e-08
5.9144991e-08
5.9325941e-08
5.9515484e-08
5.97112e-08
5.9910607e-08
6.0111212e-08
6.0310567e-08
6.0506381e-08
6.069669e-08
6.0880157e-08
6.1056554e-08
6.1227436e-08
6.1396888e-08
6.1571948e-08
6.1762022e-08
6.1976361e-08
6.2219261e-08
6.2482718e-08
6.2734779e-08
6.2905936e-08
6.2839597e-08
6.0508325e-08
6.0623935e-08
6.0755196e-08
6.0900418e-08
6.1057723e-08
6.1225077e-08
6.1400316e-08
6.1581181e-08
6.1765355e-08
6.1950507e-08
6.213436e-08
6.231479e-08
6.2490003e-08
6.2658841e-08
6.2821279e-08
6.2979105e-08
6.3136686e-08
6.330138e-08
6.3482913e-08
6.3690806e-08
6.3929273e-08
6.4189736e-08
6.4439046e-08
6.460517e-08
6.4526243e-08
6.2450797e-08
6.2557549e-08
6.2678736e-08
6.2812789e-08
6.2957961e-08
6.3112355e-08
6.3273955e-08
6.3440653e-08
6.3610287e-08
6.3780686e-08
6.3949729e-08
6.4115452e-08
6.4276225e-08
6.4431064e-08
6.4580135e-08
6.4725456e-08
6.4871667e-08
6.5026441e-08
6.519982e-08
6.5401555e-08
6.5635817e-08
6.5893474e-08
6.6140188e-08
6.6301242e-08
6.6205705e-08
6.4370654e-08
6.4468972e-08
6.4580569e-08
6.470399e-08
6.4837609e-08
6.4979663e-08
6.5128271e-08
6.5281471e-08
6.5437248e-08
6.5593578e-08
6.5748493e-08
6.5900179e-08
6.6047161e-08
6.6188623e-08
6.6324917e-08
6.6458283e-08
6.6593624e-08
6.6738923e-08
6.6904531e-08
6.7100413e-08
6.7330707e-08
6.7585759e-08
6.7830089e-08
6.7986317e-08
6.787679e-08
6.6259137e-08
6.6349438e-08
6.6451922e-08
6.6565237e-08
6.6687876e-08
6.6818199e-08
6.6954455e-08
6.7094818e-08
6.7237411e-08
6.7380352e-08
6.7521815e-08
6.766013e-08
6.7793971e-08
6.7922679e-08
6.8046786e-08
6.8168745e-08
6.8293718e-08
6.8429987e-08
6.85882e-08
6.8778528e-08
6.9005063e-08
6.9257615e-08
6.9499489e-08
6.965044e-08
6.9525746e-08
6.810683e-08
6.818953e-08
6.8283373e-08
6.8387107e-08
6.8499335e-08
6.8618532e-08
6.8743073e-08
6.8871257e-08
6.9001339e-08
6.9131572e-08
6.926026e-08
6.9385873e-08
6.9507224e-08
6.9623805e-08
6.973632e-08
6.9847425e-08
6.9962534e-08
7.0090214e-08
7.0241401e-08
7.0426456e-08
7.0649409e-08
7.0899487e-08
7.1138667e-08
7.1283687e-08
7.114298e-08
6.9903754e-08
6.9979269e-08
7.0064944e-08
7.0159622e-08
7.0262008e-08
7.0370688e-08
7.0484152e-08
7.060082e-08
7.0719069e-08
7.0837277e-08
7.0953877e-08
7.1067463e-08
7.1176985e-08
7.1282075e-08
7.13836e-08
7.1484414e-08
7.1590165e-08
7.1709698e-08
7.185422e-08
7.2034264e-08
7.2253791e-08
7.2501403e-08
7.2737663e-08
7.287608e-08
7.2717268e-08
7.163949e-08
7.170824e-08
7.1786226e-08
7.1872378e-08
7.1965499e-08
7.2064278e-08
7.2167313e-08
7.2273135e-08
7.238024e-08
7.248712e-08
7.2592327e-08
7.2694578e-08
7.2792944e-08
7.2887194e-08
7.2978348e-08
7.3069442e-08
7.3166353e-08
7.3278184e-08
7.3416401e-08
7.3591696e-08
7.3807935e-08
7.4053121e-08
7.4286436e-08
7.4418333e-08
7.4238806e-08
7.3303386e-08
7.33658e-08
7.3436583e-08
7.3514751e-08
7.3599196e-08
7.3688702e-08
7.378197e-08
7.3877636e-08
7.3974301e-08
7.4070568e-08
7.4165101e-08
7.4256726e-08
7.4344632e-08
7.4428713e-08
7.4510131e-08
7.4592098e-08
7.46807e-08
7.4785284e-08
7.4917555e-08
7.5088352e-08
7.5301443e-08
7.554426e-08
7.5774699e-08
7.5900533e-08
7.5707302e-08
7.4884885e-08
7.4941404e-08
7.5005488e-08
7.507623e-08
7.5152607e-08
7.5233492e-08
7.5317678e-08
7.5403899e-08
7.5490856e-08
7.5577253e-08
7.5661855e-08
7.5743594e-08
7.5821764e-08
7.5896375e-08
7.5968723e-08
7.6042178e-08
7.6123018e-08
7.6220819e-08
7.63475e-08
7.6514031e-08
7.6724075e-08
7.6964525e-08
7.7192054e-08
7.7311841e-08
7.7102862e-08
7.6374045e-08
7.6425129e-08
7.6483039e-08
7.654694e-08
7.6615886e-08
7.6688831e-08
7.6764655e-08
7.684218e-08
7.6920198e-08
7.6997506e-08
7.7072962e-08
7.7145592e-08
7.721479e-08
7.7280669e-08
7.7344646e-08
7.7410232e-08
7.7483881e-08
7.7575363e-08
7.7696788e-08
7.7859227e-08
7.8066228e-08
7.8304172e-08
7.8528632e-08
7.8642575e-08
7.8419721e-08
7.776228e-08
7.7808416e-08
7.7860709e-08
7.7918389e-08
7.7980579e-08
7.804631e-08
7.8114536e-08
7.8184161e-08
7.825406e-08
7.8323111e-08
7.8390258e-08
7.8454612e-08
7.8515653e-08
7.8573587e-08
7.8629935e-08
7.8688332e-08
7.8755376e-08
7.8840998e-08
7.8957448e-08
7.9115854e-08
7.9319627e-08
7.9554645e-08
7.9775419e-08
7.9882706e-08
7.9644761e-08
7.9043176e-08
7.9084886e-08
7.9132159e-08
7.9184283e-08
7.9240444e-08
7.9299739e-08
7.9361191e-08
7.9423774e-08
7.9486436e-08
7.9548128e-08
7.9607868e-08
7.9664841e-08
7.9718603e-08
7.9769438e-08
7.9818952e-08
7.9870877e-08
7.9931917e-08
8.0012107e-08
8.0123773e-08
8.0278029e-08
8.0478092e-08
8.0709366e-08
8.0925417e-08
8.1025117e-08
8.0771916e-08
8.0212905e-08
8.0250751e-08
8.0293643e-08
8.0340926e-08
8.039184e-08
8.0445537e-08
8.0501102e-08
8.0557568e-08
8.0613943e-08
8.0669244e-08
8.0722549e-08
8.0773107e-08
8.0820534e-08
8.0865178e-08
8.0908706e-08
8.0954912e-08
8.1010554e-08
8.1085696e-08
8.1192638e-08
8.1342366e-08
8.1537823e-08
8.1763931e-08
8.1973491e-08
8.2064007e-08
8.179537e-08
8.1269252e-08
8.130383e-08
8.1343024e-08
8.1386224e-08
8.1432718e-08
8.1481709e-08
8.1532327e-08
8.1583656e-08
8.1634756e-08
8.1684691e-08
8.1732592e-08
8.1777757e-08
8.181985e-08
8.1859263e-08
8.1897697e-08
8.1938963e-08
8.1989805e-08
8.2060215e-08
8.2162322e-08
8.2306822e-08
8.2496238e-08
8.2714962e-08
8.2915223e-08
8.2993784e-08
8.2708487e-08
8.2207918e-08
8.2239848e-08
8.227605e-08
8.2315949e-08
8.2358875e-08
8.2404069e-08
8.2450705e-08
8.2497903e-08
8.2544758e-08
8.2590375e-08
8.2633924e-08
8.2674742e-08
8.2712525e-08
8.2747689e-08
8.2781938e-08
8.2819047e-08
8.2865662e-08
8.2931569e-08
8.3028552e-08
8.3166785e-08
8.3348163e-08
8.355642e-08
8.374351e-08
8.3806244e-08
8.3502059e-08
8.3014659e-08
8.3044563e-08
8.3078479e-08
8.3115848e-08
8.3156034e-08
8.3198318e-08
8.3241904e-08
8.3285938e-08
8.332954e-08
8.3371841e-08
8.3412048e-08
8.3449526e-08
8.3483993e-08
8.3515869e-08
8.3546826e-08
8.3580531e-08
8.3623436e-08
8.3684981e-08
8.3776393e-08
8.3907055e-08
8.40779e-08
8.4271902e-08
8.4441041e-08
8.4483389e-08
8.4158761e-08
8.3650795e-08
8.3679271e-08
8.3711581e-08
8.3747143e-08
8.3785349e-08
8.3825523e-08
8.3866897e-08
8.3908635e-08
8.3949864e-08
8.3989741e-08
8.402751e-08
8.4062561e-08
8.4094625e-08
8.4124113e-08
8.4152623e-08
8.4183629e-08
8.4223277e-08
8.4280517e-08
8.4365829e-08
8.4487573e-08
8.4645385e-08
8.4821257e-08
8.4967447e-08
8.4984951e-08
8.4640658e-08
8.4026249e-08
8.4053828e-08
8.4085141e-08
8.4119517e-08
8.4156364e-08
8.4195067e-08
8.4234895e-08
8.4275018e-08
8.4314566e-08
8.4352717e-08
8.4388764e-08
8.4422128e-08
8.4452551e-08
8.4480433e-08
8.4507248e-08
8.4536171e-08
8.4572933e-08
8.4625864e-08
8.4704594e-08
8.4816432e-08
8.4959425e-08
8.5114239e-08
8.5234027e-08
8.5224984e-08
8.4869075e-08
8.3907336e-08
8.3934382e-08
8.3965134e-08
8.3998722e-08
8.4034571e-08
8.4072155e-08
8.4110795e-08
8.4149671e-08
8.4187912e-08
8.4224727e-08
8.4259472e-08
8.4291611e-08
8.4320908e-08
8.4347753e-08
8.437346e-08
8.4400782e-08
8.4434919e-08
8.4483466e-08
8.4555246e-08
8.4657003e-08
8.4785129e-08
8.4914502e-08
8.5008769e-08
8.4983646e-08
8.465615e-08
)
;

boundaryField
{
    Walls
    {
        type            nutUWallFunction;
        Cmu             0.09;
        kappa           0.41;
        E               9.8;
        value           uniform 0;
    }
    Inlet
    {
        type            calculated;
        value           nonuniform List<scalar> 3(3.9707448e-05 2.561871e-05 8.0498487e-07);
    }
    Outlet
    {
        type            calculated;
        value           nonuniform List<scalar> 
86
(
8.3838715e-08
8.3842911e-08
8.3852116e-08
8.3866023e-08
8.388448e-08
8.3907336e-08
8.3934382e-08
8.3965134e-08
8.3998722e-08
8.4034571e-08
8.4072155e-08
8.4110795e-08
8.4149671e-08
8.4187912e-08
8.4224727e-08
8.4259472e-08
8.4291611e-08
8.4320908e-08
8.4347753e-08
8.437346e-08
8.4400782e-08
8.4434919e-08
8.4483466e-08
8.4555246e-08
8.4657003e-08
8.4785129e-08
8.4914502e-08
8.5008769e-08
8.4983646e-08
8.465615e-08
1.2688972e-05
1.3090146e-05
1.1645572e-05
0
0
0
0
1.1402697e-06
5.8544341e-07
3.0109042e-07
0
0
0
0
4.0594122e-08
4.101526e-08
4.1983819e-08
4.3147412e-08
4.4407066e-08
4.5730315e-08
4.7103227e-08
4.8521604e-08
4.9978732e-08
5.1478698e-08
5.3021089e-08
5.4596464e-08
5.6202037e-08
5.7833725e-08
5.9486519e-08
6.1156122e-08
0
0
0
0
0
0
0
0
0
0
0
0
0
0
0
0
0
0
0
0
0
0
0
0
1.1498604e-05
1.311585e-05
)
;
    }
    Front
    {
        type            wedge;
    }
    Back
    {
        type            wedge;
    }
    defaultFaces
    {
        type            empty;
    }
}


// ************************************************************************* //
