/*--------------------------------*- C++ -*----------------------------------*\
| =========                 |                                                 |
| \\      /  F ield         | OpenFOAM: The Open Source CFD Toolbox           |
|  \\    /   O peration     | Version:  4.0                                   |
|   \\  /    A nd           | Web:      www.OpenFOAM.org                      |
|    \\/     M anipulation  |                                                 |
\*---------------------------------------------------------------------------*/
FoamFile
{
    version     2.0;
    format      ascii;
    class       volScalarField;
    location    "0.16";
    object      omega;
}
// * * * * * * * * * * * * * * * * * * * * * * * * * * * * * * * * * * * * * //

dimensions      [0 0 -1 0 0 0 0];

internalField   nonuniform List<scalar> 
1740
(
65.922924
698.69559
14922.235
172.73346
1483.5297
15030.62
276.67309
1960.2713
15116.101
377.69316
2205.8502
15200.98
485.028
2491.2619
15273.506
603.066
2754.4355
15323.5
723.04438
2979.282
15377.091
848.92051
3265.3793
15420.872
981.07946
3471.7613
15443.001
1078.3621
3519.977
15474.46
1162.2255
3644.2425
15500.973
1258.1768
3774.3851
15509.654
1329.9536
3806.1933
15522.345
1399.5798
3834.1357
15531.926
1470.5695
3865.251
15544.916
1553.4208
3954.4361
15560.341
1624.0132
4082.8118
15565.563
1696.4848
4117.9238
15565.982
1731.1215
4084.83
15564.228
1766.7831
4058.307
15570.6
1808.5714
4059.8816
15574.335
1825.881
4110.265
15577.022
1847.4177
4154.3287
15580.025
1887.5967
4172.5435
15582.777
1941.5693
4225.9582
15581.335
1966.8923
4214.6258
15572.997
1961.3477
4204.216
15570.356
1975.2475
4220.1918
15569.739
2003.6511
4189.0268
15562.152
2133.5394
4277.316
15502.752
3190.1854
4555.3165
10749.582
3343.1221
4246.3834
5953.2902
1574.1828
1860.7083
2155.8579
826.55757
901.31382
959.00527
481.37152
499.42994
509.01133
304.10852
307.81827
307.75068
205.7491
206.08912
204.64676
148.54119
148.24943
147.05194
114.76936
114.4754
113.70515
95.380736
95.192304
94.757108
85.082443
84.987832
84.775812
80.262013
80.230976
80.1536
78.3952
78.404463
78.399809
77.478347
77.482034
77.477517
76.694297
76.702327
76.704608
75.962492
75.975301
75.983615
75.306668
75.319612
75.32898
74.771329
74.781071
74.787861
74.36429
74.370392
74.373915
74.062713
74.066036
74.067016
73.836123
73.837632
73.836977
73.658956
73.659364
73.65776
73.513263
73.513028
73.510919
73.387419
73.386821
73.384477
73.274152
73.273359
73.270941
73.168967
73.16808
73.165683
73.069097
73.068178
73.065856
72.97285
72.971936
72.969719
72.879211
72.878323
72.876229
72.787603
72.786754
72.78479
72.697738
72.696936
72.695105
72.609525
72.608774
72.607075
72.523008
72.522309
72.520739
72.438313
72.437667
72.436221
72.35559
72.354994
72.353668
72.274886
72.27434
72.273128
72.19587
72.195371
72.194267
72.117137
72.116684
72.115683
72.034611
72.034201
72.033295
71.937986
71.937616
71.936802
71.803381
71.80305
71.802322
71.579181
71.578889
71.578247
71.160879
71.160629
71.160079
70.350285
70.350087
70.349656
68.796733
68.796619
68.796368
65.926419
65.926446
65.926504
60.88717
60.887422
60.887976
52.57656
52.577095
52.578285
39.875722
39.876452
39.878097
22.288204
22.288796
22.290147
13481.359
13535.732
6008.4743
5340.511
2084.286
1881.6742
923.0257
854.30944
492.06533
464.8701
299.35413
287.28059
200.3111
194.56739
144.74689
141.86789
112.46523
110.97019
94.106593
93.330532
84.462905
84.082168
80.028982
79.863336
78.366923
78.300967
77.453682
77.404142
76.689617
76.651528
75.975183
75.945566
75.323749
75.30081
74.783391
74.765588
74.369296
74.355227
74.06216
74.05069
73.832027
73.822343
73.652861
73.644432
73.50617
73.498664
73.379936
73.373149
73.266639
73.260443
73.161633
73.155944
73.062061
73.056821
72.966177
72.961344
72.872934
72.868475
72.781734
72.777622
72.692277
72.688489
72.604466
72.600982
72.518338
72.51514
72.434018
72.431089
72.351653
72.348976
72.271289
72.268849
72.192595
72.190377
72.114166
72.112157
72.031926
72.030112
71.93557
71.933941
71.801223
71.79977
71.577279
71.576003
71.159253
71.158168
70.349007
70.348161
68.795989
68.795498
65.92658
65.926684
60.888798
60.889887
52.580097
52.582574
39.880679
39.884399
22.292335
22.295685
12058.184
2044.0372
696.79441
368.00382
278.57985
253.05335
244.66243
240.25303
236.3553
232.16354
227.56243
222.57526
217.21788
211.47009
205.28996
198.65626
191.54828
183.91926
175.6573
166.50527
155.91608
142.81639
125.25389
99.759297
58.548688
12058.132
2037.8335
697.91637
374.18126
281.9575
252.69359
240.62605
232.71901
225.80396
219.06496
212.32474
205.57066
198.80746
191.99943
185.11202
178.13193
171.04517
163.81212
156.33848
148.41555
139.61433
129.09328
115.2084
94.635403
59.482889
12058.179
2030.3801
718.49107
430.59056
359.26326
332.15982
314.69759
300.01707
286.52092
273.63024
261.23734
249.36082
238.0247
227.1214
216.55849
206.33567
196.45191
186.87534
177.53166
168.26037
158.7446
148.34875
135.7134
117.58235
84.563617
12058.526
2031.6339
817.51645
609.03107
550.35275
513.28128
480.35467
449.88189
421.96261
395.7231
371.09588
348.12375
326.94831
307.17426
288.56733
271.1181
254.8095
239.59469
225.40013
212.1106
199.54062
187.37048
174.94063
160.48022
136.71185
12061.525
2151.1674
1232.4656
1078.6353
990.055
907.41068
829.0609
757.69695
694.01465
635.17674
581.08605
531.63222
487.70553
447.8901
411.33418
378.07579
347.97895
320.84825
296.47055
274.61515
255.0331
237.47401
221.71458
207.8157
196.91132
12087.211
3831.0001
2811.7231
2405.2511
2096.0561
1826.9312
1591.6345
1388.5
1212.6796
1061.0069
930.39241
818.02113
721.41808
638.18307
566.29615
504.25382
450.75864
404.66893
364.98535
330.836
301.45907
276.21052
254.59407
236.6408
223.62692
10375.169
7912.332
6101.9107
4789.2933
3818.3578
3082.885
2513.8831
2066.9895
1712.4477
1428.9655
1200.7155
1015.8534
865.46387
742.65023
641.92344
558.91218
490.16022
432.9486
385.13714
345.03011
311.27108
282.78504
258.7644
239.00649
224.7979
4097.0885
3310.3521
2844.0199
2467.7805
2148.3367
1867.8317
1623.3577
1411.9574
1230.7404
1075.4459
942.28896
827.88544
729.27791
644.27949
571.04025
507.96024
453.65178
406.91747
366.72312
332.17144
302.48013
276.98887
255.18355
237.08064
223.94697
1594.9092
1400.3118
1270.1286
1161.9302
1059.8413
962.69346
874.06573
795.33442
723.57244
658.60253
600.52824
549.27472
502.38854
459.63817
420.88386
385.90689
354.45113
326.25177
301.03223
278.51097
258.40619
240.44699
224.39541
210.30099
199.26345
771.71063
708.57887
662.47624
622.05718
581.89676
541.95953
504.56977
470.21338
438.39779
409.09571
382.35136
357.92474
335.142
313.86303
294.04731
275.65077
258.6102
242.84121
228.23455
214.64813
201.88313
189.62183
177.23118
163.01638
139.92332
435.47287
411.75585
393.16838
376.09975
358.53783
340.4424
322.7785
306.00214
290.17329
275.3377
261.50545
248.56148
236.29283
224.62033
213.53531
203.02503
193.04504
183.52652
174.35889
165.35803
156.19764
146.24973
134.1737
116.72808
84.515457
274.89051
264.51002
255.95057
247.91422
239.53698
230.74384
221.89981
213.26926
204.96526
197.04016
189.50094
182.29796
175.35004
168.61141
162.06629
155.7022
149.48374
143.33963
137.13881
130.64546
123.43342
114.71553
102.97625
85.108873
53.947454
188.78123
183.76134
179.43997
175.31169
170.98981
166.40163
161.67941
156.96431
152.34054
147.8507
143.50383
139.27955
135.1427
131.06692
127.0354
123.02966
119.01266
114.91045
110.58347
105.77923
100.05702
92.665272
82.313533
66.604959
39.81266
138.97455
136.37716
134.05041
131.78748
129.41234
126.87408
124.219
121.51646
118.81987
116.1602
113.5482
110.97803
108.435
105.90485
103.37493
100.82779
98.227988
95.502588
92.511305
89.004427
84.574936
78.631499
70.469694
59.69722
48.107065
109.45214
108.03881
106.72177
105.41532
104.0404
102.56825
101.01601
99.418556
97.808378
96.20785
94.628278
93.071377
91.533124
90.007244
88.485028
86.94969
85.363977
83.649583
81.656154
79.122226
75.643728
70.696687
63.825615
55.24981
47.394063
92.523417
91.737576
90.971712
90.193054
89.369573
88.489495
87.562174
86.607579
85.646729
84.696472
83.767609
82.865085
81.988688
81.134418
80.293081
79.444118
78.542603
77.496806
76.134008
74.156375
71.100271
66.33602
59.190499
49.355271
37.002186
83.667055
83.235904
82.788472
82.314469
81.804588
81.25783
80.682437
80.09237
79.503122
78.928588
78.379247
77.861345
77.374562
76.913334
76.465198
76.004133
75.476598
74.776875
73.707957
71.927393
68.884976
63.768779
55.492641
42.699102
23.156307
79.662676
79.428179
79.158445
78.851714
78.508341
78.132372
77.731759
77.317615
76.90301
76.501404
76.124904
75.784201
75.478247
75.199309
74.931693
74.644712
74.277809
73.71407
72.737834
70.974497
67.81414
62.332495
53.265224
39.085731
18.257215
78.198024
78.05461
77.870521
77.64672
77.385367
77.090247
76.767013
76.423268
76.068332
75.712047
75.369033
75.065481
74.802344
74.571736
74.356452
74.123353
73.808539
73.289886
72.341873
70.570188
67.329798
61.675369
52.355957
38.011213
17.733086
77.323949
77.208969
77.056994
76.867425
76.641112
76.380559
76.090801
75.780677
75.463427
75.155025
74.870273
74.61926
74.4094
74.228347
74.057493
73.863214
73.581005
73.087378
72.154584
70.386345
67.142397
61.483792
52.246059
38.277553
19.114346
76.585282
76.485899
76.350977
76.180318
75.975988
75.742763
75.488727
75.225221
74.965409
74.721577
74.502267
74.310195
74.150487
74.011325
73.874688
73.707855
73.447311
72.970624
72.051835
70.299224
67.084942
61.499361
52.438043
38.85353
20.433778
75.890373
75.804477
75.686581
75.538304
75.363894
75.170107
74.965756
74.760696
74.564281
74.383781
74.223315
74.083547
73.962237
73.854257
73.742334
73.59485
73.349623
72.885935
71.980575
70.247179
67.068867
61.556613
52.629986
39.249164
20.970838
75.256821
75.187508
75.092761
74.975299
74.839943
74.693001
74.541508
74.392301
74.251123
74.121957
74.006703
73.905107
73.814524
73.72834
73.633894
73.500198
73.266157
72.812525
71.918362
70.201133
67.05039
61.586275
52.729449
39.414752
21.197251
74.732165
74.680101
74.609781
74.523751
74.425945
74.32104
74.213834
74.108674
74.009001
73.917082
73.833889
73.758946
73.68977
73.620061
73.538186
73.414444
73.188619
72.742506
71.856656
70.150755
67.017418
61.58026
52.757773
39.47278
21.235038
74.330258
74.292443
74.242199
74.181386
74.112719
74.039293
73.964176
73.890077
73.819119
73.752704
73.691407
73.634762
73.580586
73.523271
73.450087
73.333531
73.113737
72.673129
71.793181
70.094861
66.972321
61.550958
52.750621
39.509191
21.340841
74.031729
74.004081
73.968059
73.924885
73.876298
73.824256
73.770688
73.717305
73.665472
73.616112
73.5696
73.52548
73.48174
73.433026
73.36663
73.255424
73.040121
72.603608
71.728016
70.035277
66.920861
61.512486
52.735261
39.550107
21.466539
73.807414
73.786521
73.759882
73.728275
73.692798
73.654685
73.615163
73.575343
73.536136
73.498178
73.461704
73.426249
73.389881
73.347396
73.286351
73.179002
72.967105
72.53378
71.6617
69.973695
66.866648
61.471271
52.72083
39.606322
21.640139
73.632185
73.615697
73.595126
73.570978
73.543959
73.514864
73.484501
73.453615
73.422836
73.392611
73.363074
73.333726
73.302662
73.264738
73.207584
73.103431
72.894272
72.463585
71.594587
69.911001
66.811084
61.428108
52.700553
39.633114
21.873234
73.488249
73.474683
73.458092
73.438819
73.417338
73.394186
73.369913
73.345042
73.320023
73.295175
73.270552
73.24562
73.218468
73.183977
73.129812
73.028263
72.821354
72.392942
71.526791
69.847545
66.754854
61.384358
52.678791
39.645067
21.825887
73.364045
73.352495
73.338605
73.322626
73.304891
73.285781
73.26569
73.245
73.224044
73.203053
73.182018
73.160372
73.13619
73.104358
73.052579
72.953253
72.748153
72.321731
71.458236
69.783226
66.697655
61.338394
52.646296
39.620181
21.864388
73.25233
73.242241
73.230273
73.216617
73.201523
73.185275
73.16817
73.150498
73.132515
73.114387
73.096061
73.076938
73.055075
73.025355
72.975494
72.877934
72.674481
72.249826
71.388765
69.717765
66.63911
61.290878
52.612277
39.597576
21.935174
73.148622
73.139649
73.129118
73.117181
73.104037
73.089907
73.075026
73.059622
73.043897
73.027974
73.011762
72.994637
72.974638
72.946639
72.898362
72.802281
72.60031
72.17716
71.318272
69.650977
66.579002
61.242096
52.579077
39.580505
21.925491
73.050158
73.042082
73.032678
73.022076
73.010438
72.997946
72.98479
72.971159
72.957217
72.943051
72.928545
72.91305
72.89459
72.868028
72.821083
72.726248
72.525505
72.103715
71.246749
69.58282
66.517207
61.191727
52.544706
39.558004
21.898404
72.955251
72.947925
72.939444
72.929922
72.919498
72.908325
72.896562
72.88437
72.871883
72.859165
72.846076
72.831949
72.814792
72.789453
72.743647
72.649878
72.45018
72.029569
71.174258
69.513269
66.45335
61.13843
52.506948
39.533549
21.875944
72.862888
72.856209
72.848512
72.839899
72.830489
72.820415
72.809817
72.79883
72.787569
72.776078
72.764199
72.751248
72.735216
72.710938
72.666119
72.573266
72.374457
71.954853
71.10089
69.442318
66.387056
61.080666
52.461258
39.497599
21.851797
72.772493
72.766387
72.759375
72.751548
72.743011
72.733883
72.724285
72.714337
72.704136
72.693711
72.682887
72.670966
72.655924
72.63258
72.588623
72.496554
72.298478
71.879657
71.026771
69.370104
66.318503
61.018829
52.409405
39.456085
21.82267
72.683781
72.678193
72.671791
72.66466
72.656893
72.648596
72.639878
72.630845
72.62158
72.612098
72.602213
72.59121
72.577051
72.554538
72.511337
72.419934
72.222441
71.804196
70.95209
69.296834
66.247989
60.953202
52.350789
39.408639
21.786435
72.596662
72.591547
72.585699
72.579194
72.572119
72.564566
72.556636
72.548422
72.539997
72.531364
72.522324
72.51215
72.498788
72.477019
72.434485
72.343642
72.146589
71.72871
70.877085
69.222787
66.176086
60.885521
52.291354
39.371361
21.799712
72.511181
72.506503
72.501162
72.495229
72.488781
72.481904
72.474689
72.467218
72.459556
72.451695
72.443424
72.434007
72.421371
72.400275
72.35833
72.267951
72.071203
71.653484
70.802027
69.148316
66.103361
60.816606
52.229818
39.328929
21.709844
72.427467
72.423194
72.418321
72.412913
72.407041
72.400784
72.394222
72.387433
72.38047
72.373316
72.365752
72.357028
72.345058
72.324575
72.283154
72.193159
71.9966
71.578864
70.727323
69.073946
66.030787
60.74894
52.17256
39.294474
21.717332
72.34567
72.341773
72.337334
72.332411
72.327071
72.321385
72.315426
72.309264
72.302944
72.296443
72.289532
72.281448
72.270091
72.25017
72.209218
72.119542
71.923084
71.505195
70.653378
69.000146
65.958865
60.682893
52.118773
39.260983
21.712379
72.265839
72.262293
72.258257
72.253785
72.248937
72.243779
72.238377
72.232795
72.227071
72.221174
72.214866
72.207376
72.196586
72.177181
72.136654
72.047249
71.850828
71.432694
70.580457
68.927175
65.887604
60.617504
52.065463
39.226667
21.714048
72.187643
72.184424
72.180764
72.17671
72.172319
72.16765
72.162765
72.157721
72.152549
72.147211
72.141463
72.134523
72.124258
72.10533
72.06519
71.976019
71.779595
71.361157
70.508397
68.854866
65.816571
60.551251
52.007923
39.176953
21.67128
72.109681
72.106768
72.103458
72.099794
72.095827
72.091614
72.087208
72.082663
72.078003
72.073185
72.067956
72.061525
72.051747
72.033258
71.993473
71.904506
71.708053
71.289278
70.435926
68.781975
65.744555
60.483051
51.946026
39.117205
21.531179
72.027878
72.025252
72.022269
72.018969
72.0154
72.011611
72.007654
72.003573
71.999391
71.995055
71.990309
71.984351
71.975022
71.956939
71.917476
71.82869
71.63219
71.21307
70.359111
68.704681
65.668018
60.410348
51.880915
39.064379
21.557651
71.931936
71.929581
71.926908
71.923954
71.920763
71.917377
71.913844
71.910204
71.906472
71.90259
71.898295
71.892776
71.883863
71.866151
71.82698
71.73835
71.541799
71.122355
70.267858
68.613085
65.577447
60.324274
51.804008
38.997381
21.50585
71.797986
71.795894
71.793525
71.790914
71.788096
71.78511
71.781997
71.778791
71.7755
71.77206
71.768197
71.763094
71.754567
71.737192
71.698279
71.609782
71.413181
70.993479
70.138639
68.48398
65.450359
60.204039
51.69988
38.923582
21.477697
71.574442
71.572621
71.570572
71.568325
71.565912
71.563362
71.560706
71.55797
71.555152
71.552176
71.548758
71.544069
71.535911
71.518844
71.480152
71.39176
71.195126
70.775306
69.920543
68.267012
65.237585
60.002427
51.522296
38.789278
21.408246
71.156852
71.155339
71.153664
71.15186
71.149948
71.147946
71.14587
71.143728
71.141502
71.139093
71.136199
71.131971
71.124197
71.107421
71.068918
70.980613
70.784021
70.364413
69.51067
67.860541
64.840275
59.626276
51.18877
38.530457
21.262799
70.347154
70.346036
70.344861
70.343667
70.342469
70.341265
70.340043
70.338782
70.337426
70.335834
70.333667
70.330048
70.322743
70.306291
70.267985
70.179825
69.98355
69.565009
68.714484
67.072832
64.07259
58.901552
50.547755
38.035712
20.989594
68.794943
68.794402
68.793966
68.793688
68.793582
68.79362
68.793751
68.793898
68.793928
68.79362
68.792575
68.78987
68.783252
68.767276
68.729325
68.641631
68.446522
68.031211
67.188969
65.566823
62.609164
57.524546
49.333069
37.100071
20.476504
65.92687
65.927262
65.928
65.929117
65.930648
65.932563
65.934761
65.937068
65.93921
65.940832
65.941472
65.940163
65.934644
65.919564
65.882535
65.796305
65.604553
65.197482
64.374534
62.794727
59.924428
55.009586
47.126234
35.40625
19.536707
60.891327
60.893331
60.896043
60.899234
60.902989
60.90739
60.912318
60.917452
60.92228
60.926298
60.929073
60.929657
60.925862
60.912609
60.877977
60.795643
60.612047
60.223516
59.441718
57.94821
55.248296
50.651925
43.328734
32.518148
17.952557
52.585947
52.590673
52.596702
52.602768
52.609019
52.615931
52.623514
52.631271
52.638395
52.644321
52.648926
52.651482
52.65009
52.640312
52.611056
52.537423
52.370941
52.019443
51.317362
49.987095
47.598581
43.563229
37.193906
27.890097
15.443679
39.889872
39.898053
39.908394
39.917473
39.925429
39.933499
39.94205
39.950514
39.957897
39.963792
39.968693
39.972363
39.973549
39.969029
39.949235
39.891829
39.75704
39.471963
38.909411
37.861493
35.99795
32.875683
28.00925
21.007143
11.741864
22.301062
22.309669
22.32063
22.329402
22.336026
22.342085
22.348215
22.354034
22.358771
22.362308
22.365443
22.368368
22.370645
22.370704
22.362233
22.329657
22.247975
22.073436
21.734556
21.124133
20.051405
18.208469
15.483707
11.685704
6.7541209
)
;

boundaryField
{
    Walls
    {
        Cmu             0.09;
        kappa           0.41;
        E               9.8;
        beta1           0.075;
        type            omegaWallFunction;
        value           nonuniform List<scalar> 
38
(
12058.184
12058.132
12058.179
12058.526
12061.525
12087.211
13481.359
13535.732
14922.235
15030.62
15116.101
15200.98
15273.506
15323.5
15377.091
15420.872
15443.001
15474.46
15500.973
15509.654
15522.345
15531.926
15544.916
15560.341
15565.563
15565.982
15564.228
15570.6
15574.335
15577.022
15580.025
15582.777
15581.335
15572.997
15570.356
15569.739
15562.152
15502.752
)
;
    }
    Inlet
    {
        type            turbulentMixingLengthDissipationRateInlet;
        mixingLength    0.03;
        phi             phi;
        k               k;
        value           nonuniform List<scalar> 3(0.0038654812 0.0043421514 0.0054512618);
    }
    Outlet
    {
        type            inletOutlet;
        inletValue      uniform 1e-05;
        value           nonuniform List<scalar> 
86
(
22.288204
22.288796
22.290147
22.292335
22.295685
22.301062
22.309669
22.32063
22.329402
22.336026
22.342085
22.348215
22.354034
22.358771
22.362308
22.365443
22.368368
22.370645
22.370704
22.362233
22.329657
22.247975
22.073436
21.734556
21.124133
20.051405
18.208469
15.483707
11.685704
6.7541209
224.7979
223.94697
199.26345
1e-05
1e-05
1e-05
1e-05
48.107065
47.394063
37.002186
1e-05
1e-05
1e-05
1e-05
20.433778
20.970838
21.197251
21.235038
21.340841
21.466539
21.640139
21.873234
21.825887
21.864388
21.935174
21.925491
21.898404
21.875944
21.851797
21.82267
1e-05
1e-05
1e-05
1e-05
1e-05
1e-05
1e-05
1e-05
1e-05
1e-05
1e-05
1e-05
1e-05
1e-05
1e-05
1e-05
1e-05
1e-05
1e-05
1e-05
1e-05
1e-05
1e-05
1e-05
196.91132
223.62692
)
;
    }
    Front
    {
        type            wedge;
    }
    Back
    {
        type            wedge;
    }
    defaultFaces
    {
        type            empty;
    }
}


// ************************************************************************* //
