/*--------------------------------*- C++ -*----------------------------------*\
| =========                 |                                                 |
| \\      /  F ield         | OpenFOAM: The Open Source CFD Toolbox           |
|  \\    /   O peration     | Version:  4.0                                   |
|   \\  /    A nd           | Web:      www.OpenFOAM.org                      |
|    \\/     M anipulation  |                                                 |
\*---------------------------------------------------------------------------*/
FoamFile
{
    version     2.0;
    format      ascii;
    class       volScalarField;
    location    "0.16";
    object      p;
}
// * * * * * * * * * * * * * * * * * * * * * * * * * * * * * * * * * * * * * //

dimensions      [0 2 -2 0 0 0 0];

internalField   nonuniform List<scalar> 
1740
(
491.52991
491.67499
491.64784
474.76123
474.89768
474.93977
458.1475
458.0544
458.21099
441.53657
441.37231
441.3191
424.5284
424.45623
424.27205
407.3521
407.50177
407.34136
390.745
390.80608
390.72533
374.26649
374.10705
374.31793
357.56177
357.4942
357.72884
341.05279
340.95364
340.87816
324.22883
324.09983
323.83471
306.9933
306.94674
306.7055
290.00662
289.97434
289.96945
273.75051
273.6511
274.01104
258.16449
258.25632
258.50249
242.64604
242.94811
243.0155
227.14213
227.07532
227.00741
211.14642
210.9377
210.64725
194.57244
194.58629
194.55573
178.19574
178.23986
178.37753
162.07608
161.99467
161.88881
145.7322
145.58962
145.45392
129.39967
129.41439
129.42476
113.04473
113.25096
113.38104
96.707182
96.918955
97.173618
80.755322
80.831203
80.921548
64.327162
64.267928
64.322762
47.645025
47.582879
47.755711
31.647831
31.609248
31.466324
16.565148
16.358714
15.730498
4.2827277
3.6545786
1.628988
-0.53992758
-0.51214571
-0.38604871
-0.12092615
-0.12029288
-0.11058457
-0.0014913792
-0.0036375953
-0.0094745877
0.0087729387
0.0082542189
0.0064093842
0.010040806
0.0092949593
0.0077935239
0.0086138515
0.0078654441
0.0064404551
0.0069756529
0.0063637031
0.0052612867
0.00580825
0.0053381476
0.0044484594
0.0051549279
0.0047969131
0.0041046867
0.0047529618
0.0044729577
0.0039213394
0.0043795468
0.0041573879
0.0037136557
0.0039695556
0.0037923391
0.0034337881
0.0035266401
0.0033840011
0.0030925686
0.0030870852
0.0029712952
0.0027324517
0.0026791236
0.0025841904
0.0023868101
0.002314041
0.0022355176
0.0020711717
0.0019923059
0.0019268397
0.0017890599
0.0017103206
0.001655354
0.0015391454
0.0014640777
0.0014176405
0.0013191095
0.0012503089
0.0012108747
0.0011269538
0.0010665309
0.0010329052
0.00096116645
0.00091077414
0.00088200101
0.00082047339
0.00078110519
0.00075639845
0.00070347031
0.0006752089
0.00065392232
0.00060824768
0.00059031552
0.00057192256
0.00053241034
0.00052355077
0.00050763375
0.00047340653
0.00047232973
0.00045853688
0.00042885157
0.00043445278
0.00042247409
0.00039667606
0.00040783494
0.00039740329
0.00037492131
0.00039024873
0.00038114021
0.00036149549
0.00037939203
0.00037141991
0.00035421395
0.00037311427
0.00036611973
0.00035101433
0.00036952785
0.00036337505
0.00035007994
0.00036701006
0.00036158391
0.00034985253
0.00036419553
0.00035940029
0.00034902563
0.00035997565
0.00035573051
0.0003465417
0.00035348354
0.00034972158
0.00034157567
0.00034406739
0.00034073488
0.00033351657
0.00033129945
0.00032835462
0.00032197015
0.00031489878
0.00031230803
0.00030668528
0.00029463825
0.00029237631
0.00028746618
0.00027047847
0.00026852296
0.00026427832
0.00024260155
0.00024093339
0.00023731073
0.00021129735
0.000209903
0.00020687334
0.00017694139
0.00017581139
0.00017335537
0.00014001046
0.00013913847
0.000137243
0.00010111316
0.0001004946
9.9150149e-05
6.1099658e-05
6.0730676e-05
5.9928369e-05
2.0358312e-05
2.0235664e-05
1.9969447e-05
-1.3166633
-0.92359038
-0.31611382
-0.24413748
-0.097153239
-0.089567912
-0.013513893
-0.017508158
0.0048689805
0.0034091012
0.0063890971
0.0053903779
0.0049077056
0.0038662691
0.0039289718
0.0027217187
0.0034044401
0.0023906428
0.0032570015
0.0024160124
0.0032283325
0.0025156564
0.003143351
0.0025359984
0.0029626386
0.0024455516
0.0027017902
0.0022615164
0.002407015
0.002032327
0.0021144641
0.0017952824
0.0018418689
0.0015690931
0.0015949613
0.0013611802
0.0013741275
0.0011732544
0.0011782716
0.0010052439
0.0010063271
0.00085696699
0.00085753386
0.00072838603
0.00073123151
0.00061940578
0.00062643442
0.00052943429
0.0005415798
0.00045729006
0.00047459247
0.00040125824
0.00042321722
0.00035937159
0.00038524841
0.00032962563
0.00035872182
0.00031018643
0.00034179664
0.00029934421
0.00033251061
0.00029528782
0.00032879407
0.0002960874
0.00032866959
0.00029986573
0.00033038961
0.00030496237
0.00033245806
0.00030995854
0.00033362701
0.00031367894
0.00033289
0.00031518015
0.00032946624
0.00031373346
0.0003227785
0.00030880497
0.00031245545
0.00030005773
0.00029829475
0.00028735324
0.00028014142
0.00027058283
0.00025794487
0.00024966969
0.00023189953
0.00022482011
0.00020234462
0.00019641516
0.00016968274
0.00016487212
0.00013440815
0.00013069397
9.713921e-05
9.4504013e-05
5.872804e-05
5.7154759e-05
1.9571156e-05
1.9049065e-05
0.0044171943
0.0042783437
0.0040865947
0.003952507
0.0038881323
0.0039024599
0.0039438805
0.0039505554
0.0038815882
0.0037285323
0.0035054192
0.0032314832
0.0029262983
0.0026080901
0.0022906028
0.0019836879
0.0016938155
0.001424428
0.0011762676
0.00094844786
0.0007397825
0.0005492224
0.00037451297
0.0002136966
6.6552556e-05
0.0041951005
0.0040744172
0.0039056828
0.0038058344
0.0037368203
0.0037236062
0.0037025906
0.0036157622
0.0034453311
0.0032036493
0.0029110448
0.0025939294
0.0022717771
0.0019555648
0.0016546394
0.0013755745
0.0011226057
0.00089898876
0.00070811991
0.00054513204
0.00040702806
0.00029065743
0.00019146395
0.0001080971
3.9419687e-05
-0.00015625963
-0.00030317628
-0.00047356481
-0.00058487456
-0.00071692578
-0.0010229368
-0.0015092692
-0.0020771145
-0.0025729719
-0.0029629801
-0.0032370397
-0.00340178
-0.0034720016
-0.0034587774
-0.0033684932
-0.0032074482
-0.0029833535
-0.0027060424
-0.0023884431
-0.0020372482
-0.001662206
-0.001274582
-0.00088421582
-0.00049789777
-0.00013026879
-0.016646699
-0.016880508
-0.017242978
-0.017858424
-0.018577256
-0.019159542
-0.019450493
-0.019386122
-0.019038838
-0.018451128
-0.017652518
-0.01669653
-0.01563013
-0.014474391
-0.013244556
-0.011960749
-0.010642274
-0.0093050883
-0.0079625522
-0.0066265166
-0.005313543
-0.0040378768
-0.002801766
-0.0016102737
-0.00048737895
-0.069513145
-0.068428924
-0.067194982
-0.064027035
-0.060433267
-0.056316706
-0.052081343
-0.04781424
-0.043580859
-0.039460352
-0.035527072
-0.031805622
-0.028281058
-0.024835081
-0.021625522
-0.018677494
-0.015981253
-0.013519133
-0.011269264
-0.0092068804
-0.0073009593
-0.0055224077
-0.0038555411
-0.0022793885
-0.00077908812
-0.23464975
-0.18852454
-0.16579498
-0.13383258
-0.10775569
-0.085344527
-0.066548299
-0.051365478
-0.039256612
-0.029623986
-0.022010559
-0.016078503
-0.011511304
-0.0080712443
-0.0054330372
-0.003467187
-0.0020386329
-0.0010342241
-0.00036566034
3.8897805e-05
0.00024002141
0.00029011758
0.00023089566
0.00010397386
-9.8711352e-05
-0.33504149
-0.12617183
-0.07546617
-0.039420178
-0.0067603027
0.018939437
0.035047944
0.042669918
0.045017554
0.044654597
0.042806371
0.040070718
0.036820491
0.033323176
0.029761055
0.026246822
0.022848015
0.019605031
0.01653036
0.013620703
0.010862502
0.0082381475
0.0057205982
0.0032996584
0.00087926309
-0.19661268
-0.16917736
-0.14278003
-0.11730539
-0.094036665
-0.073826073
-0.056972071
-0.0434028
-0.032678848
-0.02419799
-0.017582126
-0.012479853
-0.0085900912
-0.0056179573
-0.0033897947
-0.0017659742
-0.00063164868
0.00012680564
0.00058546448
0.0008072643
0.00084505681
0.00074500762
0.00054441158
0.00028417126
-4.7288722e-05
-0.086450374
-0.081903188
-0.076856676
-0.0716988
-0.066394363
-0.060962518
-0.055691117
-0.050598736
-0.045689561
-0.041116551
-0.036811223
-0.032660242
-0.028751683
-0.025157167
-0.021871588
-0.018874017
-0.016158243
-0.013650999
-0.011355021
-0.0092513838
-0.0073171624
-0.0055286572
-0.0038621702
-0.0022899522
-0.00079146695
-0.02066872
-0.022160965
-0.023464122
-0.024567595
-0.025292405
-0.025558385
-0.025423184
-0.024897339
-0.024043621
-0.022965332
-0.021719665
-0.020344781
-0.018868094
-0.017314737
-0.01571319
-0.014087042
-0.012439019
-0.010833318
-0.0092531571
-0.0077005156
-0.0061804417
-0.0046987153
-0.0032616925
-0.0018766798
-0.00057111177
0.0018585297
0.00085823082
8.4271981e-05
-0.0010190073
-0.0023057257
-0.0035502818
-0.0046223204
-0.0054482691
-0.0060244474
-0.0063833297
-0.0065571903
-0.0065747254
-0.006457998
-0.0062171388
-0.0058765751
-0.0054486821
-0.0049469921
-0.0044026428
-0.003825778
-0.0032257565
-0.002612135
-0.0019945307
-0.0013822057
-0.00078274743
-0.00021554688
0.0046231442
0.0041144947
0.0040002832
0.0040852417
0.0039450228
0.0036575723
0.0032308826
0.0027008079
0.0021368159
0.0015912613
0.0010938988
0.00065610885
0.00027779325
-1.283689e-05
-0.00020537634
-0.00032887054
-0.00039674512
-0.00042459716
-0.00042080327
-0.00039142066
-0.00034220697
-0.00027853412
-0.00020466582
-0.00012163462
-2.9673591e-05
0.0031385624
0.0027015146
0.0026811892
0.0028763858
0.0030504507
0.0031255443
0.0030817645
0.0029418571
0.0027193981
0.0024448421
0.0021378386
0.0018275585
0.0015595465
0.0013191135
0.001097897
0.00090560115
0.00074188141
0.00060165475
0.00048069067
0.0003756403
0.00028408191
0.00020393251
0.00013344342
7.2172765e-05
2.2017427e-05
0.0019241044
0.0015692736
0.0014899168
0.0016014865
0.0017818757
0.0019447736
0.002050735
0.0020612645
0.0019842128
0.0018395876
0.0016664764
0.001489574
0.0013133143
0.0011374368
0.0009682195
0.00081167273
0.00067035287
0.00054491615
0.00043536331
0.00034058951
0.00025873264
0.00018773008
0.00012557975
7.0336404e-05
2.0506643e-05
0.0016204927
0.0011129703
0.00086281176
0.00085594047
0.00097644927
0.0011366826
0.001281383
0.0013801389
0.0014138839
0.0013910041
0.0013211025
0.0012235329
0.001118615
0.0010085777
0.0008932537
0.00077502566
0.00065944445
0.00055087792
0.0004513459
0.00036122782
0.0002801233
0.00020711774
0.00014107777
8.0677713e-05
2.4358802e-05
0.0017171255
0.0012197405
0.00093193438
0.00077672284
0.00075223616
0.00080405417
0.00090070988
0.001001962
0.0010774947
0.001118536
0.0011311385
0.0011123305
0.0010645811
0.0009924618
0.00090670284
0.00081453777
0.0007160035
0.00061696895
0.00052034821
0.00042777737
0.00033976225
0.00025657556
0.00017795287
0.00010392366
3.3155335e-05
0.0018847366
0.0013949554
0.0010622124
0.00087187686
0.00077969577
0.00076693912
0.00078968008
0.00083166514
0.00088895219
0.00094306042
0.00098341413
0.0010073715
0.0009988287
0.00096040866
0.00089862763
0.00082298729
0.00074106967
0.00065319262
0.00056260096
0.00047188357
0.00038134044
0.00029213631
0.00020503159
0.00012073422
3.8934973e-05
0.0019685711
0.0014928173
0.0011356831
0.00089613153
0.00075661184
0.00067639007
0.0006540253
0.00066848734
0.00070715006
0.00075422885
0.00079741715
0.00082818063
0.00083747999
0.00082400368
0.00079105123
0.00074239447
0.00068242419
0.00061367907
0.00053766011
0.00045619378
0.00037236203
0.00028756706
0.00020286761
0.00011929733
3.7840832e-05
0.0019416401
0.0014953497
0.0011336664
0.00086602159
0.00068602193
0.00056887611
0.00050740522
0.0004929379
0.00050898715
0.00054127188
0.00057841575
0.00061089384
0.00063070121
0.0006344525
0.00062223415
0.00059565573
0.00055731803
0.00050897542
0.00045219351
0.00038866085
0.00032048902
0.00024934888
0.00017666252
0.00010450818
3.4132072e-05
0.0018182344
0.0014081356
0.0010563672
0.00077418665
0.00056171425
0.00043055488
0.00034721247
0.00030857179
0.00030319845
0.00031851861
0.0003467468
0.00037699587
0.00040235943
0.00041830789
0.0004229627
0.00041614176
0.0003986187
0.00037144262
0.00033568991
0.00029273363
0.00024419105
0.00019163461
0.00013627303
8.1495087e-05
2.8891334e-05
0.0016445565
0.001274014
0.00094310627
0.0006654693
0.00044586442
0.00028824668
0.00019182197
0.00013356714
0.00010948187
0.00011049037
0.0001278042
0.00015309458
0.00017970752
0.00020294836
0.00021972127
0.00022868176
0.00022932069
0.00022172163
0.00020644681
0.0001843951
0.00015673763
0.0001248038
8.9795794e-05
5.4201517e-05
1.9249598e-05
0.0014571136
0.0011255338
0.00082054116
0.00055573708
0.00033820534
0.00017102295
5.7551504e-05
-1.6578318e-05
-5.6712511e-05
-6.9891094e-05
-6.3658084e-05
-4.506685e-05
-2.0288065e-05
6.1224356e-06
3.0693759e-05
5.1094882e-05
6.6074987e-05
7.5109596e-05
7.8153347e-05
7.5548906e-05
6.797837e-05
5.6396284e-05
4.1746782e-05
2.6309242e-05
1.0309535e-05
0.0012747679
0.00097981806
0.00070167711
0.00045307726
0.0002422238
7.2860702e-05
-5.4687255e-05
-0.00013752519
-0.00019066164
-0.00021666184
-0.00022130814
-0.00021051282
-0.00018965483
-0.00016316787
-0.00013457527
-0.00010653876
-8.0792572e-05
-5.8454148e-05
-4.0036427e-05
-2.569603e-05
-1.5219325e-05
-8.1315248e-06
-3.8419672e-06
-1.0038599e-06
7.5101325e-07
0.0011050826
0.00084370493
0.00059193769
0.00036141999
0.00016040873
-6.5115925e-06
-0.00013763399
-0.00023348777
-0.0002938268
-0.00033042822
-0.00034491621
-0.00034193802
-0.00032612983
-0.0003015784
-0.00027166998
-0.0002391025
-0.00020591812
-0.00017349277
-0.00014285782
-0.00011456214
-8.8821931e-05
-6.5598054e-05
-4.4781729e-05
-2.5562896e-05
-7.6160736e-06
0.00095033728
0.00071925723
0.0004925949
0.00028080908
9.1675726e-05
-6.9730712e-05
-0.00020086329
-0.00030133692
-0.00037259772
-0.00041476603
-0.00043731975
-0.00044136014
-0.00043080302
-0.00040925609
-0.00037979066
-0.0003450293
-0.00030708677
-0.00026758167
-0.00022780216
-0.00018864177
-0.00015069179
-0.00011429205
-7.9701624e-05
-4.6444858e-05
-1.4460624e-05
0.00081108799
0.00060710385
0.00040395801
0.00021077082
3.4776678e-05
-0.00011885836
-0.00024710882
-0.00034877693
-0.00042433148
-0.00047534997
-0.00050255111
-0.00051188912
-0.00050612592
-0.00048804105
-0.00046013093
-0.00042486795
-0.00038433802
-0.00034027112
-0.00029411261
-0.00024702334
-0.00019985001
-0.00015323304
-0.00010771954
-6.3185817e-05
-1.9828475e-05
0.00068775455
0.00050798687
0.00032657702
0.00015147109
-1.0743833e-05
-0.00015508089
-0.00027823126
-0.00037845279
-0.0004554459
-0.00050991341
-0.00054319572
-0.00055746557
-0.00055505835
-0.00054058611
-0.00051484887
-0.00048028501
-0.00043883119
-0.00039227549
-0.00034214782
-0.00028974498
-0.00023612447
-0.00018213295
-0.00012860084
-7.562756e-05
-2.3750612e-05
0.00058090989
0.00042268502
0.00026120072
0.00010334642
-4.4980654e-05
-0.00017908871
-0.00029561258
-0.00039247252
-0.00046885982
-0.00052485948
-0.00056135774
-0.00057995852
-0.00058287982
-0.00057057835
-0.00054667254
-0.00051351511
-0.00047247702
-0.00042513396
-0.00037306906
-0.00031765318
-0.00026009436
-0.00020140992
-0.0001425625
-8.4063451e-05
-2.6575225e-05
0.00049081976
0.00035169529
0.00020832853
6.6664954e-05
-6.8072693e-05
-0.00019156432
-0.00030052778
-0.00039270103
-0.00046695711
-0.00052292841
-0.00056100928
-0.00058219229
-0.00058786581
-0.00057936477
-0.00055880226
-0.00052750517
-0.0004876594
-0.00044091124
-0.0003886712
-0.0003322679
-0.00027304557
-0.0002120214
-0.00015034695
-8.8746232e-05
-2.8067354e-05
0.00041724156
0.00029497561
0.00016795132
4.1267061e-05
-8.0478656e-05
-0.0001933739
-0.00029430102
-0.0003809685
-0.00045200778
-0.00050678215
-0.00054527486
-0.00056804251
-0.00057602109
-0.00057039765
-0.00055265463
-0.00052423735
-0.00048679701
-0.00044192449
-0.00039104748
-0.00033551373
-0.00027649506
-0.00021524992
-0.00015295092
-9.017619e-05
-2.7925015e-05
0.00035931165
0.00025190091
0.00013951963
2.6541852e-05
-8.3007594e-05
-0.00018562192
-0.00027840094
-0.0003591178
-0.0004262436
-0.00047900568
-0.0005170851
-0.00054070347
-0.00055048787
-0.00054735907
-0.00053247381
-0.00050711768
-0.00047269165
-0.00043060975
-0.00038222688
-0.00032883776
-0.00027167136
-0.00021192872
-0.00015081659
-8.8944532e-05
-2.7486486e-05
0.00031567165
0.00022133338
0.00012202335
2.1490232e-05
-7.6763959e-05
-0.00016961291
-0.00025440533
-0.0003290367
-0.00039184166
-0.00044209642
-0.00047919841
-0.00050314869
-0.00051432682
-0.00051341305
-0.00050133063
-0.00047916843
-0.00044813105
-0.00040947775
-0.00036446292
-0.00031431331
-0.00026022224
-0.00020335111
-0.00014493619
-8.5615169e-05
-2.6620697e-05
0.00028457555
0.00020175655
0.00011409705
2.4803075e-05
-6.3086891e-05
-0.00014680138
-0.00022393489
-0.00029251059
-0.00035099536
-0.00039842606
-0.00043419342
-0.00045812093
-0.00047039226
-0.00047148766
-0.00046213188
-0.00044322996
-0.00041581886
-0.00038101308
-0.00033995949
-0.00029380783
-0.00024369575
-0.00019074331
-0.00013617725
-8.0502247e-05
-2.4938354e-05
0.00026422074
0.00019152136
0.00011420317
3.4995541e-05
-4.3469675e-05
-0.00011875141
-0.00018868886
-0.00025145987
-0.00030562492
-0.00035015781
-0.00038441122
-0.00040809756
-0.00042125546
-0.00042419935
-0.00041748855
-0.00040186746
-0.00037821968
-0.00034752375
-0.00031081661
-0.00026916401
-0.00022363809
-0.0001753049
-0.00012535789
-7.4139354e-05
-2.28408e-05
0.00025293309
0.00018906267
0.00012084378
5.0601157e-05
-1.9392101e-05
-8.6994061e-05
-0.00015028103
-0.0002075958
-0.00025759605
-0.00029927217
-0.00033194949
-0.00035526541
-0.00036916799
-0.00037382282
-0.00036966105
-0.00035728745
-0.0003374479
-0.00031099421
-0.00027885307
-0.00024199727
-0.00020142118
-0.00015812041
-0.00011326854
-6.7029471e-05
-2.0507096e-05
0.00024912841
0.00019292355
0.00013264705
7.0288196e-05
7.8192269e-06
-5.2892663e-05
-0.00011014055
-0.00016243683
-0.00020854178
-0.00024749452
-0.00027861312
-0.00030148676
-0.00031605967
-0.0003222857
-0.00032055531
-0.00031134026
-0.00029526341
-0.00027306109
-0.00024555339
-0.00021361601
-0.00017815705
-0.00014008323
-0.00010056503
-5.9567429e-05
-1.8118667e-05
0.00025114544
0.00020158902
0.00014822944
9.2777785e-05
3.6939116e-05
-1.765545e-05
-6.9499773e-05
-0.00011726051
-0.00015980677
-0.00019623723
-0.00022589073
-0.0002483503
-0.00026344003
-0.00027115372
-0.00027172477
-0.00026553115
-0.00025309236
-0.00023504317
-0.00021210498
-0.00018505803
-0.00015472908
-0.00012194159
-8.797082e-05
-5.2136144e-05
-1.5567073e-05
0.00025720292
0.00021341141
0.00016609024
0.00011669664
6.6700585e-05
1.7523961e-05
-2.9505467e-05
-7.3196289e-05
-0.00011252346
-0.00014665268
-0.00017495423
-0.00019700652
-0.00021259
-0.00022166625
-0.00022438163
-0.00022103244
-0.00021204842
-0.00019796962
-0.00017943429
-0.00015712174
-0.00013179263
-0.00010420065
-7.6145575e-05
-4.5128078e-05
-1.2520328e-05
0.00026553794
0.00022676136
0.00018471418
0.00014063946
9.580089e-05
5.1434799e-05
8.7076265e-06
-3.132197e-05
-6.7731451e-05
-9.9756168e-05
-0.00012680295
-0.00014845535
-0.00016447218
-0.00017477927
-0.00017946234
-0.00017874809
-0.00017298736
-0.00016263623
-0.00014823762
-0.00013039795
-0.00010978954
-8.7088832e-05
-6.4446169e-05
-3.7959296e-05
-9.6719881e-06
0.00027458663
0.00024017656
0.00020273861
0.00016333521
0.00012305308
8.2964926e-05
4.409114e-05
7.3672293e-06
-2.6381558e-05
-5.6459897e-05
-8.2315188e-05
-0.00010354508
-0.00011989964
-0.00013127757
-0.0001377183
-0.00013938902
-0.0001365703
-0.00012964043
-0.00011905855
-0.0001053478
-8.9086691e-05
-7.0882609e-05
-5.1810519e-05
-3.0500618e-05
-8.1159879e-06
0.00028302167
0.00025242431
0.00021902622
0.00018373266
0.00014748203
0.00011120387
7.578838e-05
4.2059179e-05
1.075115e-05
-1.7507188e-05
-4.220677e-05
-6.2966568e-05
-7.953688e-05
-9.1797678e-05
-9.9752482e-05
-0.00010351848
-0.0001033153
-9.9451619e-05
-9.2310438e-05
-8.2333465e-05
-7.0006032e-05
-5.5824929e-05
-4.0521955e-05
-2.3720602e-05
-6.3115048e-06
0.00028974881
0.00026249588
0.00023265091
0.00020099176
0.00016832522
0.00013545645
0.00010316095
7.2161877e-05
4.3111251e-05
1.6574019e-05
-6.9850404e-06
-2.7209712e-05
-4.3855969e-05
-5.6791914e-05
-6.5993405e-05
-7.1537116e-05
-7.3591458e-05
-7.2405162e-05
-6.8294362e-05
-6.1628506e-05
-5.2814065e-05
-4.2263162e-05
-3.0583339e-05
-1.7755674e-05
-4.5506494e-06
0.00029389363
0.00026959064
0.00024289364
0.00021447024
0.0001850127
0.00015521903
0.00012576344
9.7278516e-05
7.0340482e-05
4.5454934e-05
2.3043787e-05
3.4372275e-06
-1.3130107e-05
-2.6520008e-05
-3.6687832e-05
-4.3678141e-05
-4.7617089e-05
-4.8702891e-05
-4.7194886e-05
-4.3401827e-05
-3.766821e-05
-3.0356864e-05
-2.1966199e-05
-1.2617893e-05
-2.9676876e-06
0.00029478734
0.00027310645
0.00024922137
0.00022370482
0.0001971475
0.00017015669
0.00014331546
0.00011717515
9.2243156e-05
6.8970822e-05
4.7739421e-05
2.8852183e-05
1.2531125e-05
-1.0830688e-06
-1.1931421e-05
-2.0033572e-05
-2.5481337e-05
-2.8431038e-05
-2.9094566e-05
-2.7729751e-05
-2.4629829e-05
-2.0108329e-05
-1.4614958e-05
-8.2623913e-06
-1.6369052e-06
0.00029194675
0.00027261558
0.00025126446
0.00022838726
0.00020448459
0.00018008202
0.00015567942
0.00013175677
0.00010875977
8.7091154e-05
6.7093155e-05
4.9041593e-05
3.3143865e-05
1.9539235e-05
8.296041e-06
-5.8633902e-07
-7.1727307e-06
-1.1585183e-05
-1.3996099e-05
-1.462083e-05
-1.370956e-05
-1.1538413e-05
-8.4880965e-06
-4.658163e-06
-5.5032401e-07
0.0002850727
0.00026785267
0.00024880434
0.00022834532
0.00020692619
0.0001849464
0.00016284575
0.00014104833
0.00011994606
9.9896641e-05
8.1203852e-05
6.4115829e-05
4.8823587e-05
3.5462522e-05
2.4105926e-05
1.476643e-05
7.3998929e-06
1.9120505e-06
-1.8362952e-06
-4.0246277e-06
-4.8655921e-06
-4.5988631e-06
-3.5409668e-06
-1.7651488e-06
2.9655589e-07
0.00027410944
0.00025885621
0.0002419429
0.00022371948
0.00020458028
0.00018485297
0.00016492535
0.00014517903
0.0001259633
0.00010756985
9.0265136e-05
7.4273192e-05
5.9769162e-05
4.6881691e-05
3.5684176e-05
2.6197598e-05
1.8393173e-05
1.2199515e-05
7.5055529e-06
4.1628838e-06
1.9927103e-06
7.9186077e-07
3.0056174e-07
4.7762361e-07
9.3305488e-07
0.00025900226
0.00024564084
0.00023075305
0.00021464444
0.00019761034
0.00018002426
0.00016220605
0.00014447494
0.00012713003
0.00011041624
9.456632e-05
7.9788482e-05
6.6253726e-05
5.4063377e-05
4.3282897e-05
3.3939994e-05
2.6019214e-05
1.9468293e-05
1.4199229e-05
1.0090091e-05
6.9930817e-06
4.7403419e-06
3.1218592e-06
2.1191709e-06
1.3842139e-06
0.00023962768
0.0002280186
0.00021505456
0.00020099043
0.0001860804
0.00017064512
0.00015495557
0.00013925884
0.00012379417
0.00010881015
9.4511648e-05
8.1082674e-05
6.8671496e-05
5.7364743e-05
4.7223595e-05
3.8279324e-05
3.0536705e-05
2.3955276e-05
1.8456521e-05
1.3941115e-05
1.02907e-05
7.3703075e-06
5.0116545e-06
3.2095159e-06
1.659861e-06
0.00021621485
0.00020625119
0.00019512441
0.00018304196
0.00017023591
0.00015692688
0.00014334526
0.00012970386
0.00011620782
0.00010306974
9.0469214e-05
7.8549549e-05
6.7413877e-05
5.717217e-05
4.7887983e-05
3.9591876e-05
3.2294289e-05
2.5963313e-05
2.0535132e-05
1.5932003e-05
1.2061048e-05
8.8165703e-06
6.063717e-06
3.802958e-06
1.7729418e-06
0.0001892018
0.00018084344
0.00017150028
0.00016134373
0.00015055869
0.00013932273
0.00012782274
0.00011624579
0.00010476966
9.3552771e-05
8.2742075e-05
7.2451244e-05
6.2776414e-05
5.3813078e-05
4.5618555e-05
3.8223399e-05
3.1620111e-05
2.5790189e-05
2.0702252e-05
1.6299033e-05
1.2506803e-05
9.2413329e-06
6.3939425e-06
3.9681078e-06
1.7456942e-06
0.00015901698
0.0001522282
0.00014463217
0.0001363651
0.00012757094
0.00011839355
0.00010898177
9.9484763e-05
9.00443e-05
8.0787175e-05
7.1828264e-05
6.3266922e-05
5.5194433e-05
4.7669901e-05
4.074283e-05
3.4438793e-05
2.8753831e-05
2.3678581e-05
1.9193085e-05
1.5256129e-05
1.1811371e-05
8.7904474e-06
6.1067554e-06
3.7673732e-06
1.5976016e-06
0.0001261717
0.00012092539
0.00011505015
0.00010864896
0.0001018304
9.4705381e-05
8.7387174e-05
7.9988727e-05
7.2617581e-05
6.5371475e-05
5.833878e-05
5.1600053e-05
4.522191e-05
3.9250431e-05
3.3723846e-05
2.8661569e-05
2.4072663e-05
1.9950872e-05
1.6275334e-05
1.3015975e-05
1.0132459e-05
7.5744179e-06
5.2762746e-06
3.2445931e-06
1.3469275e-06
9.1294449e-05
8.7569119e-05
8.3394178e-05
7.8841645e-05
7.3987609e-05
6.8910445e-05
6.3689868e-05
5.8404817e-05
5.3130679e-05
4.7936851e-05
4.2886436e-05
3.8036365e-05
3.343279e-05
2.9111641e-05
2.5097555e-05
2.140599e-05
1.804544e-05
1.5011723e-05
1.2290783e-05
9.8621553e-06
7.6987989e-06
5.7684e-06
4.0248991e-06
2.4723861e-06
1.0170501e-06
5.5237958e-05
5.3012142e-05
5.0516356e-05
4.7793227e-05
4.488788e-05
4.184694e-05
3.8717724e-05
3.5546936e-05
3.2379262e-05
2.9256163e-05
2.6215451e-05
2.3290792e-05
2.0509896e-05
1.7894706e-05
1.5459782e-05
1.3215221e-05
1.1165775e-05
9.3091923e-06
7.6379153e-06
6.1402054e-06
4.8008354e-06
3.6020687e-06
2.5168491e-06
1.5460213e-06
6.3337481e-07
1.8412843e-05
1.7673866e-05
1.6845053e-05
1.5940518e-05
1.4975209e-05
1.3964591e-05
1.2924337e-05
1.1869921e-05
1.0816141e-05
9.7767674e-06
8.7643834e-06
7.7901417e-06
6.8633114e-06
5.9911815e-06
5.1786404e-06
4.4291158e-06
3.7440335e-06
3.122796e-06
2.5629851e-06
2.0608068e-06
1.6115139e-06
1.2086497e-06
8.4007266e-07
5.1309331e-07
2.1346343e-07
)
;

boundaryField
{
    Walls
    {
        type            zeroGradient;
    }
    Inlet
    {
        type            fixedValue;
        value           uniform 500;
    }
    Outlet
    {
        type            fixedValue;
        value           uniform 0;
    }
    Front
    {
        type            wedge;
    }
    Back
    {
        type            wedge;
    }
    defaultFaces
    {
        type            empty;
    }
}


// ************************************************************************* //
