/*--------------------------------*- C++ -*----------------------------------*\
| =========                 |                                                 |
| \\      /  F ield         | OpenFOAM: The Open Source CFD Toolbox           |
|  \\    /   O peration     | Version:  4.0                                   |
|   \\  /    A nd           | Web:      www.OpenFOAM.org                      |
|    \\/     M anipulation  |                                                 |
\*---------------------------------------------------------------------------*/
FoamFile
{
    version     2.0;
    format      ascii;
    class       surfaceScalarField;
    location    "0.16";
    object      phi;
}
// * * * * * * * * * * * * * * * * * * * * * * * * * * * * * * * * * * * * * //

dimensions      [0 3 -1 0 0 0 0];

internalField   nonuniform List<scalar> 
3364
(
-3.9492014e-10
1.6787916e-08
-5.1561904e-10
4.9198979e-08
8.8181864e-08
-6.2604227e-10
1.7413947e-08
-1.8036165e-09
5.0376591e-08
8.6378281e-08
-2.8926253e-10
1.7703196e-08
-1.7153262e-09
5.1802719e-08
8.4662981e-08
-1.0575122e-10
1.7808913e-08
-1.8088971e-10
5.1877858e-08
8.4482087e-08
-1.0703619e-10
1.7915926e-08
8.8715341e-10
5.0883617e-08
8.5369208e-08
-2.9170132e-10
1.8207607e-08
8.7246738e-10
4.9719405e-08
8.6241635e-08
1.4986053e-10
1.8057695e-08
5.1642573e-10
4.9352782e-08
8.6758011e-08
4.4683637e-10
1.7610814e-08
-1.2583197e-09
5.1057882e-08
8.5499653e-08
-2.9153346e-11
1.763993e-08
-1.5941505e-09
5.2622863e-08
8.3905478e-08
-3.7671719e-11
1.7677574e-08
4.3905828e-10
5.2146112e-08
8.4344503e-08
2.7349596e-10
1.7404054e-08
1.22713e-09
5.1192432e-08
8.5571596e-08
2.6319156e-10
1.7140842e-08
9.1144394e-10
5.0544158e-08
8.6483013e-08
2.8800012e-10
1.6852809e-08
5.227289e-10
5.0309403e-08
8.7005718e-08
4.677818e-10
1.638498e-08
-4.9097444e-10
5.1268095e-08
8.6514702e-08
1.114093e-10
1.6273508e-08
3.450933e-10
5.1034336e-08
8.6859735e-08
-1.8894488e-10
1.6462387e-08
1.7295069e-10
5.067236e-08
8.7032633e-08
1.3552048e-10
1.632681e-08
-3.8181086e-10
5.1189627e-08
8.6650794e-08
-3.4381903e-11
1.636115e-08
2.6702486e-10
5.0888222e-08
8.6917798e-08
-2.5155458e-11
1.6386272e-08
2.0010227e-11
5.0843046e-08
8.6937772e-08
2.6530346e-10
1.6120929e-08
-1.4199574e-10
5.1250282e-08
8.679573e-08
-1.4384717e-10
1.626474e-08
4.6737796e-10
5.0639006e-08
8.7263047e-08
-6.7752477e-11
1.6332465e-08
-2.7007992e-10
5.08413e-08
8.6992916e-08
-7.2811307e-11
1.6405261e-08
-8.4069303e-10
5.1609165e-08
8.615219e-08
-4.4990275e-10
1.6855122e-08
-5.4214821e-10
5.1701383e-08
8.5610029e-08
-8.6642642e-10
1.7721489e-08
-1.2763373e-09
5.2111262e-08
8.433367e-08
-5.415652e-10
1.8263031e-08
-5.6403463e-10
5.2133707e-08
8.37696e-08
1.9009897e-10
1.8072906e-08
-3.6053433e-10
5.2684323e-08
8.3409021e-08
2.2920086e-10
1.7843664e-08
-9.3519205e-10
5.3848679e-08
8.2473798e-08
2.2347521e-10
1.762021e-08
5.8432224e-10
5.3487925e-08
8.3058137e-08
1.6496006e-09
1.5970832e-08
6.1395652e-09
4.8998096e-08
8.9197689e-08
1.1477545e-08
4.4926461e-09
4.9316143e-08
1.1157626e-08
1.0720288e-08
1.2779097e-07
4.9678954e-09
-4.7572808e-10
1.7460143e-08
-1.3361261e-09
-1.5586955e-09
2.9737222e-08
-3.6853663e-10
-1.0715901e-10
-1.3920015e-09
-3.1259486e-10
-4.6374547e-10
-2.4868591e-09
-9.6549567e-11
-1.0595042e-11
-3.7486081e-10
-3.4248991e-11
-7.8452028e-11
-7.6011411e-10
-1.1636011e-11
1.0423123e-12
-4.9700036e-11
3.8189235e-12
-6.8380254e-13
-1.2746239e-10
-2.0374609e-12
3.0797983e-12
-7.5594333e-12
9.3409852e-12
1.261836e-11
-2.0860614e-11
5.0057703e-13
2.5792722e-12
2.4783891e-12
7.3632815e-12
1.0084918e-11
5.0115219e-12
1.2858729e-12
1.2933574e-12
5.3152812e-12
3.3335951e-12
3.8312882e-12
1.1568535e-11
9.1414454e-13
3.79267e-13
3.5181939e-12
7.2946134e-13
-6.229225e-14
7.4116369e-12
2.0313455e-13
1.7622211e-13
6.6066519e-13
2.7199148e-13
-3.0201319e-13
9.0047594e-13
-1.9763482e-13
3.7394459e-13
-8.6187939e-13
9.3635548e-13
1.057721e-12
-2.2214559e-12
-2.0507803e-13
5.7909105e-13
-8.3025979e-13
1.5616436e-12
2.1106926e-12
-1.8831093e-12
-5.5641698e-14
6.3478082e-13
-2.8172906e-13
1.7878016e-12
2.5433055e-12
-7.142657e-13
3.1598478e-14
6.0321577e-13
9.485842e-14
1.7245904e-12
2.5433359e-12
9.487265e-14
7.2609359e-14
5.3062976e-13
2.71887e-13
1.5253488e-12
2.2904425e-12
5.2481256e-13
7.3713979e-14
4.5693216e-13
2.8013217e-13
1.3189579e-12
1.9965706e-12
5.7403041e-13
6.1993811e-14
3.9494989e-13
2.3905176e-13
1.1419205e-12
1.7433473e-12
4.9229712e-13
5.0816933e-14
3.4414102e-13
1.9669838e-13
9.9605381e-13
1.5285681e-12
4.1149461e-13
4.3431957e-14
3.007146e-13
1.6799992e-13
8.714957e-13
1.3442678e-12
3.5231179e-13
3.9092054e-14
2.6162618e-13
1.500739e-13
7.6051972e-13
1.1787394e-12
3.1560874e-13
3.659091e-14
2.2503748e-13
1.4119105e-13
6.5592229e-13
1.0193945e-12
3.0053801e-13
3.4933245e-14
1.9010538e-13
1.3674394e-13
5.5411193e-13
8.6046281e-13
2.9567435e-13
3.1880942e-14
1.5822481e-13
1.2461764e-13
4.6137387e-13
7.1945517e-13
2.6562161e-13
2.8002161e-14
1.302225e-13
1.0979751e-13
3.7957605e-13
5.9156727e-13
2.3768019e-13
2.4903147e-14
1.0531885e-13
9.8774827e-14
3.0570119e-13
4.7383658e-13
2.1649932e-13
2.1834524e-14
8.3483595e-14
8.582415e-14
2.4170795e-13
3.7110806e-13
1.8854592e-13
1.8523301e-14
6.4959392e-14
7.3066469e-14
1.8716089e-13
2.8314796e-13
1.6101956e-13
1.5298064e-14
4.9660343e-14
6.0617235e-14
1.4183775e-13
2.1153446e-13
1.3222367e-13
1.3392884e-14
3.6266458e-14
5.2183651e-14
1.0304312e-13
1.5111626e-13
1.1259501e-13
1.0682234e-14
2.5583268e-14
4.1692669e-14
7.2029046e-14
1.0260147e-13
9.0201076e-14
8.0866899e-15
1.7495689e-14
3.1643639e-14
4.8468756e-14
6.5757746e-14
6.8481502e-14
5.7423525e-15
1.175254e-14
2.2513809e-14
3.1694281e-14
3.989361e-14
4.8372657e-14
3.6462448e-15
8.1056e-15
1.4187565e-14
2.1150302e-14
2.4074383e-14
3.0002115e-14
1.6209278e-15
6.4840967e-15
6.1749406e-15
1.6594009e-14
1.7564138e-14
1.2681185e-14
-1.6780707e-16
6.6514441e-15
-9.6328719e-16
1.7387599e-14
1.8803006e-14
-2.205432e-15
-1.3493696e-15
8.0004727e-15
-5.7395246e-15
2.1776245e-14
2.8815973e-14
-1.5754984e-14
-2.4307306e-15
1.0430974e-14
-9.9881945e-15
2.9332595e-14
4.2429357e-14
-2.3603321e-14
-3.3093384e-15
1.3740193e-14
-1.3395524e-14
3.9418046e-14
5.9183096e-14
-3.0150313e-14
-4.0017862e-15
1.7741956e-14
-1.6145805e-14
5.1561697e-14
7.8195796e-14
-3.5158946e-14
-4.1862884e-15
2.1928314e-14
-1.7090667e-14
6.4466034e-14
1.022304e-13
-4.1125152e-14
-4.4222397e-15
2.6350703e-14
-1.7955427e-14
7.7999483e-14
1.2566812e-13
-4.1392547e-14
-4.4601159e-15
3.0811046e-14
-1.7922887e-14
9.1462772e-14
1.4830694e-13
-4.0560678e-14
-4.2701939e-15
3.5081528e-14
-1.7168247e-14
1.0436157e-13
1.6998712e-13
-3.8847032e-14
-3.9490634e-15
3.903094e-14
-1.5922705e-14
1.1633615e-13
1.901592e-13
-3.6093067e-14
-3.5150183e-15
4.2546352e-14
-1.4204691e-14
1.2702693e-13
2.0815167e-13
-3.2195187e-14
-2.9677915e-15
4.5514576e-14
-1.1964614e-14
1.3602498e-13
2.2320156e-13
-2.7012321e-14
-2.2850937e-15
4.7800134e-14
-9.0652165e-15
1.4280644e-13
2.3448499e-13
-2.0346297e-14
-1.4670731e-15
4.9267702e-14
-5.743743e-15
1.4708454e-13
2.4159907e-13
-1.2855318e-14
-5.8251417e-16
4.9850735e-14
-2.3710286e-15
1.4887454e-13
2.4466144e-13
-5.4307961e-15
1.3231724e-16
4.3966651e-16
8.6406288e-16
1.3748957e-07
-9.7039215e-09
-8.8409949e-09
1.4632424e-07
2.1608091e-08
-1.5760134e-09
-1.4395662e-09
1.4206109e-08
-3.5224011e-09
-5.4034861e-10
-6.2909856e-10
-4.3327286e-09
-1.1781836e-09
-1.2223082e-10
-1.7261901e-10
-1.6346034e-09
-2.3801651e-10
-1.1669489e-11
-2.0377628e-11
-3.9024413e-10
-4.4939825e-11
1.2410774e-11
1.6220118e-11
-8.1534324e-11
6.0882149e-12
1.133398e-11
1.2173464e-11
1.013555e-11
1.9761044e-11
3.1411798e-12
1.8689496e-12
3.0065544e-11
1.2251215e-11
-1.6984694e-12
-3.7337094e-12
1.7853926e-11
8.0181008e-13
-1.599631e-12
-3.290587e-12
3.5896819e-13
-4.2168926e-12
3.9602819e-13
-7.0054417e-13
-6.8066309e-12
-3.5783235e-12
2.0913936e-12
1.6250486e-12
-5.9037199e-12
-1.5007953e-12
2.8780035e-12
2.832757e-12
-2.7084143e-12
7.4316539e-15
2.9654825e-12
3.0628354e-12
-2.2261686e-13
7.5650363e-13
2.7338126e-12
2.8138989e-12
1.005447e-12
8.9035251e-13
2.4175058e-12
2.5661861e-12
1.1380699e-12
7.7595701e-13
2.1338616e-12
2.3063067e-12
1.035844e-12
6.5268126e-13
1.8926885e-12
2.0729151e-12
8.8608074e-13
5.6532247e-13
1.6796871e-12
1.85402e-12
7.842228e-13
5.1963969e-13
1.4756606e-12
1.6380346e-12
7.3562583e-13
5.0435922e-13
1.271839e-12
1.4163695e-12
7.260204e-13
4.8382927e-13
1.0836799e-12
1.2181878e-12
6.8200311e-13
4.3984967e-13
9.09445e-13
1.0169142e-12
6.411123e-13
4.007963e-13
7.4632024e-13
8.2550709e-13
5.9219074e-13
3.7095224e-13
5.9185754e-13
6.4790535e-13
5.4854014e-13
3.2243843e-13
4.5795473e-13
4.9101683e-13
4.7931269e-13
2.7623625e-13
3.4272759e-13
3.5595372e-13
4.1128519e-13
2.2725968e-13
2.4768125e-13
2.4293157e-13
3.4026806e-13
1.8965757e-13
1.7060877e-13
1.5382945e-13
2.7874659e-13
1.5201369e-13
1.0878693e-13
8.3170542e-14
2.2266045e-13
1.152905e-13
6.196948e-14
3.0772167e-14
1.6767778e-13
8.0847931e-14
2.9486586e-14
-6.2085171e-15
1.1781864e-13
4.8282917e-14
1.1199078e-14
-2.2372997e-14
6.443867e-14
1.8099494e-14
5.7751032e-15
-2.4080129e-14
1.9799384e-14
-8.2236037e-15
1.1788792e-14
-1.3349188e-14
-1.896017e-14
-3.032698e-14
2.6357463e-14
6.5770683e-15
-5.025736e-14
-4.3592576e-14
4.6344455e-14
3.7510849e-14
-7.4529123e-14
-5.5958045e-14
7.2150884e-14
7.3914636e-14
-9.2363367e-14
-6.5488592e-14
1.0248008e-13
1.1441278e-13
-1.0598719e-13
-7.2733554e-14
1.3408879e-13
1.567486e-13
-1.1506887e-13
-7.405991e-14
1.6675714e-13
1.9936556e-13
-1.1667552e-13
-7.2998107e-14
1.9919613e-13
2.4229739e-13
-1.1592785e-13
-6.9838397e-14
2.3018957e-13
2.8306725e-13
-1.1060553e-13
-6.4762809e-14
2.5886182e-13
3.2052357e-13
-1.0221585e-13
-5.7665851e-14
2.8433535e-13
3.5363517e-13
-9.0773723e-14
-4.8123202e-14
3.0544938e-13
3.8083743e-13
-7.532137e-14
-3.6141254e-14
3.2124772e-13
4.0116102e-13
-5.6460464e-14
-2.283212e-14
3.312281e-13
4.1413746e-13
-3.5803927e-14
-9.8758936e-15
3.3567693e-13
4.201294e-13
-1.5862997e-14
1.3110971e-15
1.6853586e-15
-2.8258727e-12
2.8285269e-12
-5.9093633e-12
3.081572e-12
-9.0798496e-12
3.1660023e-12
-1.1998968e-11
2.9140465e-12
-1.5364686e-11
3.3609709e-12
-1.9743559e-11
4.3752642e-12
-2.6188266e-11
6.4419834e-12
-3.5893259e-11
9.7029997e-12
-4.9549836e-11
1.3655226e-11
-6.7203985e-11
1.7653355e-11
-8.8581199e-11
2.1376901e-11
-1.1299724e-10
2.4416111e-11
-1.3958814e-10
2.6591268e-11
-1.6761738e-10
2.8029797e-11
-1.9641544e-10
2.8798718e-11
-2.2536739e-10
2.8952632e-11
-2.5389118e-10
2.8524461e-11
-2.8135137e-10
2.7460796e-11
-3.0690608e-10
2.555522e-11
-3.2985925e-10
2.2953549e-11
-3.4957169e-10
1.9712696e-11
-3.6549213e-10
1.5920559e-11
-3.7718999e-10
1.1697863e-11
-3.8418495e-10
6.9948923e-12
1.8606057e-12
-4.1248421e-11
4.4079732e-11
-9.1334646e-11
5.3172119e-11
-1.5089667e-10
6.2733077e-11
-2.2032656e-10
7.2349242e-11
-3.0135115e-10
8.4390917e-11
-3.9494571e-10
9.7975062e-11
-5.0236912e-10
1.1387041e-10
-6.2472963e-10
1.3206819e-10
-7.6110321e-10
1.5003307e-10
-9.096302e-10
1.6618413e-10
-1.067625e-09
1.7937501e-10
-1.2324366e-09
1.8923053e-10
-1.4018158e-09
1.9597277e-10
-1.5734726e-09
1.9968854e-10
-1.7451767e-09
2.0050419e-10
-1.914775e-09
1.9855201e-10
-2.0806563e-09
1.9440633e-10
-2.2492992e-09
1.9610396e-10
-2.4067016e-09
1.8295755e-10
-2.5453234e-09
1.6157483e-10
-2.6611578e-09
1.3554639e-10
-2.7514088e-09
1.0617067e-10
-2.8138766e-09
7.4164525e-11
-2.8445439e-09
3.7660887e-11
9.7058669e-12
-1.2468271e-10
1.6876915e-10
-2.73497e-10
2.0199674e-10
-4.4721544e-10
2.3646341e-10
-6.4882024e-10
2.7396612e-10
-8.8152116e-10
3.1710345e-10
-1.1487607e-09
3.6522532e-10
-1.4552125e-09
4.2033189e-10
-1.8634419e-09
5.4030596e-10
-2.3124695e-09
5.9906757e-10
-2.7731586e-09
6.2687878e-10
-3.2306584e-09
6.3687912e-10
-3.6758369e-09
6.3441213e-10
-4.1021238e-09
6.2226172e-10
-4.5043564e-09
6.019222e-10
-4.8769029e-09
5.7305084e-10
-5.2152062e-09
5.3685461e-10
-5.5154338e-09
4.9463259e-10
-5.7666167e-09
4.4728498e-10
-5.9790369e-09
3.9537529e-10
-6.1572184e-09
3.3975336e-10
-6.3032006e-09
2.8152528e-10
-6.4185975e-09
2.2156386e-10
-6.5039969e-09
1.5956006e-10
-6.5621039e-09
9.5763788e-11
3.1567058e-11
-3.7931545e-10
5.4809868e-10
-8.0295516e-10
6.2565746e-10
-1.2862715e-09
7.1980244e-10
-2.0613153e-09
1.0490299e-09
-2.9028758e-09
1.1586804e-09
-3.7116475e-09
1.1740098e-09
-4.4372921e-09
1.1459861e-09
-4.9868765e-09
1.0898974e-09
-5.4028053e-09
1.0150013e-09
-5.7040322e-09
9.2810905e-10
-5.9034484e-09
8.3629729e-10
-6.0123573e-09
7.4332196e-10
-6.040325e-09
6.5022956e-10
-5.9918549e-09
5.5345156e-10
-5.8810257e-09
4.6222063e-10
-5.7239483e-09
3.7977577e-10
-5.5365002e-09
3.0718267e-10
-5.3340842e-09
2.4486702e-10
-5.1315317e-09
1.9282061e-10
-4.9424112e-09
1.5063045e-10
-4.7777775e-09
1.1688908e-10
-4.6469525e-09
9.0736243e-11
-4.554209e-09
6.6813804e-11
-4.5029752e-09
4.4527154e-11
2.329319e-11
-2.2335842e-09
2.7817061e-09
-3.9596409e-09
2.3517395e-09
-5.4127205e-09
2.1729059e-09
-6.0604924e-09
1.6968178e-09
-6.1022328e-09
1.2004334e-09
-5.6324794e-09
7.0426631e-10
-4.87087e-09
3.8438502e-10
-3.8835387e-09
1.0257314e-10
-2.7337634e-09
-1.347676e-10
-1.4931363e-09
-3.1251243e-10
-2.6042839e-10
-3.9640623e-10
9.6445075e-10
-4.815571e-10
2.2135274e-09
-5.9884725e-10
3.6036595e-09
-8.3667955e-10
4.9645426e-09
-8.9865971e-10
6.2533437e-09
-9.0902094e-10
7.4461919e-09
-8.8565937e-10
8.527895e-09
-8.3682824e-10
9.4881943e-09
-7.6746946e-10
1.0319854e-08
-6.8101875e-10
1.1016361e-08
-5.7960562e-10
1.1572124e-08
-4.6501347e-10
1.1978396e-08
-3.3944345e-10
1.2228305e-08
-2.0536684e-10
-6.1090344e-11
1.0956054e-09
1.6861858e-09
4.3841866e-09
-9.3679215e-10
8.1717404e-09
-1.6145797e-09
1.1894048e-08
-2.0254609e-09
1.5616868e-08
-2.5223606e-09
1.9275518e-08
-2.954355e-09
2.286417e-08
-3.2042331e-09
2.6229172e-08
-3.2623895e-09
2.9282866e-08
-3.1884182e-09
3.201399e-08
-3.0435879e-09
3.4477517e-08
-2.8598822e-09
3.6641312e-08
-2.645299e-09
3.8468651e-08
-2.4261303e-09
3.9846828e-08
-2.2148003e-09
4.0944353e-08
-1.9961278e-09
4.1814086e-08
-1.7786969e-09
4.2496377e-08
-1.5678936e-09
4.3024579e-08
-1.3649731e-09
4.3427335e-08
-1.1701694e-09
4.3729223e-08
-9.8285096e-10
4.3951192e-08
-8.0151901e-10
4.411023e-08
-6.2399564e-10
4.4218405e-08
-4.4756458e-10
4.4283093e-08
-2.7000022e-10
-8.5272924e-11
1.5029217e-07
-2.280509e-09
1.4871285e-07
6.4345296e-10
1.4593393e-07
1.1651326e-09
1.4230162e-07
1.6075463e-09
1.3764354e-07
2.1363299e-09
1.320963e-07
2.59341e-09
1.2601763e-07
2.8748801e-09
1.1979138e-07
2.9642453e-09
1.1369333e-07
2.9099656e-09
1.0786012e-07
2.7899011e-09
1.0235254e-07
2.6479543e-09
9.7231234e-08
2.4762293e-09
9.2522008e-08
2.2832947e-09
8.822664e-08
2.0807466e-09
8.4354629e-08
1.8760443e-09
8.0902415e-08
1.6736644e-09
7.7858075e-08
1.4765805e-09
7.5207226e-08
1.2859989e-09
7.293468e-08
1.1024919e-09
7.1026223e-08
9.2571266e-10
6.9470275e-08
7.5452907e-10
6.8259122e-08
5.8725183e-10
6.7390343e-08
4.213042e-10
6.6866021e-08
2.5440677e-10
8.0713374e-11
1.3520028e-08
-1.5943025e-09
1.5875951e-08
-1.712355e-09
1.8508214e-08
-1.4670152e-09
2.1222246e-08
-1.1063744e-09
2.4007011e-08
-6.4832703e-10
2.6912401e-08
-3.1187875e-10
2.9821518e-08
-3.4143598e-11
3.2578387e-08
2.0746588e-10
3.5138174e-08
3.5026738e-10
3.7476365e-08
4.5179808e-10
3.9557767e-08
5.6663941e-10
4.1200773e-08
8.333089e-10
4.2501017e-08
9.8313404e-10
4.3537758e-08
1.0440874e-09
4.4353491e-08
1.0603915e-09
4.4984168e-08
1.0430649e-09
4.5461993e-08
9.9883067e-10
4.5816644e-08
9.3142096e-10
4.6073756e-08
8.4545071e-10
4.6255609e-08
7.4392729e-10
4.6381054e-08
6.2915012e-10
4.6465752e-08
5.0261867e-10
4.6520529e-08
3.6658892e-10
4.6552664e-08
2.2233184e-10
6.6966103e-11
-5.0776592e-09
-8.4938355e-10
-5.7351346e-09
-1.0548898e-09
-6.0616094e-09
-1.1405511e-09
-5.9875895e-09
-1.1804043e-09
-5.4606072e-09
-1.1753176e-09
-4.6396939e-09
-1.1327981e-09
-3.6075422e-09
-1.0662986e-09
-2.4175899e-09
-9.8248692e-10
-1.1794592e-09
-8.8786111e-10
6.2850252e-11
-7.9050678e-10
1.3210001e-09
-6.9150355e-10
2.7430926e-09
-5.8877442e-10
4.214659e-09
-4.8842087e-10
5.6545471e-09
-3.9578716e-10
7.027354e-09
-3.1240001e-10
8.3090305e-09
-2.3859466e-10
9.4923778e-09
-1.8449834e-10
1.0570085e-08
-1.4626725e-10
1.1529502e-08
-1.1394609e-10
1.2361095e-08
-8.7645223e-11
1.3057125e-08
-6.6858568e-11
1.3610463e-08
-5.069877e-11
1.4015134e-08
-3.8060546e-11
1.4264648e-08
-2.7162127e-11
-1.5799567e-11
-2.2525327e-09
-2.3145668e-10
-3.0261524e-09
-2.812739e-10
-3.8319661e-09
-3.3474358e-10
-4.6169315e-09
-3.9544749e-10
-5.3272432e-09
-4.6501622e-10
-5.8643424e-09
-5.9571026e-10
-6.280521e-09
-6.5013204e-10
-6.583228e-09
-6.7979216e-10
-6.7776707e-09
-6.9343052e-10
-6.8731325e-09
-6.9505689e-10
-6.8777583e-09
-6.8688919e-10
-6.7960525e-09
-6.7049109e-10
-6.6385827e-09
-6.4590076e-10
-6.420197e-09
-6.1418222e-10
-6.1562603e-09
-5.7634521e-10
-5.8610743e-09
-5.3378843e-10
-5.5582247e-09
-4.8735498e-10
-5.2657293e-09
-4.3876894e-10
-4.9922678e-09
-3.8741329e-10
-4.7465049e-09
-3.3341329e-10
-4.5364007e-09
-2.7696755e-10
-4.3688509e-09
-2.1825294e-10
-4.2494577e-09
-1.5745783e-10
-4.1817383e-09
-9.4885551e-11
-3.1721679e-11
-5.8644858e-10
-3.5250715e-11
-8.1850337e-10
-4.9217774e-11
-1.0850163e-09
-6.8229938e-11
-1.3925333e-09
-8.7930612e-11
-1.7459499e-09
-1.1160067e-10
-2.2018506e-09
-1.3981172e-10
-2.684668e-09
-1.6731795e-10
-3.1722803e-09
-1.9218432e-10
-3.6531538e-09
-2.1256248e-10
-4.1199331e-09
-2.2828393e-10
-4.5670267e-09
-2.3980267e-10
-4.9895611e-09
-2.4796437e-10
-5.3813961e-09
-2.5407401e-10
-5.7269286e-09
-2.6865823e-10
-6.0228537e-09
-2.804289e-10
-6.2834157e-09
-2.732355e-10
-6.512073e-09
-2.5870668e-10
-6.7116885e-09
-2.3916257e-10
-6.8838558e-09
-2.1525521e-10
-7.0297641e-09
-1.8751404e-10
-7.1503321e-09
-1.5640857e-10
-7.2461652e-09
-1.2242872e-10
-7.3174546e-09
-8.617731e-11
-7.3641749e-09
-4.8173996e-11
-1.088252e-11
-1.3595139e-10
1.916711e-11
-2.0659736e-10
2.1428979e-11
-2.9784858e-10
2.302199e-11
-4.0968858e-10
2.3909898e-11
-5.4100947e-10
1.9720451e-11
-6.9378262e-10
1.296131e-11
-8.6511476e-10
4.0136681e-12
-1.0503704e-09
-6.9296222e-12
-1.2447615e-09
-1.8172767e-11
-1.4444092e-09
-2.863791e-11
-1.6467487e-09
-3.7465337e-11
-1.8510444e-09
-4.3671059e-11
-2.0589246e-09
-4.6196581e-11
-2.2791219e-09
-4.8464039e-11
-2.5099255e-09
-4.9628724e-11
-2.7339962e-09
-4.916853e-11
-2.9453874e-09
-4.7319449e-11
-3.1401098e-09
-4.4444246e-11
-3.3147578e-09
-4.0611548e-11
-3.4663626e-09
-3.5913701e-11
-3.5923319e-09
-3.0443807e-11
-3.6904505e-09
-2.4314729e-11
-3.7589955e-09
-1.7636908e-11
-3.796725e-09
-1.0448939e-11
-2.8952922e-12
1.3657519e-11
1.5645508e-11
1.2402529e-11
2.2684244e-11
6.7363853e-12
2.8688302e-11
-3.7827884e-12
3.4429147e-11
-2.1539887e-11
3.7477537e-11
-4.6955837e-11
3.8377166e-11
-7.9170057e-11
3.6227713e-11
-1.1925838e-10
3.3158447e-11
-1.658656e-10
2.8434124e-11
-2.1691441e-10
2.2410486e-11
-2.7141012e-10
1.7029887e-11
-3.2807854e-10
1.2996797e-11
-3.8431792e-10
1.004218e-11
-4.4062085e-10
7.8381927e-12
-4.9614826e-10
5.8979253e-12
-5.4980816e-10
4.4905451e-12
-6.0071381e-10
3.5853281e-12
-6.4813335e-10
2.9743716e-12
-6.912261e-10
2.480256e-12
-7.2913931e-10
1.9985254e-12
-7.6108791e-10
1.5038118e-12
-7.8640234e-10
9.9872333e-13
-8.0454344e-10
5.0322404e-13
-8.1511567e-10
1.2236221e-13
1.038913e-13
4.351497e-11
2.1964765e-12
5.9767373e-11
6.4322221e-12
7.7454377e-11
1.1001639e-11
9.6718026e-11
1.5165807e-11
1.1451781e-10
1.9678042e-11
1.3056146e-10
2.2333782e-11
1.4317258e-10
2.3616866e-11
1.5332427e-10
2.3007026e-11
1.6079127e-10
2.0967394e-11
1.6570931e-10
1.7492715e-11
1.6825077e-10
1.4488688e-11
1.6973052e-10
1.1517311e-11
1.7123158e-10
8.5413941e-12
1.7321127e-10
5.8587648e-12
1.7566803e-10
3.44144e-12
1.7853743e-10
1.6214237e-12
1.8170768e-10
4.1536437e-13
1.8503157e-10
-3.4922033e-13
1.8829146e-10
-7.7934058e-13
1.9133996e-10
-1.0496674e-12
1.9399927e-10
-1.1551958e-12
1.9608524e-10
-1.0869357e-12
1.9750026e-10
-9.1150152e-13
1.982173e-10
-5.9438843e-13
-2.3213424e-13
2.4778061e-11
-4.7273342e-12
3.55014e-11
-4.2907704e-12
4.7723133e-11
-1.219743e-12
6.1367335e-11
1.5219538e-12
7.6943203e-11
4.1025205e-12
9.3326212e-11
5.951121e-12
1.0918245e-10
7.7609802e-12
1.2309355e-10
9.0962751e-12
1.3524879e-10
8.8125068e-12
1.4515776e-10
7.5841016e-12
1.5397118e-10
5.6756251e-12
1.6122252e-10
4.2663214e-12
1.6755445e-10
2.2098175e-12
1.7291362e-10
4.9994067e-13
1.7802329e-10
-1.6678826e-12
1.8279162e-10
-3.1465615e-12
1.8735924e-10
-4.1519151e-12
1.917659e-10
-4.75554e-12
1.9596933e-10
-4.9824353e-12
1.9980692e-10
-4.8869315e-12
2.0313866e-10
-4.4866167e-12
2.0592006e-10
-3.8680315e-12
2.0802274e-10
-3.0138744e-12
2.0942554e-10
-1.9969008e-12
-7.9943992e-13
4.071542e-13
-4.77536e-12
1.5712339e-12
-5.4546722e-12
4.9323016e-12
-4.5806266e-12
8.9208956e-12
-2.466456e-12
1.3659635e-11
-6.3603844e-13
1.874789e-11
8.6304286e-13
2.4229372e-11
2.2796687e-12
2.9912214e-11
3.4135998e-12
3.4215738e-11
4.5091417e-12
3.7183233e-11
4.6167585e-12
3.8637082e-11
4.2219186e-12
3.901552e-11
3.8880161e-12
3.8548795e-11
2.6766666e-12
3.766599e-11
1.3828603e-12
3.6066996e-11
-6.8783363e-14
3.3890812e-11
-9.7028058e-13
3.1669257e-11
-1.9302726e-12
2.9507622e-11
-2.593826e-12
2.7511197e-11
-2.9859397e-12
2.5763364e-11
-3.1390335e-12
2.4297522e-11
-3.0207166e-12
2.3100494e-11
-2.6709505e-12
2.2202078e-11
-2.1154115e-12
2.1550313e-11
-1.3450877e-12
-4.5525434e-13
-9.6811823e-12
-1.9007908e-12
-1.3054878e-11
-2.0809446e-12
-1.5261947e-11
-2.3735233e-12
-1.6166426e-11
-1.5619423e-12
-1.7143809e-11
3.413745e-13
-1.798609e-11
1.7053463e-12
-1.8524326e-11
2.8179205e-12
-1.9037439e-11
3.9267201e-12
-1.9614724e-11
5.086425e-12
-2.0867474e-11
5.8694986e-12
-2.3070902e-11
6.425328e-12
-2.6062923e-11
6.8800101e-12
-2.9799472e-11
6.4131792e-12
-3.3945656e-11
5.5289993e-12
-3.8442544e-11
4.4280518e-12
-4.2952695e-11
3.5398103e-12
-4.7581751e-11
2.6987172e-12
-5.217264e-11
1.9969918e-12
-5.6527926e-11
1.3692704e-12
-6.0432927e-11
7.6588791e-13
-6.3864121e-11
4.1039601e-13
-6.6743846e-11
2.0869158e-13
-6.8986947e-11
1.276051e-13
-7.0481428e-11
1.4931572e-13
7.5831231e-14
-8.7821176e-12
9.775144e-13
-1.1558286e-11
6.9517292e-13
-1.4734093e-11
8.0224274e-13
-1.7362081e-11
1.0660057e-12
-1.8825363e-11
1.8046147e-12
-2.021286e-11
3.0927996e-12
-2.2069274e-11
4.6742845e-12
-2.3812907e-11
5.6702991e-12
-2.555573e-11
6.8291879e-12
-2.749264e-11
7.8063435e-12
-2.9722733e-11
8.6553511e-12
-3.211858e-11
9.275783e-12
-3.5039771e-11
9.3342922e-12
-3.8463044e-11
8.952189e-12
-4.2315696e-11
8.2806169e-12
-4.6257973e-11
7.4819968e-12
-5.025574e-11
6.696392e-12
-5.4145566e-11
5.8867224e-12
-5.7734123e-11
4.957731e-12
-6.1049221e-11
4.0808892e-12
-6.3899871e-11
3.26095e-12
-6.6182041e-11
2.4907663e-12
-6.7795897e-11
1.7413673e-12
-6.8610925e-11
9.6425797e-13
3.0221546e-13
-4.2470636e-12
2.5160407e-12
-5.8862355e-12
2.3342397e-12
-7.4361439e-12
2.3520799e-12
-9.0497483e-12
2.6795499e-12
-1.0032448e-11
2.7872577e-12
-1.0785509e-11
3.8458045e-12
-1.1229996e-11
5.1187154e-12
-1.1891715e-11
6.331961e-12
-1.2643881e-11
7.5812958e-12
-1.3501989e-11
8.6643931e-12
-1.4285717e-11
9.4390197e-12
-1.5160447e-11
1.0150452e-11
-1.6298596e-11
1.047238e-11
-1.7784051e-11
1.0437582e-11
-1.961443e-11
1.0110933e-11
-2.1675919e-11
9.5434224e-12
-2.3813775e-11
8.8341837e-12
-2.5930425e-11
8.0033084e-12
-2.80289e-11
7.0561405e-12
-2.9992255e-11
6.0441801e-12
-3.1727213e-11
4.9958451e-12
-3.3160854e-11
3.9243443e-12
-3.429229e-11
2.8727421e-12
-3.504899e-11
1.7209031e-12
3.0785904e-13
-7.0203577e-13
2.9953606e-12
-1.1923917e-12
2.8244992e-12
-1.6243538e-12
2.7839603e-12
-1.7689836e-12
2.8241178e-12
-2.0688893e-12
3.0871115e-12
-1.7289831e-12
3.5058512e-12
-1.4199261e-12
4.8096142e-12
-1.0690596e-12
5.9810524e-12
-5.7513465e-13
7.0873304e-12
8.0898732e-14
8.0083208e-12
5.9359268e-13
8.9262881e-12
1.125579e-12
9.6184295e-12
1.4301733e-12
1.016775e-11
1.5275682e-12
1.0340152e-11
1.371578e-12
1.0266888e-11
9.8764468e-13
9.9273215e-12
4.3048647e-13
9.3913079e-12
-2.4558521e-13
8.6793464e-12
-1.0042092e-12
7.8147309e-12
-1.7811991e-12
6.8211368e-12
-2.5128317e-12
5.7274453e-12
-3.138319e-12
4.5497993e-12
-3.4877089e-12
3.2220995e-12
-3.6892749e-12
1.9224436e-12
8.2533234e-13
1.0878431e-12
2.9128716e-12
1.1501797e-12
2.7620785e-12
1.328865e-12
2.6052023e-12
1.6803169e-12
2.4726057e-12
2.0905828e-12
2.6767959e-12
2.4558164e-12
3.1405757e-12
3.2893266e-12
3.9760674e-12
4.2999459e-12
4.9704003e-12
5.4672208e-12
5.9200258e-12
6.6404327e-12
6.8350815e-12
7.8739485e-12
7.692747e-12
9.0990733e-12
8.3932813e-12
1.026822e-11
8.9985811e-12
1.1287947e-11
9.3204048e-12
1.2214803e-11
9.3400138e-12
1.2920816e-11
9.22129e-12
1.3377093e-11
8.935013e-12
1.3660151e-11
8.3962714e-12
1.3814161e-11
7.660705e-12
1.3871039e-11
6.7642424e-12
1.3864148e-11
5.7343205e-12
1.3820299e-11
4.5936321e-12
1.3537216e-11
3.5051674e-12
1.3376973e-11
2.0826763e-12
5.084605e-13
1.4487933e-12
2.6020637e-12
1.7352219e-12
2.4755739e-12
2.0759655e-12
2.264393e-12
2.4825634e-12
2.0659527e-12
2.8587771e-12
2.3005355e-12
3.3217338e-12
2.6775787e-12
4.2643809e-12
3.0333853e-12
5.3591987e-12
3.8755516e-12
6.617126e-12
4.662071e-12
7.9867616e-12
5.4654213e-12
9.4428579e-12
6.2366286e-12
1.0909287e-11
6.9268326e-12
1.2422163e-11
7.4856873e-12
1.3865462e-11
7.8770894e-12
1.5144961e-11
8.0604997e-12
1.6289355e-11
8.0768832e-12
1.7311843e-11
7.9125127e-12
1.8181151e-11
7.5269517e-12
1.8895723e-11
6.9461222e-12
1.9467157e-11
6.1927983e-12
1.9930992e-11
5.2704764e-12
2.0277049e-11
4.247566e-12
2.0838436e-11
2.9437707e-12
2.1027463e-11
1.8936451e-12
8.1829965e-13
1.320062e-12
2.3177737e-12
1.5859333e-12
2.209637e-12
1.854654e-12
1.9956144e-12
2.092891e-12
1.8276649e-12
2.4352419e-12
1.9581401e-12
2.9757995e-12
2.1369817e-12
3.5591655e-12
2.4499841e-12
4.6182197e-12
2.8164659e-12
5.7496977e-12
3.5305645e-12
7.0287404e-12
4.186353e-12
8.4227363e-12
4.8426096e-12
9.9025882e-12
5.4469602e-12
1.1426429e-11
5.9618275e-12
1.2937706e-11
6.3657964e-12
1.4366265e-11
6.6319256e-12
1.5715598e-11
6.7275378e-12
1.6918561e-11
6.709537e-12
1.8040797e-11
6.4047059e-12
1.9018414e-11
5.9684947e-12
1.9841098e-11
5.3701056e-12
2.0492619e-11
4.618947e-12
2.1005444e-11
3.7347327e-12
2.1178231e-11
2.770975e-12
2.1365676e-11
1.7061977e-12
6.0315711e-13
1.1139371e-12
2.0898616e-12
1.3409755e-12
1.9825428e-12
1.5602959e-12
1.7762433e-12
1.691878e-12
1.6960365e-12
1.9819282e-12
1.6680479e-12
2.4120176e-12
1.706854e-12
2.9774411e-12
1.8845256e-12
3.6128207e-12
2.1810543e-12
4.6471322e-12
2.4962238e-12
5.7536122e-12
3.0798464e-12
6.9904948e-12
3.6057027e-12
8.3276855e-12
4.1097477e-12
9.7250845e-12
4.5644089e-12
1.1148064e-11
4.9427994e-12
1.2565566e-11
5.2144079e-12
1.3931409e-11
5.3616803e-12
1.5271006e-11
5.3699276e-12
1.6467329e-11
5.2083721e-12
1.7544105e-11
4.8917081e-12
1.8472202e-11
4.4419993e-12
1.9225157e-11
3.8659838e-12
1.9782865e-11
3.1770171e-12
2.0178574e-11
2.3752581e-12
2.0415792e-11
1.4689765e-12
4.8908399e-13
9.9278263e-13
1.8812617e-12
1.2131784e-12
1.7621058e-12
1.3420896e-12
1.6472913e-12
1.5157052e-12
1.5223818e-12
1.7799649e-12
1.4037511e-12
2.1225044e-12
1.3642796e-12
2.5918917e-12
1.4151056e-12
3.2045586e-12
1.5683567e-12
3.8779423e-12
1.8228115e-12
4.8944405e-12
2.0633217e-12
5.9509804e-12
2.5491385e-12
7.1291763e-12
2.9315297e-12
8.3871562e-12
3.3064091e-12
9.6936101e-12
3.6363277e-12
1.1019658e-11
3.8883446e-12
1.2340998e-11
4.0403253e-12
1.3638021e-11
4.0728922e-12
1.4845489e-11
4.000893e-12
1.5946548e-11
3.790639e-12
1.6890801e-11
3.4977365e-12
1.7682391e-11
3.0743859e-12
1.8321535e-11
2.5378655e-12
1.8788835e-11
1.9079504e-12
1.9073484e-11
1.1843246e-12
3.9379443e-13
9.6364484e-13
1.6532082e-12
1.129113e-12
1.5966023e-12
1.3021851e-12
1.474184e-12
1.506585e-12
1.3179473e-12
1.741296e-12
1.1690067e-12
2.0621697e-12
1.0433738e-12
2.479705e-12
9.9753981e-13
3.0154587e-12
1.0325742e-12
3.6799064e-12
1.1583368e-12
4.3853543e-12
1.3578487e-12
5.3368137e-12
1.5976559e-12
6.3805225e-12
1.8877998e-12
7.5029792e-12
2.1839332e-12
8.6784627e-12
2.460827e-12
9.8891617e-12
2.6776302e-12
1.1118589e-11
2.8108843e-12
1.2361864e-11
2.8296054e-12
1.3531632e-11
2.8311143e-12
1.4557251e-11
2.7650111e-12
1.5476812e-11
2.5781669e-12
1.6262391e-11
2.2888001e-12
1.6914261e-11
1.8859878e-12
1.7348111e-11
1.4740936e-12
1.7649723e-11
8.8271099e-13
2.3014364e-13
9.219731e-13
1.457224e-12
1.1118887e-12
1.4066547e-12
1.3199552e-12
1.2660856e-12
1.5460522e-12
1.0918188e-12
1.8079589e-12
9.0706932e-13
2.1064516e-12
7.4485153e-13
2.4794258e-12
6.2453744e-13
2.947368e-12
5.6460524e-13
3.5231269e-12
5.8255271e-13
4.2022241e-12
6.7872814e-13
4.9607949e-12
8.3906333e-13
5.8246377e-12
1.0239372e-12
6.8645203e-12
1.1440326e-12
7.8994006e-12
1.4259307e-12
8.9813034e-12
1.5957133e-12
1.0113194e-11
1.6789812e-12
1.1218365e-11
1.7244234e-12
1.226013e-11
1.7893405e-12
1.3216621e-11
1.8085119e-12
1.4082391e-11
1.7123893e-12
1.4845213e-11
1.525972e-12
1.5442863e-11
1.2883313e-12
1.6050166e-11
8.6678535e-13
1.6350368e-11
5.8250686e-13
2.6006881e-13
8.9002064e-13
1.2491772e-12
1.1088892e-12
1.1877566e-12
1.3272775e-12
1.0476678e-12
1.5648584e-12
8.5420873e-13
1.8244559e-12
6.4744354e-13
2.1182086e-12
4.5107149e-13
2.461118e-12
2.8160188e-13
2.868374e-12
1.5732439e-13
3.3621085e-12
8.8794837e-14
3.9547841e-12
8.6030779e-14
4.6441539e-12
1.4967337e-13
5.4179121e-12
2.5016069e-13
6.2063229e-12
3.5560527e-13
7.1205182e-12
5.1172071e-13
8.0993406e-12
6.1687797e-13
9.0600861e-12
7.1822452e-13
1.0014448e-11
7.7005218e-13
1.0949129e-11
8.5465066e-13
1.1826795e-11
9.3083886e-13
1.2614116e-11
9.2506245e-13
1.3278144e-11
8.6193881e-13
1.3841476e-11
7.2499523e-13
1.4148693e-11
5.5956276e-13
1.4378288e-11
3.5291108e-13
1.1364856e-13
8.5386702e-13
1.036395e-12
1.0822497e-12
9.5934632e-13
1.2985839e-12
8.3130625e-13
1.5311229e-12
6.2164273e-13
1.7819341e-12
3.9660609e-13
2.0583044e-12
1.7467586e-13
2.3653318e-12
-2.5449723e-14
2.7252255e-12
-2.025923e-13
3.1458391e-12
-3.3184048e-13
3.6391688e-12
-4.0731899e-13
4.220459e-12
-4.3163545e-13
4.8728639e-12
-4.0226104e-13
5.5737727e-12
-3.4531871e-13
6.3420442e-12
-2.5656419e-13
7.1266599e-12
-1.6774947e-13
7.917094e-12
-7.22197e-14