/*--------------------------------*- C++ -*----------------------------------*\
| =========                 |                                                 |
| \\      /  F ield         | OpenFOAM: The Open Source CFD Toolbox           |
|  \\    /   O peration     | Version:  4.0                                   |
|   \\  /    A nd           | Web:      www.OpenFOAM.org                      |
|    \\/     M anipulation  |                                                 |
\*---------------------------------------------------------------------------*/
FoamFile
{
    version     2.0;
    format      ascii;
    class       volVectorField;
    location    "0.16";
    object      U;
}
// * * * * * * * * * * * * * * * * * * * * * * * * * * * * * * * * * * * * * //

dimensions      [0 1 -1 0 0 0 0];

internalField   nonuniform List<vector> 
1740
(
(1.4953453 -0.0078196965 4.9219271e-06)
(1.5060004 -0.015860114 7.4958431e-07)
(1.6261636 -0.005591488 2.8281485e-08)
(1.614725 -0.014303849 7.2161169e-06)
(1.524675 -0.040721219 1.5428388e-06)
(1.6354002 -0.027579601 3.1489469e-07)
(1.6085426 -0.0058818092 1.1433034e-05)
(1.5781421 -0.035657378 2.4663902e-06)
(1.5335581 -0.025705295 4.5970538e-07)
(1.6308296 -0.010173002 1.3024103e-05)
(1.6018324 -0.0015275439 3.4179275e-06)
(1.5560515 -0.0034081125 5.7305481e-07)
(1.6382752 -0.011534312 1.5367513e-05)
(1.5615204 0.01487647 4.3196543e-06)
(1.5679942 0.0080303232 8.0221401e-07)
(1.6203747 -0.010883855 1.6199646e-05)
(1.5289834 0.0076270151 5.069454e-06)
(1.536857 0.0059132616 9.7296686e-07)
(1.7239372 0.0091859048 1.6834883e-05)
(1.5085609 0.0075252883 5.7017736e-06)
(1.6116182 0.0026018545 1.0564405e-06)
(1.6014827 0.016517358 1.7914355e-05)
(1.5059096 -0.0093202714 6.3766316e-06)
(1.6123865 -0.016448285 1.3592755e-06)
(1.6071532 -0.0042814573 1.8625914e-05)
(1.6206338 -0.02337063 7.012959e-06)
(1.5242301 -0.014649118 1.5303674e-06)
(1.6662401 -0.0091153604 1.9233794e-05)
(1.6312825 0.0072613786 7.6759017e-06)
(1.5454519 0.0081140584 1.6551266e-06)
(1.5818163 0.0057452795 1.9596306e-05)
(1.5424776 0.023307722 8.2214206e-06)
(1.5583218 0.010799765 1.9151612e-06)
(1.5787057 0.012112498 1.9960419e-05)
(1.5528003 0.015793936 8.8316682e-06)
(1.5470298 0.0046821252 2.1062595e-06)
(1.5282084 0.0095707798 2.0160257e-05)
(1.5104763 0.01344261 9.3881992e-06)
(1.5976536 0.0030495954 2.2832878e-06)
(1.5356446 0.0056797377 2.0219126e-05)
(1.5413224 0.0052581131 9.7670648e-06)
(1.5973466 -0.0018825568 2.5552984e-06)
(1.5039044 0.0038753011 2.0153661e-05)
(1.6230399 0.010939385 1.0355341e-05)
(1.5745976 0.0088050566 2.6977512e-06)
(1.5036395 -0.0010993193 2.038106e-05)
(1.5282378 0.0027357751 1.074885e-05)
(1.6480157 -5.8225029e-05 2.9057995e-06)
(1.5373436 0.0069928673 2.0942476e-05)
(1.5741429 -0.00088700419 1.1230593e-05)
(1.5784935 -0.010062142 3.0604204e-06)
(1.4763412 0.0017519481 2.107237e-05)
(1.5903327 -0.0034857963 1.1669955e-05)
(1.5959047 -0.0016753583 3.2458228e-06)
(1.4931981 0.00013865237 2.1353379e-05)
(1.4847369 -0.0045392046 1.2089409e-05)
(1.5736324 0.00039991077 3.4366589e-06)
(1.4964727 0.0060707658 2.1677157e-05)
(1.5952237 0.0067478695 1.2405827e-05)
(1.5978784 0.00079763178 3.5800978e-06)
(1.4941915 -0.0099195671 2.1765354e-05)
(1.6001336 0.0038390063 1.2739264e-05)
(1.6143927 0.011882928 3.8139199e-06)
(1.4761135 -0.0055868861 2.169355e-05)
(1.4751957 -0.0068873433 1.3053439e-05)
(1.5844484 -0.0013472302 3.9344702e-06)
(1.4969098 0.0027245706 2.1862007e-05)
(1.582224 -0.01712252 1.3383801e-05)
(1.5682529 -0.012676255 4.1085251e-06)
(1.5014634 -0.012399078 2.201462e-05)
(1.5910659 -0.014941643 1.3719628e-05)
(1.5803211 -0.0091854942 4.2139388e-06)
(1.5746017 -0.02998954 2.2291574e-05)
(1.585916 -0.028282758 1.4113293e-05)
(1.5901385 -0.0094225925 4.4181429e-06)
(1.6942313 -0.022631601 2.2677347e-05)
(1.5968602 -0.015781839 1.4457512e-05)
(1.4923121 -0.0034460939 4.5460649e-06)
(1.5961808 0.0096231005 2.2414773e-05)
(1.5119481 -0.0052644607 1.4670256e-05)
(1.5067374 -0.00090341201 4.6646644e-06)
(1.5870491 0.0094059395 2.2598034e-05)
(1.6006195 -0.0085033365 1.4922383e-05)
(1.4975492 -0.011864393 4.842961e-06)
(1.5267855 0.011117749 2.2195952e-05)
(1.5670947 0.0071238407 1.510795e-05)
(1.4682151 0.0055110969 4.8267193e-06)
(1.3168633 0.040847756 2.3709675e-05)
(1.33312 0.1142372 1.5762447e-05)
(1.3750348 0.068835209 5.5259994e-06)
(0.86259893 0.37432394 1.1818963e-05)
(0.82826952 0.94605563 9.9712831e-06)
(0.75704723 1.2597631 5.4128688e-06)
(0.22846342 0.11564834 1.5192509e-06)
(0.19487427 0.37473536 3.0865945e-06)
(0.088403129 0.51080325 7.0388993e-07)
(-0.02820402 -0.012906139 1.2463202e-06)
(-0.02684373 -0.026796905 1.7350695e-06)
(-0.019930251 -0.031742938 6.4292099e-07)
(-0.0068339895 -0.0028168128 4.7505203e-07)
(-0.0068149801 -0.0074020663 7.9233925e-07)
(-0.0062091667 -0.010137952 4.1633829e-07)
(-0.00059479879 -0.00030643867 1.3819944e-07)
(-0.00067407093 -0.00087655596 2.9378847e-07)
(-0.00091034245 -0.0014682463 1.8823927e-07)
(2.0372238e-05 -6.2572055e-05 4.1201617e-08)
(3.1418263e-05 -0.00012320203 1.0081763e-07)
(6.3893518e-06 -0.00022110548 6.7563335e-08)
(0.00017152436 8.9415152e-06 9.722888e-09)
(0.000164033 4.0621371e-05 2.7827727e-08)
(0.00014085793 6.6845027e-05 1.4496905e-08)
(0.00015579292 3.5163943e-05 -1.1113237e-09)
(0.00014075836 8.9200581e-05 1.831153e-09)
(0.00011078348 0.00014569756 -4.9210569e-09)
(0.00010212238 2.5270674e-05 -2.9175754e-09)
(8.8374469e-05 6.4507454e-05 -4.1088809e-09)
(6.5503994e-05 9.3290085e-05 -8.0994484e-09)
(6.0405969e-05 5.0966111e-06 -1.4868244e-09)
(5.0056006e-05 1.6043101e-05 -2.8584712e-09)
(3.1312055e-05 1.3772229e-05 -5.3792503e-09)
(4.4680989e-05 -5.6681805e-06 -1.6771653e-10)
(3.7282129e-05 -1.5018174e-05 -8.2095414e-10)
(2.3524244e-05 -2.5906055e-05 -2.3064682e-09)
(4.4454798e-05 -5.5598766e-06 2.3368998e-10)
(3.8903873e-05 -1.6048098e-05 1.1045936e-10)
(2.824727e-05 -2.284407e-05 -6.2795991e-10)
(4.7665815e-05 -1.851776e-06 1.2087033e-10)
(4.3426898e-05 -4.9375046e-06 2.0511286e-10)
(3.5044573e-05 -8.7521498e-06 -6.1697903e-11)
(4.8877658e-05 7.5908054e-07 -5.5662707e-11)
(4.5649465e-05 2.4578097e-06 4.0327993e-11)
(3.9074562e-05 2.8374739e-06 3.8269618e-12)
(4.6744952e-05 1.898804e-06 -1.53081e-10)
(4.4269644e-05 5.0410427e-06 -9.2660284e-11)
(3.9110657e-05 7.1301306e-06 -5.0077578e-11)
(4.2569461e-05 1.9667843e-06 -1.6972485e-10)
(4.0656337e-05 5.231425e-06 -1.3684414e-10)
(3.6573409e-05 7.6848508e-06 -8.1721504e-11)
(3.7809725e-05 1.6595416e-06 -1.4242912e-10)
(3.6310336e-05 4.4051468e-06 -1.2193575e-10)
(3.3045662e-05 6.5749999e-06 -7.3766695e-11)
(3.3246631e-05 1.3668676e-06 -1.0851559e-10)
(3.2057165e-05 3.6035505e-06 -9.1369843e-11)
(2.9421352e-05 5.3190575e-06 -5.1084356e-11)
(2.9111806e-05 1.1758176e-06 -8.4527118e-11)
(2.8157415e-05 3.0711153e-06 -6.9028897e-11)
(2.6008722e-05 4.5255321e-06 -3.3563835e-11)
(2.5383264e-05 1.061188e-06 -7.2372466e-11)
(2.4608449e-05 2.7822813e-06 -6.0147383e-11)
(2.2840853e-05 4.1673358e-06 -2.6604052e-11)
(2.1976491e-05 9.9865036e-07 -6.4903393e-11)
(2.1339562e-05 2.616119e-06 -5.6886369e-11)
(1.9872525e-05 3.9990434e-06 -2.6427524e-11)
(1.8819734e-05 9.6175581e-07 -5.8855687e-11)
(1.8290061e-05 2.5126259e-06 -5.4228219e-11)
(1.7063323e-05 3.9160986e-06 -2.7722819e-11)
(1.5881607e-05 8.7969795e-07 -5.4142862e-11)
(1.5437338e-05 2.2923862e-06 -5.1974635e-11)
(1.4406e-05 3.5272476e-06 -2.8229639e-11)
(1.317858e-05 7.7491946e-07 -4.9378691e-11)
(1.2803366e-05 2.013333e-06 -4.8202471e-11)
(1.1933052e-05 3.1315497e-06 -2.7358767e-11)
(1.0753369e-05 6.940382e-07 -4.352787e-11)
(1.0433884e-05 1.7818424e-06 -4.2843613e-11)
(9.6960942e-06 2.7987832e-06 -2.5162938e-11)
(8.6343125e-06 6.0250923e-07 -3.9865125e-11)
(8.3591296e-06 1.568787e-06 -3.9663649e-11)
(7.7283713e-06 2.4548533e-06 -2.3423215e-11)
(6.8106436e-06 5.0599372e-07 -3.7646367e-11)
(6.5712395e-06 1.3409815e-06 -3.7996623e-11)
(6.028574e-06 2.0990493e-06 -2.2640822e-11)
(5.2458711e-06 4.1129704e-07 -3.6034076e-11)
(5.0372128e-06 1.1106227e-06 -3.6663503e-11)
(4.5704402e-06 1.7384893e-06 -2.2453972e-11)
(3.9128196e-06 3.5755351e-07 -3.5391712e-11)
(3.7310501e-06 9.6031176e-07 -3.5929698e-11)
(3.33076e-06 1.4849251e-06 -2.2495594e-11)
(2.812263e-06 2.7946671e-07 -3.4120466e-11)
(2.6535047e-06 7.6946788e-07 -3.4436747e-11)
(2.3101603e-06 1.1848673e-06 -2.1952832e-11)
(1.9551061e-06 2.0476597e-07 -3.3124259e-11)
(1.8158654e-06 5.8675507e-07 -3.3145311e-11)
(1.5201542e-06 8.9806474e-07 -2.1508344e-11)
(1.3368391e-06 1.3791107e-07 -3.2449076e-11)
(1.2144471e-06 4.2079439e-07 -3.215905e-11)
(9.5880207e-07 6.3503857e-07 -2.1199332e-11)
(9.3513625e-07 7.5931275e-08 -3.1844326e-11)
(8.2761443e-07 2.7040021e-07 -3.1151145e-11)
(6.0621448e-07 3.9740303e-07 -2.0820015e-11)
(7.2167689e-07 1.6744636e-08 -3.0993904e-11)
(6.273358e-07 1.248889e-07 -2.985783e-11)
(4.3525782e-07 1.7053231e-07 -2.0160033e-11)
(6.6846984e-07 -3.4958751e-08 -3.022126e-11)
(5.857197e-07 -4.5124377e-09 -2.8645141e-11)
(4.1849608e-07 -2.7011522e-08 -1.9488652e-11)
(7.4800349e-07 -6.8495133e-08 -2.9895623e-11)
(6.7546924e-07 -8.8793488e-08 -2.7826895e-11)
(5.2903936e-07 -1.8924569e-07 -1.9015684e-11)
(9.3363653e-07 -9.9001568e-08 -2.9327582e-11)
(8.7013981e-07 -1.6727873e-07 -2.6917908e-11)
(7.4106359e-07 -2.9974487e-07 -1.8620466e-11)
(1.2009667e-06 -1.2347778e-07 -2.8892417e-11)
(1.1453343e-06 -2.304844e-07 -2.6214493e-11)
(1.0306229e-06 -3.8909499e-07 -1.8337337e-11)
(1.5265407e-06 -1.4196026e-07 -2.851423e-11)
(1.4776199e-06 -2.8386326e-07 -2.5623207e-11)
(1.3746349e-06 -4.5994241e-07 -1.8109249e-11)
(1.8906366e-06 -1.4532478e-07 -2.8403839e-11)
(1.8474639e-06 -2.9455726e-07 -2.5221352e-11)
(1.7538578e-06 -5.1900595e-07 -1.7918299e-11)
(2.2824643e-06 -1.5071712e-07 -2.8193793e-11)
(2.2442313e-06 -3.1213672e-07 -2.4857986e-11)
(2.1575857e-06 -5.2972829e-07 -1.7828533e-11)
(2.6890963e-06 -1.5045095e-07 -2.7912167e-11)
(2.6552325e-06 -3.1472007e-07 -2.4501308e-11)
(2.5741953e-06 -5.2210193e-07 -1.7827379e-11)
(3.0888612e-06 -1.4288138e-07 -2.7818068e-11)
(3.0589791e-06 -3.018911e-07 -2.4327156e-11)
(2.983208e-06 -4.9984264e-07 -1.7872075e-11)
(3.4642151e-06 -1.3119918e-07 -2.7780689e-11)
(3.4377214e-06 -2.7968857e-07 -2.4251627e-11)
(3.3662041e-06 -4.6402723e-07 -1.7966034e-11)
(3.8048362e-06 -1.1616293e-07 -2.7788412e-11)
(3.7810546e-06 -2.4933988e-07 -2.4269909e-11)
(3.7124527e-06 -4.1400698e-07 -1.8139668e-11)
(4.1007858e-06 -9.7909833e-08 -2.7880778e-11)
(4.079131e-06 -2.10453e-07 -2.4417907e-11)
(4.0125445e-06 -3.4825888e-07 -1.8403504e-11)
(4.3396667e-06 -7.5848437e-08 -2.8143525e-11)
(4.3196294e-06 -1.6064367e-07 -2.4717081e-11)
(4.2544766e-06 -2.6305779e-07 -1.8671122e-11)
(4.50163e-06 -4.9738409e-08 -2.8511683e-11)
(4.4827445e-06 -1.0184544e-07 -2.4797678e-11)
(4.418735e-06 -1.6642146e-07 -1.8432052e-11)
(4.598808e-06 -2.1472779e-08 -2.8261216e-11)
(4.580711e-06 -4.0838023e-08 -2.3368991e-11)
(4.5175816e-06 -6.9469451e-08 -1.6650203e-11)
(4.5589103e-06 2.1028206e-09 -2.528491e-11)
(4.5408871e-06 9.2315081e-09 -1.7635528e-11)
(4.478819e-06 1.205796e-08 -1.1515402e-11)
(-0.046831451 1.9648498 -3.8091078e-07)
(-0.033334996 1.7096235 -3.4688255e-06)
(-0.063054972 0.35018871 -2.4423305e-07)
(-0.043971333 0.15679012 -9.8924221e-07)
(-0.016003406 -0.040148385 -1.2743569e-07)
(-0.011999772 -0.0428011 -5.3972812e-07)
(-0.0054174156 -0.012853014 -8.663741e-10)
(-0.0049385447 -0.014488346 -2.8321123e-07)
(-0.0010548912 -0.0022971295 -6.4816878e-10)
(-0.0012170442 -0.003134978 -1.634813e-07)
(3.3446429e-06 -0.00039854891 -1.7017913e-08)
(-2.1223849e-05 -0.00060703366 -1.043541e-07)
(0.00013506891 7.2766782e-05 -2.4600346e-08)
(0.00014462488 8.4983664e-05 -7.0254519e-08)
(8.3172704e-05 0.00020217361 -2.3460686e-08)
(8.0465936e-05 0.00024963586 -4.682899e-08)
(3.8524118e-05 0.00012371696 -1.7157622e-08)
(1.793746e-05 0.00015076051 -2.8857551e-08)
(1.1804165e-05 9.4263671e-06 -9.9576406e-09)
(-5.0351559e-06 5.4534648e-06 -1.5724431e-08)
(8.1635694e-06 -4.0091447e-05 -4.6300429e-09)
(-4.8689799e-06 -5.6114438e-05 -7.4200319e-09)
(1.5998624e-05 -3.3125576e-05 -1.7359356e-09)
(5.1373139e-06 -4.8103891e-05 -3.0231548e-09)
(2.5159763e-05 -1.3628083e-05 -5.3018651e-10)
(1.591799e-05 -2.091511e-05 -1.0817843e-09)
(3.1068298e-05 1.4255221e-06 -1.5314332e-10)
(2.3215043e-05 -7.5510381e-07 -3.6241978e-10)
(3.261333e-05 8.0802742e-06 -7.484036e-11)
(2.5950132e-05 8.840126e-06 -1.3495871e-10)
(3.1304949e-05 1.0424296e-05 -5.9987914e-11)
(2.5705813e-05 1.0787776e-05 -6.2358001e-11)
(2.876086e-05 8.8882598e-06 -4.3483038e-11)
(2.4074359e-05 9.5929438e-06 -2.9403001e-11)
(2.5903731e-05 7.2423226e-06 -2.4311948e-11)
(2.196206e-05 8.0740351e-06 -8.351632e-12)
(2.3096274e-05 6.15321e-06 -1.0175845e-11)
(1.9768784e-05 7.0735866e-06 3.94795e-12)
(2.0414745e-05 5.6175154e-06 -4.725067e-12)
(1.7595509e-05 6.5610903e-06 8.1875325e-12)
(1.7840062e-05 5.3825503e-06 -5.7416063e-12)
(1.5440211e-05 6.3775033e-06 6.8448737e-12)
(1.5349461e-05 5.1553953e-06 -8.845742e-12)
(1.3297869e-05 6.0574943e-06 3.1624531e-12)
(1.2953936e-05 4.6186575e-06 -1.1023854e-11)
(1.1197513e-05 5.6376748e-06 -2.5079737e-14)
(1.0700622e-05 4.1564418e-06 -1.1977346e-11)
(9.1965058e-06 5.1521706e-06 -1.8485369e-12)
(8.6467448e-06 3.7435708e-06 -1.1916943e-11)
(7.3542035e-06 4.6809424e-06 -2.9056638e-12)
(6.8284731e-06 3.3097204e-06 -1.1532367e-11)
(5.7120255e-06 4.2017998e-06 -3.4764346e-12)
(5.252158e-06 2.8288403e-06 -1.1385236e-11)
(4.2849846e-06 3.6131099e-06 -3.9254448e-12)
(3.9018538e-06 2.3368025e-06 -1.1718688e-11)
(3.0656587e-06 2.9287979e-06 -4.4689085e-12)
(2.7577096e-06 1.9699887e-06 -1.2288189e-11)
(2.0380507e-06 2.4041195e-06 -5.282753e-12)
(1.8191434e-06 1.574785e-06 -1.2429079e-11)
(1.2005789e-06 1.9149488e-06 -5.8502367e-12)
(1.0978915e-06 1.1912446e-06 -1.2565188e-11)
(5.6459352e-07 1.4354886e-06 -6.3570134e-12)
(5.9443642e-07 8.3503751e-07 -1.2710922e-11)
(1.3334191e-07 9.9031099e-07 -6.7940757e-12)
(2.9136628e-07 5.0852054e-07 -1.2780291e-11)
(-1.0773985e-07 5.7184107e-07 -7.1057862e-12)
(1.6278876e-07 2.0111525e-07 -1.2602596e-11)
(-1.8328351e-07 1.9322279e-07 -7.2429789e-12)
(1.8185802e-07 -6.6326539e-08 -1.2344037e-11)
(-1.1932626e-07 -1.3695104e-07 -7.2785282e-12)
(3.2229881e-07 -2.9857479e-07 -1.2180726e-11)
(5.864177e-08 -4.0754531e-07 -7.3493943e-12)
(5.590596e-07 -4.3327188e-07 -1.2165114e-11)
(3.2668324e-07 -5.9530119e-07 -7.5237578e-12)
(8.6913097e-07 -5.5494189e-07 -1.2163157e-11)
(6.6285494e-07 -7.4913602e-07 -7.6936879e-12)
(1.2305664e-06 -6.4813863e-07 -1.2181701e-11)
(1.0461715e-06 -8.6770118e-07 -7.872193e-12)
(1.6233216e-06 -7.3733082e-07 -1.220493e-11)
(1.4554852e-06 -9.503304e-07 -8.0575578e-12)
(2.0358016e-06 -7.4701584e-07 -1.2306972e-11)
(1.8786257e-06 -9.6456283e-07 -8.2848269e-12)
(2.459796e-06 -7.3341794e-07 -1.2501018e-11)
(2.3121467e-06 -9.5468906e-07 -8.5652381e-12)
(2.876695e-06 -7.0164705e-07 -1.2688395e-11)
(2.7392615e-06 -9.1139312e-07 -8.8271187e-12)
(3.265712e-06 -6.5129643e-07 -1.2896908e-11)
(3.1356176e-06 -8.4347066e-07 -9.1026156e-12)
(3.6156672e-06 -5.8060591e-07 -1.3167171e-11)
(3.4898537e-06 -7.5037239e-07 -9.4280194e-12)
(3.9182895e-06 -4.8607083e-07 -1.3496224e-11)
(3.7954752e-06 -6.2449173e-07 -9.8008161e-12)
(4.1620543e-06 -3.6565402e-07 -1.3737807e-11)
(4.0414794e-06 -4.6860268e-07 -1.0055722e-11)
(4.3278457e-06 -2.3086953e-07 -1.3425023e-11)
(4.2091958e-06 -2.9617723e-07 -9.8115049e-12)
(4.4279041e-06 -9.858577e-08 -1.1789707e-11)
(4.3107827e-06 -1.2953891e-07 -8.4989093e-12)
(4.3907585e-06 1.4524831e-08 -7.7705872e-12)
(4.2757456e-06 1.5636041e-08 -5.4694457e-12)
(-0.00046728705 3.2645e-06 -4.8003341e-08)
(-0.00045713333 -4.011998e-05 -1.1229029e-07)
(-0.00043701668 -3.5302276e-05 -1.5597442e-07)
(-0.00042368971 -5.9860375e-05 -1.8103791e-07)
(-0.00041567762 -6.3574871e-05 -1.9138335e-07)
(-0.00041480988 -7.7503887e-05 -1.9137641e-07)
(-0.00041503218 -9.0484302e-05 -1.8483272e-07)
(-0.00040999945 -0.00011263035 -1.7462575e-07)
(-0.00039657266 -0.00014480331 -1.6265719e-07)
(-0.00037494097 -0.00018403088 -1.501358e-07)
(-0.00034691765 -0.00022971504 -1.378326e-07)
(-0.00031492379 -0.00027952294 -1.2612244e-07)
(-0.00028103183 -0.00033050373 -1.1510922e-07)
(-0.0002467917 -0.00038046084 -1.0472442e-07)
(-0.00021342943 -0.00042807884 -9.486188e-08)
(-0.00018181745 -0.00047183569 -8.5444104e-08)
(-0.00015252432 -0.0005110958 -7.6427304e-08)
(-0.00012590578 -0.0005460204 -6.7773912e-08)
(-0.00010218135 -0.00057525625 -5.9412913e-08)
(-8.1042995e-05 -0.00059777943 -5.1302237e-08)
(-6.2266517e-05 -0.00061308814 -4.3364566e-08)
(-4.5629025e-05 -0.00062099146 -3.5330754e-08)
(-3.0766526e-05 -0.00062249524 -2.6892572e-08)
(-1.750211e-05 -0.00061629027 -1.7774161e-08)
(-5.7248186e-06 -0.00058913507 -7.7512021e-09)
(0.00024360592 -0.00011393212 -6.4863796e-08)
(0.00024462427 -0.00049140286 -1.4906161e-07)
(0.00024354161 -0.00069769185 -2.0249044e-07)
(0.00024215284 -0.00099881431 -2.291923e-07)
(0.00024533033 -0.001245639 -2.366647e-07)
(0.00026195877 -0.0015171433 -2.3266025e-07)
(0.00028975621 -0.0017768217 -2.2238642e-07)
(0.00032016984 -0.0020549635 -2.0909444e-07)
(0.00034281289 -0.0023513288 -1.9454424e-07)
(0.00035539591 -0.0026437218 -1.7978979e-07)
(0.00035810496 -0.0029279169 -1.6563864e-07)
(0.00035230366 -0.0032001683 -1.5240588e-07)
(0.00033981915 -0.0034561328 -1.401294e-07)
(0.00032220977 -0.0036926199 -1.2861408e-07)
(0.00030054663 -0.0039076072 -1.1767606e-07)
(0.00027568909 -0.0040989543 -1.072052e-07)
(0.0002483912 -0.0042667099 -9.7153445e-08)
(0.00021935867 -0.0044182816 -8.7453831e-08)
(0.00018931735 -0.0045485987 -7.7933601e-08)
(0.00015856203 -0.0046406835 -6.851821e-08)
(0.00012757491 -0.0046878701 -5.918309e-08)
(9.6886314e-05 -0.0046914006 -4.9330833e-08)
(6.688264e-05 -0.004655116 -3.8437527e-08)
(3.7817993e-05 -0.0045641907 -2.5680411e-08)
(1.0465562e-05 -0.0043586937 -1.1099168e-08)
(0.0011098276 -0.00032509823 -1.0488095e-07)
(0.0011181285 -0.0015486923 -2.3141088e-07)
(0.0011276952 -0.0020880243 -3.0089726e-07)
(0.0011534987 -0.0029769282 -3.2510488e-07)
(0.0011864485 -0.0036966982 -3.2358468e-07)
(0.0012156163 -0.0044463279 -3.1045237e-07)
(0.0012293567 -0.005188658 -2.9240923e-07)
(0.0012209911 -0.0060812704 -2.7313864e-07)
(0.0011933023 -0.0071032373 -2.5364697e-07)
(0.0011491143 -0.008060577 -2.3445468e-07)
(0.0010910468 -0.0089011259 -2.1673183e-07)
(0.0010233429 -0.0096172836 -2.0058582e-07)
(0.0009495375 -0.010208858 -1.8599012e-07)
(0.00087133958 -0.01068089 -1.7240884e-07)
(0.00079005374 -0.011041665 -1.5950522e-07)
(0.00070707302 -0.011296408 -1.4711525e-07)
(0.00062369502 -0.011449082 -1.3526803e-07)
(0.00054090056 -0.011498654 -1.2383434e-07)
(0.00045959859 -0.0114592 -1.1238393e-07)
(0.00038014052 -0.011354629 -1.0096366e-07)
(0.00030324316 -0.011198419 -8.931619e-08)
(0.00022948212 -0.011000869 -7.6856345e-08)
(0.00015873546 -0.010770408 -6.2588427e-08)
(9.1134658e-05 -0.01047522 -4.4647453e-08)
(2.7969565e-05 -0.010065115 -2.2188529e-08)
(0.0036918468 -0.001062273 -1.8927423e-07)
(0.0036314304 -0.0047517965 -3.8353278e-07)
(0.0035516905 -0.0060654154 -4.6336935e-07)
(0.0033718718 -0.0092266856 -4.7133125e-07)
(0.0031710911 -0.012042924 -4.5089875e-07)
(0.0029346189 -0.014566103 -4.2265633e-07)
(0.0026822846 -0.016377735 -3.9271319e-07)
(0.0024231262 -0.017367341 -3.6617188e-07)
(0.002172852 -0.017684029 -3.4093266e-07)
(0.0019346695 -0.017586628 -3.1517912e-07)
(0.0017112739 -0.017179122 -2.9231303e-07)
(0.0015049676 -0.016573828 -2.7173673e-07)
(0.0013142 -0.015805935 -2.5386943e-07)
(0.0011321148 -0.014911398 -2.3722785e-07)
(0.0009667133 -0.013946664 -2.2130989e-07)
(0.00081898105 -0.012958119 -2.0602403e-07)
(0.00068798202 -0.011982032 -1.9125974e-07)
(0.00057222141 -0.011048626 -1.7680658e-07)
(0.00046990796 -0.01017947 -1.6271282e-07)
(0.00037932813 -0.0093936673 -1.4871504e-07)
(0.00029831423 -0.0087040487 -1.3450918e-07)
(0.00022474101 -0.0081162601 -1.1955164e-07)
(0.00015724156 -0.007632444 -1.0283181e-07)
(9.4300487e-05 -0.0072052535 -8.2438439e-08)
(3.4400334e-05 -0.0068748786 -5.239255e-08)
(0.0115781 -0.0087785567 -3.7849249e-07)
(0.009126391 -0.025700921 -6.422275e-07)
(0.0078756162 -0.027998579 -7.0093386e-07)
(0.0061422214 -0.032093919 -6.7957479e-07)
(0.0047283208 -0.02944577 -6.3542482e-07)
(0.0035082227 -0.025632696 -5.8644878e-07)
(0.0024959321 -0.020968273 -5.3969979e-07)
(0.001694047 -0.016057627 -4.965692e-07)
(0.0010707901 -0.011137266 -4.5953287e-07)
(0.00059160776 -0.0065978501 -4.2571777e-07)
(0.00023072868 -0.0025085289 -3.9522105e-07)
(-3.2627474e-05 0.0010234751 -3.6668917e-07)
(-0.00021779729 0.0042129711 -3.4416537e-07)
(-0.00033854061 0.0072827198 -3.2272311e-07)
(-0.00041290589 0.010130434 -3.0185613e-07)
(-0.00044884095 0.012603592 -2.8194882e-07)
(-0.00045453769 0.014664261 -2.6286977e-07)
(-0.0004368473 0.016327963 -2.4443499e-07)
(-0.00040115998 0.017622183 -2.2651847e-07)
(-0.00035190927 0.018577261 -2.0894961e-07)
(-0.00029317753 0.019219819 -1.9151106e-07)
(-0.00022846394 0.019580078 -1.738232e-07)
(-0.00015992231 0.019656009 -1.5506174e-07)
(-9.0360493e-05 0.019521397 -1.3790634e-07)
(-2.0589726e-05 0.01881594 -1.2132492e-07)
(0.014086511 0.024027034 -7.649398e-07)
(0.0030605157 -0.00021324234 -1.0707212e-06)
(0.00043676264 0.049325142 -1.0651462e-06)
(-0.0013014667 0.052472947 -9.8701253e-07)
(-0.0028364912 0.06657108 -9.0814033e-07)
(-0.0039812598 0.076765635 -8.213138e-07)
(-0.0046088317 0.083849426 -7.4350332e-07)
(-0.0047860797 0.089737352 -6.7544704e-07)
(-0.0046860105 0.09404167 -6.1582508e-07)
(-0.0044484626 0.09670423 -5.6430898e-07)
(-0.004142196 0.098189527 -5.2026724e-07)
(-0.0037802975 0.098616917 -4.73749e-07)
(-0.003417287 0.098317604 -4.4666709e-07)
(-0.0030675835 0.097057829 -4.1705542e-07)
(-0.002715096 0.094897163 -3.8734953e-07)
(-0.002373056 0.092449427 -3.6036375e-07)
(-0.0020505551 0.089805899 -3.3519979e-07)
(-0.001748808 0.087048647 -3.1139266e-07)
(-0.0014673197 0.084251724 -2.8864494e-07)
(-0.0012045996 0.081472358 -2.6673377e-07)
(-0.0009582758 0.078744928 -2.4547238e-07)
(-0.00072587342 0.076114667 -2.2463928e-07)
(-0.00050509903 0.073539058 -2.0399006e-07)
(-0.0002942673 0.071251918 -1.8404291e-07)
(-8.7593363e-05 0.067717612 -1.6486846e-07)
(-0.0020136492 1.1837869 -2.5207807e-06)
(-0.0010247864 0.96738872 -1.9994858e-06)
(-0.0012191972 0.8702466 -1.6169891e-06)
(-0.00087560092 0.77681992 -1.3222448e-06)
(-0.0007265541 0.6799463 -1.10194e-06)
(-0.00060982321 0.58807884 -9.4064726e-07)
(-0.00050687739 0.50940772 -8.2112413e-07)
(-0.00042140959 0.44550804 -7.314221e-07)
(-0.0003480421 0.39285352 -6.5772876e-07)
(-0.000287051 0.34796358 -6.0024542e-07)
(-0.000234238 0.30922503 -5.5481156e-07)
(-0.00019031989 0.27589817 -5.1418016e-07)
(-0.0001544595 0.24741613 -4.793289e-07)
(-0.00012968089 0.22305217 -4.4786058e-07)
(-0.00010797181 0.20213546 -4.1845033e-07)
(-8.9864798e-05 0.18418544 -3.9070285e-07)
(-7.4284439e-05 0.16877263 -3.6431317e-07)
(-6.1271767e-05 0.15553252 -3.3906516e-07)
(-5.0174889e-05 0.14415971 -3.1478532e-07)
(-4.0518904e-05 0.13440324 -2.9132999e-07)
(-3.1893168e-05 0.12604133 -2.6858673e-07)
(-2.3971976e-05 0.11893735 -2.4639278e-07)
(-1.6518923e-05 0.11281604 -2.2479575e-07)
(-9.4939665e-06 0.10804765 -2.0376611e-07)
(-2.7075329e-06 0.10194431 -1.816166e-07)
(-0.013070189 0.093950514 -1.1910907e-06)
(-0.0023318909 0.10138331 -1.2264178e-06)
(7.2745989e-05 0.10682697 -1.1769612e-06)
(0.0017055867 0.10817853 -1.0844757e-06)
(0.0031516347 0.10989911 -9.8125082e-07)
(0.004223198 0.11127467 -8.8092002e-07)
(0.0047966155 0.11270393 -7.9116116e-07)
(0.0049307086 0.11404074 -7.1323218e-07)
(0.0047655718 0.11466681 -6.2923842e-07)
(0.0044910975 0.11459512 -5.8625277e-07)
(0.0041937859 0.11378173 -5.4223706e-07)
(0.0038444104 0.11206263 -4.9676109e-07)
(0.0034656945 0.10953363 -4.5789343e-07)
(0.0030903509 0.10649256 -4.2370687e-07)
(0.0027279446 0.10320026 -3.9296353e-07)
(0.0023833679 0.099784808 -3.6484198e-07)
(0.0020599238 0.096328419 -3.3877635e-07)
(0.0017558209 0.092897448 -3.1432192e-07)
(0.0014719038 0.089542125 -2.9112075e-07)
(0.0012070036 0.086299541 -2.6888643e-07)
(0.00095918436 0.083189182 -2.4736022e-07)
(0.00072624424 0.080243549 -2.261979e-07)
(0.00050547706 0.077409816 -2.0598302e-07)
(0.00029483998 0.074929079 -1.857736e-07)
(8.8233687e-05 0.071170645 -1.6606328e-07)
(-0.0093275303 -0.040408063 -7.5404017e-07)
(-0.0077911894 -0.037996899 -8.1523561e-07)
(-0.0063213676 -0.036148034 -8.0087215e-07)
(-0.0049120657 -0.032648351 -7.5551412e-07)
(-0.0036408707 -0.027695614 -6.9879008e-07)
(-0.0025556763 -0.022156893 -6.3894027e-07)
(-0.0016705157 -0.016506044 -5.8417623e-07)
(-0.00097989066 -0.010976128 -5.3415368e-07)
(-0.00045736791 -0.006045115 -4.8751918e-07)
(-6.5492908e-05 -0.0016925913 -4.5264969e-07)
(0.00021871961 0.0020591256 -4.201625e-07)
(0.00041590041 0.0057065489 -3.8953642e-07)
(0.000543473 0.0091768492 -3.6162478e-07)
(0.00061839939 0.01228761 -3.3615015e-07)
(0.00065139768 0.014964935 -3.1266244e-07)
(0.00065111831 0.017202902 -2.9073903e-07)
(0.00062376441 0.019029257 -2.7012777e-07)
(0.00057885651 0.02048494 -2.5052825e-07)
(0.00051951029 0.021598481 -2.3167988e-07)
(0.00044915589 0.022391232 -2.1332865e-07)
(0.00037085237 0.022884961 -1.9511539e-07)
(0.0002869815 0.023100141 -1.7619917e-07)
(0.00020055667 0.023051732 -1.5959585e-07)
(0.00011397411 0.022790063 -1.4050275e-07)
(2.7752886e-05 0.021926178 -1.2304666e-07)
(-0.0046911961 -0.016076946 -4.4482855e-07)
(-0.0043943983 -0.018481373 -5.1313037e-07)
(-0.0040832435 -0.021081215 -5.2443318e-07)
(-0.0037478794 -0.022955575 -5.0737891e-07)
(-0.003393811 -0.024123133 -4.794917e-07)
(-0.0030404529 -0.024502611 -4.5024945e-07)
(-0.0027070798 -0.024266492 -4.1435761e-07)
(-0.0023930857 -0.023607665 -3.810084e-07)
(-0.0021020163 -0.022694518 -3.5099473e-07)
(-0.0018403623 -0.021586137 -3.2560983e-07)
(-0.0016027456 -0.020362532 -3.0251598e-07)
(-0.001381634 -0.019009176 -2.811313e-07)
(-0.0011805422 -0.017592661 -2.6140513e-07)
(-0.0010027293 -0.016165758 -2.4318617e-07)
(-0.0008466259 -0.014761099 -2.2615279e-07)
(-0.00071042565 -0.013410236 -2.0987236e-07)
(-0.00059320735 -0.01214515 -1.9453077e-07)
(-0.00048928342 -0.010995063 -1.7976419e-07)
(-0.0003982857 -0.0099720593 -1.6535045e-07)
(-0.00031871866 -0.0090763891 -1.5106009e-07)
(-0.00024885938 -0.0083076079 -1.3656053e-07)
(-0.00018694004 -0.0076648415 -1.2135911e-07)
(-0.00013121134 -0.0071433004 -1.0507216e-07)
(-7.9767309e-05 -0.0066985098 -8.4149204e-08)
(-3.0531396e-05 -0.0063731234 -5.3592037e-08)
(-0.0013458063 -0.00404577 -2.7273504e-07)
(-0.0013971834 -0.0049418024 -3.3094436e-07)
(-0.0014592255 -0.0058412367 -3.5116381e-07)
(-0.001521658 -0.0066926945 -3.4863351e-07)
(-0.0015520076 -0.0075656832 -3.3421968e-07)
(-0.0015504316 -0.0086071782 -3.142693e-07)
(-0.0015204159 -0.0097509763 -2.9079948e-07)
(-0.0014642381 -0.010757658 -2.6781403e-07)
(-0.0013888655 -0.01161116 -2.4679915e-07)
(-0.0013025742 -0.012309038 -2.2815287e-07)
(-0.0012099669 -0.012869522 -2.1123768e-07)
(-0.0011136646 -0.013296334 -1.9565591e-07)
(-0.0010150107 -0.013601513 -1.811998e-07)
(-0.00091712198 -0.013775685 -1.6796542e-07)
(-0.00082202036 -0.013820333 -1.555755e-07)
(-0.00072915684 -0.013765376 -1.4384068e-07)
(-0.00063813619 -0.013643082 -1.3235824e-07)
(-0.00055153572 -0.013470911 -1.2118427e-07)
(-0.00046799286 -0.013258724 -1.1020302e-07)
(-0.00038728449 -0.013013308 -9.924709e-08)
(-0.00030936906 -0.012740305 -8.798861e-08)
(-0.00023426389 -0.012445977 -7.5875267e-08)
(-0.00016207261 -0.012134519 -6.20054e-08)
(-9.3052676e-05 -0.011763685 -4.4145645e-08)
(-2.8741657e-05 -0.011290504 -2.2027611e-08)
(-6.7069445e-05 -0.00088889339 -1.7140639e-07)
(-9.8041178e-05 -0.0012038515 -2.126737e-07)
(-0.00013823025 -0.0015460495 -2.3136903e-07)
(-0.00020723473 -0.001912514 -2.3426068e-07)
(-0.00028466933 -0.0022857513 -2.2748277e-07)
(-0.00035448446 -0.0026829221 -2.1534521e-07)
(-0.00040894807 -0.0031061165 -2.0043091e-07)
(-0.00044533273 -0.0035150132 -1.8501459e-07)
(-0.00046410932 -0.0039010823 -1.7033918e-07)
(-0.00046859614 -0.0042557408 -1.5686134e-07)
(-0.00046153238 -0.0045766697 -1.4449061e-07)
(-0.00044599488 -0.0048638932 -1.3305679e-07)
(-0.00042559307 -0.0051262457 -1.224338e-07)
(-0.00040006385 -0.0053803074 -1.125556e-07)
(-0.0003702426 -0.0056350978 -1.0329402e-07)
(-0.00033731355 -0.0058700162 -9.4474312e-08)
(-0.00030197974 -0.0060624558 -8.5938132e-08)
(-0.00026564084 -0.006207381 -7.7642428e-08)
(-0.00022858803 -0.0063041397 -6.9502763e-08)
(-0.00019117744 -0.0063521107 -6.1518273e-08)
(-0.00015377355 -0.0063526096 -5.3401156e-08)
(-0.00011674759 -0.0063089296 -4.465583e-08)
(-8.0511287e-05 -0.0062264239 -3.4840096e-08)
(-4.5423453e-05 -0.0060866365 -2.3058586e-08)
(-1.2630449e-05 -0.0058148795 -9.8713398e-09)
(0.00014507736 0.00010696055 -1.088441e-07)
(0.00013589223 9.8769741e-05 -1.3506441e-07)
(0.00013358558 6.3419619e-05 -1.4876643e-07)
(0.00013213764 1.5337877e-05 -1.5249546e-07)
(0.00011497664 -5.4804091e-05 -1.4942382e-07)
(9.1050183e-05 -0.0001476572 -1.42208e-07)
(6.2822728e-05 -0.00025083672 -1.3277875e-07)
(3.4156689e-05 -0.00036380522 -1.2260791e-07)
(8.3123565e-06 -0.00048393179 -1.1259886e-07)
(-1.2989363e-05 -0.00060490198 -1.03169e-07)
(-3.0253891e-05 -0.00072220018 -9.4402421e-08)
(-4.4189764e-05 -0.00083278185 -8.6257271e-08)
(-5.5008101e-05 -0.00093259265 -7.8668953e-08)
(-6.1158481e-05 -0.0010214519 -7.1578239e-08)
(-6.241395e-05 -0.001101884 -6.4912446e-08)
(-6.0659793e-05 -0.001171974 -5.8579042e-08)
(-5.675327e-05 -0.00122992 -5.2505317e-08)
(-5.1564709e-05 -0.0012759723 -4.6661274e-08)
(-4.5540198e-05 -0.0013104358 -4.1019227e-08)
(-3.8939381e-05 -0.0013330875 -3.5552704e-08)
(-3.1971635e-05 -0.0013438653 -3.0146993e-08)
(-2.4811638e-05 -0.001343183 -2.4583733e-08)
(-1.7577408e-05 -0.0013332128 -1.8626718e-08)
(-1.0220448e-05 -0.0013131397 -1.201356e-08)
(-2.6719848e-06 -0.0012496818 -4.8728222e-09)
(8.174969e-05 0.00030686657 -6.7970667e-08)
(8.4741975e-05 0.00036357684 -8.3174513e-08)
(9.6590018e-05 0.00041860728 -9.173259e-08)