/*--------------------------------*- C++ -*----------------------------------*\
| =========                 |                                                 |
| \\      /  F ield         | OpenFOAM: The Open Source CFD Toolbox           |
|  \\    /   O peration     | Version:  4.0                                   |
|   \\  /    A nd           | Web:      www.OpenFOAM.org                      |
|    \\/     M anipulation  |                                                 |
\*---------------------------------------------------------------------------*/
FoamFile
{
    version     2.0;
    format      ascii;
    class       volScalarField;
    location    "0.44";
    object      k;
}
// * * * * * * * * * * * * * * * * * * * * * * * * * * * * * * * * * * * * * //

dimensions      [0 2 -2 0 0 0 0];

internalField   nonuniform List<scalar> 
1740
(
0.0088225618
0.0092245588
0.018367835
0.0092196493
0.0098868062
0.027286957
0.0096601984
0.010363989
0.03446883
0.0098785354
0.010679871
0.041677043
0.0099956814
0.011093729
0.048010848
0.010145723
0.01150664
0.052374444
0.010262678
0.011935182
0.056576108
0.010340832
0.012531161
0.059638886
0.010386056
0.012759253
0.062087518
0.010374657
0.01296647
0.064535955
0.01028882
0.01311683
0.065784478
0.010211968
0.013270185
0.067258737
0.010133338
0.013626116
0.068746464
0.010067424
0.013947562
0.069859658
0.0099979396
0.014191073
0.070772243
0.0099149882
0.014160696
0.070822757
0.009693484
0.01387633
0.071202165
0.0094900842
0.013783128
0.071979762
0.0093196822
0.01405045
0.072250436
0.0091951572
0.014267179
0.072575648
0.0090603024
0.014676356
0.072969939
0.0089273479
0.014650971
0.072895946
0.0088135543
0.014553497
0.073196549
0.0087240698
0.014452087
0.073314008
0.0086536761
0.014516762
0.073242665
0.0085533586
0.014637409
0.073463247
0.0084922961
0.014989572
0.072990633
0.008371191
0.015291343
0.072629596
0.0083797853
0.015103138
0.071728372
0.0089649815
0.016192977
0.066693567
0.012710304
0.018158443
0.047403491
0.023986964
0.03123936
0.03987526
0.010279255
0.012541432
0.013729728
0.0042654779
0.0045988534
0.00465843
0.0020711614
0.0021147162
0.0020895992
0.0011375818
0.0011387825
0.0011211352
0.00068694094
0.00068448182
0.00067658198
0.00044516675
0.00044382306
0.00044108579
0.00030327894
0.00030289026
0.00030241965
0.0002135156
0.00021357879
0.00021395647
0.00015306678
0.00015328248
0.00015387932
0.00011033024
0.00011055989
0.00011112397
7.9117271e-05
7.9308585e-05
7.9757119e-05
5.5971033e-05
5.6112001e-05
5.6434645e-05
3.8831182e-05
3.8926335e-05
3.9141233e-05
2.6337011e-05
2.6396603e-05
2.6530185e-05
1.7467645e-05
1.7502456e-05
1.7580141e-05
1.1377689e-05
1.1396687e-05
1.1438975e-05
7.3457218e-06
7.3553823e-06
7.3769095e-06
4.7766115e-06
4.7812601e-06
4.7916337e-06
3.2033746e-06
3.2055747e-06
3.210472e-06
2.2785703e-06
2.2796698e-06
2.2821105e-06
1.7597238e-06
1.7603891e-06
1.7618618e-06
1.486606e-06
1.4871334e-06
1.4882971e-06
1.357634e-06
1.3581348e-06
1.3592374e-06
1.310721e-06
1.3112241e-06
1.3123306e-06
1.3091571e-06
1.3096606e-06
1.3107672e-06
1.3318878e-06
1.3323819e-06
1.3334669e-06
1.3671682e-06
1.3676437e-06
1.3686871e-06
1.4086e-06
1.4090507e-06
1.4100393e-06
1.4527492e-06
1.4531719e-06
1.4540986e-06
1.4977592e-06
1.4981528e-06
1.4990152e-06
1.5425642e-06
1.5429288e-06
1.5437275e-06
1.5864472e-06
1.5867838e-06
1.5875208e-06
1.6287847e-06
1.6290945e-06
1.6297728e-06
1.6688821e-06
1.6691667e-06
1.6697896e-06
1.7058452e-06
1.7061061e-06
1.7066771e-06
1.7384533e-06
1.7386922e-06
1.7392148e-06
1.7650172e-06
1.7652357e-06
1.7657134e-06
1.7832135e-06
1.7834131e-06
1.7838495e-06
1.7899002e-06
1.7900825e-06
1.7904809e-06
1.780929e-06
1.7810954e-06
1.7814591e-06
1.7509917e-06
1.7511435e-06
1.7514753e-06
1.693565e-06
1.6937032e-06
1.6940053e-06
1.6010589e-06
1.6011836e-06
1.6014564e-06
1.4653081e-06
1.4654178e-06
1.4656582e-06
1.278621e-06
1.278711e-06
1.2789101e-06
1.035642e-06
1.035705e-06
1.0358479e-06
7.3628792e-07
7.3631915e-07
7.3639481e-07
3.8917626e-07
3.8918334e-07
3.8920459e-07
0.056302701
0.060915616
0.046146358
0.046644059
0.01248544
0.011354632
0.0043516478
0.0041202829
0.0019978327
0.0019384875
0.0010920413
0.0010770645
0.00066774251
0.00066584622
0.00043922653
0.00044109273
0.0003029483
0.00030560368
0.00021514461
0.00021761783
0.00015507897
0.00015708692
0.0001121177
0.00011363098
8.0501427e-05
8.1580573e-05
5.6953402e-05
5.7684876e-05
3.948062e-05
3.995116e-05
2.6738902e-05
2.7025226e-05
1.7700726e-05
1.7865007e-05
1.1504364e-05
1.1593054e-05
7.4101749e-06
7.4551956e-06
4.8076696e-06
4.8293464e-06
3.2180334e-06
3.2282392e-06
2.285872e-06
2.2909397e-06
1.7641219e-06
1.7671579e-06
1.4900736e-06
1.4924505e-06
1.3609136e-06
1.363149e-06
1.3140083e-06
1.3162408e-06
1.3124422e-06
1.3146677e-06
1.3351074e-06
1.3372841e-06
1.3702632e-06
1.3723522e-06
1.4115311e-06
1.4135065e-06
1.455496e-06
1.4573447e-06
1.5003148e-06
1.502033e-06
1.5449304e-06
1.5465195e-06
1.5886303e-06
1.5900952e-06
1.6307935e-06
1.6321403e-06
1.6707265e-06
1.6719622e-06
1.7075356e-06
1.7086673e-06
1.7400003e-06
1.7410353e-06
1.7664312e-06
1.7673766e-06
1.784505e-06
1.7853677e-06
1.7910791e-06
1.791866e-06
1.7820049e-06
1.7827223e-06
1.7519729e-06
1.7526265e-06
1.694458e-06
1.6950521e-06
1.6018653e-06
1.6024013e-06
1.4660196e-06
1.4664936e-06
1.2792123e-06
1.2796104e-06
1.0360701e-06
1.0363675e-06
7.3651922e-07
7.3669271e-07
3.892445e-07
3.8930642e-07
4.6997336e-06
2.7025603e-05
0.00013430927
0.00030473063
0.00046185085
0.00057276182
0.00064304917
0.00068668013
0.00071541567
0.00073638048
0.00075361692
0.00077015305
0.00078563278
0.00079981675
0.00081239531
0.00082282021
0.0008301103
0.00083260428
0.00082759131
0.00081079955
0.00077568828
0.00071257518
0.00060792275
0.00044449424
0.00020127043
2.5611885e-06
5.4690389e-05
0.00025080474
0.0005154661
0.00072723425
0.00085867236
0.00093458167
0.00097908573
0.0010076079
0.0010281648
0.0010450069
0.0010606724
0.0010750228
0.0010877903
0.0010985803
0.0011067706
0.0011112308
0.001110051
0.0011000401
0.0010760843
0.0010301977
0.00095013219
0.00081761906
0.00060709306
0.00028726454
7.9444718e-06
0.0001598456
0.00061554568
0.0010789457
0.0013616833
0.0015042557
0.0015716257
0.0016031527
0.0016188185
0.0016270558
0.0016322433
0.001635299
0.0016374313
0.0016379873
0.0016364722
0.0016324124
0.0016247472
0.0016116819
0.0015898134
0.0015535535
0.0014938928
0.0013961375
0.0012356111
0.00096941953
0.00052199973
3.7592809e-05
0.00057922651
0.0016853474
0.0024359151
0.0027721417
0.0028855616
0.0028946007
0.0028641993
0.0028241085
0.0027792166
0.0027345829
0.0026920903
0.0026522337
0.0026118388
0.0025703467
0.0025281665
0.0024847929
0.0024387971
0.0023874316
0.0023259336
0.0022464074
0.0021355883
0.0019691764
0.0016942692
0.0011540223
0.00028128119
0.0024481506
0.0049161891
0.0060369915
0.0063824223
0.0063197514
0.006089651
0.005826271
0.0055764346
0.005325247
0.0050848552
0.0048604694
0.0046570414
0.0044598991
0.0042685366
0.0040876018
0.0039179969
0.0037591339
0.0036091742
0.0034646354
0.003319862
0.003166616
0.0029938935
0.0027933499
0.0025833308
0.0023565695
0.010531323
0.016583692
0.018537236
0.018077605
0.016517889
0.014699988
0.013009615
0.011526237
0.010248816
0.0091565185
0.0082266103
0.0074336549
0.0067538146
0.0061693775
0.0056669735
0.0052352047
0.0048637312
0.0045431294
0.004264551
0.0040191408
0.0037979281
0.0035923209
0.0034016284
0.003241276
0.044984515
0.034083217
0.026570112
0.021405791
0.017752735
0.015051591
0.012966469
0.011313034
0.0099834975
0.0089023146
0.008011786
0.0072680353
0.0066380876
0.0060975903
0.005628709
0.0052189449
0.0048596015
0.0045441209
0.0042669687
0.0040228798
0.0038062505
0.0036110995
0.0034317012
0.0032694082
0.0031393713
0.037316319
0.031000174
0.027779443
0.025147988
0.022276474
0.019299374
0.016578761
0.014278155
0.01239559
0.01085346
0.0095820906
0.0085246534
0.0076376898
0.0068913771
0.006261879
0.0057296592
0.0052783439
0.0048941955
0.0045654545
0.0042815792
0.0040324968
0.0038084221
0.0036001964
0.0034069669
0.0032445329
0.010216226
0.0095421977
0.0092028081
0.0088832969
0.0084211508
0.0078560797
0.0072990923
0.006802358
0.0063510727
0.0059528039
0.0056044027
0.0052999729
0.0050141108
0.0047499837
0.0045090115
0.004290402
0.0040920666
0.0039110938
0.0037435815
0.0035844909
0.0034271026
0.0032624757
0.0030791419
0.0028685262
0.0026491013
0.0039629607
0.0038904111
0.0038683468
0.0038276497
0.003733166
0.0035981189
0.0034585235
0.0033291493
0.0032125942
0.003110981
0.0030233222
0.0029464931
0.0028749005
0.0028079743
0.0027455395
0.0026867569
0.0026299575
0.0025725479
0.0025107537
0.0024390869
0.0023492523
0.0022278602
0.0020505907
0.0017637934
0.0012052764
0.001921413
0.0019353125
0.0019605507
0.0019754355
0.0019689754
0.0019447689
0.0019138379
0.0018831658
0.0018557887
0.0018330175
0.0018146477
0.0017994306
0.0017857013
0.0017727958
0.001760366
0.0017471979
0.0017314195
0.0017102458
0.0016796253
0.0016336055
0.0015631604
0.0014539464
0.0012818252
0.001003987
0.00054328558
0.0010815755
0.0011001304
0.0011237599
0.0011438112
0.0011557524
0.0011603712
0.0011612321
0.0011613306
0.0011624004
0.0011651936
0.0011696777
0.0011752895
0.0011812511
0.0011868878
0.0011914542
0.001193745
0.0011919472
0.0011834435
0.0011645233
0.0011299214
0.001072071
0.00097992561
0.00083724496
0.00062075741
0.00029999361
0.00067316773
0.00068744233
0.00070466806
0.00072103567
0.00073441549
0.00074476891
0.00075331937
0.00076136605
0.00076980151
0.00077905879
0.00078915218
0.00079978924
0.00081049549
0.00082068789
0.00082958546
0.00083605001
0.00083847249
0.00083463061
0.00082151165
0.00079508362
0.00075001863
0.00067941414
0.00057463559
0.00042514075
0.00021395031
0.00044762366
0.00045786563
0.00046998784
0.00048221294
0.00049345853
0.00050352349
0.00051281265
0.00052188064
0.00053116814
0.0005409044
0.00055109109
0.00056153847
0.00057190185
0.00058169001
0.00059021714
0.00059652084
0.00059928681
0.00059677006
0.00058672344
0.00056635849
0.00053241537
0.00048154713
0.00041158532
0.00032536155
0.00024284805
0.00031078625
0.00031806688
0.00032659223
0.0003354948
0.00034419673
0.0003525133
0.00036055552
0.00036854923
0.00037669846
0.00038510963
0.00039376279
0.00040251158
0.0004110866
0.00041908575
0.00042594316
0.00043088442
0.0004328846
0.0004306373
0.00042255176
0.0004068164
0.00038161457
0.00034568358
0.00029964134
0.00024891616
0.00020907875
0.00022154189
0.00022671804
0.00023273114
0.00023914012
0.00024562664
0.00025205296
0.00025842903
0.00026483755
0.00027136232
0.00027804018
0.00028483481
0.00029162534
0.00029819747
0.00030423022
0.00030927528
0.00031273212
0.00031382881
0.0003116171
0.0003049989
0.00029281222
0.00027402951
0.00024816354
0.00021604874
0.00018122313
0.00015085056
0.00015997052
0.0001636296
0.00016785439
0.00017241284
0.00017712371
0.00018189058
0.00018669199
0.0001915487
0.00019648659
0.00020150732
0.00020656818
0.00021156895
0.00021634137
0.00022063688
0.00022411282
0.00022631887
0.00022668944
0.00022454905
0.00021913993
0.00020968412
0.0001954891
0.00017608246
0.00015125456
0.00012042321
7.7661249e-05
0.00011568967
0.00011823931
0.00012116922
0.00012435314
0.00012768496
0.00013109871
0.00013456639
0.00013808377
0.00014165088
0.00014525405
0.00014885191
0.00015236447
0.00015566358
0.00015856356
0.00016081189
0.00016208176
0.00016196939
0.00015999992
0.00015564563
0.0001483568
0.00013759468
0.00012282263
0.00010332963
7.7600417e-05
4.1731258e-05
8.3003023e-05
8.4737635e-05
8.6723538e-05
8.8889687e-05
9.1172437e-05
9.3527052e-05
9.5928043e-05
9.8362878e-05
0.00010082156
0.0001032861
0.00010572118
0.00010806597
0.00011022694
0.00011207109
0.00011341973
0.00011404409
0.00011366393
0.00011195102
0.00010853784
0.00010302863
9.5002001e-05
8.3979308e-05
6.9313239e-05
4.997783e-05
2.4515195e-05
5.8630508e-05
5.9771777e-05
6.1074386e-05
6.2496899e-05
6.4000686e-05
6.5555628e-05
6.7141225e-05
6.8743984e-05
7.035176e-05
7.1947709e-05
7.3504306e-05
7.4977799e-05
7.6303207e-05
7.7389679e-05
7.8116417e-05
7.8329693e-05
7.7841668e-05
7.6431403e-05
7.384771e-05
6.9811752e-05
6.40149e-05
5.610611e-05
4.5670222e-05
3.2242491e-05
1.5543944e-05
4.0551978e-05
4.1271784e-05
4.2090801e-05
4.2984545e-05
4.392924e-05
4.4904884e-05
4.5896305e-05
4.6891872e-05
4.7880733e-05
4.8849393e-05
4.977799e-05
5.0636861e-05
5.1383195e-05
5.19581e-05
5.2283867e-05
5.2261875e-05
5.1771304e-05
5.0668722e-05
4.878828e-05
4.5942091e-05
4.1921066e-05
3.6500288e-05
2.946361e-05
2.0687581e-05
1.0406603e-05
2.7387762e-05
2.7819651e-05
2.8309252e-05
2.8842202e-05
2.9403798e-05
2.998104e-05
3.0563272e-05
3.1141655e-05
3.1707818e-05
3.2251962e-05
3.2760723e-05
3.3215111e-05
3.3588466e-05
3.3844601e-05
3.3936014e-05
3.3802404e-05
3.3369418e-05
3.2547699e-05
3.1232256e-05
2.9302705e-05
2.6626464e-05
2.3070652e-05
1.8534397e-05
1.3017045e-05
6.713329e-06
1.8071759e-05
1.8316861e-05
1.8593482e-05
1.8893204e-05
1.9207152e-05
1.952704e-05
1.9845764e-05
2.0157145e-05
2.0455295e-05
2.073366e-05
2.098379e-05
2.1194178e-05
2.1349069e-05
2.1427299e-05
2.1401186e-05
2.1235445e-05
2.0886136e-05
2.0299693e-05
1.9412248e-05
1.815005e-05
1.6433029e-05
1.4185656e-05
1.1361081e-05
7.9805183e-06
4.1749013e-06
1.1704167e-05
1.1835287e-05
1.1982485e-05
1.2140887e-05
1.230522e-05
1.2470412e-05
1.2631921e-05
1.2785707e-05
1.2927927e-05
1.3054432e-05
1.3160168e-05
1.3238488e-05
1.3280459e-05
1.3274183e-05
1.3204071e-05
1.3050136e-05
1.2787135e-05
1.2383824e-05
1.1802429e-05
1.0999129e-05
9.9269622e-06
8.5434431e-06
6.8252426e-06
4.7880827e-06
2.5112979e-06
7.5114221e-06
7.5774873e-06
7.6511983e-06
7.7297856e-06
7.8102022e-06
7.8894517e-06
7.964757e-06
8.0336128e-06
8.0936373e-06
8.1423336e-06
8.1767647e-06
8.1931872e-06
8.1866576e-06
8.1505811e-06
8.0762479e-06
7.9523921e-06
7.7646106e-06
7.494812e-06
7.1208208e-06
6.6167913e-06
5.9553184e-06
5.112201e-06
4.0745817e-06
2.8497914e-06
1.4749932e-06
4.8563429e-06
4.8879056e-06
4.9228358e-06
4.9596004e-06
4.9964895e-06
5.0317834e-06
5.0638553e-06
5.0912153e-06
5.1124418e-06
5.1260704e-06
5.1304189e-06
5.1233843e-06
5.1022076e-06
5.0632076e-06
5.0014624e-06
4.9103909e-06
4.781353e-06
4.6033728e-06
4.363183e-06
4.0452127e-06
3.6330726e-06
3.1124771e-06
2.4758167e-06
1.726671e-06
8.8619717e-07
3.2409078e-06
3.2556289e-06
3.2717567e-06
3.2884566e-06
3.3047874e-06
3.319781e-06
3.3325047e-06
3.3420871e-06
3.3476875e-06
3.3484343e-06
3.3433299e-06
3.3311258e-06
3.3101759e-06
3.2782607e-06
3.2323676e-06
3.1683741e-06
3.0807961e-06
2.9624819e-06
2.8046622e-06
2.5973657e-06
2.3301652e-06
1.9940485e-06
1.584182e-06
1.1025643e-06
5.6267075e-07
2.297213e-06
2.304471e-06
2.3123671e-06
2.3204484e-06
2.3281976e-06
2.3350695e-06
2.3405259e-06
2.344045e-06
2.3451078e-06
2.3431583e-06
2.3375397e-06
2.3274121e-06
2.3116455e-06
2.2886872e-06
2.2564001e-06
2.2118654e-06
2.1511991e-06
2.0693338e-06
1.9598422e-06
1.8155565e-06
1.6291128e-06
1.3942178e-06
1.1075419e-06
7.7065322e-07
3.9495122e-07
1.770912e-06
1.7752623e-06
1.7800184e-06
1.7849289e-06
1.7897013e-06
1.7940189e-06
1.7975563e-06
1.7999808e-06
1.8009405e-06
1.8000348e-06
1.7967673e-06
1.7904789e-06
1.7802629e-06
1.764856e-06
1.7425071e-06
1.7108251e-06
1.6666223e-06
1.6058066e-06
1.5232719e-06
1.4131824e-06
1.2696657e-06
1.0877654e-06
8.6493149e-07
6.0270156e-07
3.1160405e-07
1.4953908e-06
1.4988216e-06
1.5026308e-06
1.5066698e-06
1.5107611e-06
1.514706e-06
1.518289e-06
1.521274e-06
1.5233918e-06
1.5243135e-06
1.5236099e-06
1.5206936e-06
1.5147429e-06
1.504604e-06
1.4886752e-06
1.4647747e-06
1.4300102e-06
1.3806857e-06
1.3122938e-06
1.2196469e-06
1.0975528e-06
9.4166647e-07
7.497949e-07
5.2337909e-07
2.7158546e-07
1.3659153e-06
1.3691627e-06
1.3728168e-06
1.3767792e-06
1.3809297e-06
1.3851284e-06
1.3892143e-06
1.392999e-06
1.3962519e-06
1.3986747e-06
1.3998633e-06
1.3992522e-06
1.3960429e-06
1.3891105e-06
1.3768934e-06
1.357271e-06
1.3274461e-06
1.283861e-06
1.2222139e-06
1.1375958e-06
1.0250832e-06
8.8057806e-07
7.020416e-07
4.9083855e-07
2.5531481e-07
1.3190029e-06
1.3222548e-06
1.3259398e-06
1.3299836e-06
1.3342939e-06
1.3387593e-06
1.343246e-06
1.3475881e-06
1.3515728e-06
1.354914e-06
1.3572137e-06
1.3579087e-06
1.3561977e-06
1.3509501e-06
1.3405966e-06
1.3230106e-06
1.2953947e-06
1.2542043e-06
1.1951671e-06
1.1134439e-06
1.0041713e-06
8.6330838e-07
6.8884775e-07
4.8204226e-07
2.5154284e-07
1.317419e-06
1.3206609e-06
1.3243448e-06
1.328408e-06
1.3327719e-06
1.3373398e-06
1.341991e-06
1.3465713e-06
1.3508759e-06
1.3546228e-06
1.3574135e-06
1.3586787e-06
1.3576049e-06
1.3530419e-06
1.343393e-06
1.3264956e-06
1.2995093e-06
1.2588423e-06
1.2001723e-06
1.1186216e-06
1.0092817e-06
8.6807418e-07
6.9299341e-07
4.8542368e-07
2.5549421e-07
1.3399727e-06
1.3431398e-06
1.3467411e-06
1.3507197e-06
1.3550046e-06
1.3595069e-06
1.3641135e-06
1.3686766e-06
1.3729952e-06
1.3767883e-06
1.3796545e-06
1.3810157e-06
1.3800426e-06
1.3755605e-06
1.3659372e-06
1.3489617e-06
1.3217319e-06
1.2805808e-06
1.2210992e-06
1.1383188e-06
1.0272304e-06
8.8366538e-07
7.0559261e-07
4.945285e-07
2.6089482e-07
1.3749298e-06
1.3779638e-06
1.3814126e-06
1.385223e-06
1.3893286e-06
1.3936456e-06
1.398066e-06
1.4024458e-06
1.4065864e-06
1.4102066e-06
1.4129008e-06
1.4140816e-06
1.4129028e-06
1.4081634e-06
1.3981925e-06
1.3807262e-06
1.3527921e-06
1.310636e-06
1.249745e-06
1.1650348e-06
1.051367e-06
9.0444482e-07
7.2215604e-07
5.0609148e-07
2.670788e-07
1.4159416e-06
1.4188052e-06
1.4220577e-06
1.4256488e-06
1.4295156e-06
1.4335782e-06
1.4377322e-06
1.4418367e-06
1.4456947e-06
1.449024e-06
1.4514145e-06
1.4522691e-06
1.4507245e-06
1.4455528e-06
1.4350435e-06
1.4168775e-06
1.3880094e-06
1.3445922e-06
1.2820018e-06
1.1950272e-06
1.0783894e-06
9.2765305e-07
7.406237e-07
5.1900855e-07
2.7415624e-07
1.4596216e-06
1.4622966e-06
1.4653318e-06
1.4686797e-06
1.4722803e-06
1.476057e-06
1.4799083e-06
1.4836958e-06
1.4872236e-06
1.4902081e-06
1.4922346e-06
1.4926958e-06
1.4907115e-06
1.4850264e-06
1.4738902e-06
1.4549282e-06
1.4250206e-06
1.3802261e-06
1.3158057e-06
1.2264177e-06
1.1066392e-06
9.5189581e-07
7.5991604e-07
5.3256465e-07
2.8200056e-07
1.5041471e-06
1.5066287e-06
1.5094416e-06
1.5125405e-06
1.5158684e-06
1.5193512e-06
1.5228904e-06
1.5263494e-06
1.5295329e-06
1.5321559e-06
1.5337984e-06
1.5338431e-06
1.5313923e-06
1.5251638e-06
1.5133674e-06
1.4935727e-06
1.4625856e-06
1.4163698e-06
1.3500709e-06
1.2582155e-06
1.1352369e-06
9.7642689e-07
7.7944026e-07
5.461903e-07
2.8798206e-07
1.5484734e-06
1.5507648e-06
1.5533595e-06
1.5562144e-06
1.5592747e-06
1.5624693e-06
1.5657018e-06
1.5688371e-06
1.5716804e-06
1.5739446e-06
1.5752044e-06
1.5748322e-06
1.5719129e-06
1.5651372e-06
1.5526756e-06
1.5320422e-06
1.4999693e-06
1.4523266e-06
1.3841449e-06
1.28982e-06
1.1636441e-06
1.0007789e-06
7.9879804e-07
5.5956727e-07
2.9444706e-07
1.591895e-06
1.5940038e-06
1.5963893e-06
1.5990104e-06
1.6018148e-06
1.6047333e-06
1.6076717e-06
1.6104963e-06
1.6130121e-06
1.6149297e-06
1.6158185e-06
1.6150401e-06
1.6116622e-06
1.6043487e-06
1.591231e-06
1.5697689e-06
1.5366223e-06
1.4875686e-06
1.4175267e-06
1.3207648e-06
1.1914388e-06
1.0245852e-06
8.176936e-07
5.7258332e-07
3.0076621e-07
1.6337939e-06
1.6357299e-06
1.6379175e-06
1.6403176e-06
1.64288e-06
1.6455376e-06
1.6481979e-06
1.6507281e-06
1.6529328e-06
1.6545204e-06
1.6550542e-06
1.6538855e-06
1.6500645e-06
1.6422287e-06
1.6284714e-06
1.6061994e-06
1.5720025e-06
1.5215692e-06
1.4497107e-06
1.3505738e-06
1.2181864e-06
1.047469e-06
8.3583635e-07
5.8508619e-07
3.0446205e-07
1.6734784e-06
1.675252e-06
1.6772538e-06
1.6794466e-06
1.681782e-06
1.6841949e-06
1.686594e-06
1.6888474e-06
1.690759e-06
1.6920344e-06
1.6922311e-06
1.6906898e-06
1.6864436e-06
1.6781045e-06
1.6637285e-06
1.640672e-06
1.6054578e-06
1.5536905e-06
1.4800811e-06
1.3786643e-06
1.2433532e-06
1.0689689e-06
8.5287423e-07
5.9689704e-07
3.0913206e-07
1.7100551e-06
1.7116769e-06
1.7135053e-06
1.7155047e-06
1.7176283e-06
1.7198127e-06
1.7219677e-06
1.723962e-06
1.7255986e-06
1.7265802e-06
1.7264582e-06
1.7245629e-06
1.7199111e-06
1.7110899e-06
1.6961204e-06
1.6723114e-06
1.6361241e-06
1.5830866e-06
1.50782e-06
1.4042616e-06
1.2662272e-06
1.0884596e-06
8.6829215e-07
6.0760124e-07
3.1463131e-07
1.7423035e-06
1.7437844e-06
1.7454516e-06
1.7472712e-06
1.7491981e-06
1.7511699e-06
1.7530978e-06
1.7548505e-06
1.75623e-06
1.7569359e-06
1.7565139e-06
1.7542842e-06
1.7492477e-06
1.7399686e-06
1.724436e-06
1.6999159e-06
1.6628153e-06
1.6085965e-06
1.5318066e-06
1.4263051e-06
1.2858352e-06
1.1050853e-06
8.8137398e-07
6.1662678e-07
3.1922763e-07
1.7685342e-06
1.7698846e-06
1.7714027e-06
1.773056e-06
1.7748006e-06
1.7765756e-06
1.7782928e-06
1.779821e-06
1.7809611e-06
1.7814097e-06
1.7807068e-06
1.7781631e-06
1.7727654e-06
1.7630576e-06
1.7470008e-06
1.7218254e-06
1.6838945e-06
1.6286208e-06
1.5504985e-06
1.443338e-06
1.3008424e-06
1.1176756e-06
8.9115307e-07
6.2323252e-07
3.2112486e-07
1.7864234e-06
1.7876535e-06
1.7890342e-06
1.7905341e-06
1.7921107e-06
1.7937039e-06
1.7952264e-06
1.7965468e-06
1.797465e-06
1.7976748e-06
1.796711e-06
1.7938764e-06
1.7881457e-06
1.7780461e-06
1.7615178e-06
1.7357652e-06
1.6971229e-06
1.6409754e-06
1.5617941e-06
1.4533788e-06
1.3094377e-06
1.124655e-06
8.9637523e-07
6.2660561e-07
3.2268793e-07
1.7928281e-06
1.7939477e-06
1.7952022e-06
1.796561e-06
1.7979829e-06
1.7994089e-06
1.8007519e-06
1.8018809e-06
1.8025946e-06
1.8025848e-06
1.8013824e-06
1.7982841e-06
1.7922563e-06
1.7818158e-06
1.7648907e-06
1.7386741e-06
1.6994932e-06
1.6427342e-06
1.5628858e-06
1.4537879e-06
1.3092132e-06
1.1239282e-06
8.9536278e-07
6.2561169e-07
3.2209619e-07
1.7835986e-06
1.7846168e-06
1.7857553e-06
1.7869846e-06
1.7882642e-06
1.7895362e-06
1.7907143e-06
1.7916676e-06
1.7921947e-06
1.7919862e-06
1.7905713e-06
1.787244e-06
1.7809683e-06
1.7702592e-06
1.7530469e-06
1.7265333e-06
1.6870673e-06
1.6300771e-06
1.550122e-06
1.4411479e-06
1.2970668e-06
1.1128021e-06
8.859325e-07
6.1868787e-07
3.185376e-07
1.7534238e-06
1.7543488e-06
1.7553803e-06
1.75649e-06
1.7576383e-06
1.7587683e-06
1.7597949e-06
1.7605879e-06
1.7609469e-06
1.7605637e-06
1.7589688e-06
1.7554595e-06
1.7490056e-06
1.7381343e-06
1.7207969e-06
1.6942329e-06
1.6548525e-06
1.5981797e-06
1.5189135e-06
1.4111902e-06
1.2691563e-06
1.0879832e-06
8.6545353e-07
6.0388888e-07
3.1068574e-07
1.6957757e-06
1.6966134e-06
1.6975449e-06
1.6985426e-06
1.6995682e-06
1.7005661e-06
1.701453e-06
1.7021009e-06
1.7023123e-06
1.7017832e-06
1.7000512e-06
1.6964252e-06
1.6898942e-06
1.6790165e-06
1.6617928e-06
1.6355387e-06
1.5967788e-06
1.5412026e-06
1.4637369e-06
1.3588138e-06
1.2209291e-06
1.0456125e-06
8.3092231e-07
5.7924244e-07
2.9775381e-07
1.6030533e-06
1.6038066e-06
1.6046412e-06
1.6055306e-06
1.6064378e-06
1.6073098e-06
1.6080666e-06
1.6085843e-06
1.6086716e-06
1.6080336e-06
1.6062226e-06
1.6025718e-06
1.5961084e-06
1.5854491e-06
1.5686823e-06
1.5432518e-06
1.5058658e-06
1.4524675e-06
1.3783201e-06
1.2782749e-06
1.1473073e-06
9.81425e-07
7.7903643e-07
5.4256073e-07
2.7875503e-07
1.46707e-06
1.467736e-06
1.4684709e-06
1.4692486e-06
1.4700349e-06
1.4707812e-06
1.4714137e-06
1.4718164e-06
1.4718088e-06
1.4711113e-06
1.4693013e-06
1.4657534e-06
1.4595602e-06
1.4494344e-06
1.4336022e-06
1.4097034e-06
1.3747169e-06
1.3249479e-06
1.256122e-06
1.1636477e-06
1.0431183e-06
8.9113996e-07
7.0654952e-07
4.9179894e-07
2.5292631e-07
1.280098e-06
1.2806671e-06
1.2812917e-06
1.2819452e-06
1.2825983e-06
1.283211e-06
1.2837202e-06
1.2840247e-06
1.2839632e-06
1.2832755e-06
1.2815749e-06
1.2783026e-06
1.2726539e-06
1.2634864e-06
1.2492238e-06
1.2277852e-06
1.1965275e-06
1.1522444e-06
1.0912639e-06
1.0096929e-06
9.0387068e-07
7.7109778e-07
6.1063714e-07
4.248069e-07
2.1865699e-07
1.0367438e-06
1.0372032e-06
1.0377036e-06
1.0382143e-06
1.038715e-06
1.03918e-06
1.0395654e-06
1.0397992e-06
1.0397596e-06
1.0391916e-06
1.0377437e-06
1.0349699e-06
1.0302297e-06
1.0225711e-06
1.0106824e-06
9.9284015e-07
9.6691385e-07
9.3033086e-07
8.8016335e-07
8.1334277e-07
7.2705081e-07
6.1937483e-07
4.8996225e-07
3.4085221e-07
1.7589329e-07
7.3693746e-07
7.3727768e-07
7.3764307e-07
7.379963e-07
7.3833015e-07
7.3863849e-07
7.3890798e-07
7.3913344e-07
7.3930332e-07
7.391207e-07
7.3811113e-07
7.3611171e-07
7.3282834e-07
7.27365e-07
7.1887416e-07
7.0588966e-07
6.8701508e-07
6.6048649e-07
6.2424394e-07
5.7611961e-07
5.1414331e-07
4.3739808e-07
3.457696e-07
2.40972e-07
1.262842e-07
3.8942129e-07
3.8962178e-07
3.8983253e-07
3.9002004e-07
3.901876e-07
3.9034413e-07
3.9051196e-07
3.9079836e-07
3.914455e-07
3.9228745e-07
3.919446e-07
3.9105372e-07
3.9030927e-07
3.8778373e-07
3.8404269e-07
3.7712141e-07
3.6680146e-07
3.5239104e-07
3.3276632e-07
3.066616e-07
2.7278665e-07
2.317008e-07
1.8314777e-07
1.283978e-07
7.125832e-08
)
;

boundaryField
{
    Walls
    {
        type            kqRWallFunction;
        value           nonuniform List<scalar> 
38
(
4.6997336e-06
2.5611885e-06
7.9444718e-06
3.7592809e-05
0.00028128119
0.0023565695
0.056302701
0.060915616
0.018367835
0.027286957
0.03446883
0.041677043
0.048010848
0.052374444
0.056576108
0.059638886
0.062087518
0.064535955
0.065784478
0.067258737
0.068746464
0.069859658
0.070772243
0.070822757
0.071202165
0.071979762
0.072250436
0.072575648
0.072969939
0.072895946
0.073196549
0.073314008
0.073242665
0.073463247
0.072990633
0.072629596
0.071728372
0.066693567
)
;
    }
    Inlet
    {
        type            turbulentIntensityKineticEnergyInlet;
        intensity       0.05;
        value           nonuniform List<scalar> 3(0.0080154916 0.0094056713 0.0093383759);
    }
    Outlet
    {
        type            inletOutlet;
        inletValue      uniform 0;
        value           nonuniform List<scalar> 
86
(
3.8917626e-07
3.8918334e-07
3.8920459e-07
3.892445e-07
3.8930642e-07
3.8942129e-07
3.8962178e-07
3.8983253e-07
3.9002004e-07
3.901876e-07
3.9034413e-07
3.9051196e-07
3.9079836e-07
3.914455e-07
3.9228745e-07
3.919446e-07
3.9105372e-07
3.9030927e-07
3.8778373e-07
3.8404269e-07
3.7712141e-07
3.6680146e-07
3.5239104e-07
3.3276632e-07
3.066616e-07
2.7278665e-07
2.317008e-07
1.8314777e-07
1.283978e-07
7.125832e-08
0.0031393713
0.0032445329
0.0026491013
0
0
0
0
0.00024284805
0.00020907875
0.00015085056
0
0
0
1.5543944e-05
1.0406603e-05
6.713329e-06
4.1749013e-06
2.5112979e-06
1.4749932e-06
8.8619717e-07
5.6267075e-07
3.9495122e-07
3.1160405e-07
2.7158546e-07
2.5531481e-07
2.5154284e-07
2.5549421e-07
2.6089482e-07
2.670788e-07
2.7415624e-07
2.8200056e-07
2.8798206e-07
2.9444706e-07
3.0076621e-07
3.0446205e-07
0
0
0
0
0
0
0
0
0
0
0
0
0
0
7.125832e-08
0
0
0
0
0.0025833308
0.003241276
)
;
    }
    Front
    {
        type            wedge;
    }
    Back
    {
        type            wedge;
    }
    defaultFaces
    {
        type            empty;
    }
}


// ************************************************************************* //
