/*--------------------------------*- C++ -*----------------------------------*\
| =========                 |                                                 |
| \\      /  F ield         | OpenFOAM: The Open Source CFD Toolbox           |
|  \\    /   O peration     | Version:  4.0                                   |
|   \\  /    A nd           | Web:      www.OpenFOAM.org                      |
|    \\/     M anipulation  |                                                 |
\*---------------------------------------------------------------------------*/
FoamFile
{
    version     2.0;
    format      ascii;
    class       volScalarField;
    location    "0.44";
    object      omega;
}
// * * * * * * * * * * * * * * * * * * * * * * * * * * * * * * * * * * * * * //

dimensions      [0 0 -1 0 0 0 0];

internalField   nonuniform List<scalar> 
1740
(
54.816286
680.4161
14920.772
150.29278
1404.0297
15029.33
267.69237
1855.9843
15115.885
367.49033
2177.2988
15203.58
478.35897
2504.8415
15279.29
608.33855
2801.0693
15330.59
735.76147
3064.833
15379.339
852.56282
3330.2148
15415.037
971.29881
3475.859
15447.227
1097.074
3587.6862
15476.815
1178.1498
3670.8289
15489.767
1253.2507
3737.1021
15507.645
1329.4861
3834.348
15525.115
1412.7009
3920.7345
15538.117
1509.5897
3988.9283
15549.919
1592.222
4002.1843
15548.606
1613.0286
3961.7823
15554.807
1637.0427
3949.1491
15564.102
1681.5087
4008.9129
15565.706
1735.0671
4055.2186
15571.447
1777.1563
4133.0258
15575.498
1810.21
4131.3956
15572.319
1847.4881
4115.3876
15574.533
1885.0987
4097.3661
15576.315
1924.5746
4110.591
15575.906
1951.5163
4136.0929
15578.105
1981.5486
4205.1751
15572.714
1990.4683
4264.5537
15569.744
2011.7474
4219.2578
15559.54
2135.0242
4290.7451
15500.705
3194.6352
4566.535
10739.819
3341.1334
4242.6889
5945.0858
1573.0662
1860.4254
2154.2152
824.1212
899.18047
956.94961
478.07972
496.3139
506.4089
300.32915
304.06258
304.19299
201.14378
201.44812
200.01013
142.01001
141.67265
140.41386
104.82774
104.48788
103.63578
80.466134
80.228137
79.698445
63.986356
63.836554
63.518084
52.57836
52.487597
52.298157
44.582084
44.527558
44.414417
38.978927
38.945904
38.877213
35.110104
35.089701
35.04693
32.516954
32.504082
32.476742
30.854667
30.846519
30.828771
29.851381
29.846462
29.835041
29.287555
29.28489
29.277607
28.958194
28.955658
28.949431
28.716434
28.714091
28.708662
28.521321
28.519324
28.514698
28.35036
28.348752
28.3449
28.190573
28.189407
28.186338
28.03562
28.034934
28.032651
27.884611
27.884361
27.882791
27.740795
27.74085
27.739829
27.609001
27.609206
27.608549
27.492958
27.493199
27.492753
27.393947
27.394162
27.393833
27.310875
27.311041
27.310778
27.240963
27.241081
27.240857
27.180358
27.180436
27.180238
27.12435
27.124396
27.124218
27.067136
27.067159
27.066999
27.00118
27.001188
27.001044
26.916177
26.916175
26.916048
26.797643
26.797637
26.797528
26.625125
26.625119
26.625032
26.370062
26.370061
26.37
25.993412
25.993421
25.993393
25.443283
25.443307
25.443321
24.653019
24.653065
24.653132
23.540494
23.540564
23.540695
22.010391
22.010483
22.010676
19.963026
19.96313
19.963364
17.30045
17.300521
17.300707
13.951888
13.95185
13.951834
9.9081384
9.9079504
9.9076371
5.2602666
5.2600495
5.2596514
13480.894
13535.013
5997.1266
5332.5878
2083.84
1881.556
921.54448
853.5873
489.80253
462.91625
296.06925
284.19799
195.7383
190.03828
138.05385
135.12314
102.30275
100.72187
78.935385
78.054073
63.076493
62.572357
52.03937
51.744203
44.260081
44.082728
38.782818
38.672715
34.987305
34.916166
32.437783
32.389877
30.802625
30.769196
29.817235
29.793277
29.265186
29.247478
28.939161
28.924525
28.699883
28.687366
28.507156
28.496273
28.338431
28.328871
28.180858
28.172451
28.028112
28.020782
27.879122
27.872835
27.736917
27.731633
27.606256
27.601908
27.49095
27.487438
27.392412
27.389613
27.309652
27.307438
27.239957
27.238207
27.179512
27.178122
27.123626
27.122513
27.06651
27.065609
27.000637
26.999901
26.91571
26.915104
26.797249
26.796752
26.624808
26.624407
26.369832
26.369523
25.993287
25.993072
25.443288
25.443178
24.653188
24.6532
23.540855
23.541009
22.010946
22.011255
19.963714
19.964142
17.301024
17.301442
13.951909
13.952068
9.9073086
9.9070028
5.2591598
5.2586363
12058.182
2043.2813
696.44538
368.96518
281.14676
256.932
249.80866
246.78251
244.4521
242.07209
239.56258
236.82509
233.99949
231.09692
228.08322
224.8941
221.41592
217.45233
212.67009
206.51441
198.06335
185.76234
166.90548
136.41963
82.385062
12058.133
2037.2876
697.63231
374.56133
283.10567
254.27574
242.75018
235.54904
229.4572
223.67726
218.01297
212.39997
206.90539
201.51003
196.19249
190.92449
185.64929
180.26265
174.57708
168.26973
160.78886
151.16666
137.60278
116.38916
78.083747
12058.179
2030.5615
718.59037
430.64648
359.26044
332.32118
314.95358
300.46194
287.23527
274.6975
262.73139
251.15383
240.18952
229.74023
219.74393
210.18665
201.04709
192.27869
183.78053
175.37388
166.74482
157.3115
145.86801
129.45795
98.774709
12058.526
2031.9505
817.62015
608.85932
549.96799
512.74549
479.7139
449.19567
421.21699
394.90923
370.2386
347.23527
326.03498
306.18104
287.52844
270.08399
253.83488
238.74838
224.76856
211.80411
199.71405
188.27175
177.03659
164.82628
146.38954
12061.529
2151.1637
1232.7499
1078.7616
989.9467
907.04929
828.52027
757.09544
693.19771
634.06597
579.71117
530.05365
485.95539
445.65918
408.67305
375.00123
344.50581
317.01467
292.34516
270.30381
250.69409
233.34067
218.12941
205.23259
195.72628
12087.214
3825.2924
2810.7997
2405.6661
2096.6781
1827.3132
1591.7096
1388.2198
1212.1294
1060.2188
929.36815
816.73097
719.76832
636.0557
563.66856
501.09644
447.0433
400.37902
360.12787
325.45512
295.65245
270.1453
248.529
230.89894
218.49002
10366.752
7904.9256
6098.6163
4789.4042
3819.9334
3084.4884
2514.9002
2067.3632
1712.3497
1428.5725
1200.1321
1015.0922
864.45872
741.2979
640.12365
556.5837
487.24176
429.39791
380.93541
340.19283
305.86486
276.94581
252.72006
233.0671
219.26617
4092.5575
3307.0432
2843.2851
2468.1832
2148.937
1868.2221
1623.3079
1411.5548
1230.0614
1074.5061
941.06033
826.29599
727.23528
641.72042
567.91125
504.21561
449.25828
401.86318
361.02829
325.90237
295.76732
270.04324
248.31595
230.66119
218.26671
1594.535
1399.9647
1269.8367
1161.5697
1059.2915
961.96098
873.24393
794.1749
722.10743
656.83192
598.41979
546.77657
499.33713
455.99202
416.62061
381.02493
348.97627
320.24323
294.59295
271.80834
251.691
234.0725
218.84181
206.15205
196.96357
771.00741
707.77122
661.55253
620.95507
580.57364
540.41329
502.81707
468.15888
436.03392
406.41451
379.34136
354.54184
331.32844
309.60273
289.35623
270.57515
253.22985
237.27918
222.67192
209.34379
197.2006
186.07596
175.60201
164.71371
148.58378
433.66215
409.96188
391.22481
373.97813
356.20808
337.89321
320.00752
302.98172
286.892
271.79204
257.69225
244.46838
231.91256
219.9807
208.70303
198.07582
188.09219
178.73132
169.94835
161.6516
153.64798
145.50839
136.20102
122.94467
96.629062
271.88749
261.47312
252.79845
244.61804
236.0849
227.13273
218.1215
209.31584
200.83742
192.74443
185.04595
177.693
170.61332
163.78403
157.21787
150.91858
144.87734
139.06404
133.41181
127.78486
121.90988
115.22492
106.52341
93.020353
67.18261
184.24969
179.17592
174.76631
170.5367
166.11263
161.42823
156.61882
151.82507
147.13498
142.59445
138.21472
133.97709
129.85239
125.82547
121.89195
118.04223
114.25399
110.48201
106.64158
102.57828
98.011275
92.423589
84.83718
73.265543
52.502892
132.178
129.52691
127.14653
124.8355
122.42085
119.85407
117.18402
114.4806
111.79825
109.16857
106.60091
104.08785
101.6142
99.166114
96.730423
94.287462
91.804414
89.226183
86.461782
83.362886
79.691418
75.077969
69.003925
61.000919
52.110068
99.138626
97.681509
96.341342
95.029383
93.662317
92.20883
90.684355
89.122029
87.552438
85.995058
84.456301
82.931832
81.410628
79.87827
78.316442
76.698974
74.986619
73.120121
71.010795
68.528586
65.490942
61.668183
56.862587
51.24264
46.337391
77.16831
76.338192
75.560475
74.794356
73.998588
73.153942
72.263774
71.343046
70.407537
69.46774
68.526594
67.579721
66.616737
65.622157
64.574577
63.443985
62.187923
60.746481
59.036295
56.944502
54.326885
51.022997
46.924933
42.189618
37.573251
62.061846
61.575121
61.112022
60.653597
60.17884
59.676109
59.144718
58.590691
58.02129
57.441111
56.85001
56.242477
55.607591
54.928775
54.182702
53.337188
52.348221
51.156255
49.681831
47.820931
45.440534
42.37305
38.393684
33.071789
24.609237
51.441893
51.1485
50.865068
50.582866
50.291061
49.982635
49.655723
49.312076
48.954236
48.583076
48.196143
47.786688
47.342979
46.84748
46.275577
45.593701
44.756845
43.705447
42.361507
40.62327
38.35618
35.371411
31.361811
25.692275
16.633314
43.8981
43.715184
43.535262
43.354402
43.166974
42.968737
42.757741
42.533755
42.296753
42.045367
41.775575
41.479603
41.144972
40.75336
40.279187
39.687795
38.933176
37.955168
36.675802
34.99389
32.775132
29.830156
25.860003
20.318787
12.049476
38.555467
38.436192
38.316069
38.193316
38.065045
37.928668
37.782463
37.625342
37.455956
37.27165
37.067386
36.834653
36.560354
36.225505
35.803695
35.259242
34.545035
33.600009
32.346045
30.683759
28.485638
25.582753
21.736182
16.574439
9.4509718
34.838121
34.756021
34.670726
34.581456
34.486697
34.384845
34.274487
34.154202
34.02199
33.874492
33.706038
33.507604
33.265586
32.960415
32.564895
32.042335
31.34449
30.409384
29.159079
27.497476
25.30812
22.451547
18.760817
14.032812
8.0308988
32.335338
32.275627
32.211225
32.141796
32.066499
31.984305
31.894047
31.79422
31.682527
31.555221
31.406242
31.226177
31.000997
30.710572
30.32696
29.812519
29.117979
28.180648
26.923063
25.252777
23.064398
20.245109
16.684831
12.2889
6.9642938
30.729431
30.683886
30.632704
30.57568
30.51232
30.441904
30.363441
30.27542
30.175404
30.059425
29.921153
29.750854
29.534091
29.250185
28.870487
28.356531
27.658288
26.712741
25.443128
23.760056
21.566454
18.768047
15.290029
11.094916
6.1833859
29.763298
29.727216
29.684909
29.636165
29.580631
29.517748
29.446614
29.365726
29.272566
29.163014
29.030529
28.865089
28.651838
28.369492
27.988657
27.470187
26.763696
25.80654
24.523111
22.826195
20.623656
17.831794
14.394711
10.303142
5.6180546
29.224187
29.194812
29.159034
29.116556
29.067005
29.009828
28.944108
28.8683
28.779809
28.674393
28.545338
28.382337
28.170062
27.886419
27.500833
26.973679
26.25472
25.282847
23.984766
22.274733
20.062571
17.269251
13.847378
9.7975333
5.1870678
28.905145
28.880584
28.850459
28.814383
28.77188
28.722269
28.664487
28.596808
28.516426
28.418852
28.297063
28.14032
27.932559
27.650314
27.260742
26.723401
25.988663
24.998626
23.685436
21.964329
19.744571
16.948176
13.531329
9.5013111
4.9442277
28.670692
28.649427
28.623152
28.591429
28.553734
28.50934
28.45713
28.395327
28.321075
28.229856
28.114667
27.964906
27.764882
27.49189
27.113977
26.587707
25.85394
24.849143
23.522806
21.794401
19.570922
16.773647
13.360006
9.3407242
4.8127272
28.481588
28.462637
28.438971
28.410123
28.37554
28.334472
28.28578
28.22767
28.15729
28.070165
27.959409
27.814652
27.620606
27.355172
26.987078
26.473148
25.756693
24.7616
23.430108
21.700269
19.477753
16.683133
13.274863
9.2681115
4.7875678
28.315717
28.298468
28.276646
28.249769
28.21728
28.178426
28.132088
28.076509
28.008918
27.924982
27.818031
27.677989
27.489919
27.232108
26.873681
26.371845
25.671085
24.697321
23.369659
21.644415
19.426949
16.637915
13.237037
9.2444501
4.8093255
28.160579
28.144696
28.12431
28.098948
28.068076
28.030991
27.986643
27.933386
27.868602
27.788156
27.685605
27.551097
27.369881
27.120392
26.77193
26.282095
25.594439
24.637545
23.323339
21.607274
19.397409
16.615591
13.22271
9.2405506
4.8177417
28.010105
27.995494
27.976472
27.952607
27.923434
27.888343
27.846403
27.796116
27.735026
27.659156
27.562194
27.434353
27.260884
27.020173
26.681496
26.202516
25.526787
24.58354
23.285031
21.579616
19.378183
16.604051
13.219323
9.2461362
4.8281764
27.863378
27.850158
27.832735
27.810749
27.783829
27.751472
27.712868
27.666633
27.610409
27.540277
27.449922
27.329491
27.164115
26.932052
26.602513
26.133271
25.468352
24.536492
23.252199
21.557134
19.36379
16.596673
13.218567
9.2501727
4.8437652
27.723466
27.711848
27.696399
27.676834
27.652864
27.624066
27.589697
27.54842
27.497884
27.434132
27.350756
27.237771
27.080153
26.856027
26.534552
26.073609
25.417559
24.495629
23.22358
21.537885
19.351799
16.590733
13.218393
9.2580714
4.889049
27.595055
27.585189
27.571992
27.555234
27.534671
27.509911
27.48022
27.444236
27.399554
27.34212
27.265403
27.159274
27.008569
26.791312
26.476646
26.022579
25.373824
24.460258
23.198495
21.520987
19.341214
16.58512
13.217152
9.2628326
4.9033944
27.481839
27.473721
27.462816
27.448926
27.431818
27.411087
27.385962
27.355021
27.315769
27.264046
27.193196
27.092967
26.948087
26.736516
26.427412
25.97893
25.336156
24.429711
23.176364
21.505889
19.331562
16.579368
13.213576
9.2606173
4.9045669
27.38513
27.378605
27.369812
27.358564
27.344612
27.327518
27.306454
27.279922
27.245339
27.19844
27.132468
27.037071
26.896903
26.689889
26.385219
25.941194
25.303217
24.402458
23.156372
21.492013
19.322516
16.573818
13.209997
9.2589836
4.9091551
27.303891
27.298722
27.291731
27.282732
27.271455
27.257416
27.239731
27.21683
27.186048
27.143037
27.080956
26.989384
26.852922
26.649481
26.348295
25.9078
25.273676
24.377576
23.137652
21.478607
19.313452
16.568073
13.206429
9.2585223
4.9216735
27.235413
27.231338
27.225806
27.218623
27.209495
27.197901
27.182903
27.162871
27.135074
27.095098
27.036039
26.947426
26.813826
26.61315
26.314677
25.876973
25.245964
24.35373
23.119052
21.464624
19.303413
16.561284
13.202105
9.2559759
4.9006245
27.175915
27.172695
27.168301
27.162534
27.155078
27.145379
27.132457
27.114634
27.089127
27.051473
26.994722
26.908364
26.77695
26.578396
26.282032
25.84654
25.218068
24.329067
23.098855
21.448537
19.290996
16.5521
13.195468
9.2496912
4.8886647
27.120755
27.11819
27.114667
27.109981
27.103801
27.095544
27.0842
27.068052
27.04428
27.008383
26.953376
26.868725
26.738969
26.542039
26.247315
25.81359
25.187213
24.300966
23.074646
21.428097
19.27415
16.538687
13.184996
9.2402146
4.8761119
27.064195
27.062128
27.059265
27.055398
27.050182
27.043016
27.032862
27.017977
26.995512
26.960937
26.907242
26.823878
26.695379
26.499693
26.206254
25.773963
25.149362
24.265544
23.042752
21.39986
19.24973
16.518318
13.168686
9.2269422
4.8250425
26.99875
26.997063
26.994702
26.991457
26.986971
26.980628
26.971374
26.957442
26.935962
26.902382
26.849676
26.767283
26.639739
26.445015
26.152607
25.721526
25.098511
24.216969
22.997593
21.358571
19.212929
16.486865
13.143511
9.2087732
4.7935138
26.914159
26.912768
26.910793
26.908024
26.904096
26.898382
26.889812
26.876605
26.855872
26.823047
26.77109
26.689436
26.56263
26.368677
26.077141
25.647164
25.025705
24.146518
22.930791
21.29633
19.156497
16.437948
13.104157
9.1811145
4.7792861
26.795975
26.794818
26.793149
26.790753
26.78726
26.782034
26.773994
26.761346
26.741189
26.708944
26.657568
26.576495
26.45029
26.257006
25.966297
25.537473
24.917762
24.041339
22.829997
21.201496
19.069779
16.362183
13.042671
9.1373306
4.7561927
26.623772
26.622811
26.621392
26.619298
26.616156
26.61132
26.603701
26.591497
26.571798
26.540019
26.489115
26.408536
26.282881
26.090274
25.800505
25.373103
24.755661
23.882904
22.677415
21.057325
18.937475
16.246165
12.947917
9.0686862
4.6991841
26.369017
26.368229
26.367027
26.365191
26.362343
26.357834
26.350567
26.338734
26.31942
26.288043
26.23757
26.157479
26.032433
25.840668
25.552172
25.126797
24.512639
23.645185
22.448087
20.840368
18.738209
16.071339
12.805185
8.9658251
4.6441034
25.992695
25.992072
25.991071
25.98947
25.986887
25.982669
25.975716
25.964218
25.945265
25.914286
25.864278
25.784777
25.660552
25.470023
25.183472
24.761229
24.152114
23.292679
22.108075
20.518824
18.443045
15.812562
12.594364
8.8151944
4.5655522
25.442939
25.442486
25.441687
25.440318
25.437993
25.434058
25.427413
25.416255
25.397689
25.367175
25.317769
25.239113
25.116151
24.927588
24.644161
24.226898
23.625666
22.778511
21.612789
20.051104
18.014323
15.437173
12.288917
8.5976144
4.453271
24.653117
24.652853
24.652274
24.651151
24.6491
24.645467
24.63916
24.628394
24.610306
24.58042
24.531898
24.454558
24.333627
24.148252
23.869856
23.4605
22.871538
22.04296
20.905916
19.385009
17.405172
14.905071
11.856811
8.2890915
4.2896248
23.541106
23.541058
23.540726
23.539881
23.538139
23.534854
23.528955
23.51869
23.501262
23.472299
23.425141
23.349891
23.232219
23.051951
22.781529
22.384539
21.814565
21.014865
19.919761
18.458044
16.55991
14.169165
11.261577
7.8662402
4.0674868
22.011549
22.011742
22.011689
22.011157
22.009768
22.006901
22.001524
21.991952
21.975494
21.947955
21.902961
21.831073
21.71867
21.546625
21.288884
20.911138
20.369866
19.6122
18.577263
17.199669
15.416231
13.177174
10.462754
7.302224
3.7742562
19.964599
19.965008
19.9652
19.964937
19.963861
19.961401
19.956605
19.947902
19.932776
19.907287
19.86548
19.7986
19.694068
19.534266
19.295251
18.945627
18.445786
17.747959
16.797586
15.536716
13.910281
11.876227
9.4201901
6.5716851
3.4003521
17.301944
17.302506
17.302874
17.302784
17.30193
17.299842
17.295712
17.28817
17.274983
17.252523
17.215398
17.155846
17.062804
16.92076
16.708592
16.398809
15.95699
15.341968
14.507127
13.403561
11.985714
10.220264
8.0981111
5.6470266
2.924647
13.952418
13.953075
13.953555
13.953523
13.952775
13.951017
13.947687
13.941811
13.931706
13.913864
13.883435
13.834253
13.757547
13.640451
13.465468
13.20991
12.846152
12.34142
11.658697
10.759508
9.6088246
8.1830907
6.4779168
4.5176853
2.345853
9.9070502
9.9078142
9.9084162
9.9084133
9.9077534
9.9063871
9.9041494
9.9009536
9.8965923
9.8870533
9.8659359
9.8308954
9.7778171
9.6946791
9.57013
9.3848189
9.1205835
8.7554873
8.2634872
7.6172798
6.7922549
5.7772692
4.5708217
3.1936044
1.6837927
5.2585101
5.2592373
5.2598446
5.2599139
5.2595116
5.2587715
5.2579938
5.2585884
5.2637349
5.2711881
5.2625806
5.2462481
5.2312238
5.1919117
5.1355979
5.036128
4.8898968
4.6905579
4.4233144
4.0717759
3.6194818
3.0740763
2.4321262
1.709361
0.95366545
)
;

boundaryField
{
    Walls
    {
        Cmu             0.09;
        kappa           0.41;
        E               9.8;
        beta1           0.075;
        type            omegaWallFunction;
        value           nonuniform List<scalar> 
38
(
12058.182
12058.133
12058.179
12058.526
12061.529
12087.214
13480.894
13535.013
14920.772
15029.33
15115.885
15203.58
15279.29
15330.59
15379.339
15415.037
15447.227
15476.815
15489.767
15507.645
15525.115
15538.117
15549.919
15548.606
15554.807
15564.102
15565.706
15571.447
15575.498
15572.319
15574.533
15576.315
15575.906
15578.105
15572.714
15569.744
15559.54
15500.705
)
;
    }
    Inlet
    {
        type            turbulentMixingLengthDissipationRateInlet;
        mixingLength    0.03;
        phi             phi;
        k               k;
        value           nonuniform List<scalar> 3(0.0049543243 0.0040142514 0.0053162469);
    }
    Outlet
    {
        type            inletOutlet;
        inletValue      uniform 1e-05;
        value           nonuniform List<scalar> 
86
(
5.2602666
5.2600495
5.2596514
5.2591598
5.2586363
5.2585101
5.2592373
5.2598446
5.2599139
5.2595116
5.2587715
5.2579938
5.2585884
5.2637349
5.2711881
5.2625806
5.2462481
5.2312238
5.1919117
5.1355979
5.036128
4.8898968
4.6905579
4.4233144
4.0717759
3.6194818
3.0740763
2.4321262
1.709361
0.95366545
219.26617
218.26671
196.96357
1e-05
1e-05
1e-05
1e-05
52.110068
46.337391
37.573251
1e-05
1e-05
1e-05
9.4509718
8.0308988
6.9642938
6.1833859
5.6180546
5.1870678
4.9442277
4.8127272
4.7875678
4.8093255
4.8177417
4.8281764
4.8437652
4.889049
4.9033944
4.9045669
4.9091551
4.9216735
4.9006245
4.8886647
4.8761119
4.8250425
1e-05
1e-05
1e-05
1e-05
1e-05
1e-05
1e-05
1e-05
1e-05
1e-05
1e-05
1e-05
1e-05
1e-05
0.95366545
1e-05
1e-05
1e-05
1e-05
195.72628
218.49002
)
;
    }
    Front
    {
        type            wedge;
    }
    Back
    {
        type            wedge;
    }
    defaultFaces
    {
        type            empty;
    }
}


// ************************************************************************* //
