/*--------------------------------*- C++ -*----------------------------------*\
| =========                 |                                                 |
| \\      /  F ield         | OpenFOAM: The Open Source CFD Toolbox           |
|  \\    /   O peration     | Version:  4.0                                   |
|   \\  /    A nd           | Web:      www.OpenFOAM.org                      |
|    \\/     M anipulation  |                                                 |
\*---------------------------------------------------------------------------*/
FoamFile
{
    version     2.0;
    format      ascii;
    class       volScalarField;
    location    "0.44";
    object      p;
}
// * * * * * * * * * * * * * * * * * * * * * * * * * * * * * * * * * * * * * //

dimensions      [0 2 -2 0 0 0 0];

internalField   nonuniform List<scalar> 
1740
(
491.75295
491.67541
491.80386
475.31508
475.35919
475.43171
458.90302
459.13619
459.04676
442.08535
442.32259
442.1757
424.86575
424.986
424.81226
407.85608
407.81018
407.68974
391.21008
391.04406
391.21085
374.82522
374.64458
375.07667
358.57794
358.62364
358.80857
342.1969
342.2737
342.12754
325.62019
325.52166
325.52032
308.92425
308.90393
308.97767
292.04134
292.1753
292.22396
275.53852
275.75419
275.62957
259.41622
259.34518
259.09423
242.83669
242.56947
242.52105
225.92542
225.93499
225.92934
208.93518
208.97745
209.1084
191.91977
191.88767
192.19383
175.53394
175.67392
175.43997
159.82853
159.9831
159.35974
143.74412
143.72058
143.5289
127.10599
127.13931
127.25708
111.01173
110.92234
110.84266
95.110658
94.760531
94.587752
78.350607
78.383557
78.521667
61.496587
61.899302
62.334506
45.678997
45.658993
46.013328
30.637182
30.386512
30.254809
16.247169
16.072998
15.437979
4.2738413
3.694517
1.7012704
-0.48647644
-0.44479705
-0.33370246
-0.06381679
-0.067198708
-0.072477126
0.046710361
0.037382064
0.021383158
0.043164017
0.03828692
0.030483605
0.03359438
0.030980995
0.026917735
0.025247586
0.023892736
0.021585129
0.019241291
0.0184722
0.017099725
0.015604947
0.015106285
0.014158908
0.013183497
0.012859665
0.012232462
0.011466881
0.011248543
0.010806427
0.010049817
0.0098918493
0.0095666227
0.0088017894
0.0086795062
0.0084265165
0.0076558189
0.0075576816
0.0073484894
0.0065887867
0.0065101994
0.0063447187
0.0056552678
0.0055917741
0.0054585059
0.0048503256
0.0047993983
0.0046947048
0.0041566366
0.0041154737
0.0040305147
0.0035560746
0.0035229223
0.0034519005
0.0030340427
0.0030067552
0.0029483623
0.0025809077
0.002558458
0.0025103341
0.0021937603
0.0021741055
0.0021324018
0.0018652215
0.0018483981
0.0018123861
0.0015884187
0.001574133
0.001543546
0.0013572023
0.0013450905
0.0013191494
0.0011657357
0.0011554522
0.0011334161
0.0010085251
0.0009997669
0.00098099436
0.00088047793
0.00087298532
0.0008569197
0.00077687852
0.00077043885
0.00075662979
0.00069345167
0.00068788607
0.00067595504
0.00062637127
0.00062152836
0.00061116054
0.00057225805
0.00056801055
0.00055894676
0.00052815311
0.00052441573
0.00051643627
0.00049152898
0.00048823229
0.00048115817
0.00046026285
0.00045733308
0.00045102657
0.00043258186
0.00042996288
0.00042431343
0.00040704676
0.00040469607
0.0003996169
0.00038251646
0.00038040167
0.00037582615
0.0003581118
0.00035620852
0.00035208626
0.00033318052
0.00033147099
0.0003277648
0.00030726524
0.00030573656
0.00030241968
0.00028007163
0.00027871493
0.00027576903
0.0002514401
0.00025024949
0.00024766252
0.00022132018
0.00022029196
0.00021805654
0.0001897503
0.00018888237
0.00018699453
0.00015684736
0.0001561387
0.00015459666
0.0001228149
0.00012226501
0.00012106807
8.7938409e-05
8.7546824e-05
8.6694579e-05
5.2699676e-05
5.2465359e-05
5.1956055e-05
1.7464596e-05
1.7386462e-05
1.7217543e-05
-1.2675437
-0.89237807
-0.27846179
-0.21584695
-0.068090742
-0.068528182
0.010496645
0.0015415973
0.024798622
0.020146824
0.02332277
0.020274485
0.019165389
0.017065762
0.015577328
0.014130753
0.013047881
0.011912644
0.011436357
0.010567557
0.010218228
0.0095553893
0.009121893
0.0086041901
0.0080723955
0.007647606
0.0070565128
0.0067110717
0.006111458
0.0058390318
0.0052771192
0.0050560239
0.0045466837
0.0043631472
0.0039071957
0.0037533125
0.003348186
0.00321845
0.0028610977
0.0027515449
0.0024386485
0.0023462882
0.0020730641
0.0019967517
0.0017599491
0.0016951238
0.0014989586
0.0014427332
0.0012812708
0.0012332894
0.0011011752
0.0010602252
0.00095347644
0.00091844307
0.00083334655
0.00080327185
0.00073633779
0.00071040648
0.00065839825
0.0006359215
0.00059588125
0.00057628421
0.00054556424
0.00052836848
0.00050463758
0.00048944816
0.00047069013
0.00045718768
0.00044168417
0.00042961089
0.00041593431
0.00040508602
0.00039207452
0.00038229228
0.00036902371
0.00036018611
0.00034595092
0.00033796761
0.00032224319
0.00031504834
0.00029747375
0.00029102111
0.00027137283
0.00026563098
0.00024379928
0.00023874867
0.0002147163
0.00021034583
0.00018417224
0.00018047694
0.00015229044
0.00014926918
0.00011927749
0.0001169308
8.5419442e-05
8.3747887e-05
5.1193824e-05
5.0194551e-05
1.6964747e-05
1.6633416e-05
0.014178792
0.013949052
0.013612724
0.013223275
0.01277776
0.012264785
0.01167737
0.011020557
0.010304337
0.0095421738
0.0087489901
0.0079380253
0.0071194794
0.0062887579
0.0055006271
0.0047693493
0.0040954233
0.0034744521
0.0029004145
0.0023676132
0.0018715732
0.0014076869
0.00097198229
0.0005622143
0.00017878809
0.014069682
0.013799197
0.013418855
0.012983575
0.012477366
0.011885251
0.01120391
0.010445361
0.009625581
0.0087682557
0.0079027888
0.0070510653
0.0062339186
0.0054806589
0.0047679909
0.00409913
0.0034821359
0.0029215855
0.0024118271
0.0019489194
0.0015282102
0.0011428253
0.00078697538
0.00045825623
0.0001538378
0.0098846923
0.0095735211
0.0091067382
0.008484311
0.0076351638
0.0065973857
0.0054251771
0.0041938198
0.0030578417
0.0020616629
0.001224829
0.00054134338
4.0560712e-06
-0.00039803481
-0.00068355095
-0.00086726894
-0.00096429587
-0.00098912209
-0.00094810452
-0.00085089658
-0.00071407481
-0.00055049367
-0.00037189935
-0.00018989148
-2.5557869e-05
-0.0057471984
-0.00620437
-0.007258902
-0.0088059813
-0.010457601
-0.011886585
-0.012946686
-0.013581316
-0.013875656
-0.013877151
-0.013619148
-0.013164397
-0.012545843
-0.011782189
-0.010905584
-0.0099440544
-0.0089200079
-0.007851178
-0.0067527791
-0.0056390731
-0.0045420596
-0.0034596792
-0.0023973786
-0.0013673159
-0.00040602921
-0.056481142
-0.056519008
-0.056664272
-0.054871113
-0.052460738
-0.049286142
-0.045842204
-0.042249355
-0.038598877
-0.034990484
-0.03152905
-0.02826901
-0.025159736
-0.022037497
-0.019155025
-0.016523886
-0.014131388
-0.01195898
-0.0099834059
-0.0081782154
-0.0064979826
-0.0049305871
-0.0034593388
-0.0020616893
-0.00071757272
-0.21881126
-0.17534268
-0.15510452
-0.12488437
-0.10014939
-0.078719655
-0.060621078
-0.045969156
-0.034297584
-0.025060424
-0.017802671
-0.012177178
-0.0079030062
-0.0048057211
-0.0024783203
-0.00081261323
0.00032431375
0.0010411287
0.0014234213
0.0015409638
0.0014569339
0.0012238811
0.00088392893
0.00048027802
1.2099891e-05
-0.31763056
-0.11525468
-0.06681128
-0.03188189
4.1109139e-06
0.025195513
0.040905296
0.04815015
0.05012326
0.049427926
0.047272434
0.044241742
0.040697514
0.036903431
0.033048242
0.029247714
0.025568154
0.022041913
0.018677287
0.015467458
0.012397214
0.0094476717
0.006591954
0.0038182142
0.001039312
-0.17714702
-0.15463703
-0.13149867
-0.10813822
-0.086350488
-0.067147021
-0.051037905
-0.038025437
-0.027701614
-0.019615092
-0.013397861
-0.0086302816
-0.0050474053
-0.0023817711
-0.00045773834
0.00086774702
0.0017195132
0.0021943815
0.002369314
0.0023070145
0.0020601848
0.0016756319
0.0011936683
0.0006569712
6.1404006e-05
-0.068458283
-0.067215932
-0.064914526
-0.061760665
-0.057985877
-0.053802859
-0.04949442
-0.045174429
-0.040914157
-0.03685262
-0.033129693
-0.029376729
-0.025840217
-0.022589673
-0.019627268
-0.016942863
-0.014479614
-0.012230768
-0.010180453
-0.0083074422
-0.0065882226
-0.0049977547
-0.0035119526
-0.0021016043
-0.00074151995
-0.0038315504
-0.0081720832
-0.011769793
-0.014626354
-0.01679574
-0.018260822
-0.019113605
-0.019427563
-0.019300319
-0.018840735
-0.018147986
-0.017246183
-0.016184886
-0.015001878
-0.013729114
-0.01238864
-0.011038402
-0.0096797315
-0.0083164903
-0.0069547147
-0.0056015386
-0.0042655484
-0.0029576734
-0.001692302
-0.00050776559
0.016370731
0.013691144
0.011171193
0.0087605675
0.0062773009
0.0039198214
0.0019083644
0.00027217027
-0.0010166941
-0.0020040286
-0.0027316728
-0.0032360322
-0.0035470804
-0.003694253
-0.0037013945
-0.0035874073
-0.0033759036
-0.0030863423
-0.0027349583
-0.0023359163
-0.0019027451
-0.0014494669
-0.00099089785
-0.00054165643
-0.00013019132
0.017908327
0.016289319
0.01504692
0.013792659
0.012590029
0.011349736
0.010060048
0.0087697407
0.0075346445
0.0063860032
0.0053525033
0.0044363629
0.0036371208
0.0029575554
0.00238875
0.0019161926
0.0015267085
0.0012070589
0.00094448058
0.00072814841
0.00054875196
0.00039798882
0.00026907197
0.00015870235
6.3603664e-05
0.015450404
0.014241644
0.013255574
0.012387428
0.011592466
0.010804224
0.0099986697
0.0091650518
0.0083186197
0.0075155063
0.0067368841
0.0059925993
0.0052971266
0.0046509679
0.0040533677
0.0035042547
0.0030004251
0.0025387349
0.0021132298
0.0017191933
0.0013528146
0.00101108
0.00069218848
0.000396066
0.00012557077
0.01289969
0.011910202
0.011121498
0.01044385
0.0098381332
0.009256724
0.0086652628
0.0080527909
0.007424953
0.0067755218
0.0061401242
0.0055356744
0.0049559964
0.0044012019
0.003873921
0.0033770876
0.0029130469
0.0024807792
0.0020757822
0.0016972789
0.0013432702
0.0010110083
0.00069908086
0.00040510508
0.00012808878
0.010891171
0.010067454
0.0094096401
0.0088469707
0.0083466669
0.0078787683
0.0074200894
0.0069592106
0.0064893191
0.0060026986
0.0055113121
0.0050253287
0.0045497628
0.0040845135
0.0036290424
0.0031868557
0.0027667551
0.0023715269
0.0019985504
0.0016452394
0.0013105227
0.00099377038
0.00069252808
0.00040494381
0.00012919788
0.0097143694
0.0089587029
0.0083137078
0.0077805814
0.0073184306
0.006901423
0.0065123051
0.006137036
0.0057640909
0.0053835261
0.0049963566
0.0046059358
0.0042156673
0.0038279769
0.0034443854
0.0030651409
0.0026911566
0.0023247326
0.0019730303
0.001634403
0.0013087504
0.00099618178
0.00069611487
0.00040796958
0.00013040252
0.0088708334
0.0082254282
0.0076457513
0.0071292081
0.0066722026
0.0062670069
0.0058995389
0.0055569628
0.0052280319
0.0049020091
0.0045781094
0.0042513314
0.0039208033
0.0035889297
0.0032582537
0.0029289865
0.0025971129
0.0022638899
0.0019337883
0.001611054
0.0012964216
0.00099108826
0.00069535029
0.00040934536
0.0001324584
0.0080585871
0.0075042826
0.0069826017
0.0065047371
0.0060810295
0.0057044506
0.0053627997
0.0050455992
0.0047445512
0.0044520669
0.004164739
0.003879146
0.0035924159
0.0033038707
0.0030134111
0.0027202795
0.0024237606
0.0021251587
0.0018263531
0.0015300308
0.0012380163
0.00095058286
0.00066852538
0.00039351081
0.0001267913
0.007183586
0.0067192413
0.0062735802
0.0058595308
0.005482481
0.0051399666
0.0048268804
0.0045361506
0.0042609978
0.0039958323
0.0037369738
0.0034814592
0.0032271678
0.0029721804
0.0027159071
0.0024574363
0.0021959546
0.0019317095
0.0016657914
0.0013998285
0.0011352909
0.00087331012
0.00061508188
0.0003624619
0.0001169754
0.0063361958
0.0059520379
0.0055752509
0.0052173345
0.0048840888
0.0045759658
0.0042911335
0.0040253886
0.0037740422
0.0035328768
0.0032986161
0.0030689072
0.0028419308
0.0026161337
0.0023904008
0.0021636585
0.0019349912
0.0017040997
0.0014716084
0.0012384585
0.001005766
0.00077459622
0.00054597513
0.00032214567
0.00010480244
0.0055352929
0.0052174273
0.0048999588
0.0045919112
0.0042993761
0.0040246397
0.0037673529
0.0035260251
0.0032976642
0.0030792576
0.0028681661
0.0026624179
0.0024605733
0.0022613333
0.0020633583
0.0018656118
0.0016672636
0.0014679086
0.0012677012
0.0010671348
0.00086693481
0.00066796364
0.00047106791
0.00027842332
9.1135588e-05
0.0048058247
0.0045405214
0.0042711914
0.0040057167
0.0037499143
0.0035064432
0.0032759928
0.0030582114
0.0028518819
0.0026549838
0.0024656634
0.0022822424
0.0021034454
0.0019279739
0.00175487
0.0015832191
0.0014122942
0.0012416197
0.0010711218
0.0009009751
0.00073158331
0.00056354968
0.00039754715
0.00023514996
7.7044931e-05
0.0041541712
0.0039303727
0.0037008203
0.0034719514
0.0032487671
0.0030340581
0.0028291253
0.0026341801
0.0024487744
0.0022718396
0.002102325
0.0019389878
0.001780755
0.001626589
0.0014756235
0.001327147
0.0011805386
0.0010353341
0.00089130519
0.00074845171
0.00060695378
0.00046714918
0.00032943923
0.00019473677
6.3418651e-05
0.0035772925
0.0033874572
0.003191077
0.0029936657
0.0027993412
0.0026108272
0.0024296575
0.0022563834
0.0020908863
0.001932612
0.0017811442
0.0016359207
0.0014961316
0.0013609533
0.0012296453
0.0011016212
0.00097634954
0.00085343379
0.0007325768
0.00061365476
0.00049666222
0.00038171265
0.00026886902
0.00015865568
5.1459279e-05
0.003069514
0.0029079831
0.0027397252
0.0025693905
0.0024005395
0.0022356556
0.0020762108
0.0019229987
0.0017761986
0.0016356448
0.0015010894
0.0013724095
0.0012492612
0.0011310963
0.0010173083
0.00090731632
0.0008007118
0.00069713432
0.00059629205
0.00049795354
0.00040197213
0.00030826191
0.00021669939
0.00012772926
4.1500823e-05
0.0026252057
0.0024874919
0.0023432158
0.0021963475
0.0020499011
0.0019060766
0.0017663445
0.0016315418
0.0015020897
0.0013781027
0.0012594977
0.0011461964
0.0010381932
0.00093526276
0.00083699926
0.0007429091
0.00065257658
0.00056566804
0.00048188738
0.00040095578
0.00032264112
0.00024675293
0.00017306926
0.00010192503
3.3253277e-05
0.0022390169
0.0021215272
0.0019978257
0.0018712595
0.0017444734
0.0016194046
0.0014974312
0.0013794382
0.0012659411
0.0011572258
0.0010533995
0.00095441778
0.00086028418
0.00077098548
0.00068637329
0.0006061094
0.00052978563
0.00045705308
0.00038762264
0.00032121203
0.00025754769
0.00019637954
0.0001374179
8.0866082e-05
2.6500913e-05
0.0019058521
0.0018057092
0.0016997421
0.0015908105
0.0014812299
0.0013727916
0.0012667249
0.0011639162
0.0010649435
0.00097013362
0.00087975137
0.00079381147
0.00071231816
0.00063525953
0.0005626141
0.00049420794
0.00042972912
0.00036887054
0.00031134939
0.00025688304
0.00020518137
0.00015595437
0.00010885852
6.3972132e-05
2.1007708e-05
0.0016204326
0.0015356614
0.0014451255
0.0013515187
0.0012569947
0.001163218
0.0010712755
0.00098200933
0.00089603355
0.00081377392
0.00073539761
0.00066107385
0.00059082485
0.00052462682
0.00046243149
0.00040416587
0.00034965781
0.00029866444
0.00025091439
0.00020612305
0.00016399744
0.00012423909
8.6467099e-05
5.0735526e-05
1.6737359e-05
0.0013772424
0.001305931
0.0012298684
0.0011497105
0.0010682941
0.00098740288
0.00090788379
0.0008305618
0.0007560816
0.00068484963
0.0006171014
0.00055297373
0.0004925161
0.00043571102
0.00038248787
0.00033287477
0.0002867483
0.00024390794
0.00020408951
0.00016702349
0.00013243554
0.00010004004
6.9429529e-05
4.0692863e-05
1.3444514e-05
0.0011771837
0.0011150553
0.0010485067
0.00098029524
0.00091106795
0.00084183616
0.00077313174
0.00070616688
0.00064170731
0.00058012097
0.00052161271
0.00046630041
0.00041425576
0.00036544867
0.00031980436
0.00027737195
0.00023821084
0.00020203706
0.00016857894
0.00013760092
0.0001088489
8.2074669e-05
5.6842384e-05
3.338088e-05
1.1343616e-05
0.0010122074
0.00095882598
0.0009016816
0.00084243877
0.00078212185
0.00072162343
0.00066245784
0.00060495621
0.00054940457
0.00049621537
0.00044569297
0.00039792139
0.00035303163
0.00031095025
0.0002716613
0.000235
0.00020141536
0.00017064917
0.00014220616
0.00011594112
9.1596849e-05
6.90589e-05
4.7893899e-05
2.7943304e-05
9.4312427e-06
0.00087726051
0.00083135649
0.00078211863
0.00073085056
0.00067860575
0.00062629922
0.00057484078
0.00052473723
0.00047639141
0.00043009638
0.00038607051
0.00034456329
0.00030559624
0.0002692782
0.00023559254
0.00020441706
0.00017520324
0.00014808465
0.00012324213
0.00010040746
7.9368888e-05
5.979156e-05
4.1376897e-05
2.4444103e-05
8.3996122e-06
0.0007678356
0.00072823852
0.00068566194
0.00064120651
0.00059582884
0.00055035428
0.00050548874
0.00046174176
0.00041949465
0.00037902855
0.00034054708
0.00030420992
0.00027008402
0.00023821077
0.00020856183
0.00018103549
0.00015542265
0.00013166551
0.00010971959
8.9459243e-05
7.0752391e-05
5.3363391e-05
3.6949509e-05
2.1756514e-05
7.6551139e-06
0.00067978448
0.00064548257
0.0006085064
0.00056980077
0.00053020647
0.00049044924
0.00045113277
0.00041272338
0.00037557281
0.00033994038
0.00030600923
0.00027390397
0.00024368902
0.0002153851
0.00018896347
0.00016435027
0.00014143304
0.00012012652
0.00010034444
8.1986071e-05
6.4923279e-05
4.8990818e-05
3.3868792e-05
1.9994141e-05
7.2463592e-06
0.00060932133
0.00057945143
0.00054716834
0.00051328488
0.00047853446
0.00044355314
0.00040887038
0.00037490535
0.00034197807
0.00031032346
0.00028010794
0.00025143669
0.00022436525
0.00019890726
0.00017503823
0.00015270231
0.00013182073
0.00011231341
9.4095687e-05
7.7072155e-05
6.1134809e-05
4.6173181e-05
3.1881306e-05
1.889419e-05
7.0753082e-06
0.00055304062
0.00052687338
0.0004985138
0.00046866239
0.00043795726
0.00040695628
0.00037612692
0.00034584425
0.0003163981
0.0002880019
0.00026080534
0.00023490413
0.00021034587
0.00018714314
0.00016527664
0.00014470259
0.00012536098
0.00010718319
9.0094038e-05
7.4009271e-05
5.8837364e-05
4.45055e-05
3.0711941e-05
1.8303871e-05
7.0684477e-06
0.00050792684
0.00048485284
0.00045977215
0.00043328933
0.00040596065
0.00037827529
0.00035064767
0.00032341369
0.00029683418
0.00027110426
0.00024636015
0.00022268997
0.00020014048
0.00017872354
0.00015842606
0.00013921494
0.00012104407
0.00010385873
8.7597196e-05
7.2190981e-05
5.7565114e-05
4.3651577e-05
2.9928189e-05
1.7727882e-05
7.0416698e-06
0.00047135121
0.00045086728
0.00042853278
0.00040487134
0.00038036768
0.0003554523
0.00033049339
0.00030579184
0.00028158394
0.00025804755
0.00023530855
0.00021344969
0.00019251677
0.00017252618
0.00015347096
0.00013532723
0.00011806213
0.00010163389
8.5996677e-05
7.1099317e-05
5.6882787e-05
4.3298638e-05
2.9167146e-05
1.6929803e-05
7.1387296e-06
0.00044106042
0.00042275556
0.00040273473
0.00038145064
0.00035932671
0.0003367432
0.00031402728
0.00029144911
0.00026922389
0.00024751334
0.00022643857
0.00020607689
0.00018647263
0.00016764644
0.00014959929
0.00013231757
0.00011577803
9.9951286e-05
8.4805652e-05
7.0305301e-05
5.6404272e-05
4.3365811e-05
2.8490337e-05
1.6465321e-05
7.2418912e-06
0.00041515564
0.00039870231
0.00038064894
0.00036138881
0.00034129268
0.00032069655
0.00029989145
0.00027912146
0.00025858368
0.00023842851
0.00021876759
0.00019967605
0.00018119972
0.00016336266
0.00014617155
0.00012962107
0.00011369683
9.8380538e-05
8.3650091e-05
6.948298e-05
5.585592e-05
4.2824442e-05
2.8827481e-05
1.668824e-05
6.9508999e-06
0.00039206715
0.00037720747
0.00036085127
0.0003433404
0.00032500049
0.00030612909
0.00028698603
0.00026779207
0.0002487275
0.00022993236
0.00021151139
0.00019353832
0.00017606133
0.00015910671
0.00014268616
0.00012680065
0.00011144192
9.6598998e-05
8.2257063e-05
6.839858e-05
5.5004414e-05
4.2056883e-05
2.8877567e-05
1.7011509e-05
6.7772906e-06
0.00037052642
0.00035706118
0.00034219449
0.00032622492
0.00030943854
0.00029209785
0.00027443672
0.00025665464
0.00023891645
0.00022135293
0.00020406329
0.00018711964
0.00017057103
0.00015444709
0.00013876341
0.00012352544
0.00010873121
9.4373695e-05
8.0442592e-05
6.6925709e-05
5.3811242e-05
4.1098818e-05
2.8492149e-05
1.7038634e-05
6.7470158e-06
0.00034953402
0.00033731271
0.00032378076
0.00030919895
0.00029381851
0.00027787251
0.00026156998
0.0002450915
0.00022858806
0.0002121813
0.00019596564
0.00018001136
0.00016436777
0.00014906708
0.00013412848
0.00011956092
0.00010536733
9.1544953e-05
7.8088255e-05
6.4991743e-05
5.2255147e-05
3.9905128e-05
2.7736828e-05
1.6786744e-05
6.674785e-06
0.00032832639
0.00031723891
0.00030492989
0.00029162706
0.00027755088
0.00026290848
0.00024788636
0.00023264787
0.00021733101
0.00020204858
0.00018688997
0.0001719232
0.00015719751
0.00014274682
0.00012859308
0.00011474905
0.00010122138
8.8012449e-05
7.512261e-05
6.2554758e-05
5.0320542e-05
3.8459501e-05
2.6806098e-05
1.6257627e-05
6.4235936e-06
0.00030634392
0.00029631264
0.00028514949
0.00027305232
0.00026021536
0.00024682126
0.00023303697
0.00021900938
0.00020486423
0.00019070572
0.00017661777
0.00016266503
0.00014889674
0.00013534754
0.00012204176
0.00010899544
9.6218969e-05
8.3719779e-05
7.1505195e-05
5.9585784e-05
4.7981927e-05
3.6736624e-05
2.5756979e-05
1.5548136e-05
6.0266489e-06
0.00028320223
0.00027417447
0.00026410633
0.00025316989
0.00024153489
0.00022936227
0.00021680022
0.00020398047
0.00019101675
0.00017800469
0.00016502228
0.00015213067
0.00013937739
0.00012679813
0.00011441852
0.0001022573
9.0328445e-05
7.8643933e-05
6.7216099e-05
5.606091e-05
4.5201242e-05
3.467026e-05
2.4425813e-05
1.4673806e-05
5.5037329e-06
0.00025866371
0.00025060611
0.00024160287
0.00023180297
0.00022135372
0.00021039613
0.00019906065
0.00018746422
0.00017570899
0.00016388161
0.00015205351
0.00014028257
0.00012861388
0.00011708281
0.00010571567
9.4533058e-05
8.355169e-05
7.2786506e-05
6.2252706e-05
5.1967423e-05
4.1952594e-05
3.2231506e-05
2.2737932e-05
1.3633641e-05
4.9831917e-06
0.0002326126
0.00022550619
0.00021755298
0.00020888065
0.00019961595
0.00018988111
0.00017978971
0.00016944449
0.00015893572
0.00014834079
0.00013772448
0.00012714067
0.00011663152
0.00010623044
9.5964009e-05
8.5853467e-05
7.5917122e-05
6.6170437e-05
5.6628901e-05
4.7308957e-05
3.8226685e-05
2.9392468e-05
2.0732632e-05
1.2406554e-05
4.4679777e-06
0.00020503066
0.00019886748
0.00019196035
0.00018441718
0.00017634605
0.00016785095
0.00015902932
0.00014996988
0.00014075133
0.0001314415
0.00012209859
0.00011277027
0.00010349552
9.4305199e-05
8.5224968e-05
7.627597e-05
6.7475473e-05
5.8838575e-05
5.0380225e-05
4.2113483e-05
3.4048413e-05
2.6187221e-05
1.8464516e-05
1.1028314e-05
3.9309627e-06
0.00017597909
0.00017075832
0.00016490067
0.00015849566
0.00015163314
0.0001444
0.00013687805
0.00012914209
0.00012125932
0.0001132882
0.00010527879
9.7272485e-05
8.9303415e-05
8.1399995e-05
7.3585564e-05
6.5879848e-05
5.8297843e-05
5.085426e-05
4.3561613e-05
3.6429737e-05
2.9464425e-05
2.2664365e-05
1.5975917e-05
9.5254248e-06
3.3661417e-06
0.00014558917
0.00014131414
0.00013651339
0.00013125896
0.00012562314
0.00011967618
0.0001134846
0.00010710967
0.00010060683
9.4024587e-05
8.7404051e-05
8.0780261e-05
7.4182153e-05
6.7634195e-05
6.1156416e-05
5.4765518e-05
4.8475333e-05
4.2298174e-05
3.6244071e-05
3.0320381e-05
2.4530608e-05
1.8873327e-05
1.3303151e-05
7.9193396e-06
2.7718792e-06
0.00011407098
0.00011074679
0.00010701127
0.0001029197
9.8527625e-05
9.3889232e-05
8.9056062e-05
8.4075798e-05
7.8991102e-05
7.3840612e-05
6.8656617e-05
6.3466581e-05
5.8294021e-05
5.3158416e-05
4.8076155e-05
4.3060009e-05
3.8121846e-05
3.3271285e-05
2.8515831e-05
2.3860741e-05
1.9308895e-05
1.4860201e-05
1.047631e-05
6.2278864e-06
2.155756e-06
8.1710209e-05
7.9340768e-05
7.6676967e-05
7.3757814e-05
7.0622644e-05
6.7309903e-05
6.3856242e-05
6.029564e-05
5.6658709e-05
5.297255e-05
4.9260556e-05
4.5542885e-05
4.183654e-05
3.8155695e-05
3.4512103e-05
3.0915219e-05
2.7373708e-05
2.389432e-05
2.0482112e-05
1.7140464e-05
1.3870968e-05
1.067358e-05
7.5165783e-06
4.4647823e-06
1.5522386e-06
4.897628e-05
4.7559445e-05
4.5966286e-05
4.4220012e-05
4.2344073e-05
4.036141e-05
3.8293906e-05
3.6161897e-05
3.3983726e-05
3.1775312e-05
2.9550894e-05
2.7322639e-05
2.5100874e-05
2.2894164e-05
2.0709361e-05
1.8552485e-05
1.6428668e-05
1.4341819e-05
1.2294697e-05
1.0288773e-05
8.3243695e-06
6.401459e-06
4.4964883e-06
2.675362e-06
9.5112856e-07
1.6229546e-05
1.5759914e-05
1.5231904e-05
1.4653214e-05
1.4031618e-05
1.337472e-05
1.2689775e-05
1.1983523e-05
1.1261987e-05
1.0530404e-05
9.7934991e-06
9.0553168e-06
8.3192979e-06
7.5882305e-06
6.8644288e-06
6.149898e-06
5.4462991e-06
4.7549005e-06
4.0764604e-06
3.4111433e-06
2.7584191e-06
2.1218351e-06
1.4842489e-06
8.774919e-07
3.2183947e-07
)
;

boundaryField
{
    Walls
    {
        type            zeroGradient;
    }
    Inlet
    {
        type            fixedValue;
        value           uniform 500;
    }
    Outlet
    {
        type            fixedValue;
        value           uniform 0;
    }
    Front
    {
        type            wedge;
    }
    Back
    {
        type            wedge;
    }
    defaultFaces
    {
        type            empty;
    }
}


// ************************************************************************* //
