/*--------------------------------*- C++ -*----------------------------------*\
| =========                 |                                                 |
| \\      /  F ield         | OpenFOAM: The Open Source CFD Toolbox           |
|  \\    /   O peration     | Version:  4.0                                   |
|   \\  /    A nd           | Web:      www.OpenFOAM.org                      |
|    \\/     M anipulation  |                                                 |
\*---------------------------------------------------------------------------*/
FoamFile
{
    version     2.0;
    format      ascii;
    class       surfaceScalarField;
    location    "0.44";
    object      phi;
}
// * * * * * * * * * * * * * * * * * * * * * * * * * * * * * * * * * * * * * //

dimensions      [0 3 -1 0 0 0 0];

internalField   nonuniform List<scalar> 
3364
(
1.6836618e-10
1.5777086e-08
-7.2515338e-10
5.2712445e-08
8.5330232e-08
-6.2653539e-11
1.5839705e-08
-1.153743e-09
5.3803549e-08
8.4176508e-08
-5.8054658e-10
1.64202e-08
-4.3621473e-11
5.3266636e-08
8.4132889e-08
-5.2637372e-10
1.6946519e-08
7.3648777e-10
5.2003735e-08
8.486935e-08
-2.5311902e-10
1.7199601e-08
6.0528992e-10
5.1145252e-08
8.5474606e-08
-9.2024036e-11
1.7291594e-08
4.7052451e-10
5.0582653e-08
8.5945104e-08
1.5860834e-10
1.7132972e-08
-3.3686556e-10
5.1078093e-08
8.5608205e-08
5.3780536e-10
1.6595147e-08
-1.9573662e-09
5.3573228e-08
8.3650801e-08
-1.7805508e-10
1.6773171e-08
-1.2485139e-09
5.464365e-08
8.2402252e-08
-5.6718964e-10
1.734033e-08
3.2977328e-10
5.3746659e-08
8.2731995e-08
2.2904929e-10
1.7111268e-08
2.5172354e-10
5.3723977e-08
8.2983687e-08
3.2268019e-10
1.6788568e-08
1.1547035e-10
5.3931149e-08
8.3099115e-08
2.1782811e-12
1.6786335e-08
-4.0545808e-10
5.4338709e-08
8.2693612e-08
-3.1311746e-10
1.7099375e-08
-2.2688828e-10
5.4252405e-08
8.246669e-08
-2.5901573e-10
1.7358327e-08
4.4439491e-10
5.3548947e-08
8.2911067e-08
1.1135357e-11
1.7347175e-08
-1.1450583e-10
5.3674588e-08
8.2796544e-08
4.0313051e-11
1.7306871e-08
8.2059339e-10
5.2894284e-08
8.361709e-08
4.0251767e-10
1.6904314e-08
4.8293297e-10
5.2813784e-08
8.4099957e-08
3.5035501e-10
1.6553886e-08
-8.145595e-10
5.3978617e-08
8.3285349e-08
-3.9202095e-10
1.6945866e-08
6.2772056e-10
5.2958835e-08
8.3913033e-08
-4.4338806e-10
1.7389208e-08
2.0115458e-09
5.0503864e-08
8.5924558e-08
1.5126031e-11
1.7374021e-08
5.9633157e-10
4.9922633e-08
8.6520883e-08
-2.4404809e-10
1.7618002e-08
-1.1612743e-10
4.9794688e-08
8.640474e-08
-1.4504559e-10
1.7763005e-08
4.4233069e-10
4.9207277e-08
8.6847029e-08
4.4249682e-10
1.7320504e-08
3.5463551e-10
4.9295108e-08
8.7201611e-08
-1.0384437e-10
1.7424354e-08
-6.140495e-10
4.9805286e-08
8.6587512e-08
-4.8661888e-10
1.7910952e-08
-1.4168822e-09
5.0735502e-08
8.5170581e-08
2.1645763e-10
1.7694456e-08
-1.6855251e-09
5.263746e-08
8.3485024e-08
5.7417937e-10
1.7120292e-08
-2.1698235e-11
5.3233435e-08
8.3463337e-08
1.528112e-09
1.5592388e-08
5.8896502e-09
4.8872006e-08
8.9352991e-08
1.1213415e-08
4.3783213e-09
4.8952936e-08
1.1130624e-08
1.0828702e-08
1.2747466e-07
4.8560642e-09
-4.7821922e-10
1.7270205e-08
-1.2850106e-09
-1.4792317e-09
2.9576247e-08
-3.8690873e-10
-9.1277753e-11
-1.4018952e-09
-2.6995754e-10
-4.2871253e-10
-2.4523214e-09
-9.5751775e-11
4.4890357e-12
-3.6334349e-10
-2.3301401e-12
-5.2290744e-11
-7.3972531e-10
-7.5012039e-12
1.1992015e-11
-3.5961147e-11
2.6134573e-11
2.1078971e-11
-1.0932499e-10
2.2168382e-12
9.7753365e-12
3.3330692e-12
2.501878e-11
3.1351123e-11
-6.9379735e-12
2.7513947e-12
7.0238868e-12
8.6684451e-12
1.9101527e-11
2.6328364e-11
1.3691671e-11
2.6373645e-12
4.38658e-12
9.5400813e-12
1.2198831e-11
1.7270907e-11
1.8597445e-11
1.7895767e-12
2.5970478e-12
6.7857707e-12
7.2026573e-12
1.0299603e-11
1.375704e-11
8.3356455e-13
1.7635502e-12
3.0819867e-12
4.9543503e-12
7.2845123e-12
6.0972311e-12
2.3621196e-13
1.5274155e-12
8.0691891e-13
4.3838025e-12
6.6222764e-12
1.4693959e-12
5.356684e-14
1.4739146e-12
1.7992555e-13
4.2575834e-12
6.5894097e-12
2.1300885e-13
8.7648534e-14
1.3863112e-12
2.751451e-13
4.0701836e-12
6.4093947e-12
4.5531367e-13
1.3836257e-13
1.2479779e-12
5.1882374e-13
3.6897826e-12
5.8930552e-12
1.0352575e-12
1.5659473e-13
1.0914018e-12
6.1275148e-13
3.2336612e-12
5.2006331e-12
1.3052279e-12
1.5050759e-13
9.409063e-13
5.9505191e-13
2.7891377e-12
4.5439973e-12
1.2517189e-12
1.3009998e-13
8.1081437e-13
5.1214001e-13
2.4071101e-12
3.9516728e-12
1.1044829e-12
1.0883556e-13
7.0198416e-13
4.2461708e-13
2.0913356e-12
3.4339105e-12
9.4238958e-13
9.1729056e-14
6.1025844e-13
3.662683e-13
1.8167993e-12
2.9853473e-12
8.1483549e-13
8.0437234e-14
5.2982295e-13
3.1904117e-13
1.5781949e-12
2.5798888e-12
7.2449835e-13
7.1564584e-14
4.5825888e-13
2.8526963e-13
1.3644868e-12
2.2184928e-12
6.4666009e-13
6.7079646e-14
3.9117882e-13
2.6494641e-13
1.1666151e-12
1.9058042e-12
5.7762608e-13
6.0673822e-14
3.3050397e-13
2.4139704e-13
9.8588567e-13
1.6105514e-12
5.3663847e-13
5.4168653e-14
2.763339e-13
2.1567528e-13
8.2437218e-13
1.3463993e-12
4.7981504e-13
4.7596281e-14
2.28736e-13
1.8940306e-13
6.825584e-13
1.1136768e-12
4.2211305e-13
4.1370247e-14
1.8736405e-13
1.6332282e-13
5.6059896e-13
9.1282495e-13
3.641626e-13
3.5083633e-14
1.5227873e-13
1.4138967e-13
4.5428639e-13
7.4391987e-13
3.1028337e-13
2.9289273e-14
1.2298785e-13
1.1708243e-13
3.6648718e-13
5.9794475e-13
2.6304707e-13
2.4121451e-14
9.8864899e-14
9.6040151e-14
2.94563e-13
4.7985709e-13
2.1411836e-13
1.9572876e-14
7.9290661e-14
7.7885133e-14
2.3624582e-13
3.8452292e-13
1.732109e-13
1.5540929e-14
6.3748518e-14
6.1900171e-14
1.8988223e-13
3.0866696e-13
1.3774874e-13
1.2008151e-14
5.173931e-14
4.7921566e-14
1.5396504e-13
2.4980814e-13
1.0677399e-13
8.9639856e-15
4.2774421e-14
3.5694278e-14
1.2723152e-13
2.0650452e-13
7.899247e-14
6.4020429e-15
3.6371626e-14
2.543319e-14
1.0819765e-13
1.7574508e-13
5.6188086e-14
4.2635158e-15
3.2107499e-14
1.6926103e-14
9.5532823e-14
1.5534087e-13
3.7326576e-14
2.530676e-15
2.9576343e-14
1.0012319e-14
8.804937e-14
1.4333659e-13
2.2013622e-14
1.1578691e-15
2.841811e-14
4.5492689e-15
8.4656552e-14
1.380475e-13
9.8360508e-15
1.0663289e-16
2.831122e-14
3.6915352e-16
8.4392965e-14
1.3791275e-13
5.0219343e-16
-6.6882747e-16
2.8979881e-14
-2.7414955e-15
8.6464881e-14
1.4158673e-13
-6.4166487e-15
-1.2018694e-15
3.0181666e-14
-4.8515937e-15
9.0114128e-14
1.4790751e-13
-1.1173096e-14
-1.5603702e-15
3.1742021e-14
-6.2719764e-15
9.4825498e-14
1.5584026e-13
-1.4205036e-14
-1.7444665e-15
3.3486534e-14
-7.0256144e-15
1.0010661e-13
1.6469515e-13
-1.5880483e-14
-1.7863902e-15
3.5273021e-14
-7.1905016e-15
1.0551087e-13
1.7375127e-13
-1.6246303e-14
-1.7176227e-15
3.6990786e-14
-6.909846e-15
1.1070338e-13
1.824429e-13
-1.5600923e-14
-1.5556258e-15
3.8546589e-14
-6.2504769e-15
1.1539864e-13
1.9028348e-13
-1.4090309e-14
-1.3244144e-15
3.9871207e-14
-5.273438e-15
1.1934816e-13
1.9686605e-13
-1.1855114e-14
-9.9357834e-16
4.0865005e-14
-3.8771741e-15
1.2223231e-13
2.0164774e-13
-8.6578773e-15
-5.6773347e-16
4.1432969e-14
-2.158234e-15
1.238234e-13
2.0428918e-13
-4.7986366e-15
-5.9466093e-17
4.1492665e-14
-3.8411141e-16
1.2414863e-13
2.0487114e-13
-9.6500749e-16
2.6740842e-16
8.9570715e-16
1.8878265e-15
1.3705953e-07
-9.5901687e-09
-8.7988851e-09
1.4585212e-07
2.1488644e-08
-1.5037781e-09
-1.4338693e-09
1.4123081e-08
-3.4470475e-09
-5.089306e-10
-6.0334847e-10
-4.2774257e-09
-1.1512083e-09
-9.7395496e-11
-1.5460915e-10
-1.5998853e-09
-2.1901878e-10
1.2309042e-11
-1.1407106e-12
-3.7247132e-10
-2.877981e-11
3.4153223e-11
3.6626023e-11
-6.6543326e-11
1.6526837e-11
3.1318244e-11
3.4793579e-11
1.8359283e-11
2.8643978e-11
2.1271372e-11
2.2272274e-11
4.1164669e-11
2.2439947e-11
1.2588306e-11
1.4196606e-11
3.0515308e-11
9.8124011e-12
8.8732852e-12
1.0239351e-11
1.3769779e-11
2.1384242e-12
8.2045574e-12
9.4677696e-12
2.9103424e-12
-3.021016e-15
8.420871e-12
9.9322522e-12
-4.6716712e-13
5.252178e-13
8.3511701e-12
1.0100398e-11
3.5731657e-13
1.5635465e-12
7.823005e-12
9.5842894e-12
2.0798026e-12
2.0822392e-12
7.0460631e-12
8.61565e-12
3.0509597e-12
2.1414974e-12
6.1563232e-12
7.5479597e-12
3.2092313e-12
1.9102838e-12
5.3505446e-12
6.570873e-12
2.8873944e-12
1.6356252e-12
4.6573208e-12
5.7320396e-12
2.4744704e-12
1.4144328e-12
4.0577275e-12
5.0024869e-12
2.1439881e-12
1.2640118e-12
3.5182112e-12
4.3506625e-12
1.915831e-12
1.1457445e-12
3.0191185e-12
3.7526538e-12
1.7437416e-12
1.0228559e-12
2.5738755e-12
3.1868443e-12
1.588648e-12
9.2465738e-13
2.18584e-12
2.7042361e-12
1.4072435e-12
8.3744899e-13
1.8281881e-12
2.2601572e-12
1.2815043e-12
7.3840937e-13
1.5118737e-12
1.8675107e-12
1.1310322e-12
6.3847895e-13
1.2375399e-12
1.5271067e-12
9.7886034e-13
5.4297456e-13
1.0048325e-12
1.2377689e-12
8.322912e-13
4.5535661e-13
8.1250804e-13
9.9634313e-13
6.9676317e-13
3.7678084e-13
6.4983217e-13
7.9985492e-13
5.732518e-13
3.0316579e-13
5.1986541e-13
6.3747338e-13
4.655321e-13
2.4099896e-13
4.1660483e-13
5.0979934e-13
3.6865973e-13
1.863811e-13
3.3698879e-13
4.1170775e-13
2.8446133e-13
1.3786854e-13
2.7810518e-13
3.3879528e-13
2.1077147e-13
9.7684372e-14
2.3660264e-13
2.8858842e-13
1.4788337e-13
6.4527445e-14
2.0939668e-13
2.5609471e-13
9.7014769e-14
3.774251e-14
1.9366374e-13
2.3764498e-13
5.6187175e-14
1.6539529e-14
1.8695714e-13
2.3050664e-13
2.3673994e-14
-4.6686868e-17
1.8750374e-13
2.3200999e-13
-1.5528365e-15
-1.2054684e-14
1.9314023e-13
2.3990762e-13
-1.9954196e-14
-2.0401103e-14
2.0236733e-13
2.5211282e-13
-3.2607368e-14
-2.5468983e-14
2.1363092e-13
2.6700578e-13
-4.0362314e-14
-2.8412839e-14
2.2616339e-13
2.8318675e-13
-4.4593592e-14
-2.8999933e-14
2.3891754e-13
2.9988777e-13
-4.570023e-14
-2.7822049e-14
2.5113951e-13
3.1573041e-13
-4.3663552e-14
-2.5079298e-14
2.6212961e-13
3.2985239e-13
-3.9199813e-14
-2.1077478e-14
2.7135327e-13
3.4172936e-13
-3.2952741e-14
-1.5342614e-14
2.7803945e-13
3.5030314e-13
-2.3914522e-14
-8.5075385e-15
2.8174986e-13
3.5508245e-13
-1.3284882e-14
-1.8099055e-15
2.825963e-13
3.5621303e-13
-2.9384566e-15
3.2387178e-15
4.9205865e-15
-1.3828283e-12
1.3781301e-12
-3.6454418e-12
2.2544758e-12
-7.0257017e-12
3.3749408e-12
-1.175747e-11
4.7285938e-12
-1.8377624e-11
6.618619e-12
-2.7618735e-11
9.2408229e-12
-4.0247019e-11
1.262894e-11
-5.6928445e-11
1.6682782e-11
-7.8194729e-11
2.1268149e-11
-1.0424518e-10
2.6052661e-11
-1.3469773e-10
3.045496e-11
-1.6867856e-10
3.398331e-11
-2.0465643e-10
3.5980301e-11
-2.4433155e-10
3.9677408e-11
-2.853593e-10
4.1029804e-11
-3.2640241e-10
4.1044875e-11
-3.6635061e-10
3.9949636e-11
-4.04008e-10
3.7658464e-11
-4.384606e-10
3.4453336e-11
-4.6888528e-10
3.0425102e-11
-4.9457553e-10
2.5690415e-11
-5.1501806e-10
2.0442503e-11
-5.2981684e-10
1.4798625e-11
-5.385066e-10
8.6895592e-12
2.2428457e-12
-4.03201e-11
4.1702596e-11
-8.9921291e-11
5.1862409e-11
-1.4894787e-10
6.2409361e-11
-2.1854928e-10
7.4338257e-11
-3.0034452e-10
8.8422209e-11
-3.9594871e-10
1.0485325e-10
-5.0687905e-10
1.235673e-10
-6.3433965e-10
1.4415103e-10
-7.7720697e-10
1.6414265e-10
-9.3335412e-10
1.8220642e-10
-1.1002297e-09
1.9733656e-10
-1.2753819e-09
2.0914083e-10
-1.4568261e-09
2.1742916e-10
-1.6403755e-09
2.2323077e-10
-1.8251738e-09
2.2583149e-10
-2.0104287e-09
2.2630252e-10
-2.2051855e-09
2.3470849e-10
-2.3914046e-09
2.2387906e-10
-2.5612647e-09
2.0431433e-10
-2.7097033e-09
1.7886407e-10
-2.833131e-09
1.4911798e-10
-2.9287451e-09
1.1605606e-10
-2.9940885e-09
8.0140968e-11
-3.0253246e-09
3.9924399e-11
1.0195594e-11
-1.1790615e-10
1.5961781e-10
-2.5978546e-10
1.9375574e-10
-4.2770325e-10
2.3034339e-10
-6.2536328e-10
2.7201503e-10
-8.562126e-10
3.1928797e-10
-1.1229957e-09
3.7165195e-10
-1.4322304e-09
4.3281658e-10
-1.8493243e-09
5.61258e-10
-2.3034823e-09
6.1831216e-10
-2.7677364e-09
6.4647037e-10
-3.2271313e-09
6.5673985e-10
-3.6727001e-09
6.5471648e-10
-4.0981132e-09
6.4284783e-10
-4.4974181e-09
6.2253993e-10
-4.8650468e-09
5.9346322e-10
-5.1956227e-09
5.5688037e-10
-5.4747317e-09
5.1381841e-10
-5.7157571e-09
4.649045e-10
-5.9227601e-09
4.1131652e-10
-6.0979818e-09
3.5408415e-10
-6.243791e-09
2.9492496e-10
-6.3607964e-09
2.3305863e-10
-6.4490397e-09
1.6838087e-10
-6.5103714e-09
1.0125237e-10
3.3605174e-11
-3.6757191e-10
5.2720697e-10
-7.8154857e-10
6.0775815e-10
-1.258995e-09
7.0781788e-10
-2.0329391e-09
1.0459849e-09
-2.8779559e-09
1.164327e-09
-3.6892994e-09
1.1830139e-09
-4.4130163e-09
1.1565485e-09
-4.9520313e-09
1.100285e-09
-5.3573001e-09
1.0235907e-09
-5.6444713e-09
9.3364923e-10
-5.8264272e-09
8.387017e-10
-5.9148926e-09
7.4318644e-10
-5.919723e-09
6.4768166e-10
-5.8439307e-09
5.4675006e-10
-5.7036436e-09
4.5317761e-10
-5.5161747e-09
3.6941234e-10
-5.2986796e-09
2.9632363e-10
-5.0680866e-09
2.3431136e-10
-4.8402322e-09
1.8346145e-10
-4.6295967e-09
1.4344769e-10
-4.4496564e-09
1.149833e-10
-4.30645e-09
8.9850648e-11
-4.2053575e-09
6.7286462e-11
-4.1497011e-09
4.559396e-11
2.4815083e-11
-2.2181019e-09
2.7453363e-09
-3.9464669e-09
2.3361536e-09
-5.4183674e-09
2.1797478e-09
-6.0838471e-09
1.7114855e-09
-6.1402242e-09
1.2207212e-09
-5.6716431e-09
7.1444665e-10
-4.9079362e-09
3.9285294e-10
-3.9151245e-09
1.0748288e-10
-2.7573979e-09
-1.3412781e-10
-1.509787e-09
-3.1395502e-10
-2.6881083e-10
-4.0227027e-10
9.6819585e-10
-4.9382133e-10
2.2738841e-09
-6.580078e-10
3.6899888e-09
-8.6935454e-10
5.0739441e-09
-9.3077594e-10
6.3858756e-09
-9.4251558e-10
7.6030648e-09
-9.2086021e-10
8.7107084e-09
-8.7332504e-10
9.698556e-09
-8.0437741e-10
1.0558808e-08
-7.1679389e-10
1.1285557e-08
-6.1175393e-10
1.1867886e-08
-4.9246435e-10
1.2295947e-08
-3.6076002e-10
1.2560579e-08
-2.1902283e-10
-6.5564083e-11
1.0762444e-09
1.6691786e-09
4.3162682e-09
-9.03819e-10
8.0627952e-09
-1.5667093e-09
1.1761468e-08
-1.9871581e-09
1.547828e-08
-2.4960658e-09
1.9133038e-08
-2.940284e-09
2.2725789e-08
-3.1998663e-09
2.6097772e-08
-3.2644628e-09
2.9158017e-08
-3.1943304e-09
3.189745e-08
-3.0533424e-09
3.4368406e-08
-2.8731769e-09
3.6535092e-08
-2.6604546e-09
3.8319346e-08
-2.4422083e-09
3.9684258e-08
-2.2342114e-09
4.0771228e-08
-2.0176907e-09
4.1630716e-08
-1.8019488e-09
4.2302535e-08
-1.5926233e-09
4.2820059e-08
-1.3907937e-09
4.3212269e-08
-1.1965324e-09
4.3504534e-08
-1.0090034e-09
4.3719041e-08
-8.2620695e-10
4.3872616e-08
-6.459854e-10
4.3977359e-08
-4.6544918e-10
4.4040378e-08
-2.8198808e-10
-8.9583597e-11
1.4983842e-07
-2.315901e-09
1.483459e-07
5.8961863e-10
1.4565972e-07
1.1202674e-09
1.4210335e-07
1.5699007e-09
1.3749372e-07
2.1141839e-09
1.3197015e-07
2.5838058e-09
1.2589507e-07
2.8756566e-09
1.1965959e-07
2.9714017e-09
1.1353572e-07
2.9298793e-09
1.0767272e-07
2.809936e-09
1.021372e-07
2.6625939e-09
9.6982019e-08
2.4949527e-09
9.2235782e-08
2.3042264e-09
8.789884e-08
2.1029088e-09
8.3981727e-08
1.8995829e-09
8.0481285e-08
1.698639e-09
7.7386238e-08
1.5025575e-09
7.4682845e-08
1.3127219e-09
7.2356982e-08
1.1294443e-09
7.0395949e-08
9.5213453e-10
6.879031e-08
7.7953145e-10
6.7534753e-08
6.0966486e-10
6.6629748e-08
4.3964354e-10
6.6081062e-08
2.6678287e-10
8.5243235e-11
1.3387675e-08
-1.5803703e-09
1.5701276e-08
-1.7238675e-09
1.8310713e-08
-1.4890546e-09
2.1012297e-08
-1.1315724e-09
2.3801036e-08
-6.7444855e-10
2.670866e-08
-3.2371706e-10
2.9625534e-08
-4.1124933e-11
3.2390767e-08
2.0625825e-10
3.4965215e-08
3.5551904e-10
3.731367e-08
4.6156914e-10
3.9391388e-08
5.8496189e-10
4.101134e-08
8.7508608e-10
4.2296435e-08
1.0192138e-09
4.3316886e-08
1.0825394e-09
4.4115302e-08
1.1012458e-09
4.4727514e-08
1.086504e-09
4.5187522e-08
1.0426239e-09
4.5525034e-08
9.7528205e-10
4.5766211e-08
8.8833762e-10
4.5933867e-08
7.8454579e-10
4.6047448e-08
6.6601613e-10
4.6122903e-08
5.3427296e-10
4.6171521e-08
3.9108736e-10
4.6200437e-08
2.379265e-10
7.2183137e-11
-5.0537884e-09
-8.0401756e-10
-5.7376084e-09
-1.0400564e-09
-6.0907326e-09
-1.1359399e-09
-6.0405798e-09
-1.1817343e-09
-5.53557e-09
-1.1794659e-09
-4.7206196e-09
-1.1386729e-09
-3.6897966e-09
-1.0719508e-09
-2.4976395e-09
-9.8589895e-10
-1.2543097e-09
-8.8780829e-10
-7.3183896e-12
-7.8541728e-10
1.2637595e-09
-6.8610889e-10
2.7172214e-09
-5.7836643e-10
4.2103374e-09
-4.738905e-10
5.6704901e-09
-3.7759959e-10
7.0630086e-09
-2.9125708e-10
8.365172e-09
-2.1564218e-10
9.5785012e-09
-1.7068671e-10
1.0686176e-08
-1.3237269e-10
1.1675518e-08
-1.0098461e-10
1.2536467e-08
-7.6381559e-11
1.3260476e-08
-5.7971929e-11
1.383946e-08
-4.4688911e-11
1.4265665e-08
-3.5096121e-11
1.4530481e-08
-2.6868405e-11
-1.6604782e-11
-2.1930022e-09
-2.1090121e-10
-2.9701967e-09
-2.6286392e-10
-3.7846464e-09
-3.2149478e-10
-4.5795191e-09
-3.8686854e-10
-5.2961257e-09
-4.6286815e-10
-5.8331021e-09
-6.0170654e-10
-6.2462424e-09
-6.5882125e-10
-6.5412968e-09
-6.9085551e-10
-6.7230597e-09
-7.0605635e-10
-6.8004068e-09
-7.0808089e-10
-6.7861976e-09
-7.0032838e-10
-6.6804756e-09
-6.8409822e-10
-6.4948823e-09
-6.5949277e-10
-6.2451216e-09
-6.2736855e-10
-5.9474783e-09
-5.8890777e-10
-5.6180666e-09
-5.4506054e-10
-5.289772e-09
-4.9898733e-10
-4.971921e-09
-4.5022887e-10
-4.6742706e-09
-3.9863966e-10
-4.4064006e-09
-3.4425562e-10
-4.1772452e-09
-2.8713105e-10
-3.9946447e-09
-2.2729272e-10
-3.8649509e-09
-1.6479298e-10
-3.7919652e-09
-9.9857138e-11
-3.3757895e-11
-5.6380518e-10
-1.9564513e-11
-7.8755166e-10
-3.9114815e-11
-1.0494638e-09
-5.9580667e-11
-1.3512619e-09
-8.5069216e-11
-1.7026331e-09
-1.1149672e-10
-2.162183e-09
-1.4215747e-10
-2.6480459e-09
-1.7296048e-10
-3.1380697e-09
-2.00835e-10
-3.6197843e-09
-2.2434609e-10
-4.0847659e-09
-2.4310457e-10
-4.5277099e-09
-2.5739035e-10
-4.9428043e-09
-2.6901047e-10
-5.3197665e-09
-2.8253775e-10
-5.6390336e-09
-3.0810903e-10
-5.9209981e-09
-3.0695116e-10
-6.1687766e-09
-2.9729011e-10
-6.3866587e-09
-2.8111338e-10
-6.5772385e-09
-2.596573e-10
-6.742417e-09
-2.334695e-10
-6.8836901e-09
-2.0299083e-10
-7.0021637e-09
-1.6866564e-10
-7.0984056e-09
-1.3105904e-10
-7.1722466e-09
-9.0960153e-11
-7.2235525e-09
-4.8559265e-11
-1.1050355e-11
-1.2357728e-10
3.7470946e-11
-1.994538e-10
3.6763268e-11
-2.9204913e-10
3.3016129e-11
-4.049084e-10
2.7791304e-11
-5.38489e-10
2.2084864e-11
-6.9405489e-10
1.3409044e-11
-8.6879559e-10
1.7804042e-12
-1.0583263e-09
-1.1304562e-11
-1.2582884e-09
-2.4384634e-11
-1.4647227e-09
-3.6671414e-11
-1.6774166e-09
-4.469802e-11
-1.8953426e-09
-5.1086299e-11
-2.1219583e-09
-5.5924428e-11
-2.3708913e-09
-5.9178775e-11
-2.6171732e-09
-6.0672288e-11
-2.8540209e-09
-6.04459e-11
-3.0764951e-09
-5.864291e-11
-3.2807852e-09
-5.537129e-11
-3.4635445e-09
-5.0714388e-11
-3.621725e-09
-4.4814814e-11
-3.7525548e-09
-3.7840384e-11
-3.853632e-09
-2.9986427e-11
-3.9231168e-09
-2.1480034e-11
-3.959189e-09
-1.2491617e-11
-3.385839e-12
1.847833e-11
3.7352172e-11
1.3925629e-11
4.1316144e-11
2.9321877e-12
4.4009649e-11
-1.5876429e-11
4.6599914e-11
-4.1540818e-11
4.7749169e-11
-7.5077356e-11
4.6945418e-11
-1.1774484e-10
4.444764e-11
-1.6879606e-10
3.9746321e-11
-2.2627114e-10
3.3090034e-11
-2.8954452e-10
2.6601458e-11
-3.5578577e-10
2.1542631e-11
-4.2444569e-10
1.7572935e-11
-4.9430058e-10
1.392968e-11
-5.6427654e-10
1.0796309e-11
-6.331412e-10
8.1914027e-12
-6.99705e-10
6.1168357e-12
-7.6277012e-10
4.4210624e-12
-8.2122154e-10
3.0789003e-12
-8.7402442e-10
2.0872e-12
-9.2012452e-10
1.2839567e-12
-9.5856241e-10
5.9614726e-13
-9.8857963e-10
2.9430325e-14
-1.0096394e-09
-4.2161326e-13
-1.0215453e-09
-5.8700712e-13
-1.7024503e-13
5.2908479e-11
2.5608456e-11
6.663157e-11
2.7593064e-11
8.0798298e-11
2.9842873e-11
9.4513653e-11
3.2884481e-11
1.0653017e-10
3.5732562e-11
1.161069e-10
3.7368599e-11
1.230791e-10
3.7475363e-11
1.2714997e-10
3.5675379e-11
1.2779458e-10
3.2445369e-11
1.2543919e-10
2.8956796e-11
1.2157838e-10
2.5403394e-11
1.1677799e-10
2.2373282e-11
1.1176312e-10
1.8944517e-11
1.0709132e-10
1.5468083e-11
1.0291352e-10
1.236918e-11
9.9040153e-11
9.990198e-12
9.5685194e-11
7.7760262e-12
9.299801e-11
5.7660995e-12
9.0815771e-11
4.2694672e-12
8.9090179e-11
3.0095882e-12
8.7705874e-11
1.9805048e-12
8.6461954e-11
1.2734146e-12
8.5372403e-11
6.6801649e-13
8.4570532e-11
2.1495984e-13
-5.8317178e-14
4.0979782e-11
1.5144153e-11
5.2641759e-11
1.5931217e-11
6.5459949e-11
1.7024781e-11
7.9742635e-11
1.8601876e-11
9.5127387e-11
2.0347889e-11
1.1062284e-10
2.1873237e-11
1.2557124e-10
2.2527055e-11
1.3911499e-10
2.213175e-11
1.5028872e-10
2.1271776e-11
1.5994259e-10
1.9303072e-11
1.6830141e-10
1.7044749e-11
1.7578322e-10
1.4891658e-11
1.8200605e-10
1.2721891e-11
1.8706706e-10
1.0407287e-11
1.9137198e-10
8.0644966e-12
1.9550712e-10
5.8553061e-12
1.9945307e-10
3.8303306e-12
2.0340947e-10
1.8099725e-12
2.0719068e-10
4.8854645e-13
2.1056904e-10
-3.6848259e-13
2.133849e-10
-8.3506393e-13
2.1560452e-10
-9.459043e-13
2.1708315e-10
-8.1031188e-13
2.1783073e-10
-5.3232116e-13
-9.2096419e-14
1.8031149e-11
1.0882969e-11
2.2806626e-11
1.1155908e-11
2.8128759e-11
1.1702799e-11
3.4687119e-11
1.2043655e-11
4.2358915e-11
1.2676227e-11
5.0697694e-11
1.353459e-11
5.8915948e-11
1.4308937e-11
6.6233454e-11
1.4814385e-11
7.2562465e-11
1.4942911e-11
7.7370908e-11
1.4494779e-11
8.0913185e-11
1.3502625e-11
8.3500995e-11
1.2304006e-11
8.5232111e-11
1.0990935e-11
8.6011255e-11
9.6283042e-12
8.6140802e-11
7.935112e-12
8.5452996e-11
6.5432749e-12
8.4534055e-11
4.7494327e-12
8.3285448e-11
3.0587395e-12
8.2179974e-11
1.594179e-12
8.1200865e-11
6.1078283e-13
8.0392661e-11
-2.6707292e-14
7.9836941e-11
-3.9003672e-13
7.9556543e-11
-5.2977103e-13
7.9507674e-11
-4.8331432e-13
-3.0792075e-13
3.3109209e-12
1.0482539e-11
3.4866982e-12
1.0980267e-11
3.9784918e-12
1.1211132e-11
4.6661584e-12
1.1356105e-11
5.5189428e-12
1.1823551e-11
6.7049566e-12
1.2348678e-11
8.1202581e-12
1.2893732e-11
9.496701e-12
1.3438034e-11
1.0574353e-11
1.3865347e-11
1.093055e-11
1.4138665e-11
1.0157249e-11
1.4276003e-11
8.6176998e-12
1.3843625e-11
6.6380563e-12
1.2970641e-11
4.3375048e-12
1.1928911e-11
1.4216078e-12
1.0851056e-11
-1.8290481e-12
9.7939703e-12
-5.6688935e-12
8.5893099e-12
-9.8056084e-12
7.195479e-12
-1.3983485e-11
5.7720734e-12
-1.7822085e-11
4.4493938e-12
-2.1277654e-11
3.4288682e-12
-2.4184518e-11
2.5168266e-12
-2.6444838e-11
1.7305445e-12
-2.7986838e-11
1.0586791e-12
4.05805e-13
-1.2353681e-12
1.125083e-11
-1.8860378e-12
1.1631021e-11
-2.9361422e-12
1.2261312e-11
-4.6073297e-12
1.302736e-11
-5.6768499e-12
1.2893131e-11
-7.1911399e-12
1.386302e-11
-8.6471844e-12
1.434982e-11
-9.7129325e-12
1.4503818e-11
-1.0816349e-11
1.4968792e-11
-1.2069728e-11
1.5392066e-11
-1.3478621e-11
1.568491e-11
-1.5311335e-11
1.5676346e-11
-1.7712885e-11
1.5372189e-11
-2.0792792e-11
1.5008809e-11
-2.4237322e-11
1.4295569e-11
-2.7710581e-11
1.3267205e-11
-3.1195937e-11
1.2074634e-11
-3.4789921e-11
1.0789426e-11
-3.8388677e-11
9.3707857e-12
-4.1847679e-11
7.9083478e-12
-4.4894468e-11
6.4756052e-12
-4.7419182e-11
5.0414847e-12
-4.928588e-11
3.5971832e-12
-5.038302e-11
2.1557613e-12
7.3908306e-13
2.1168331e-13
1.139651e-11
-4.1997186e-13
1.2262719e-11
-1.114134e-12
1.2955514e-11
-1.667485e-12
1.3580746e-11
-2.937552e-12
1.4163227e-11
-3.7924003e-12
1.4717891e-11
-4.6926848e-12
1.5250122e-11
-5.8458905e-12
1.5657035e-11
-6.7406449e-12
1.5863551e-11
-7.5041317e-12
1.6155551e-11
-8.318883e-12
1.6499654e-11
-9.4152913e-12
1.6772741e-11
-1.0818092e-11
1.677497e-11
-1.2281818e-11
1.6472511e-11
-1.391213e-11
1.5925852e-11
-1.577995e-11
1.5134991e-11
-1.7810629e-11
1.4105275e-11
-1.9877874e-11
1.2856629e-11
-2.1929861e-11
1.1422727e-11
-2.3932723e-11
9.9111603e-12
-2.5747028e-11
8.2898594e-12
-2.7255113e-11
6.5495158e-12
-2.8395803e-11
4.7378176e-12
-2.9104443e-11
2.8643466e-12
9.1465431e-13
2.5749323e-12
1.0901396e-11
2.9369214e-12
1.1900748e-11
3.2088128e-12
1.2683639e-11
3.4299808e-12
1.3359593e-11
3.5977555e-12
1.3995465e-11
3.7843403e-12
1.4531317e-11
3.9330152e-12
1.5101454e-11
4.1309473e-12
1.5459107e-11
4.5208674e-12
1.5473631e-11
4.900222e-12
1.5776193e-11
5.1186479e-12
1.6281221e-11
5.2732645e-12
1.6618114e-11
5.4089621e-12
1.6639259e-11
5.471454e-12
1.6410003e-11
5.4224078e-12
1.5974879e-11
5.2317317e-12
1.5325645e-11
4.8896699e-12
1.4447312e-11
4.4131409e-12
1.3333131e-11
3.8257756e-12
1.2010063e-11
3.2228307e-12
1.0514074e-11
2.6405735e-12
8.8720844e-12
2.0962739e-12
7.0937815e-12
1.6292474e-12
5.2048082e-12
1.3310495e-12
3.16251e-12
9.0549002e-13
4.0728658e-12
9.8794838e-12
5.0916952e-12
1.0881916e-11
6.1050974e-12
1.1670237e-11
7.0613879e-12
1.2403304e-11
8.0521406e-12
1.3004714e-11
9.0557777e-12
1.3527681e-11
1.0161854e-11
1.3995378e-11
1.1242138e-11
1.4378822e-11
1.2390917e-11
1.432485e-11
1.3588448e-11
1.4578659e-11
1.4748254e-11
1.512141e-11
1.5948537e-11
1.5417825e-11
1.7196196e-11
1.5391592e-11
1.8327426e-11
1.5278763e-11
1.9369346e-11
1.4932947e-11
2.0305409e-11
1.438957e-11
2.1122418e-11
1.363029e-11
2.1783197e-11
1.2672338e-11
2.2287821e-11
1.1505423e-11
2.2657917e-11
1.0143961e-11
2.2926396e-11
8.6035877e-12
2.3125533e-11
6.8946264e-12
2.3306455e-11
5.0238649e-12
2.3422916e-11
3.0460305e-12
1.0678015e-12
4.3829925e-12
8.7056978e-12
5.5905651e-12
9.6743237e-12
6.8395369e-12
1.0421249e-11
8.1571434e-12
1.1085684e-11
9.5156795e-12
1.1646167e-11
1.0908268e-11
1.2135083e-11
1.2360588e-11
1.2543049e-11
1.3854724e-11
1.2884677e-11
1.5120672e-11
1.3058893e-11
1.6636696e-11
1.3062626e-11
1.8403835e-11
1.3354261e-11
2.007595e-11
1.3745702e-11
2.1675204e-11
1.3792328e-11
2.3320098e-11
1.3633859e-11
2.4941813e-11
1.3311222e-11
2.6495903e-11
1.283547e-11
2.7931729e-11
1.2194453e-11
2.9226711e-11
1.1377345e-11
3.0346937e-11
1.0385185e-11
3.1285061e-11
9.2058267e-12
3.2043189e-11
7.8454473e-12
3.2614587e-11
6.3232163e-12
3.3050178e-11
4.5882597e-12
3.329841e-11
2.7977878e-12
1.0122148e-12
3.9880385e-12
7.6050143e-12
5.1832437e-12
8.479084e-12
6.418131e-12
9.1863319e-12
7.7244069e-12
9.7793818e-12
9.080828e-12
1.0289722e-11
1.0489946e-11
1.0725943e-11
1.1944698e-11
1.1088277e-11
1.3446489e-11
1.1382868e-11
1.4888707e-11
1.1616658e-11
1.6217932e-11
1.1733384e-11
1.7920555e-11
1.1651621e-11
1.974765e-11
1.1918592e-11
2.153195e-11
1.2008013e-11
2.3290367e-11
1.1875428e-11
2.5058786e-11
1.1542789e-11
2.6798237e-11
1.1096006e-11
2.8426702e-11
1.0565975e-11
2.991157e-11
9.8924651e-12
3.1252923e-11
9.0438203e-12
3.2435394e-11
8.0233439e-12
3.3432205e-11
6.8486248e-12
3.4265501e-11
5.4899087e-12
3.4895976e-11
3.9577727e-12
3.5187768e-11
2.5059878e-12
9.1046004e-13
3.4269236e-12
6.6525122e-12
4.4757103e-12
7.4302527e-12
5.5891154e-12
8.0728864e-12
6.7485887e-12
8.6198716e-12
7.9735674e-12
9.0647098e-12
9.2790751e-12
9.4204042e-12
1.0625229e-11
9.7420942e-12
1.2006729e-11
1.0001341e-11
1.3415855e-11
1.0207507e-11
1.482576e-11
1.0323456e-11
1.6139906e-11
1.0337453e-11
1.7868163e-11
1.0190313e-11
1.9601569e-11
1.0274587e-11
2.1302489e-11
1.0174489e-11
2.3010738e-11
9.834522e-12
2.4677881e-11
9.4288468e-12
2.6262815e-11
8.9810259e-12
2.7706724e-11
8.4485412e-12
2.9033019e-11
7.7175124e-12
3.0213087e-11
6.8432629e-12
3.1229318e-11
5.8323817e-12
3.2018176e-11
4.7010392e-12
3.2502068e-11
3.47387e-12
3.2881981e-11
2.1260664e-12
6.8990645e-13
2.9746998e-12
5.8217472e-12
3.8885365e-12
6.5163664e-12
4.8603567e-12
7.1010203e-12
5.9140392e-12
7.5661467e-12
7.0273207e-12
7.9513891e-12
8.1717781e-12
8.2759104e-12
9.3860416e-12
8.5277972e-12
1.0651809e-11
8.7355421e-12
1.1972191e-11
8.8870964e-12
1.3320306e-11
8.9753141e-12
1.4681076e-11
8.9766568e-12
1.5981662e-11
8.8897033e-12
1.7584148e-11
8.6720796e-12
1.9176004e-11
8.5826132e-12
2.0691713e-11
8.3187939e-12
2.2214615e-11
7.9059276e-12
2.3663746e-11
7.5318789e-12
2.5042831e-11
7.0694415e-12
2.6307253e-11
6.4530762e-12
2.7430239e-11
5.7202652e-12
2.8379507e-11
4.883102e-12
2.9133257e-11
3.9472783e-12
2.9688935e-11
2.9181816e-12
3.002822e-11
1.7867738e-12
5.8405708e-13
2.6632863e-12
5.0742385e-12
3.4915845e-12
5.6880179e-12
4.3933559e-12
6.1992019e-12
5.3410446e-12
6.6184142e-12
6.3384998e-12
6.9538933e-12
7.396772e-12
7.2176006e-12
8.5011579e-12
7.4233763e-12
9.6708105e-12
7.5658571e-12
1.0896e-11
7.6618768e-12
1.2168556e-11
7.7027309e-12
1.3465574e-11
7.679613e-12
1.4770449e-11
7.5848048e-12
1.6038579e-11
7.403928e-12
1.7410673e-11
7.2104996e-12
1.8853442e-11
6.8760065e-12
2.0164445e-11
6.5949086e-12
2.1516322e-11
6.1799873e-12
2.2797022e-11
5.788728e-12
2.3964099e-11
5.2859865e-12
2.5001188e-11
4.6831655e-12
2.5889946e-11
3.9943343e-12
2.6610557e-11
3.2266586e-12
2.7132706e-11
2.3960235e-12
2.745021e-11
1.4692641e-12
4.3499831e-13
2.4321038e-12
4.3858255e-12
3.1986173e-12
4.9214562e-12
4.0325131e-12
5.3652608e-12
4.9262397e-12
5.7246454e-12
5.8642126e-12
6.0158811e-12
6.8520493e-12
6.2297276e-12
7.8884933e-12
6.3868988e-12
8.9673846e-12
6.4869348e-12
1.0100557e-11
6.5286754e-12
1.1276722e-11
6.52654e-12
1.2475491e-11
6.4808203e-12
1.3689488e-11
6.3707862e-12
1.4895406e-11
6.1979906e-12
1.6153051e-11
5.9528364e-12
1.737534e-11
5.6537019e-12
1.8571108e-11
5.3991266e-12
1.9708453e-11
5.0426298e-12
2.0868109e-11
4.6290611e-12
2.1911209e-11
4.2428766e-12
2.2841491e-11
3.7528745e-12
2.3650087e-11
3.1857301e-12
2.4319918e-11
2.55682e-12
2.4823798e-11
1.8921371e-12
2.5134592e-11
1.1584662e-12
4.0799047e-13
2.2276178e-12
3.7468084e-12
2.9411349e-12
4.2078943e-12
3.7195356e-12
4.586818e-12
4.5530704e-12
4.8910713e-12
5.4412087e-12
5.1277063e-12
6.368755e-12
5.3021475e-12
7.3378844e-12
5.4177383e-12
8.3403105e-12
5.4844802e-12
9.362233e-12
5.506727e-12
1.045172e-11
5.4370297e-12
1.1540602e-11
5.3919165e-12
1.2643881e-11
5.2674876e-12
1.3752344e-11
5.0895106e-12
1.4918063e-11
4.7871024e-12
1.6014382e-11
4.5573687e-12
1.7037795e-11
4.3757021e-12
1.8002176e-11
4.078238e-12
1.8910286e-11
3.7209422e-12
1.9835821e-11
3.3173335e-12
2.067774e-11
2.9109487e-12
2.1404404e-11
2.4590602e-12
2.2006136e-11
1.9550835e-12
2.2474224e-11
1.4240437e-12
2.2759338e-11
8.7334946e-13
3.0298986e-13
2.0127189e-12
3.1412918e-12
2.6755936e-12
3.5449793e-12
3.3972843e-12
3.8650887e-12
4.1720793e-12
4.1162403e-12
4.9933063e-12
4.3064459e-12
5.8510809e-12
4.444342e-12
6.7410542e-12
4.5277368e-12
7.6623586e-12
4.56315e-12
8.6171311e-12
4.5519312e-12
9.5533278e-12
4.5008119e-12
1.0531638e-11
4.4135869e-12
1.1517599e-11
4.2815101e-12
1.2504427e-11
4.1026674e-12
1.349011e-11
3.8014066e-12
1.4453509e-11
3.5939585e-12
1.5364594e-11
3.4646071e-12
1.6225514e-11
3.2173094e-12
1.7024704e-11
2.9217456e-12
1.7751366e-11
2.5906655e-12
1.8415456e-11
2.2468525e-12
1.8998897e-11