/*--------------------------------*- C++ -*----------------------------------*\
| =========                 |                                                 |
| \\      /  F ield         | OpenFOAM: The Open Source CFD Toolbox           |
|  \\    /   O peration     | Version:  4.0                                   |
|   \\  /    A nd           | Web:      www.OpenFOAM.org                      |
|    \\/     M anipulation  |                                                 |
\*---------------------------------------------------------------------------*/
FoamFile
{
    version     2.0;
    format      ascii;
    class       volScalarField;
    location    "0.02";
    object      k;
}
// * * * * * * * * * * * * * * * * * * * * * * * * * * * * * * * * * * * * * //

dimensions      [0 2 -2 0 0 0 0];

internalField   nonuniform List<scalar> 
1740
(
0.0089551025
0.0095047644
0.018602429
0.0092341469
0.0099780661
0.027431473
0.0096419964
0.010380112
0.034389679
0.0098855724
0.010647262
0.041489882
0.010083601
0.010944597
0.048033243
0.010260563
0.011577115
0.052892666
0.010321291
0.011917885
0.056991501
0.010378642
0.012513852
0.06017913
0.010387164
0.013163665
0.062546743
0.010303172
0.013361651
0.064405496
0.010254117
0.013383365
0.06617855
0.010191216
0.013337219
0.067371246
0.010030259
0.013304392
0.068160931
0.0098563287
0.013362235
0.070043294
0.0097460204
0.013906676
0.071766103
0.009659837
0.014412978
0.071700332
0.0095409136
0.014274614
0.072037098
0.0093790377
0.014133163
0.072688265
0.0092605511
0.014186278
0.073012519
0.00908929
0.014450677
0.073374556
0.0089725943
0.014735626
0.073523499
0.0088589032
0.014723011
0.073466818
0.0087646891
0.01451007
0.073519819
0.0087018274
0.014526717
0.073609835
0.0085941814
0.014667661
0.073699134
0.00851663
0.014592739
0.073555631
0.0083861454
0.014727703
0.073449859
0.0083158883
0.015029783
0.073197169
0.0083312371
0.015177263
0.072409962
0.0089389217
0.016161076
0.067443195
0.012735621
0.018119987
0.047874942
0.023108341
0.030210552
0.038977592
0.0074073432
0.0095120695
0.010847898
0.0016326652
0.0020148134
0.0022340749
0.00027347804
0.000337702
0.00037796446
4.2991136e-05
5.1533827e-05
5.743534e-05
1.368154e-05
1.4671135e-05
1.5475061e-05
1.1273646e-05
1.141691e-05
1.1604776e-05
1.184123e-05
1.1899926e-05
1.2018343e-05
1.2697634e-05
1.2746155e-05
1.2851564e-05
1.3581877e-05
1.3626592e-05
1.3724174e-05
1.4470933e-05
1.4512405e-05
1.4602869e-05
1.5362604e-05
1.540102e-05
1.5484804e-05
1.6256551e-05
1.6292101e-05
1.6369634e-05
1.7152653e-05
1.7185538e-05
1.7257258e-05
1.8050829e-05
1.8081251e-05
1.8147589e-05
1.8950963e-05
1.8979109e-05
1.9040467e-05
1.9852873e-05
1.9878914e-05
1.9935666e-05
2.0756304e-05
2.0780396e-05
2.0832881e-05
2.1660909e-05
2.1683194e-05
2.1731719e-05
2.2566233e-05
2.2586838e-05
2.263168e-05
2.347168e-05
2.3490721e-05
2.3532134e-05
2.4376511e-05
2.4394097e-05
2.4432311e-05
2.527983e-05
2.5296059e-05
2.5331291e-05
2.6180568e-05
2.6195532e-05
2.6227979e-05
2.7077471e-05
2.7091254e-05
2.7121101e-05
2.7969103e-05
2.7981783e-05
2.8009198e-05
2.8853837e-05
2.8865486e-05
2.8890628e-05
2.972985e-05
2.9740536e-05
2.9763552e-05
3.0595124e-05
3.0604911e-05
3.0625939e-05
3.1447452e-05
3.1456399e-05
3.147557e-05
3.2284441e-05
3.2292605e-05
3.2310042e-05
3.3103527e-05
3.3110961e-05
3.3126781e-05
3.3901986e-05
3.3908741e-05
3.3923053e-05
3.4676953e-05
3.4683077e-05
3.4695987e-05
3.5425443e-05
3.5430982e-05
3.5442592e-05
3.614438e-05
3.6149378e-05
3.6159785e-05
3.6830624e-05
3.6835124e-05
3.6844421e-05
3.7481009e-05
3.7485052e-05
3.7493329e-05
3.8092377e-05
3.8096003e-05
3.8103347e-05
3.866162e-05
3.8664865e-05
3.8671361e-05
3.9185716e-05
3.9188618e-05
3.9194348e-05
3.9661769e-05
3.9664363e-05
3.9669405e-05
4.0086948e-05
4.0089269e-05
4.0093697e-05
4.0457639e-05
4.0459716e-05
4.0463601e-05
4.0762686e-05
4.0764548e-05
4.0767954e-05
4.0939844e-05
4.0941509e-05
4.0944488e-05
4.0645914e-05
4.0647387e-05
4.0649964e-05
3.8305221e-05
3.8306456e-05
3.8308589e-05
2.8267423e-05
2.8268235e-05
2.8269658e-05
0.056495721
0.060934883
0.044486381
0.044282284
0.0099354114
0.0087927665
0.0020437455
0.0017652432
0.00034040341
0.00028133038
5.2189592e-05
4.3486208e-05
1.5050825e-05
1.424889e-05
1.1726549e-05
1.1862175e-05
1.2182976e-05
1.23982e-05
1.3009005e-05
1.3216248e-05
1.3870542e-05
1.4063023e-05
1.4738497e-05
1.4916732e-05
1.5610384e-05
1.5775382e-05
1.6485868e-05
1.6638611e-05
1.7364806e-05
1.7506201e-05
1.8247088e-05
1.8377969e-05
1.9132518e-05
1.9253655e-05
2.0020818e-05
2.0132923e-05
2.091164e-05
2.101537e-05
2.1804544e-05
2.1900495e-05
2.2698986e-05
2.2787697e-05
2.3594298e-05
2.3676265e-05
2.4489681e-05
2.4565354e-05
2.5384183e-05
2.5453977e-05
2.6276688e-05
2.6340987e-05
2.7165901e-05
2.7225061e-05
2.8050345e-05
2.81047e-05
2.8928357e-05
2.8978218e-05
2.9798084e-05
2.984374e-05
3.065748e-05
3.0699203e-05
3.1504316e-05
3.1542361e-05
3.2336177e-05
3.2370789e-05
3.315048e-05
3.3181888e-05
3.3944482e-05
3.3972905e-05
3.4715306e-05
3.4740952e-05
3.5459952e-05
3.5483022e-05
3.6175331e-05
3.6196018e-05
3.6858295e-05
3.6876783e-05
3.7505666e-05
3.7522135e-05
3.8114279e-05
3.8128901e-05
3.8681015e-05
3.8693958e-05
3.9202847e-05
3.9214273e-05
3.9676868e-05
3.9686935e-05
4.0100238e-05
4.0109099e-05
4.0469329e-05
4.0477129e-05
4.0772969e-05
4.0779846e-05
4.0948878e-05
4.0954967e-05
4.0653792e-05
4.0659227e-05
3.831183e-05
3.8316687e-05
2.8271917e-05
2.8275647e-05
1.849479e-06
2.0133588e-06
5.7228945e-06
8.0075048e-06
9.0238904e-06
9.6681242e-06
1.0248415e-05
1.0831962e-05
1.1425148e-05
1.2020108e-05
1.2607245e-05
1.3177998e-05
1.3725177e-05
1.424299e-05
1.472696e-05
1.5173685e-05
1.5580604e-05
1.5945812e-05
1.626784e-05
1.6544916e-05
1.6770043e-05
1.6900095e-05
1.6697159e-05
1.5150857e-05
1.0111551e-05
2.9545078e-07
4.0354362e-06
1.1021415e-05
1.3645115e-05
1.3608885e-05
1.3043364e-05
1.2602522e-05
1.2409421e-05
1.2449786e-05
1.2669247e-05
1.3012094e-05
1.3432253e-05
1.3892478e-05
1.4363239e-05
1.4823251e-05
1.5258346e-05
1.5659675e-05
1.6021971e-05
1.634212e-05
1.6617485e-05
1.6839681e-05
1.6959482e-05
1.6712816e-05
1.4963127e-05
8.2618292e-06
1.6404644e-06
2.6295898e-05
6.1911581e-05
6.7840564e-05
5.8273575e-05
4.6356383e-05
3.6171985e-05
2.8479703e-05
2.3049809e-05
1.9419685e-05
1.7143436e-05
1.5853641e-05
1.5263289e-05
1.5128886e-05
1.5262082e-05
1.55317e-05
1.585405e-05
1.6180187e-05
1.6483833e-05
1.675104e-05
1.6967795e-05
1.7079341e-05
1.6807514e-05
1.4990503e-05
8.2902074e-06
1.7829901e-05
0.00022010045
0.0004633112
0.00049319222
0.00041799385
0.00032376036
0.00023982291
0.00017294892
0.00012239235
8.5467866e-05
5.9403931e-05
4.1584359e-05
3.0112889e-05
2.3271879e-05
1.9538668e-05
1.7734115e-05
1.7027345e-05
1.6881672e-05
1.6986271e-05
1.7176055e-05
1.7368217e-05
1.7497523e-05
1.7355595e-05
1.5980039e-05
9.9639582e-06
0.00021573641
0.001657995
0.0029044491
0.0030295124
0.0026513554
0.0021457978
0.0016620486
0.0012481332
0.00091131968
0.00064540919
0.00044254452
0.00029195667
0.00018470328
0.0001133417
6.9036798e-05
4.348915e-05
2.9956019e-05
2.3416854e-05
2.0576916e-05
1.9503978e-05
1.9173422e-05
1.9106642e-05
1.9069817e-05
1.884836e-05
1.7980209e-05
0.0023076926
0.0098412512
0.014747365
0.01523058
0.013580078
0.011270801
0.0090153047
0.0070438654
0.0053916933
0.0040271753
0.0029141494
0.0020280551
0.0013488939
0.00085212428
0.00050858636
0.00028651504
0.00015403707
8.187206e-05
4.624632e-05
3.0355271e-05
2.3922262e-05
2.1528902e-05
2.0661615e-05
2.0337666e-05
2.0058672e-05
0.044815907
0.033831076
0.026230122
0.020894609
0.016970039
0.013929917
0.011471136
0.0094260246
0.0076974753
0.0062217171
0.0049541623
0.0038632607
0.0029266482
0.0021301426
0.0014684517
0.0009436591
0.00055767103
0.00030149008
0.00015098837
7.3490708e-05
3.8603715e-05
2.4873819e-05
2.0158881e-05
1.8784775e-05
1.8444585e-05
0.034854074
0.028177848
0.024137193
0.020438953
0.016719379
0.013253716
0.010296656
0.0078897835
0.0059631292
0.004415065
0.0031778324
0.0022068564
0.0014672389
0.00092680661
0.00055254628
0.00031028415
0.00016583132
8.7335277e-05
4.8676442e-05
3.1454926e-05
2.449043e-05
2.1905268e-05
2.0977143e-05
2.0637647e-05
2.0358271e-05
0.007359403
0.0061246991
0.0051423549
0.0042420547
0.0033841732
0.0026164177
0.0019729122
0.0014570586
0.0010538962
0.0007445249
0.0005073405
0.0003316309
0.00020879921
0.0001276788
7.7439963e-05
4.8342084e-05
3.281229e-05
2.5278526e-05
2.1986341e-05
2.070865e-05
2.027963e-05
2.0158869e-05
2.0084573e-05
1.9828223e-05
1.8894947e-05
0.0014308406
0.0011230239
0.00088414615
0.00068902648
0.00052347804
0.00038732723
0.00028046926
0.00019995705
0.00014084903
9.8054004e-05
6.7590379e-05
4.696837e-05
3.381303e-05
2.5950904e-05
2.1612321e-05
1.945438e-05
1.85518e-05
1.8300558e-05
1.8343664e-05
1.8492499e-05
1.8653363e-05
1.8753519e-05
1.8565729e-05
1.7056112e-05
1.0605319e-05
0.00021689623
0.00016285637
0.00012455557
9.6071813e-05
7.3659754e-05
5.6197651e-05
4.3107344e-05
3.3704928e-05
2.7169201e-05
2.275939e-05
1.99353e-05
1.8290627e-05
1.7464869e-05
1.7166901e-05
1.7181763e-05
1.7362206e-05
1.7614651e-05
1.7883629e-05
1.813913e-05
1.8365131e-05
1.8544688e-05
1.861166e-05
1.8242785e-05
1.6147545e-05
8.8272592e-06
3.4619697e-05
2.7890335e-05
2.3589522e-05
2.0699861e-05
1.8632676e-05
1.7184262e-05
1.6254478e-05
1.5745014e-05
1.5550003e-05
1.5579834e-05
1.5766857e-05
1.6056379e-05
1.6403239e-05
1.6773474e-05
1.7143435e-05
1.7497641e-05
1.7826476e-05
1.8124243e-05
1.8387594e-05
1.8613499e-05
1.8791568e-05
1.8861722e-05
1.8511569e-05
1.6446012e-05
8.910742e-06
1.3518594e-05
1.3125471e-05
1.3054754e-05
1.3171245e-05
1.3398079e-05
1.3703872e-05
1.4069988e-05
1.447922e-05
1.4915126e-05
1.5363958e-05
1.5814593e-05
1.6257807e-05
1.6686116e-05
1.7093716e-05
1.7476227e-05
1.7830366e-05
1.8153667e-05
1.8444272e-05
1.8700712e-05
1.8921072e-05
1.9097356e-05
1.9180087e-05
1.8896324e-05
1.7040401e-05
9.7377955e-06
1.2058054e-05
1.2335225e-05
1.2681907e-05
1.3076255e-05
1.3502993e-05
1.3951813e-05
1.441434e-05
1.4883105e-05
1.535145e-05
1.5813632e-05
1.6264643e-05
1.6700139e-05
1.711636e-05
1.7510074e-05
1.7878516e-05
1.8219333e-05
1.8530548e-05
1.8810524e-05
1.9057889e-05
1.9270907e-05
1.9442796e-05
1.9532076e-05
1.931874e-05
1.7981088e-05
1.4337043e-05
1.2665017e-05
1.2980535e-05
1.3337577e-05
1.3727572e-05
1.4142396e-05
1.4574585e-05
1.5017335e-05
1.5464481e-05
1.5910461e-05
1.635033e-05
1.6779676e-05
1.7194585e-05
1.7591574e-05
1.7967572e-05
1.831989e-05
1.8646193e-05
1.8944492e-05
1.9213126e-05
1.9450693e-05
1.965551e-05
1.9821639e-05
1.9915244e-05
1.9773057e-05
1.8880535e-05
1.6826942e-05
1.3470125e-05
1.376621e-05
1.4098801e-05
1.4461559e-05
1.4847931e-05
1.5251451e-05
1.566599e-05
1.6085867e-05
1.6505856e-05
1.6921185e-05
1.7327557e-05
1.772111e-05
1.809838e-05
1.8456293e-05
1.879214e-05
1.9103561e-05
1.9388538e-05
1.9645379e-05
1.9872655e-05
2.0068725e-05
2.0228361e-05
2.0323976e-05
2.0233064e-05
1.9616506e-05
1.8320321e-05
1.4298337e-05
1.4572397e-05
1.488028e-05
1.5216552e-05
1.5575518e-05
1.5951455e-05
1.6338805e-05
1.6732286e-05
1.7126958e-05
1.7518247e-05
1.790198e-05
1.8274367e-05
1.8631979e-05
1.8971762e-05
1.9291009e-05
1.9587355e-05
1.985877e-05
2.0103544e-05
2.0320235e-05
2.0507243e-05
2.0659956e-05
2.0755628e-05
2.0698633e-05
2.0229202e-05
1.8956121e-05
1.5134526e-05
1.53882e-05
1.5673416e-05
1.5985387e-05
1.6319066e-05
1.666931e-05
1.7031071e-05
1.7399465e-05
1.7769853e-05
1.8137888e-05
1.8499554e-05
1.8851166e-05
1.9189375e-05
1.9511171e-05
1.9813877e-05
2.0095142e-05
2.0352941e-05
2.0585562e-05
2.079156e-05
2.0969378e-05
2.1114896e-05
2.120855e-05
2.1163333e-05
2.0614647e-05
1.7119925e-05
1.5977006e-05
1.621194e-05
1.6476339e-05
1.6765933e-05
1.7076203e-05
1.7402509e-05
1.7740233e-05
1.8084859e-05
1.8432056e-05
1.877772e-05
1.9118016e-05
1.9449392e-05
1.97686e-05
2.0072702e-05
2.0359072e-05
2.0625394e-05
2.0869663e-05
2.109018e-05
2.1285506e-05
2.1454122e-05
2.1592212e-05
2.1681044e-05
2.1620498e-05
2.08254e-05
1.5501497e-05
1.6825318e-05
1.7042987e-05
1.7288169e-05
1.7557054e-05
1.7845567e-05
1.8149497e-05
1.8464621e-05
1.8786757e-05
1.9111863e-05
1.9436078e-05
1.9755765e-05
2.0067528e-05
2.0368237e-05
2.0655046e-05
2.0925395e-05
2.1177018e-05
2.1407946e-05
2.1616501e-05
2.1801257e-05
2.1960726e-05
2.2091151e-05
2.2172394e-05
2.2079167e-05
2.1017466e-05
1.4511424e-05
1.7679129e-05
1.7880854e-05
1.8108261e-05
1.8357923e-05
1.862616e-05
1.8909143e-05
1.9202992e-05
1.9503854e-05
1.9807956e-05
2.0111674e-05
2.0411565e-05
2.07044e-05
2.0987183e-05
2.1257171e-05
2.1511886e-05
2.1749125e-05
2.1966965e-05
2.216376e-05
2.2338105e-05
2.2488525e-05
2.2611119e-05
2.2682932e-05
2.255059e-05
2.1269015e-05
1.4327477e-05
1.8538136e-05
1.8725102e-05
1.893604e-05
1.9167837e-05
1.9417156e-05
1.9680513e-05
1.9954343e-05
2.0235087e-05
2.0519242e-05
2.080341e-05
2.108434e-05
2.1358968e-05
2.1624439e-05
2.1878125e-05
2.2117641e-05
2.2340859e-05
2.254591e-05
2.2731188e-05
2.2895317e-05
2.3036812e-05
2.3151393e-05
2.3212038e-05
2.3035605e-05
2.1554349e-05
1.4465698e-05
1.9401989e-05
1.9575265e-05
1.9770906e-05
1.9986079e-05
2.0217743e-05
2.0462706e-05
2.0717699e-05
2.0979439e-05
2.124467e-05
2.1510212e-05
2.1773011e-05
2.2030169e-05
2.2278972e-05
2.2516914e-05
2.274171e-05
2.2951312e-05
2.3143913e-05
2.3317959e-05
2.3472104e-05
2.360485e-05
2.3711511e-05
2.3761425e-05
2.3550323e-05
2.1959312e-05
1.4967529e-05
2.0270273e-05
2.0430826e-05
2.0612234e-05
2.0811911e-05
2.1027076e-05
2.1254803e-05
2.1492082e-05
2.1735879e-05
2.1983176e-05
2.2231006e-05
2.2476503e-05
2.2716935e-05
2.2949735e-05
2.3172516e-05
2.3383099e-05
2.3579521e-05
2.3760047e-05
2.3923175e-05
2.4067594e-05
2.4191794e-05
2.4290686e-05
2.4330583e-05
2.4094939e-05
2.248275e-05
1.5974873e-05
2.1142516e-05
2.129123e-05
2.1459377e-05
2.1644587e-05
2.1844313e-05
2.2055875e-05
2.2276498e-05
2.2503371e-05
2.2733693e-05
2.2964702e-05
2.3193717e-05
2.341817e-05
2.3635635e-05
2.3843852e-05
2.4040749e-05
2.4224451e-05
2.4393297e-05
2.4545843e-05
2.4680822e-05
2.4796717e-05
2.4888129e-05
2.4919206e-05
2.4665645e-05
2.3034743e-05
1.6695591e-05
2.2018158e-05
2.2155846e-05
2.2311619e-05
2.2483311e-05
2.2668582e-05
2.2864971e-05
2.3069923e-05
2.3280836e-05
2.3495106e-05
2.3710162e-05
2.3923501e-05
2.4132713e-05
2.4335517e-05
2.4529776e-05
2.4713525e-05
2.4884983e-05
2.5042564e-05
2.5184887e-05
2.5310728e-05
2.5418579e-05
2.5502851e-05
2.5526531e-05
2.5262619e-05
2.3630973e-05
1.7366624e-05
2.2896533e-05
2.3023946e-05
2.3168165e-05
2.332721e-05
2.3498938e-05
2.3681085e-05
2.3871291e-05
2.4067152e-05
2.4266251e-05
2.4466194e-05
2.4664644e-05
2.4859347e-05
2.5048159e-05
2.5229068e-05
2.5400217e-05
2.5559916e-05
2.570666e-05
2.5839128e-05
2.5956146e-05
2.605621e-05
2.6133508e-05
2.6149833e-05
2.5876023e-05
2.4248685e-05
1.8176673e-05
2.3776869e-05
2.3894696e-05
2.402812e-05
2.4175329e-05
2.4334362e-05
2.4503133e-05
2.4679465e-05
2.4861135e-05
2.50459e-05
2.5231536e-05
2.5415861e-05
2.559677e-05
2.5772253e-05
2.5940418e-05
2.6099514e-05
2.6247947e-05
2.6384287e-05
2.650728e-05
2.6615801e-05
2.6708351e-05
2.6778932e-05
2.6788551e-05
2.6508477e-05
2.4895329e-05
1.8882267e-05
2.4658273e-05
2.4767145e-05
2.4890477e-05
2.5026607e-05
2.5173735e-05
2.5329941e-05
2.5493219e-05
2.5661511e-05
2.583274e-05
2.6004838e-05
2.6175776e-05
2.6343586e-05
2.6506387e-05
2.6662406e-05
2.6809996e-05
2.6947654e-05
2.7074029e-05
2.7187934e-05
2.7288292e-05
2.7373623e-05
2.743784e-05
2.7441748e-05
2.7157969e-05
2.5541833e-05
1.9255937e-05
2.5539714e-05
2.5640211e-05
2.5754101e-05
2.5879856e-05
2.6015819e-05
2.6160223e-05
2.6311216e-05
2.64669e-05
2.6625353e-05
2.6784652e-05
2.6942911e-05
2.7098294e-05
2.7249045e-05
2.7393504e-05
2.7530127e-05
2.7657498e-05
2.7774347e-05
2.7879551e-05
2.7972083e-05
2.8050478e-05
2.8108527e-05
2.8106532e-05
2.7816795e-05
2.6193932e-05
1.9756279e-05
2.6420007e-05
2.6512669e-05
2.6617717e-05
2.6733748e-05
2.6859236e-05
2.6992554e-05
2.7131995e-05
2.7275802e-05
2.74222e-05
2.7569406e-05
2.7715667e-05
2.7859274e-05
2.799859e-05
2.8132062e-05
2.8258246e-05
2.8375814e-05
2.8483572e-05
2.8580461e-05
2.8665504e-05
2.8737249e-05
2.8789361e-05
2.8781624e-05
2.8485966e-05
2.6857219e-05
2.0353392e-05
2.7297799e-05
2.7383126e-05
2.7479892e-05
2.7586807e-05
2.7702466e-05
2.7825371e-05
2.7953947e-05
2.8086573e-05
2.8221605e-05
2.8357393e-05
2.849231e-05
2.862477e-05
2.8753246e-05
2.8876292e-05
2.8992556e-05
2.9100796e-05
2.9199893e-05
2.928885e-05
2.9366738e-05
2.9432107e-05
2.9478373e-05
2.9463868e-05
2.9154158e-05
2.7479584e-05
2.0794932e-05
2.8171559e-05
2.8250019e-05
2.8339026e-05
2.8437394e-05
2.8543831e-05
2.8656955e-05
2.8775317e-05
2.889742e-05
2.9021744e-05
2.9146762e-05
2.9270966e-05
2.9392884e-05
2.9511098e-05
2.962426e-05
2.9731111e-05
2.983049e-05
2.9921348e-05
3.0002752e-05
3.0073819e-05
3.0133094e-05
3.0173695e-05
3.0151913e-05
2.9821993e-05
2.8060511e-05
2.1066079e-05
2.9039575e-05
2.9111606e-05
2.9193343e-05
2.9283699e-05
2.9381484e-05
2.9485425e-05
2.9594188e-05
2.9706393e-05
2.9820635e-05
2.9935504e-05
3.0049603e-05
3.0161565e-05
3.0270075e-05
3.0373881e-05
3.0471811e-05
3.0562784e-05
3.0645819e-05
3.0720043e-05
3.0784619e-05
3.08381e-05
3.0873393e-05
3.0845162e-05
3.0497782e-05
2.865988e-05
2.1400285e-05
2.9899949e-05
2.9965961e-05
3.004089e-05
3.0123736e-05
3.0213407e-05
3.0308733e-05
3.0408482e-05
3.0511383e-05
3.0616141e-05
3.0721453e-05
3.0826026e-05
3.0928597e-05
3.1027945e-05
3.1122909e-05
3.1212399e-05
3.1295409e-05
3.1371027e-05
3.1438436e-05
3.1496845e-05
3.1544818e-05
3.1575057e-05
3.1540674e-05
3.1176971e-05
2.9271896e-05
2.1790906e-05
3.0750597e-05
3.0810978e-05
3.0879533e-05
3.0955347e-05
3.1037414e-05
3.1124659e-05
3.121595e-05
3.1310114e-05
3.1405958e-05
3.150228e-05
3.1597887e-05
3.1691609e-05
3.1782318e-05
3.1868936e-05
3.1950453e-05
3.2025935e-05
3.2094532e-05
3.2155485e-05
3.2208045e-05
3.2250783e-05
3.2276199e-05
3.2235946e-05
3.1857449e-05
2.9896964e-05
2.2304057e-05
3.1589254e-05
3.1644369e-05
3.1706963e-05
3.1776195e-05
3.1851142e-05
3.1930817e-05
3.2014177e-05
3.2100146e-05
3.2187622e-05
3.2275499e-05
3.2362676e-05
3.2448073e-05
3.2530647e-05
3.26094e-05
3.2683398e-05
3.2751773e-05
3.2813738e-05
3.2868586e-05
3.2915609e-05
3.2953383e-05
3.2974187e-05
3.2928034e-05
3.253297e-05
3.0502358e-05
2.2592118e-05
3.2413476e-05
3.2463671e-05
3.2520694e-05
3.2583773e-05
3.2652061e-05
3.2724651e-05
3.2800587e-05
3.2878877e-05
3.2958509e-05
3.3038464e-05
3.3117727e-05
3.3195304e-05
3.327023e-05
3.3341585e-05
3.3408503e-05
3.3470183e-05
3.3525894e-05
3.3574979e-05
3.3616773e-05
3.3649854e-05
3.3666288e-05
3.3614422e-05
3.3202683e-05
3.1103441e-05
2.2973399e-05
3.3220651e-05
3.3266256e-05
3.3318079e-05
3.3375413e-05
3.3437481e-05
3.3503451e-05
3.3572445e-05
3.3643553e-05
3.3715844e-05
3.378838e-05
3.3860229e-05
3.3930472e-05
3.3998223e-05
3.4062631e-05
3.4122897e-05
3.4178281e-05
3.4228107e-05
3.4271765e-05
3.4308628e-05
3.4337274e-05
3.4349537e-05
3.4292099e-05
3.3864473e-05
3.1704363e-05
2.3388922e-05
3.4008013e-05
3.4049341e-05
3.4096318e-05
3.4148297e-05
3.4204566e-05
3.426436e-05
3.4326877e-05
3.4391279e-05
3.4456712e-05
3.4522315e-05
3.4587229e-05
3.4650612e-05
3.4711644e-05
3.4769544e-05
3.4823574e-05
3.4873052e-05
3.4917353e-05
3.4955912e-05
3.4988136e-05
3.50126e-05
3.5020874e-05
3.4957794e-05
3.4513798e-05
3.2300016e-05
2.3868615e-05
3.4772661e-05
3.481001e-05
3.485248e-05
3.4899476e-05
3.4950348e-05
3.5004395e-05
3.5060879e-05
3.5119033e-05
3.5178075e-05
3.5237213e-05
3.5295659e-05
3.5352637e-05
3.5407395e-05
3.5459213e-05
3.5507413e-05
3.5551363e-05
3.559049e-05
3.5624271e-05
3.5652144e-05
3.5672676e-05
3.5677169e-05
3.5608626e-05
3.5148097e-05
3.2872261e-05
2.42611e-05
3.5511577e-05
3.5545235e-05
3.5583522e-05
3.5625894e-05
3.5671756e-05
3.5720465e-05
3.5771345e-05
3.5823695e-05
3.5876796e-05
3.5929922e-05
3.5982349e-05
3.6033366e-05
3.6082281e-05
3.6128432e-05
3.6171195e-05
3.620999e-05
3.6244287e-05
3.6273603e-05
3.6297408e-05
3.6314263e-05
3.631525e-05
3.624183e-05
3.576691e-05
3.3434745e-05
2.46455e-05
3.6221654e-05
3.6251897e-05
3.6286314e-05
3.6324407e-05
3.6365631e-05
3.6409399e-05
3.6455091e-05
3.6502064e-05
3.6549659e-05
3.6597212e-05
3.6644057e-05
3.6689543e-05
3.6733034e-05
3.6773923e-05
3.6811634e-05
3.6845635e-05
3.6875438e-05
3.6900598e-05
3.6920612e-05
3.6934045e-05
3.6931803e-05
3.6854093e-05
3.6366951e-05
3.3985808e-05
2.5032696e-05
3.6899728e-05
3.6926821e-05
3.6957669e-05
3.6991816e-05
3.7028763e-05
3.7067972e-05
3.7108877e-05
3.7150887e-05
3.71934e-05
3.7235806e-05
3.7277495e-05
3.731787e-05
3.7356346e-05
3.7392365e-05
3.7425401e-05
3.7454963e-05
3.7480602e-05
3.7501907e-05
3.7518404e-05
3.7528663e-05
3.7523465e-05
3.7442057e-05
3.6944969e-05
3.4523417e-05
2.5429267e-05
3.7542608e-05
3.7566809e-05
3.7594379e-05
3.7624902e-05
3.765792e-05
3.7692942e-05
3.7729448e-05
3.7766898e-05
3.780474e-05
3.7842413e-05
3.7879361e-05
3.7915032e-05
3.7948893e-05
3.798043e-05
3.8009158e-05
3.8034628e-05
3.8056426e-05
3.8074172e-05
3.808742e-05
3.8094743e-05
3.8086804e-05
3.8001994e-05
3.7496277e-05
3.5045213e-05
2.5882425e-05
3.8147114e-05
3.8168672e-05
3.8193247e-05
3.8220458e-05
3.8249886e-05
3.8281081e-05
3.8313567e-05
3.8346848e-05
3.8380419e-05
3.8413765e-05
3.8446374e-05
3.8477742e-05
3.8507378e-05
3.853481e-05
3.8559592e-05
3.8581311e-05
3.8599585e-05
3.8614065e-05
3.8624325e-05
3.8628932e-05
3.8618377e-05
3.8529917e-05
3.8013814e-05
3.5523309e-05
2.6233078e-05
3.8710118e-05
3.8729274e-05
3.8751127e-05
3.877533e-05
3.8801498e-05
3.8829218e-05
3.8858052e-05
3.8887547e-05
3.8917237e-05
3.894665e-05
3.8975317e-05
3.9002773e-05
3.9028567e-05
3.9052264e-05
3.9073455e-05
3.9091758e-05
3.9106822e-05
3.9118323e-05
3.9125854e-05
3.9127974e-05
3.9114998e-05
3.9023086e-05
3.8497153e-05
3.5969076e-05
2.6549966e-05
3.9228578e-05
3.9245568e-05
3.9264967e-05
3.9286458e-05
3.9309687e-05
3.9334273e-05
3.9359816e-05
3.9385898e-05
3.941209e-05
3.9437959e-05
3.9463071e-05
3.9486999e-05
3.9509326e-05
3.9529654e-05
3.9547602e-05
3.956282e-05
3.9574982e-05
3.9583787e-05
3.9588846e-05
3.9588707e-05
3.95735e-05
3.9478281e-05
3.8942545e-05
3.6373626e-05
2.6790725e-05
3.9699581e-05
3.9714632e-05
3.9731837e-05
3.9750905e-05
3.9771508e-05
3.9793297e-05
3.9815902e-05
3.9838937e-05
3.9862006e-05
3.988471e-05
3.9906648e-05
3.9927425e-05
3.9946657e-05
3.9963973e-05
3.9979024e-05
3.9991482e-05
4.0001048e-05
4.0007439e-05
4.001028e-05
4.0008094e-05
3.9990756e-05
3.9891758e-05
3.9343487e-05
3.6729841e-05
2.7021049e-05
4.0120273e-05
4.0133608e-05
4.0148874e-05
4.0165801e-05
4.0184087e-05
4.0203407e-05
4.0223419e-05
4.0243766e-05
4.0264082e-05
4.0283995e-05
4.0303133e-05
4.0321131e-05
4.033763e-05
4.0352288e-05
4.036478e-05
4.0374803e-05
4.0382076e-05
4.0386333e-05
4.0387211e-05
4.0383216e-05
4.0364036e-05
4.026207e-05
3.97049e-05
3.7060694e-05
2.7260869e-05
4.0487014e-05
4.0498852e-05
4.0512433e-05
4.0527497e-05
4.0543767e-05
4.056094e-05
4.0578696e-05
4.0596708e-05
4.0614632e-05
4.0632122e-05
4.0648829e-05
4.0664409e-05
4.0678525e-05
4.0690864e-05
4.0701131e-05
4.0709037e-05
4.0714316e-05
4.0716716e-05
4.0715887e-05
4.0710329e-05
4.068963e-05
4.0585534e-05
4.0022233e-05
3.735427e-05
2.747418e-05
4.0788625e-05
4.0799199e-05
4.0811378e-05
4.082487e-05
4.0839421e-05
4.0854748e-05
4.087055e-05
4.088656e-05
4.0902449e-05
4.0917885e-05
4.0932516e-05
4.0945998e-05
4.0958006e-05
4.0968293e-05
4.0976637e-05
4.0982733e-05
4.0986304e-05
4.0987094e-05
4.0984806e-05
4.0977925e-05
4.0955942e-05
4.0849994e-05
4.0281004e-05
3.7590365e-05
2.7637645e-05
4.0962847e-05
4.0972511e-05
4.0983805e-05
4.0996112e-05
4.1009228e-05
4.1022895e-05
4.1036798e-05
4.1051033e-05
4.1065237e-05
4.1079078e-05
4.1091934e-05
4.1103363e-05
4.1113111e-05
4.1121196e-05
4.1127834e-05
4.1132379e-05
4.1134419e-05
4.113363e-05
4.1130051e-05
4.112209e-05
4.1099034e-05
4.0991239e-05
4.0416089e-05
3.7703704e-05
2.7698067e-05
4.0666554e-05
4.0676209e-05
4.0688191e-05
4.0700127e-05
4.0712004e-05
4.0723551e-05
4.0734256e-05
4.0746368e-05
4.0759363e-05
4.0773096e-05
4.0784301e-05
4.0791899e-05
4.079721e-05
4.0800813e-05
4.0806219e-05
4.0809415e-05
4.0809568e-05
4.080608e-05
4.0800942e-05
4.0792203e-05
4.0768617e-05
4.0660265e-05
4.0084528e-05
3.7377567e-05
2.7428946e-05
3.8324047e-05
3.833585e-05
3.8352593e-05
3.8365853e-05
3.8376172e-05
3.8382914e-05
3.8384626e-05
3.8392432e-05
3.8405964e-05
3.8427963e-05
3.8439642e-05
3.8431796e-05
3.8423542e-05
3.8411922e-05
3.8421373e-05
3.8424354e-05
3.8420829e-05
3.8410137e-05
3.8401942e-05
3.8395038e-05
3.8372708e-05
3.8270548e-05
3.7728618e-05
3.5186621e-05
2.5855463e-05
2.8282583e-05
2.8296855e-05
2.8319727e-05
2.8333952e-05
2.8340747e-05
2.8338364e-05
2.8323552e-05
2.8323798e-05
2.8342191e-05
2.8396694e-05
2.8511514e-05
2.8457207e-05
2.8419496e-05
2.8370749e-05
2.840507e-05
2.8413087e-05
2.840491e-05
2.8383371e-05
2.8373647e-05
2.8479981e-05
2.8465851e-05
2.8391037e-05
2.7996044e-05
2.6163845e-05
1.9464228e-05
)
;

boundaryField
{
    Walls
    {
        type            kqRWallFunction;
        value           nonuniform List<scalar> 
38
(
1.849479e-06
2.9545078e-07
1.6404644e-06
1.7829901e-05
0.00021573641
0.0023076926
0.056495721
0.060934883
0.018602429
0.027431473
0.034389679
0.041489882
0.048033243
0.052892666
0.056991501
0.06017913
0.062546743
0.064405496
0.06617855
0.067371246
0.068160931
0.070043294
0.071766103
0.071700332
0.072037098
0.072688265
0.073012519
0.073374556
0.073523499
0.073466818
0.073519819
0.073609835
0.073699134
0.073555631
0.073449859
0.073197169
0.072409962
0.067443195
)
;
    }
    Inlet
    {
        type            turbulentIntensityKineticEnergyInlet;
        intensity       0.05;
        value           nonuniform List<scalar> 3(0.0088049353 0.009930321 0.0093365705);
    }
    Outlet
    {
        type            inletOutlet;
        inletValue      uniform 0;
        value           nonuniform List<scalar> 
86
(
0
0
0
0
0
0
0
0
0
0
0
0
0
0
0
0
0
0
0
0
0
0
0
0
0
0
0
0
0
0
1.8444585e-05
2.0358271e-05
1.8894947e-05
0
0
0
0
1.4337043e-05
1.6826942e-05
1.8320321e-05
1.8956121e-05
0
0
0
0
1.4465698e-05
1.4967529e-05
1.5974873e-05
1.6695591e-05
1.7366624e-05
1.8176673e-05
1.8882267e-05
0
0
0
0
0
0
0
0
0
0
0
0
0
0
0
0
0
0
0
0
0
0
0
0
0
0
0
0
1.0111551e-05
0
0
0
1.7980209e-05
2.0058672e-05
)
;
    }
    Front
    {
        type            wedge;
    }
    Back
    {
        type            wedge;
    }
    defaultFaces
    {
        type            empty;
    }
}


// ************************************************************************* //
