/*--------------------------------*- C++ -*----------------------------------*\
| =========                 |                                                 |
| \\      /  F ield         | OpenFOAM: The Open Source CFD Toolbox           |
|  \\    /   O peration     | Version:  4.0                                   |
|   \\  /    A nd           | Web:      www.OpenFOAM.org                      |
|    \\/     M anipulation  |                                                 |
\*---------------------------------------------------------------------------*/
FoamFile
{
    version     2.0;
    format      ascii;
    class       volScalarField;
    location    "0.02";
    object      omega;
}
// * * * * * * * * * * * * * * * * * * * * * * * * * * * * * * * * * * * * * //

dimensions      [0 0 -1 0 0 0 0];

internalField   nonuniform List<scalar> 
1740
(
58.117346
644.9429
14924.141
153.53974
1371.4009
15031.116
266.12018
1855.9763
15114.876
368.71981
2178.719
15200.024
475.37439
2465.9563
15278.124
590.50771
2817.4692
15336.52
723.58262
3048.354
15385.131
859.7231
3315.8014
15420.712
979.5928
3559.8389
15449.504
1069.6139
3670.9656
15472.192
1167.3306
3724.5014
15493.385
1266.18
3754.3193
15510.057
1331.8224
3779.3497
15520.206
1386.6958
3812.7116
15539.307
1467.9361
3937.9004
15558.942
1556.6989
4053.3459
15559.88
1622.2539
4040.0069
15562.895
1669.6736
4026.2918
15565.802
1729.5784
4045.2052
15572.812
1755.6481
4096.58
15577.512
1792.178
4148.6834
15577.56
1830.5748
4148.0265
15580.181
1866.073
4106.9067
15578.907
1905.8423
4110.009
15578.952
1927.4854
4142.8734
15581.697
1954.6148
4136.6014
15580.061
1960.3718
4167.2672
15577.472
1978.9136
4226.2916
15574.398
2007.0504
4245.6122
15564.643
2126.9095
4298.1654
15505.375
3195.0706
4571.0682
10790.766
3357.8651
4266.153
5991.4628
1578.0812
1869.4695
2162.7156
828.11857
897.96276
954.69888
609.32755
620.80806
629.42683
569.47509
570.82021
571.77739
559.85566
560.56891
560.99148
553.43144
553.50907
553.29115
548.5533
548.42182
548.0076
544.20577
544.02219
543.57662
540.04719
539.85768
539.42707
535.96647
535.78465
535.38103
531.92403
531.75378
531.37938
527.90378
527.74586
527.4
523.89844
523.75251
523.43355
519.90439
519.76972
519.47573
515.91984
515.79563
515.52469
511.9441
511.82956
511.57987
507.97721
507.8716
507.6415
504.01983
503.92247
503.71045
500.07323
499.9835
499.78822
496.13934
496.05669
495.87692
492.22078
492.14468
491.97932
488.32086
488.25083
488.09883
484.44361
484.37923
484.23964
480.59387
480.53474
480.40669
476.77725
476.72299
476.60569
473.00012
472.95041
472.8431
469.26968
469.22419
469.1262
465.59391
465.55234
465.46303
461.98155
461.94363
461.86239
458.44207
458.40755
458.33382
454.98566
454.95428
454.88753
451.62309
451.59464
451.53437
448.36572
448.33997
448.2857
445.22534
445.20209
445.15337
442.21411
442.19317
442.14957
439.34443
439.3256
439.28671
436.62878
436.61188
436.57731
434.07958
434.06445
434.03381
431.70906
431.69553
431.66846
429.52907
429.51698
429.49313
427.55078
427.53999
427.51902
425.78341
425.77377
425.75537
424.22423
424.2156
424.19947
422.78475
422.77702
422.76289
420.82449
420.81757
420.80523
414.74425
414.73809
414.72748
388.32013
388.31484
388.30624
284.95289
284.94916
284.94372
13482.441
13534.584
6028.5367
5354.9208
2081.1071
1868.9009
924.66023
862.95082
622.15827
609.12987
571.05781
569.73811
560.54412
559.35454
552.60133
551.48049
547.27321
546.24288
542.87104
541.9232
538.76808
537.89539
534.77087
533.96699
530.81612
530.07546
526.88064
526.19805
522.95491
522.32572
519.03465
518.45462
515.1182
514.58343
511.20524
510.71218
507.29623
506.84164
503.39231
502.97325
499.49517
499.10901
495.60712
495.25145
491.73109
491.40374
487.87066
487.56962
484.03011
483.75357
480.21451
479.96077
476.42965
476.19713
472.6821
472.46934
468.9792
468.78486
465.32907
465.1519
461.74058
461.57938
458.22331
458.07698
454.78753
454.65501
451.44412
451.32443
448.20449
448.09669
445.08053
444.98372
442.08444
441.99778
439.22868
439.15135
436.52578
436.45699
433.98821
433.92722
431.62824
431.57432
429.45776
429.41021
427.48799
427.44614
425.72819
425.69139
424.17569
424.14332
422.74209
422.7136
420.78709
420.76207
414.71189
414.69057
388.29375
388.27801
284.93622
284.92956
12058.145
2064.8905
812.60267
608.11572
572.91099
563.30731
558.13157
554.40755
551.21602
548.25927
545.46296
542.81551
540.32136
537.98864
535.82575
533.8402
532.03832
530.42474
528.99972
527.73669
526.41697
523.6103
511.60911
458.82204
301.24285
12058.104
2063.2814
837.29607
631.28002
591.36173
574.703
562.44323
555.58523
551.29537
547.92217
544.94071
542.19694
539.6459
537.27589
535.08636
533.08039
531.26186
529.63389
528.19518
526.91301
525.53398
522.45289
509.2382
450.81155
245.19552
12058.101
2057.1929
842.42995
639.36054
595.72362
576.75163
565.17664
558.346
553.48095
549.55905
546.16748
543.12221
540.3534
537.82623
535.52174
533.42946
531.5442
529.86232
528.37722
527.04959
525.60608
522.36155
508.61489
448.92126
245.00166
12058.28
2046.5785
870.54121
684.46252
638.76206
615.05239
597.729
584.36235
573.84318
565.44098
558.65374
553.0864
548.49637
544.67979
541.46132
538.70454
536.32373
534.25614
532.45573
530.87449
529.346
526.84652
517.33754
471.86378
290.61876
12060.711
2134.3175
1210.6679
1054.6947
966.89751
891.44652
825.36583
769.44244
723.38952
685.96749
655.96464
631.92309
612.73903
597.70709
585.96519
576.65894
569.15648
562.99079
557.83196
553.47572
549.74741
546.41791
542.35091
532.88338
505.97286
12086.591
3736.4855
2761.8455
2393.8697
2115.9664
1874.1185
1660.9751
1474.073
1311.8505
1171.499
1050.0656
945.82018
858.10001
786.12491
728.6108
683.74818
649.42459
623.47017
603.88028
589.00557
577.55864
568.72887
561.63654
555.88838
549.24443
10378.34
7921.8102
6123.4908
4828.5704
3876.7822
3160.1116
2608.2838
2175.9698
1832.9301
1557.8345
1335.098
1153.2884
1004.2017
882.23725
783.80732
706.61995
648.75848
607.75207
580.22254
562.39237
550.88089
543.27779
537.9661
534.22864
531.23543
4079.0278
3267.8698
2815.9815
2470.0051
2176.5819
1921.3895
1697.8356
1503.0082
1334.6429
1188.8164
1063.0041
955.4847
865.00651
790.53511
730.74694
683.96732
648.26409
621.46947
601.42261
586.31968
574.7756
565.9178
558.84369
553.15286
546.67795
1578.5405
1370.9269
1231.1818
1118.1346
1018.4612
931.08908
856.14029
793.64613
742.67215
701.60969
668.14721
641.07486
619.68705
602.8968
589.70525
579.18784
570.72315
563.83275
558.1334
553.35616
549.28976
545.69445
541.44831
532.07305
505.72152
788.15928
730.26923
690.22778
659.17264
633.3861
612.00254
594.6012
580.76224
569.86016
561.18871
554.18833
548.53542
543.94751
540.1741
537.02766
534.36166
532.07632
530.09842
528.37456
526.85236
525.3614
522.87253
513.35774
468.08709
288.45325
594.94352
583.41829
574.50067
567.12176
560.83876
555.46214
550.79078
546.69332
543.05538
539.77709
536.82341
534.15427
531.73074
529.52556
527.52139
525.70661
524.07389
522.61794
521.33035
520.16578
518.81969
515.47019
501.01748
439.8033
237.98077
568.13018
564.84974
559.42498
553.99105
549.52874
545.88568
542.78296
539.97756
537.37237
534.92214
532.60818
530.42422
528.37065
526.45096
524.67021
523.03365
521.54612
520.21138
519.0283
517.96124
516.73489
513.63548
499.88035
440.0733
235.44764
557.38011
554.4268
551.0177
547.69931
544.67191
541.91221
539.34256
536.90729
534.56828
532.3186
530.16132
528.10384
526.15515
524.32448
522.6205
521.05106
519.62281
518.34092
517.20644
516.19435
515.09097
512.48716
500.75411
447.29904
251.88418
549.93676
547.95292
545.70404
543.36075
541.01825
538.71009
536.44349
534.22124
532.05094
529.93945
527.89909
525.94254
524.08199
522.32868
520.69267
519.18281
517.80658
516.56994
515.47522
514.50313
513.47697
511.22096
501.59352
462.31717
363.05484
544.93256
543.35124
541.56441
539.64297
537.64252
535.60113
533.54511
531.49414
529.46989
527.48638
525.55968
523.70483
521.93552
520.26405
518.70123
517.25648
515.93779
514.75156
513.7008
512.76932
511.80642
509.85362
502.3262
475.1436
417.94548
540.74945
539.36535
537.8066
536.11336
534.32349
532.46987
530.58039
528.67901
526.78711
524.92493
523.1091
521.35553
519.67856
518.09101
516.60408
515.22753
513.96965
512.8371
511.83333
510.94461
510.04211
508.34511
502.39543
482.84322
446.00642
536.82442
535.57186
534.16341
532.62792
530.9946
529.29131
527.5438
525.77561
524.00825
522.26131
520.55292
518.89886
517.31363
515.81018
514.39988
513.09265
511.89691
510.81952
509.86426
509.01955
508.17545
506.69075
501.86509
486.59893
451.81826
532.9836
531.83673
530.54739
529.139
527.63589
526.06228
524.4414
522.79525
521.14438
519.50781
517.90296
516.34587
514.85075
513.43045
512.09633
510.85833
509.72493
508.70305
507.79674
506.99632
506.20725
504.88469
500.63011
484.18277
398.96183
529.17031
528.11551
526.92909
525.63115
524.24281
522.78546
521.28017
519.74724
518.20593
516.67431
515.16909
513.70588
512.29855
510.95972
509.70059
508.53099
507.45935
506.49264
505.63506
504.87851
504.13898
502.91081
498.58421
477.15154
352.54155
525.36395
524.39188
523.29774
522.09913
520.81476
519.46379
518.06533
516.6381
515.20006
513.76824
512.35855
510.98578
509.66352
508.40399
507.21812
506.11557
505.10467
504.19231
503.38283
502.66913
501.97182
500.77197
495.98112
469.29627
321.56778
521.55658
520.65983
519.64969
518.5418
517.35287
516.10018
514.80115
513.47296
512.13234
510.79525
509.47675
508.19089
506.95071
505.768
504.65337
503.61622
502.6647
501.80561
501.04332
500.3712
499.70957
498.49526
493.11496
462.43215
309.03456
517.74515
516.91745
515.98434
514.95987
513.85909
512.69763
511.49139
510.25618
509.00748
507.76023
506.52863
505.32602
504.16476
503.05621
502.01058
501.03696
500.14328
499.33619
498.61997
497.98774
497.35417
496.08485
490.02309
455.94718
303.39098
513.92892
513.1648
512.30266
511.35521
510.33608
509.2595
508.13999
506.99208
505.83011
504.66801
503.51912
502.39602
501.31047
500.27326
499.29421
498.38208
497.54451
496.78797
496.11661
495.52308
494.91587
493.60138
487.08625
451.66619
305.06641
510.10838
509.40295
508.6064
507.73028
506.78698
505.78946
504.75106
503.68513
502.60493
501.52343
500.4531
499.40582
498.39266
497.42391
496.50893
495.6561
494.87279
494.16522
493.53738
492.9813
492.39945
491.05427
484.31454
449.43361
316.3715
506.28467
505.63354
504.89776
504.08784
503.21509
502.29133
501.32879
500.33981
499.33665
498.33135
497.33556
496.36041
495.41636
494.51313
493.65962
492.86383
492.13282
491.47257
490.88685
490.36724
489.81235
488.46091
481.64767
447.39024
321.28427
502.45957
501.85873
501.17934
500.43097
499.62392
498.76904
497.87754
496.96079
496.03016
495.09682
494.17163
493.26501
492.38678
491.54612
490.75146
490.01039
489.32966
488.71497
488.16991
487.68576
487.15989
485.82933
479.10342
445.84291
324.72087
498.63542
498.08121
497.4542
496.7631
496.01733
495.2268
494.40183
493.55289
492.69052
491.82507
490.96667
490.12504
489.30939
488.52836
487.7899
487.1012
486.46868
485.89777
485.39179
484.94162
484.44277
483.13023
476.49761
444.30321
330.14373
494.81506
494.30414
493.72584
493.08809
492.39948
491.6691
490.90645
490.12118
489.32303
488.5216
487.72631
486.94623
486.18998
485.46567
484.78077
484.14209
483.55569
483.02673
482.55826
482.14072
481.66838
480.38162
473.90324
442.92085
333.12165
491.0019
490.53122
489.99823
489.41019
488.77494
488.10083
487.39657
486.67107
485.93331
485.19221
484.45651
483.73466
483.03472
482.36427
481.73034
481.13933
480.59696
480.1081
479.67558
479.28958
478.84508
477.59926
471.32178
441.24137
330.00328
487.19993
486.76671
486.27593
485.73424
485.14881
484.52731
483.87776
483.20835
482.52737
481.84309
481.16361
480.4968
479.85017
479.23081
478.64529
478.09963
477.59921
477.14863
476.75044
476.39457
475.97614
474.76389
468.64191
439.37324
328.8743
483.4138
483.01547
482.56404
482.06558
481.5267
480.95442
480.35611
479.73933
479.11171
478.48091
477.85443
477.23959
476.64336
476.07238
475.53278
475.0302
474.56969
474.15555
473.79011
473.46297
473.06939
471.8894
465.91816
437.45582
329.13359
479.64885
479.28304
478.86831
478.41022
477.91482
477.38859
476.83827
476.27084
475.69334
475.11284
474.53629
473.97046
473.42185
472.89662
472.4005
471.93877
471.51615
471.13667
470.80237
470.50234
470.12995
468.96072
462.99992
434.6734
326.67511
475.91118
475.57568
475.19518
474.77477
474.32002
473.83685
473.33148
472.81031
472.27985
471.74662
471.21704
470.6974
470.19371
469.7117
469.25672
468.83366
468.44696
468.10037
467.79566
467.52136
467.16825
465.99839
459.94971
431.11876
321.48592
472.20758
471.90035
471.55179
471.16657
470.74979
470.3069
469.8436
469.36578
468.87945
468.3906
467.90518
467.429
466.96764
466.5264
466.11026
465.72377
465.37107
465.05565
464.77904
464.52948
464.19683
463.03792
456.95331
427.82385
317.35639
468.54565
468.26476
467.94599
467.59362
467.21231
466.80707
466.38313
465.94591
465.50093
465.05372
464.60978
464.17445
463.75292
463.35009
462.97057
462.61861
462.29804
462.0121
461.76212
461.5361
461.22334
460.07768
453.9793
424.72019
314.14915
464.93368
464.67735
464.38636
464.06464
463.71644
463.34637
462.95923
462.56
462.15374
461.74557
461.34053
460.94357
460.55946
460.19276
459.84773
459.52831
459.23804
458.97995
458.75513
458.55134
458.25735
457.12569
451.03577
421.8308
312.74034
461.38072
461.14726
460.88217
460.58901
460.27171
459.93447
459.5817
459.21798
458.84795
458.47632
458.10773
457.74674
457.39776
457.06499
456.75238
456.46357
456.20186
455.97001
455.76894
455.58614
455.3097
454.18857
448.08204
418.73396
308.2858
457.89652
457.68435
457.44336
457.17681
456.88831
456.58168
456.26098
455.9304
455.59423
455.25675
454.92227
454.59496
454.2789
453.97795
453.69576
453.4357
453.20082
452.99367
452.81496
452.65202
452.39247
451.28199
445.15859
415.69827
305.25749
454.49148
454.2991
454.08053
453.83874
453.57703
453.29891
453.0081
452.70842
452.40381
452.09823
451.79559
451.49977
451.21449
450.94332
450.68963
450.45652
450.24681
450.06285
449.90516
449.76083
449.51684
448.41569
442.28445
412.81715
302.82797
451.1766
451.00261
450.80485
450.58606
450.34925
450.09764
449.83462
449.5637
449.28849
449.01261
448.73966
448.4732
448.21665
447.97331
447.74625
447.53835
447.3522
447.18995
447.05196
446.92505
446.69514
445.5993
439.45117
410.06178
301.36615
447.96342
447.80647
447.62801
447.43055
447.21684
446.98982
446.7526
446.50839
446.26049
446.01222
445.76689
445.52775
445.29796
445.08053
444.8783
444.69392
444.52976
444.38781
444.26823
444.15756
443.94059
442.84892
436.67795
407.24866
298.97491
444.86392
444.72272
444.56212
444.38439
444.19206
443.9878
443.77447
443.555
443.33241
443.10974
442.89003
442.67625
442.4713
442.27795
442.09881
441.9363
441.79262
441.66958
441.56717
441.47174
441.26755
440.1844
434.01438
404.60664
296.71416
441.8904
441.76373
441.6196
441.46008
441.28747
441.10423
440.91295
440.71633
440.51713
440.31813
440.1221
439.93178
439.74983
439.57878
439.42103
439.27881
439.15414
439.04864
438.96221
438.88107
438.68958
437.61918
431.47295
402.16184
294.74965
439.05539
438.94209
438.8131
438.67032
438.51585
438.35194
438.18095
438.00536
437.82769
437.65048
437.47628
437.30759
437.14685
436.99637
436.85837
436.73489
436.62777
436.53851
436.46688
436.39909
436.22018
435.16648
429.06606
399.93237
293.17715
436.37149
436.27043
436.15531
436.02786
435.89001
435.74381
435.59142
435.4351
435.27717
435.11995
434.96577
434.81692
434.67564
434.54407
434.42421
434.31796
434.227
434.15269
434.0947
434.03922
433.87201
432.83484
426.78773
397.92655
292.53844
433.85125
433.76134
433.65886
433.54539
433.42269
433.29263
433.1572
433.01846
432.87853
432.73954
432.60363
432.4729
432.3494
432.23509
432.13182
432.04131
431.96514
431.90453
431.85902
431.81468
431.65713
430.6292
424.60411
395.86256
291.04348
431.507
431.4272
431.33618
431.23537
431.1264
431.01096
430.89089
430.76808
430.64447
430.52201
430.40267
430.28837
430.181
430.08236
429.99415
429.91796
429.85523
429.80708
429.77293
429.73871
429.58971
428.56925
422.5623
393.92302
289.52638
429.35068
429.27998
429.19927
429.10986
429.01322
428.91095
428.8047
428.69621
428.58727
428.47969
428.37525
428.27574
428.18289
428.09836
428.02373
427.96044
427.90984
427.87293
427.84905
427.82395
427.68249
426.66745
420.66983
392.06107
287.58045
427.39356
427.331
427.25948
427.18023
427.0946
427.00404
426.9101
426.81438
426.71852
426.62419
426.53304
426.44671
426.36681
426.29486
426.23233
426.18056
426.14078
426.11393
426.09923
426.08216
425.94616
424.92742
418.8982
390.2328
285.92618
425.64497
425.58959
425.52619
425.45591
425.37997
425.29975
425.21665
425.13216
425.04782
424.96515
424.88569
424.81096
424.74244
424.68156
424.62969
424.58807
424.55784
424.53986
424.53327
424.5234
424.39298
423.37583
417.34482
388.73334
284.81478
424.1023
424.05322
423.99696
423.93449
423.86699
423.79571
423.72198
423.64723
423.57286
423.50031
423.43097
423.36624
423.30746
423.25604
423.21334
423.18049
423.15852
423.1482
423.14867
423.14525
423.02088
422.01111
415.99955
387.47446
283.89481
422.67732
422.63392
422.58425
422.52868
422.46839
422.40459
422.33849
422.27187
422.20599
422.1421
422.08127
422.02456
421.97314
421.92882
421.89352
421.86797
421.8528
421.8486
421.85491
421.85698
421.73794
420.73464
414.7367
386.26373
282.93145
420.73039
420.69355
420.65262
420.60432
420.55016
420.49141
420.42892
420.368
420.30929
420.25376
420.19945
420.14608
420.09514
420.05112
420.02048
420.00019
419.98923
419.98722
419.99709
420.00335
419.88802
418.88631
412.88471
384.42605
281.37616
414.66552
414.64281
414.62495
414.58993
414.54113
414.47959
414.40397
414.34166
414.29131
414.2554
414.2048
414.13214
414.05411
413.98159
413.95518
413.93749
413.92237
413.90619
413.91197
413.92047
413.80915
412.81666
406.86111
378.6703
276.90217
388.26726
388.28323
388.33344
388.33216
388.28836
388.19928
388.05376
387.9702
387.94807
388.01792
387.99301
387.78354
387.58338
387.37027
387.39715
387.38925
387.34641
387.26319
387.24139
387.26853
387.16863
386.24562
380.69335
354.43466
259.62813
284.94104
285.01466
285.16521
285.21514
285.17961
285.04391
284.77768
284.66502
284.73852
285.17956
286.22158
285.58225
285.11629
284.55523
284.85013
284.9053
284.81985
284.62194
284.57008
285.69862
285.65112
284.98641
280.99133
262.25649
194.68408
)
;

boundaryField
{
    Walls
    {
        Cmu             0.09;
        kappa           0.41;
        E               9.8;
        beta1           0.075;
        type            omegaWallFunction;
        value           nonuniform List<scalar> 
38
(
12058.145
12058.104
12058.101
12058.28
12060.711
12086.591
13482.441
13534.584
14924.141
15031.116
15114.876
15200.024
15278.124
15336.52
15385.131
15420.712
15449.504
15472.192
15493.385
15510.057
15520.206
15539.307
15558.942
15559.88
15562.895
15565.802
15572.812
15577.512
15577.56
15580.181
15578.907
15578.952
15581.697
15580.061
15577.472
15574.398
15564.643
15505.375
)
;
    }
    Inlet
    {
        type            turbulentMixingLengthDissipationRateInlet;
        mixingLength    0.03;
        phi             phi;
        k               k;
        value           nonuniform List<scalar> 3(0.0043877765 0.0044129464 0.0058343976);
    }
    Outlet
    {
        type            inletOutlet;
        inletValue      uniform 1e-05;
        value           nonuniform List<scalar> 
86
(
1e-05
1e-05
1e-05
1e-05
1e-05
1e-05
1e-05
1e-05
1e-05
1e-05
1e-05
1e-05
1e-05
1e-05
1e-05
1e-05
1e-05
1e-05
1e-05
1e-05
1e-05
1e-05
1e-05
1e-05
1e-05
1e-05
1e-05
1e-05
1e-05
1e-05
531.23543
546.67795
505.72152
1e-05
1e-05
1e-05
1e-05
363.05484
417.94548
446.00642
451.81826
1e-05
1e-05
1e-05
1e-05
303.39098
305.06641
316.3715
321.28427
324.72087
330.14373
333.12165
1e-05
1e-05
1e-05
1e-05
1e-05
1e-05
1e-05
1e-05
1e-05
1e-05
1e-05
1e-05
1e-05
1e-05
1e-05
1e-05
1e-05
1e-05
1e-05
1e-05
1e-05
1e-05
1e-05
1e-05
1e-05
1e-05
1e-05
1e-05
301.24285
1e-05
1e-05
1e-05
505.97286
549.24443
)
;
    }
    Front
    {
        type            wedge;
    }
    Back
    {
        type            wedge;
    }
    defaultFaces
    {
        type            empty;
    }
}


// ************************************************************************* //
