/*--------------------------------*- C++ -*----------------------------------*\
| =========                 |                                                 |
| \\      /  F ield         | OpenFOAM: The Open Source CFD Toolbox           |
|  \\    /   O peration     | Version:  4.0                                   |
|   \\  /    A nd           | Web:      www.OpenFOAM.org                      |
|    \\/     M anipulation  |                                                 |
\*---------------------------------------------------------------------------*/
FoamFile
{
    version     2.0;
    format      ascii;
    class       volScalarField;
    location    "0.02";
    object      p;
}
// * * * * * * * * * * * * * * * * * * * * * * * * * * * * * * * * * * * * * //

dimensions      [0 2 -2 0 0 0 0];

internalField   nonuniform List<scalar> 
1740
(
491.63854
491.64248
491.65658
475.3167
475.16544
475.00136
458.90893
458.80933
458.43963
442.09068
442.25326
442.0244
425.29782
425.5439
425.5607
408.30876
408.5671
408.7027
391.45193
391.42236
391.36793
375.01369
374.78398
374.48571
358.59556
358.41648
358.3353
342.49346
342.21514
342.41988
326.61358
326.4969
326.76732
310.43421
310.71265
310.74198
294.04986
294.36216
294.1059
277.43455
277.43268
277.47776
261.14189
260.83603
260.98952
244.74632
244.57863
244.41917
228.1077
228.27836
228.00625
212.02884
212.17201
212.25391
196.19538
196.16119
196.32815
180.27855
180.26139
180.06326
163.84651
163.81566
163.91722
147.10238
147.0136
147.19278
130.60908
130.75008
130.58367
114.20582
114.50261
114.61476
97.705268
97.737503
97.905792
80.893263
80.748635
80.628684
64.055475
63.954794
63.788736
47.467715
47.329763
47.102304
31.231019
31.033758
30.799962
16.139121
15.887596
15.578061
3.9869728
3.4289122
1.64986
-0.77404477
-0.69121011
-0.46127226
-0.27300388
-0.24452139
-0.19343478
-0.12984505
-0.11638391
-0.093429095
-0.092339326
-0.083867762
-0.069240517
-0.070827814
-0.065754792
-0.056669642
-0.058869089
-0.055606019
-0.049586368
-0.050898424
-0.048707821
-0.044554562
-0.04464082
-0.043114079
-0.040142965
-0.039224725
-0.038129028
-0.035956836
-0.034418077
-0.033615933
-0.032001951
-0.030290144
-0.029693662
-0.0284756
-0.026884564
-0.026431457
-0.025494776
-0.024107684
-0.023755688
-0.023021294
-0.021835685
-0.021556795
-0.020970384
-0.019951078
-0.01972621
-0.019250578
-0.018347957
-0.01816388
-0.017772521
-0.016941141
-0.016788329
-0.016461961
-0.015672787
-0.015544451
-0.015269336
-0.014509404
-0.01440056
-0.014166558
-0.013432074
-0.013338954
-0.013138269
-0.012429031
-0.012348675
-0.01217517
-0.011493163
-0.011423353
-0.011272321
-0.010620266
-0.010559282
-0.010427124
-0.009807236
-0.0097537016
-0.0096375424
-0.0090508936
-0.0090036882
-0.0089011512
-0.0083475195
-0.0083057261
-0.0082148543
-0.0076930155
-0.0076558827
-0.0075750758
-0.0070834492
-0.0070503559
-0.0069783008
-0.0065154053
-0.0064858429
-0.006421438
-0.0059855401
-0.005959102
-0.0059014494
-0.005490358
-0.0054666978
-0.005415078
-0.0050268514
-0.0050056701
-0.0049594521
-0.0045927037
-0.0045737427
-0.0045323575
-0.0041858275
-0.0041688638
-0.0041318246
-0.003804183
-0.0037890239
-0.0037559153
-0.0034458067
-0.0034322848
-0.0034027448
-0.0031088048
-0.0030967743
-0.0030704862
-0.0027913454
-0.0027806786
-0.0027573658
-0.0024916455
-0.0024822312
-0.0024616522
-0.002207964
-0.0021997057
-0.0021816508
-0.001938601
-0.0019314154
-0.0019157032
-0.0016818904
-0.0016757053
-0.0016621794
-0.001436184
-0.0014309383
-0.0014194658
-0.0011998639
-0.001195507
-0.0011859773
-0.00097136944
-0.00096785979
-0.00096018218
-0.00074920305
-0.00074650631
-0.00074060752
-0.00053188456
-0.0005299753
-0.00052579882
-0.00031804183
-0.0003169025
-0.00031440887
-0.00010588775
-0.00010550848
-0.00010467801
-1.3524422
-0.95675557
-0.35264636
-0.26543524
-0.15159682
-0.12170228
-0.073679444
-0.058015728
-0.055158737
-0.043150151
-0.046945191
-0.038111881
-0.042729249
-0.036112928
-0.039591147
-0.034559108
-0.036464341
-0.032591468
-0.033177341
-0.030162835
-0.029879737
-0.02751011
-0.026837684
-0.024961125
-0.024211755
-0.022709584
-0.021999618
-0.020782102
-0.020144598
-0.019145379
-0.018574788
-0.017746484
-0.017211753
-0.01651765
-0.015990742
-0.015402357
-0.014869626
-0.014366376
-0.013824827
-0.01339166
-0.012843936
-0.01246861
-0.011919857
-0.011592689
-0.011049387
-0.01076263
-0.010231464
-0.0099788792
-0.0094651225
-0.0092417694
-0.008748655
-0.0085505004
-0.0080794772
-0.0079031522
-0.0074545207
-0.007297201
-0.0068706776
-0.0067299991
-0.006325136
-0.0061990709
-0.0058151469
-0.0057020203
-0.0053377337
-0.0052362185
-0.0048901533
-0.004799093
-0.004470264
-0.0043885948
-0.004076217
-0.00400302
-0.0037061819
-0.0036406691
-0.0033583502
-0.0032998307
-0.0030309617
-0.0029788305
-0.0027223012
-0.0026760277
-0.0024306891
-0.0023898092
-0.0021544775
-0.0021185865
-0.0018920496
-0.0018607963
-0.0016418125
-0.0016148935
-0.0014021877
-0.0013793451
-0.001171623
-0.0011526416
-0.00094861602
-0.00093331866
-0.00073172001
-0.00071996367
-0.00051950573
-0.00051118037
-0.00031065117
-0.00030567961
-0.00010342659
-0.00010177086
-0.018015603
-0.017202912
-0.015820961
-0.014140332
-0.012383976
-0.010688574
-0.0091231697
-0.0077204692
-0.0064858205
-0.0054128999
-0.0044937874
-0.0037167192
-0.0030667761
-0.0025270153
-0.002081286
-0.0017129461
-0.0014068047
-0.0011500142
-0.00093206937
-0.00074453279
-0.00058065284
-0.00043496092
-0.00030304287
-0.00018117892
-6.5287458e-05
-0.017825184
-0.016882248
-0.015363257
-0.013553991
-0.011728728
-0.010021478
-0.008486226
-0.0071411919
-0.0059715049
-0.0049552777
-0.0040933708
-0.003371946
-0.0027720211
-0.0022736702
-0.001861422
-0.0015193473
-0.0012342954
-0.00099578208
-0.00079533879
-0.00062575034
-0.0004807472
-0.00035513809
-0.00024463757
-0.00014481489
-4.9306645e-05
-0.01982221
-0.018671806
-0.01693862
-0.014944525
-0.013083358
-0.011460571
-0.010090762
-0.0089589593
-0.0080472493
-0.0073219856
-0.0066889074
-0.0061096514
-0.0055632625
-0.005038032
-0.0045317466
-0.0040407583
-0.0035645182
-0.0031027876
-0.0026544332
-0.0022175239
-0.0017909062
-0.0013743148
-0.00096778086
-0.00056902353
-0.00017460666
-0.029978517
-0.028489672
-0.026874812
-0.025399094
-0.024299168
-0.023285801
-0.02232447
-0.021333384
-0.020250962
-0.019072509
-0.017841479
-0.016578122
-0.01529358
-0.013991961
-0.012694118
-0.01140304
-0.010123711
-0.0088593777
-0.0076066527
-0.0063680112
-0.0051476691
-0.0039497363
-0.002777665
-0.0016300804
-0.0005086017
-0.07588561
-0.073470738
-0.070210742
-0.065796731
-0.061349364
-0.056768996
-0.052252019
-0.047889042
-0.043694948
-0.039714496
-0.035965989
-0.03244806
-0.029155838
-0.026088869
-0.023249053
-0.020581083
-0.018050472
-0.015583352
-0.013204173
-0.010927632
-0.008750446
-0.0066647754
-0.0046645364
-0.0027382604
-0.00088777485
-0.24228415
-0.19548056
-0.17478428
-0.14313775
-0.11979447
-0.099254269
-0.081559168
-0.066791756
-0.054651893
-0.044669482
-0.036455137
-0.029711965
-0.024207581
-0.019697621
-0.015955417
-0.012867769
-0.01031871
-0.0082405099
-0.0065234176
-0.0050800518
-0.0038568416
-0.0028068448
-0.0019034754
-0.0011005329
-0.00040862179
-0.36279977
-0.16095317
-0.11517508
-0.082248409
-0.050788027
-0.024272682
-0.0055840206
0.0057319534
0.01192049
0.015221941
0.016925855
0.017656008
0.017709221
0.017273576
0.016518075
0.015546631
0.014404095
0.013104753
0.011653768
0.010070897
0.0083742566
0.0065960124
0.0047325785
0.0028446582
0.00085362198
-0.20950152
-0.17779047
-0.15186847
-0.12833658
-0.10741744
-0.089036331
-0.073213124
-0.059912889
-0.048933009
-0.039911495
-0.032473989
-0.02634325
-0.021346853
-0.01726404
-0.013921483
-0.011235396
-0.0090223846
-0.0071916882
-0.0056696064
-0.0043942915
-0.0033199874
-0.0024046602
-0.0016262785
-0.00093865699
-0.00035850253
-0.10313173
-0.09016518
-0.080348175
-0.072533724
-0.065904299
-0.0599661
-0.054544314
-0.04955849
-0.044971272
-0.04074194
-0.036830309
-0.033224317
-0.02988109
-0.026784161
-0.023877846
-0.02104643
-0.018361027
-0.015814707
-0.013393724
-0.0110854
-0.0088792244
-0.0067650103
-0.0047363056
-0.0027822569
-0.00090535392
-0.046782928
-0.039318905
-0.034602079
-0.031466713
-0.029271015
-0.027535199
-0.025977711
-0.024489918
-0.023057353
-0.021622963
-0.02017243
-0.018709411
-0.017233369
-0.015760822
-0.014297458
-0.012843759
-0.011399
-0.009966203
-0.0085495664
-0.0071530256
-0.005780046
-0.0044338102
-0.0031172333
-0.0018286374
-0.00057057056
-0.033534184
-0.026115577
-0.020610048
-0.016708592
-0.013965629
-0.012062585
-0.010714239
-0.0097689638
-0.0090951281
-0.0085036936
-0.0079393777
-0.007382582
-0.0068278138
-0.0062724087
-0.0057149934
-0.0051556734
-0.0045950535
-0.0040341026
-0.0034741564
-0.0029167417
-0.0023633096
-0.0018159666
-0.0012781967
-0.00074973002
-0.00022817968
-0.030716309
-0.024541293
-0.019507663
-0.015563168
-0.012508773
-0.010160708
-0.0083997688
-0.0070204798
-0.0058587085
-0.0049147821
-0.0041548384
-0.0035432474
-0.003058219
-0.0026539209
-0.0023023994
-0.0019886837
-0.0017042116
-0.0014438719
-0.0012043459
-0.00098328672
-0.0007791037
-0.00059021979
-0.00041338927
-0.0002442923
-7.8098742e-05
-0.030188752
-0.025035836
-0.020657626
-0.01702897
-0.0140614
-0.011658645
-0.0097334666
-0.0081776048
-0.0069075825
-0.0058867381
-0.0050610933
-0.0043796147
-0.0037874052
-0.0032740443
-0.002827581
-0.0024346086
-0.0020840043
-0.0017672493
-0.0014779371
-0.0012111398
-0.00096300816
-0.00073059245
-0.00051155448
-0.00030354474
-0.00010251253
-0.029829346
-0.025566457
-0.02181974
-0.018589016
-0.015832411
-0.013502395
-0.011545768
-0.0099010287
-0.0085184442
-0.0073587995
-0.0063824171
-0.0055514441
-0.004831703
-0.0042032624
-0.0036503778
-0.0031590712
-0.0027172928
-0.0023152908
-0.0019453008
-0.0016012467
-0.0012784483
-0.00097307917
-0.00068232517
-0.00040400404
-0.00013593418
-0.028828173
-0.025325156
-0.022153588
-0.01932995
-0.01684347
-0.014667876
-0.012773968
-0.01112719
-0.0096993901
-0.0084653118
-0.0073964766
-0.0064657601
-0.0056491252
-0.0049278949
-0.0042868137
-0.0037127036
-0.0031943665
-0.0027215565
-0.0022858416
-0.0018804939
-0.0015003393
-0.0011410184
-0.00079910742
-0.00047198683
-0.00015749219
-0.027153936
-0.024277748
-0.021609592
-0.019179853
-0.016990538
-0.015024092
-0.013265076
-0.011695821
-0.010301017
-0.0090642143
-0.007967727
-0.0069942548
-0.0061271247
-0.005352228
-0.0046571735
-0.0040307586
-0.0034628216
-0.00294447
-0.0024678286
-0.0020258304
-0.0016125961
-0.0012236721
-0.00085522613
-0.00050392732
-0.00016691271
-0.02508137
-0.022708941
-0.020460735
-0.018373949
-0.016457818
-0.014710396
-0.013122438
-0.011681812
-0.010377185
-0.0091984503
-0.0081338768
-0.0071722123
-0.0063033303
-0.0055176871
-0.0048065242
-0.0041609698
-0.0035725037
-0.0030338525
-0.0025384171
-0.0020799827
-0.0016528724
-0.0012523635
-0.00087426538
-0.00051446894
-0.00016951761
-0.022990297
-0.021023536
-0.019121477
-0.01732205
-0.015643838
-0.014093365
-0.012667786
-0.011360372
-0.010162656
-0.0090667001
-0.0080646451
-0.0071485494
-0.0063111901
-0.0055455539
-0.0048449808
-0.0042030705
-0.0036135644
-0.0030707183
-0.0025692893
-0.0021043926
-0.0016713397
-0.0012656725
-0.00088346449
-0.00051969413
-0.00016945817
-0.021097595
-0.019457131
-0.017842436
-0.016291584
-0.014819333
-0.013439958
-0.012156096
-0.010967162
-0.0098688178
-0.0088553543
-0.0079208775
-0.0070592419
-0.006264111
-0.0055296268
-0.0048504068
-0.0042219233
-0.0036400385
-0.0031004627
-0.0025988312
-0.0021313568
-0.0016943002
-0.0012837931
-0.00089611027
-0.0005273687
-0.00017296404
-0.019451367
-0.01807322
-0.016695417
-0.015350348
-0.014058854
-0.012831784
-0.011676347
-0.010595296
-0.009588415
-0.0086510217
-0.0077782945
-0.0069660311
-0.0062095739
-0.0055049715
-0.004848336
-0.0042359893
-0.0036646911
-0.0031311106
-0.0026318484
-0.0021636352
-0.0017232766
-0.0013076286
-0.00091359024
-0.00053793856
-0.000176446
-0.018036058
-0.016869459
-0.015686294
-0.014515526
-0.01337695
-0.012283396
-0.011242994
-0.010259147
-0.0093325844
-0.0084617511
-0.0076433783
-0.0068748406
-0.0061537458
-0.0054773995
-0.0048428945
-0.0042470452
-0.0036871534
-0.003160478
-0.0026642747
-0.0021958875
-0.0017526833
-0.0013320712
-0.00093168173
-0.00054855335
-0.00017893011
-0.016813524
-0.015818637
-0.014796108
-0.013771766
-0.012764398
-0.011786383
-0.010845151
-0.0099447535
-0.0090876624
-0.0082751537
-0.007505952
-0.0067783995
-0.0060910446
-0.0054419642
-0.0048286823
-0.0042490609
-0.0037007393
-0.0031815261
-0.0026892064
-0.0022216749
-0.0017768065
-0.0013525264
-0.00094684118
-0.00055732723
-0.00018186901
-0.015725927
-0.014871048
-0.013981836
-0.013081343
-0.012186514
-0.011308832
-0.010454815
-0.0096287683
-0.008834624
-0.0080755832
-0.0073525874
-0.0066643528
-0.0060094758
-0.0053866887
-0.0047946223
-0.0042316038
-0.0036958232
-0.0031854753
-0.0026988634
-0.0022342378
-0.0017899329
-0.0013643229
-0.00095584895
-0.00056284188
-0.00018387649
-0.014724763
-0.01398495
-0.013207299
-0.012411543
-0.011612869
-0.010822109
-0.010046487
-0.0092903841
-0.0085569093
-0.0078491442
-0.0071700405
-0.0065197568
-0.0058970439
-0.0053010452
-0.0047310029
-0.0041859362
-0.0036644789
-0.0031652289
-0.0026869064
-0.0022281326
-0.0017876066
-0.0013641097
-0.00095650518
-0.00056349327
-0.00018407061
-0.013782142
-0.013138219
-0.012454541
-0.011748152
-0.011032481
-0.010317714
-0.0096115638
-0.0089193377
-0.0082437987
-0.0075870531
-0.0069511329
-0.006337709
-0.0057472363
-0.0051791265
-0.0046328148
-0.0041076718
-0.0036028603
-0.0031174709
-0.0026504846
-0.0022009113
-0.0017677921
-0.001350228
-0.00094739342
-0.00055836109
-0.00018237043
-0.012884643
-0.012321276
-0.011717825
-0.011088791
-0.010445964
-0.0097988515
-0.0091548094
-0.0085194342
-0.0078963965
-0.0072876645
-0.006694442
-0.006118369
-0.0055606148
-0.0050213631
-0.004500401
-0.0039972795
-0.0035116023
-0.003042827
-0.0025902592
-0.0021532288
-0.0017310612
-0.0013231223
-0.0009288526
-0.00054753819
-0.000178681
-0.012026213
-0.011530988
-0.010996458
-0.010434752
-0.009856352
-0.009269937
-0.0086825256
-0.0080993781
-0.0075242582
-0.0069596022
-0.0064070652
-0.0058678976
-0.0053430714
-0.0048332722
-0.0043386741
-0.0038592356
-0.0033947485
-0.0029449356
-0.0025094399
-0.0020878251
-0.0016796539
-0.0012845247
-0.00090209061
-0.00053182535
-0.00017344929
-0.01120473
-0.010767545
-0.010292505
-0.0097898378
-0.0092687597
-0.008737068
-0.0082012113
-0.0076662742
-0.0071359232
-0.006612728
-0.006098601
-0.0055948303
-0.005102442
-0.0046222069
-0.0041545994
-0.0036998782
-0.0032580343
-0.002828968
-0.0024125459
-0.0020085513
-0.0016167517
-0.0012369148
-0.00086883671
-0.00051228912
-0.00016702825
-0.010420908
-0.010033663
-0.0096102312
-0.0091595955
-0.0086896773
-0.0082074005
-0.0077185824
-0.0072279581
-0.0067392358
-0.0062550146
-0.0057772604
-0.0053074543
-0.0048466678
-0.0043957668
-0.0039553729
-0.0035258751
-0.0031074907
-0.0027003009
-0.0023043203
-0.001919505
-0.0015457722
-0.0011830059
-0.00083115507
-0.00049008898
-0.00015972258
-0.009676683
-0.0093325823
-0.008954336
-0.0085495952
-0.0081253272
-0.0076876407
-0.0072417455
-0.0067919676
-0.0063418366
-0.005894087
-0.0054507577
-0.0050133738
-0.0045831432
-0.0041609692
-0.0037475244
-0.0033433257
-0.0029487333
-0.0025639732
-0.0021891765
-0.0018244257
-0.0014697568
-0.0011251743
-0.00079069677
-0.00046625774
-0.00015179674
-0.0089735415
-0.0086668519
-0.0083282659
-0.0079641471
-0.0075806193
-0.0071831162
-0.0067763207
-0.0063641342
-0.0059498848
-0.00553628
-0.0051254139
-0.0047189004
-0.0043179676
-0.0039235716
-0.0035364864
-0.0031572778
-0.0027863666
-0.002424097
-0.0020706992
-0.0017263571
-0.0013911912
-0.0010652819
-0.00074881598
-0.00044156383
-0.00014356684
-0.0083116634
-0.0080375768
-0.0077337902
-0.0074057642
-0.0070587041
-0.0066974425
-0.0063262302
-0.0059486158
-0.0055676933
-0.0051860745
-0.0048058153
-0.0044285562
-0.0040555754
-0.0036878951
-0.0033262981
-0.0029714095
-0.0026237374
-0.0022836823
-0.0019515453
-0.0016275593
-0.0013119188
-0.0010047852
-0.00070642235
-0.00041658013
-0.0001352162
-0.0076899517
-0.0074444483
-0.0071713684
-0.006875415
-0.0065610998
-0.0062326426
-0.0058938507
-0.0055480391
-0.0051980352
-0.0048463155
-0.0044948721
-0.0041452999
-0.0037989113
-0.0034567464
-0.0031196451
-0.0027882804
-0.0024631959
-0.0021448195
-0.001833513
-0.0015295705
-0.0012332299
-0.00094469447
-0.00066422755
-0.00039169616
-0.00012714396
-0.0071065038
-0.0068862269
-0.0066404044
-0.0063730952
-0.0060882365
-0.0057895368
-0.0054803958
-0.0051638439
-0.004842515
-0.0045186984
-0.0041942983
-0.0038708826
-0.0035497291
-0.003231898
-0.0029182508
-0.0026094975
-0.0023062102
-0.0020088528
-0.0017178176
-0.001433431
-0.0011559652
-0.00088564471
-0.00062274447
-0.00036726421
-0.00011928045
-0.0065591135
-0.006361215
-0.0061397205
-0.0058981275
-0.0056398728
-0.0053682341
-0.0050862501
-0.0047966682
-0.0045019287
-0.0042041381
-0.0039050994
-0.0036063266
-0.0033090774
-0.0030143993
-0.0027231599
-0.0024360779
-0.0021537482
-0.0018766624
-0.001605232
-0.0013398033
-0.0010806687
-0.00082806782
-0.00058231037
-0.00034347027
-0.00011162004
-0.0060456702
-0.0058676588
-0.005667938
-0.0054495065
-0.0052153633
-0.0049684033
-0.004711337
-0.0044466496
-0.0041765685
-0.0039030562
-0.0036277976
-0.0033522371
-0.0030775967
-0.0028049034
-0.0025350166
-0.0022686541
-0.0020064184
-0.0017488138
-0.0014962641
-0.0012491285
-0.001007715
-0.00077227585
-0.00054315314
-0.00032043641
-0.00010414941
-0.0055641465
-0.0054038605
-0.0052236543
-0.0050261216
-0.0048138767
-0.0045894628
-0.0043552913
-0.0041136014
-0.0038664226
-0.0036155594
-0.003362594
-0.0031088907
-0.0028556197
-0.0026037763
-0.0023542019
-0.0021076048
-0.0018645857
-0.0016256509
-0.0013912292
-0.0011616861
-0.00093733824
-0.00071845279
-0.00050539647
-0.00029819346
-9.6880456e-05
-0.0051122912
-0.0049679356
-0.0048053241
-0.0046267248
-0.0044344183
-0.0042306381
-0.004017537
-0.0037971192
-0.0035712234
-0.0033415075
-0.0031094421
-0.0028763103
-0.0026432235
-0.0024111348
-0.0021808584
-0.0019530889
-0.0017284145
-0.0015073356
-0.0012902802
-0.0010776161
-0.0008696624
-0.00066669456
-0.00046910357
-0.0002768155
-8.9885608e-05
-0.004687761
-0.0045578541
-0.0044112475
-0.0042499126
-0.0040758409
-0.0038910119
-0.003697341
-0.0034966247
-0.0032905286
-0.0030805699
-0.002868105
-0.002654333
-0.0024403007
-0.0022269147
-0.0020149576
-0.0018050993
-0.0015979116
-0.0013938843
-0.0011934398
-0.00099694432
-0.00080471667
-0.00061703729
-0.00043427939
-0.00025630791
-8.3153416e-05
-0.0042886314
-0.0041718391
-0.0040398203
-0.0038942735
-0.0037369465
-0.0035695843
-0.003393877
-0.003211442
-0.0030237889
-0.0028323014
-0.0026382257
-0.0024426746
-0.0022466285
-0.0020509439
-0.0018563639
-0.0016635297
-0.001472993
-0.0012852304
-0.0011006549
-0.00091962509
-0.00074245416
-0.00056941919
-0.00040087749
-0.00023663677
-7.6702937e-05
-0.0039133391
-0.0038084365
-0.0036896935
-0.0035585841
-0.0034166357
-0.0032653792
-0.0031063074
-0.0029408664
-0.0027704155
-0.0025962089
-0.0024193917
-0.0022409918
-0.0020619217
-0.0018829843
-0.0017048805
-0.0015282193
-0.0013535292
-0.0011812692
-0.001011838
-0.00084558225
-0.00068280656
-0.0005237786
-0.0003688527
-0.00021777191
-7.0535696e-05
-0.0035603277
-0.0034662438
-0.0033596165
-0.0032417285
-0.0031139109
-0.002977507
-0.0028338458
-0.0026842071
-0.0025298068
-0.002371778
-0.0022111646
-0.0020489106
-0.0018858605
-0.0017227629
-0.0015602755
-0.0013989735
-0.0012393587
-0.0010818671
-0.00092687823
-0.0007747263
-0.00062570434
-0.00048006889
-0.00033816862
-0.00019969913
-6.4636106e-05
-0.0032280046
-0.0031438087
-0.0030482823
-0.0029425401
-0.0028277429
-0.0027050709
-0.0025756982
-0.0024407602
-0.002301342
-0.0021584643
-0.0020130703
-0.0018660206
-0.0017180914
-0.0015699762
-0.0014222891
-0.0012755696
-0.0011302891
-0.00098685966
-0.0008456412
-0.0007069514
-0.00057106961
-0.0004382358
-0.00030878849
-0.00018240378
-5.8992804e-05
-0.0029147969
-0.0028396691
-0.0027543459
-0.0026597959
-0.0025570319
-0.0024470869
-0.0023309924
-0.0022097559
-0.002084343
-0.0019556675
-0.0018245791
-0.0016918579
-0.0015582122
-0.0014242791
-0.0012906259
-0.0011577542
-0.0010261045
-0.00089606476
-0.00076797558
-0.00064213412
-0.00051880247
-0.00039820408
-0.00028068432
-0.00016586051
-5.3584135e-05
-0.0026191516
-0.0025523688
-0.0024764557
-0.0023922514
-0.0023006378
-0.0022025175
-0.002098794
-0.0019903563
-0.0018780612
-0.0017627216
-0.0016450996
-0.0015258986
-0.0014057613
-0.0012852672
-0.0011649356
-0.0010452282
-0.00092655465
-0.00080927561
-0.00069370896
-0.00058013249
-0.0004687918
-0.00035989574
-0.00025379761
-0.00015003546
-4.8393356e-05
-0.002339533
-0.0022804589
-0.0022132556
-0.0021386481
-0.0020574007
-0.0019702991
-0.0018781328
-0.0017816811
-0.0016817001
-0.0015789103
-0.0014739896
-0.0013675682
-0.0012602243
-0.0011524823
-0.0010448135
-0.00093763962
-0.00083133588
-0.00072623382
-0.0006226258
-0.00052077143
-0.00042090096
-0.00032320827
-0.00022805345
-0.00013489256
-4.3412397e-05
-0.0020744231
-0.0020224999
-0.0019633909
-0.0018977194
-0.0018261444
-0.0017493459
-0.0016680103
-0.0015828171
-0.0014944285
-0.001403479
-0.0013105673
-0.0012162528
-0.001121051
-0.0010254322
-0.00092982101
-0.00083459871
-0.00074010467
-0.00064664058
-0.00055447391
-0.00046384349
-0.00037496246
-0.00028800908
-0.00020335505
-0.00012037284
-3.8627515e-05
-0.001822322
-0.0017770633
-0.0017255094
-0.0016681934
-0.0016056798
-0.0015385529
-0.0014674049
-0.0013928242
-0.0013153855
-0.0012356424
-0.0011541196
-0.0010713079
-0.00098766237
-0.00090359959
-0.00081949783
-0.00073569756
-0.00065250324
-0.00057018617
-0.00048898836
-0.0004091262
-0.00033079345
-0.00025414933
-0.00017958351
-0.0001063972
-3.4024317e-05
-0.001581742
-0.0015427263
-0.0014982601
-0.0014487949
-0.0013948102
-0.0013368036
-0.0012752805
-0.001210745
-0.001143691
-0.0010745953
-0.001003912
-0.0009320673
-0.00085945714
-0.00078644578
-0.00071336502
-0.0006405146
-0.00056816368
-0.00049655299
-0.00042589788
-0.0003563909
-0.00028820526
-0.00022148069
-0.00015661459
-9.2875703e-05
-2.9598933e-05
-0.0013512044
-0.0013180727
-0.0012802952
-0.0012382495
-0.0011923375
-0.0011429772
-0.0010905941
-0.0010356137
-0.00097845404
-0.00091951982
-0.00085919754
-0.00079785138
-0.00073582052
-0.00067341779
-0.00061092911
-0.00054861358
-0.00048670465
-0.0004254118
-0.00036492258
-0.00030540506
-0.00024701061
-0.00018985947
-0.00013432847
-7.9719397e-05
-2.5347813e-05
-0.0011292511
-0.0011017027
-0.0010702795
-0.0010352909
-0.00099706754
-0.00095595336
-0.00091229972
-0.00086645845
-0.00081877601
-0.00076958871
-0.00071921846
-0.00066796969
-0.0006161265
-0.00056395159
-0.0005116856
-0.00045954722
-0.00040773396
-0.0003564234
-0.00030577477
-0.00025593092
-0.00020702032
-0.00015914311
-0.00011262853
-6.6867632e-05
-2.1249016e-05
-0.00091446354
-0.0008922506
-0.00086690512
-0.00083867412
-0.00080782128
-0.00077462163
-0.00073935652
-0.00070230838
-0.00066375582
-0.00062396975
-0.00058321026
-0.00054172365
-0.00049974057
-0.0004574745
-0.00041512153
-0.00037286015
-0.00033085184
-0.000289242
-0.00024816113
-0.00020772628
-0.00016804244
-0.00012918994
-9.1438631e-05
-5.4294382e-05
-1.7260375e-05
-0.00070547038
-0.00068839227
-0.00066890113
-0.00064718502
-0.00062344493
-0.00059789106
-0.00057073842
-0.00054220318
-0.00051249905
-0.00048183443
-0.00045040937
-0.00041841378
-0.00038602573
-0.00035341059
-0.0003207202
-0.00028809318
-0.00025565498
-0.00022351865
-0.00019178569
-0.00016054706
-0.00012988405
-9.9857265e-05
-7.0677315e-05
-4.1968993e-05
-1.3346793e-05
-0.00050091551
-0.00048881814
-0.00047500903
-0.00045962058
-0.00044279457
-0.00042467915
-0.00040542631
-0.00038518788
-0.00036411566
-0.00034235698
-0.00032005405
-0.00029734099
-0.00027434467
-0.00025118267
-0.00022796326
-0.00020478523
-0.00018173809
-0.00015890246
-0.00013635064
-0.00011414729
-9.2350018e-05
-7.1001457e-05
-5.0240893e-05
-2.9823256e-05
-9.5030613e-06
-0.00029954933
-0.00029232395
-0.00028407539
-0.0002748826
-0.00026483007
-0.00025400607
-0.00024250091
-0.00023040575
-0.00021781073
-0.00020480371
-0.00019146971
-0.00017788921
-0.00016413784
-0.00015028607
-0.00013639885
-0.00012253544
-0.00010874951
-9.5089249e-05
-8.1597744e-05
-6.8313368e-05
-5.5270051e-05
-4.2495538e-05
-3.0047237e-05
-1.7815104e-05
-5.7130008e-06
-9.972914e-05
-9.7322622e-05
-9.4575302e-05
-9.1513602e-05
-8.8165751e-05
-8.456117e-05
-8.0729834e-05
-7.6702406e-05
-7.2508365e-05
-6.8177574e-05
-6.373789e-05
-5.9216352e-05
-5.4638163e-05
-5.0026795e-05
-4.5403902e-05
-4.0789294e-05
-3.6200831e-05
-3.1654451e-05
-2.7164305e-05
-2.2742881e-05
-1.8401151e-05
-1.414857e-05
-9.9971649e-06
-5.9212007e-06
-1.9113387e-06
)
;

boundaryField
{
    Walls
    {
        type            zeroGradient;
    }
    Inlet
    {
        type            fixedValue;
        value           uniform 500;
    }
    Outlet
    {
        type            fixedValue;
        value           uniform 0;
    }
    Front
    {
        type            wedge;
    }
    Back
    {
        type            wedge;
    }
    defaultFaces
    {
        type            empty;
    }
}


// ************************************************************************* //
