/*--------------------------------*- C++ -*----------------------------------*\
| =========                 |                                                 |
| \\      /  F ield         | OpenFOAM: The Open Source CFD Toolbox           |
|  \\    /   O peration     | Version:  4.0                                   |
|   \\  /    A nd           | Web:      www.OpenFOAM.org                      |
|    \\/     M anipulation  |                                                 |
\*---------------------------------------------------------------------------*/
FoamFile
{
    version     2.0;
    format      ascii;
    class       surfaceScalarField;
    location    "0.02";
    object      phi;
}
// * * * * * * * * * * * * * * * * * * * * * * * * * * * * * * * * * * * * * //

dimensions      [0 3 -1 0 0 0 0];

internalField   nonuniform List<scalar> 
3364
(
-7.7136526e-11
1.6789375e-08
-4.0203435e-10
5.3569446e-08
8.5645028e-08
5.3100574e-11
1.6736258e-08
-7.3769792e-10
5.4360267e-08
8.4907345e-08
-7.579997e-11
1.6812052e-08
4.5549463e-10
5.3829033e-08
8.5362842e-08
-1.766649e-10
1.6988684e-08
1.6144088e-09
5.2037921e-08
8.6977207e-08
-3.9345564e-10
1.7382095e-08
5.2599929e-10
5.1118369e-08
8.750315e-08
-4.682599e-10
1.7850292e-08
-5.9060752e-10
5.124063e-08
8.6912522e-08
-1.2227144e-10
1.7972483e-08
1.5320405e-10
5.0965113e-08
8.7065706e-08
3.9250759e-11
1.7933213e-08
3.2428679e-10
5.0680065e-08
8.7389954e-08
-1.7125703e-10
1.8104481e-08
-1.2908191e-09
5.179963e-08
8.6099122e-08
3.5449756e-10
1.7749963e-08
-1.8621183e-09
5.4016231e-08
8.4237002e-08
4.7110131e-10
1.7278831e-08
-1.2105307e-09
5.5697853e-08
8.3026445e-08
-1.8733789e-10
1.7466152e-08
4.1147798e-10
5.5099024e-08
8.3437884e-08
-2.3429875e-10
1.7700414e-08
2.3942627e-09
5.2470409e-08
8.5832096e-08
3.2805801e-10
1.7372279e-08
1.0580538e-09
5.1740311e-08
8.6890078e-08
4.664414e-10
1.6905779e-08
-7.7777924e-10
5.2984436e-08
8.6112244e-08
1.8502305e-10
1.6720724e-08
1.0238826e-10
5.3067043e-08
8.6214608e-08
9.8726029e-11
1.6621968e-08
1.3686889e-09
5.1797095e-08
8.75833e-08
-6.7216395e-11
1.668913e-08
4.5153045e-10
5.1278305e-08
8.8034798e-08
-2.6107887e-10
1.6950163e-08
-6.7956482e-10
5.1696696e-08
8.7355175e-08
-1.5547599e-10
1.7105624e-08
2.1932489e-10
5.1321844e-08
8.7574443e-08
2.3208947e-10
1.6873488e-08
-7.4222593e-10
5.2296125e-08
8.6832191e-08
2.6356608e-10
1.6609861e-08
-8.6075489e-10
5.3420426e-08
8.5971414e-08
-3.8288514e-10
1.6992711e-08
8.989044e-10
5.2138614e-08
8.6870275e-08
-5.9184376e-10
1.7584515e-08
1.8486765e-10
5.1361854e-08
8.7055094e-08
3.4519204e-12
1.7581024e-08
-2.1939907e-10
5.1584651e-08
8.6835629e-08
1.8312611e-10
1.7397879e-08
4.6477667e-10
5.1302961e-08
8.7300345e-08
2.4925767e-10
1.7148587e-08
4.7905143e-10
5.107313e-08
8.7779348e-08
1.0470557e-10
1.7043849e-08
4.2175757e-11
5.1135654e-08
8.7821506e-08
5.9259055e-11
1.698461e-08
-2.1378371e-10
5.1408813e-08
8.7607757e-08
1.3548829e-09
1.5629925e-08
4.207232e-09
4.855664e-08
9.1815e-08
1.1213533e-08
4.4157571e-09
4.8770756e-08
1.0997539e-08
1.1336223e-08
1.2924693e-07
4.9960968e-09
-5.8083184e-10
1.7545499e-08
-1.5534028e-09
-1.5413145e-09
3.0421087e-08
-4.1331838e-10
-1.674815e-10
-1.5150196e-09
-4.516368e-10
-5.1927947e-10
-2.5369635e-09
-1.2301551e-10
-4.4453137e-11
-4.5864385e-10
-1.1597894e-10
-1.4358177e-10
-8.3431138e-10
-2.3352695e-11
-2.1099423e-11
-8.6743785e-11
-5.258501e-11
-6.1053094e-11
-1.6927055e-10
-8.5249461e-12
-1.2574499e-11
-2.9821888e-11
-3.1288163e-11
-3.6113217e-11
-5.4762657e-11
-3.9323661e-12
-8.642266e-12
-1.3050696e-11
-2.2170302e-11
-2.6674204e-11
-2.2490855e-11
-1.0823066e-12
-7.5601807e-12
-2.8681886e-12
-2.0385005e-11
-2.6534525e-11
-3.0087599e-12
-5.8066692e-13
-6.9796438e-12
-1.5286546e-12
-1.9437438e-11
-2.7306373e-11
-7.5746739e-13
-7.0383417e-13
-6.2758628e-12
-2.3470564e-12
-1.7794442e-11
-2.6155072e-11
-3.4987433e-12
-9.6930381e-13
-5.3065566e-12
-3.5641484e-12
-1.5199661e-11
-2.284495e-11
-6.8743962e-12
-1.0811819e-12
-4.2253406e-12
-4.0802642e-12
-1.2200542e-11
-1.8635449e-11
-8.2897397e-12
-9.4022211e-13
-3.2850841e-12
-3.6223225e-12
-9.5183854e-12
-1.4784288e-11
-7.4734216e-12
-6.6955228e-13
-2.6155119e-12
-2.5843978e-12
-7.6035083e-12
-1.183162e-11
-5.5370336e-12
-4.7693038e-13
-2.1385734e-12
-1.8394928e-12
-6.2409362e-12
-9.7894057e-12
-3.8817046e-12
-3.2098747e-13
-1.817587e-12
-1.240723e-12
-5.3212111e-12
-8.3763572e-12
-2.653793e-12
-2.0756681e-13
-1.6100269e-12
-7.9764399e-13
-4.7311577e-12
-7.5053669e-12
-1.6686753e-12
-1.32873e-13
-1.477163e-12
-5.1021058e-13
-4.3538491e-12
-6.9504798e-12
-1.0651468e-12
-9.6602394e-14
-1.3805695e-12
-3.699234e-13
-4.0805555e-12
-6.5533412e-12
-7.6710791e-13
-8.4890269e-14
-1.2956866e-12
-3.2293426e-13
-3.8425343e-12
-6.2086074e-12
-6.6770608e-13
-8.2166053e-14
-1.2135263e-12
-3.1447018e-13
-3.6102483e-12
-5.8645786e-12
-6.5852907e-13
-7.6229838e-14
-1.137301e-12
-3.0123236e-13
-3.3852604e-12
-5.5085963e-12
-6.5723836e-13
-7.6108363e-14
-1.0611961e-12
-2.9769267e-13
-3.1636877e-12
-5.1540318e-12
-6.5227628e-13
-7.510593e-14
-9.8609264e-13
-2.9473746e-13
-2.944065e-12
-4.8053879e-12
-6.4339639e-13
-7.258393e-14
-9.1351049e-13
-2.8685912e-13
-2.7297965e-12
-4.4670983e-12
-6.2516081e-13
-6.8243655e-14
-8.4526825e-13
-2.70478e-13
-2.5275678e-12
-4.1428514e-12
-5.947348e-13
-6.2635863e-14
-7.8263366e-13
-2.4875722e-13
-2.3414513e-12
-3.8428148e-12
-5.4880269e-13
-5.6448185e-14
-7.2618671e-13
-2.2529758e-13
-2.1726065e-12
-3.5690271e-12
-4.9909337e-13
-5.0935073e-14
-6.7525288e-13
-2.0298438e-13
-2.0205616e-12
-3.3216795e-12
-4.5033967e-13
-4.7069637e-14
-6.2818447e-13
-1.8509553e-13
-1.8825399e-12
-3.0984758e-12
-4.083065e-13
-4.1088256e-14
-5.8709743e-13
-1.6634576e-13
-1.7572865e-12
-2.8931821e-12
-3.7164641e-13
-3.7238531e-14
-5.4986007e-13
-1.4900836e-13
-1.6455205e-12
-2.7110835e-12
-3.3111351e-13
-3.4233285e-14
-5.1562785e-13
-1.363455e-13
-1.5434118e-12
-2.5441678e-12
-3.0326716e-13
-3.1850686e-14
-4.8377811e-13
-1.2685592e-13
-1.4484097e-12
-2.3882813e-12
-2.8274776e-13
-2.9573248e-14
-4.5420567e-13
-1.1782889e-13
-1.3601569e-12
-2.2436449e-12
-2.6247e-13
-2.7247971e-14
-4.2695839e-13
-1.084987e-13
-1.2789086e-12
-2.1104594e-12
-2.4168828e-13
-2.5102243e-14
-4.0185671e-13
-9.9934049e-14
-1.2040788e-12
-1.9877279e-12
-2.2266892e-13
-2.3102274e-14
-3.7875489e-13
-9.2027681e-14
-1.1351551e-12
-1.8745605e-12
-2.0519778e-13
-2.1097943e-14
-3.5765729e-13
-8.4075905e-14
-1.0721786e-12
-1.7710506e-12
-1.8758793e-13
-1.9056249e-14
-3.3860132e-13
-7.5906854e-14
-1.0153291e-12
-1.6775556e-12
-1.6940351e-13
-1.7084764e-14
-3.2151676e-13
-6.812073e-14
-9.6429398e-13
-1.5935023e-12
-1.5217535e-13
-1.5328422e-14
-3.061885e-13
-6.1265587e-14
-9.183575e-13
-1.5179167e-12
-1.3685225e-13
-1.3356203e-14
-2.9283242e-13
-5.3352912e-14
-8.7836135e-13
-1.4521721e-12
-1.1909831e-13
-1.1249966e-14
-2.8158256e-13
-4.4872952e-14
-8.4473882e-13
-1.3967278e-12
-1.0031795e-13
-9.3204326e-15
-2.722622e-13
-3.7269418e-14
-8.1679022e-13
-1.3505978e-12
-8.3399995e-14
-7.5619297e-15
-2.6470034e-13
-3.0467872e-14
-7.938846e-13
-1.3127982e-12
-6.8267958e-14
-5.9703862e-15
-2.5873001e-13
-2.3649679e-14
-7.7620561e-13
-1.2837371e-12
-5.2711165e-14
-4.1972434e-15
-2.5453285e-13
-1.6658405e-14
-7.6374481e-13
-1.263209e-12
-3.7187045e-14
-2.3036665e-15
-2.522293e-13
-9.3034842e-15
-7.5674542e-13
-1.2516501e-12
-2.0862989e-14
-5.0764501e-16
-2.1214132e-15
-4.8071328e-15
1.3901267e-07
-9.7710989e-09
-9.0773855e-09
1.4808367e-07
2.2245131e-08
-1.5963885e-09
-1.4261836e-09
1.4593364e-08
-3.5893046e-09
-5.4393039e-10
-5.5659045e-10
-4.4587499e-09
-1.2246107e-09
-1.535848e-10
-1.5799696e-10
-1.6231509e-09
-2.6612494e-10
-5.6724363e-11
-4.2091774e-11
-3.8202112e-10
-8.036196e-11
-3.1124682e-11
-1.5459824e-11
-1.0699304e-10
-2.869881e-11
-2.491791e-11
-1.4521021e-11
-2.9638495e-11
-1.1409641e-12
-2.6786759e-11
-2.1801838e-11
6.138622e-12
2.946079e-12
-3.0491172e-11
-2.9607034e-11
1.0750216e-11
-3.2233611e-12
-3.0767065e-11
-3.2187629e-11
-6.433809e-13
-9.8952879e-12
-2.7746349e-11
-3.0129791e-11
-1.1953343e-11
-1.2949969e-11
-2.3086102e-11
-2.5633505e-11
-1.744624e-11
-1.1985587e-11
-1.8573871e-11
-2.0898984e-11
-1.6720036e-11
-9.1784605e-12
-1.4932409e-11
-1.6914586e-11
-1.3162814e-11
-6.3817542e-12
-1.2432365e-11
-1.4107127e-11
-9.189222e-12
-4.2477315e-12
-1.0838462e-11
-1.2439549e-11
-5.9153614e-12
-2.680604e-12
-9.8265909e-12
-1.1539506e-11
-3.5807245e-12
-1.7436559e-12
-9.1481494e-12
-1.1022728e-11
-2.2605199e-12
-1.2253895e-12
-8.6899317e-12
-1.0545481e-11
-1.7027167e-12
-1.0655575e-12
-8.2921338e-12
-1.0059599e-11
-1.5515066e-12
-1.0596109e-12
-7.8910943e-12
-9.6222603e-12
-1.4970037e-12
-1.0885339e-12
-7.4598316e-12
-9.1601238e-12
-1.5507124e-12
-1.1215587e-12
-6.9905749e-12
-8.6416507e-12
-1.6400643e-12
-1.1126953e-12
-6.521297e-12
-8.0847351e-12
-1.6696369e-12
-1.0789446e-12
-6.0675304e-12
-7.5266168e-12
-1.6370847e-12
-1.0135128e-12
-5.6487671e-12
-7.0022743e-12
-1.5378743e-12
-9.4283145e-13
-5.2547512e-12
-6.5356383e-12
-1.4094845e-12
-8.6703302e-13
-4.8868234e-12
-6.1047864e-12
-1.2979005e-12
-7.8543239e-13
-4.5517417e-12
-5.694699e-12
-1.1955341e-12
-7.0953433e-13
-4.2505243e-12
-5.3226301e-12
-1.0816166e-12
-6.4719423e-13
-3.9749863e-12
-4.9877268e-12
-9.8211016e-13
-5.7656947e-13
-3.7295395e-12
-4.684177e-12
-8.8013096e-13
-5.3038001e-13
-3.5024349e-12
-4.4016124e-12
-8.1295522e-13
-4.9591403e-13
-3.2892761e-12
-4.1375471e-12
-7.5998873e-13
-4.5989229e-13
-3.0918603e-12
-3.8925103e-12
-7.0493723e-13
-4.2360764e-13
-2.9099464e-12
-3.666056e-12
-6.5006873e-13
-3.9047991e-13
-2.7421399e-12
-3.4567583e-12
-5.9978315e-13
-3.6013806e-13
-2.5872032e-12
-3.2633281e-12
-5.5357257e-13
-3.2947072e-13
-2.4453233e-12
-3.086023e-12
-5.0677925e-13
-2.9772208e-13
-2.3170069e-12
-2.9253684e-12
-4.5837931e-13
-2.6771603e-13
-2.2014679e-12
-2.78034e-12
-4.1274645e-13
-2.4061565e-13
-2.0977058e-12
-2.6503255e-12
-3.7063165e-13
-2.0930476e-13
-2.0075004e-12
-2.5374158e-12
-3.2221573e-13
-1.7662337e-13
-1.9311958e-12
-2.4415545e-12
-2.7248561e-13
-1.469778e-13
-1.8676187e-12
-2.3615733e-12
-2.2695979e-13
-1.2015017e-13
-1.815737e-12
-2.2965664e-12
-1.8515777e-13
-9.2728706e-14
-1.7757201e-12
-2.2462727e-12
-1.4302307e-13
-6.5481659e-14
-1.7474261e-12
-2.2106948e-12
-1.0106035e-13
-3.678997e-14
-1.7314999e-12
-2.1906305e-12
-5.6855154e-14
-8.5083218e-15
-1.3160343e-14
2.3968084e-12
-2.3967312e-12
7.2228049e-12
-4.8259062e-12
1.5242976e-11
-8.0200684e-12
2.694284e-11
-1.1699755e-11
4.1588529e-11
-1.4645576e-11
5.8086886e-11
-1.6498238e-11
7.5351695e-11
-1.7264695e-11
9.2425849e-11
-1.7074033e-11
1.0880288e-10
-1.6376917e-11
1.2445836e-10
-1.565537e-11
1.3910492e-10
-1.4646452e-11
1.5253214e-10
-1.3427114e-11
1.647083e-10
-1.2176062e-11
1.7577231e-10
-1.1063908e-11
1.8589228e-10
-1.0119886e-11
1.952587e-10
-9.3663194e-12
2.0401005e-10
-8.7513112e-12
2.1219627e-10
-8.1863301e-12
2.197746e-10
-7.5785313e-12
2.2663709e-10
-6.8626993e-12
2.3264379e-10
-6.0068985e-12
2.3763079e-10
-4.9871492e-12
2.4141703e-10
-3.7863343e-12
2.4385947e-10
-2.4424624e-12
-1.1115297e-12
-2.8365405e-11
2.5968755e-11
-6.0770514e-11
2.7579252e-11
-9.675446e-11
2.7963937e-11
-1.3636146e-10
2.7907259e-11
-1.8133209e-10
3.0325019e-11
-2.3339652e-10
3.556614e-11
-2.9406789e-10
4.3406593e-11
-3.6457543e-10
5.3433408e-11
-4.439612e-10
6.3008711e-11
-5.3107875e-10
7.1461997e-11
-6.2542427e-10
7.9698839e-11
-7.257129e-10
8.6861234e-11
-8.3030184e-10
9.2412548e-11
-9.3730778e-10
9.5941642e-11
-1.0448471e-09
9.7419e-11
-1.1509408e-09
9.6726869e-11
-1.2536199e-09
9.392724e-11
-1.3509349e-09
8.9128101e-11
-1.4409309e-09
8.2416862e-11
-1.5216427e-09
7.3848377e-11
-1.5911609e-09
6.3510599e-11
-1.6476781e-09
5.1529212e-11
-1.6895186e-09
3.8053285e-11
-1.7151134e-09
2.3151413e-11
6.9989089e-12
-1.0538757e-10
1.3135721e-10
-2.2808948e-10
1.5028206e-10
-3.6821144e-10
1.6808655e-10
-5.2332309e-10
1.8301883e-10
-6.9950331e-10
2.0650427e-10
-8.9818626e-10
2.3424759e-10
-1.1205267e-09
2.6574525e-10
-1.3687278e-09
3.0163318e-10
-1.6504416e-09
3.4472105e-10
-2.0205648e-09
4.4158336e-10
-2.4156117e-09
4.7474367e-10
-2.8170901e-09
4.8833728e-10
-3.2149094e-09
4.9022934e-10
-3.6014074e-09
4.8243696e-10
-3.9712067e-09
4.6721538e-10
-4.3199812e-09
4.4549826e-10
-4.6440476e-09
4.1799042e-10
-4.940632e-09
3.8570915e-10
-5.2061329e-09
3.4791428e-10
-5.4372159e-09
3.0492773e-10
-5.6309865e-09
2.5727751e-10
-5.7849212e-09
2.0546007e-10
-5.8968398e-09
1.4996803e-10
-5.9647047e-09
9.1012289e-11
2.9358193e-11
-3.888367e-10
5.2019716e-10
-8.008298e-10
5.622793e-10
-1.2512112e-09
6.1847127e-10
-1.7590671e-09
6.9087518e-10
-2.5113037e-09
9.587379e-10
-3.3080763e-09
1.0310131e-09
-4.0857054e-09
1.0433661e-09
-4.807989e-09
1.0239086e-09
-5.4487012e-09
9.8542537e-10
-5.943231e-09
9.3610487e-10
-6.348453e-09
8.7995763e-10
-6.679827e-09
8.1970347e-10
-6.9468915e-09
7.5728607e-10
-7.1604332e-09
6.9597114e-10
-7.3299439e-09
6.3671873e-10
-7.4630526e-09
5.7859971e-10
-7.5658564e-09
5.2078713e-10
-7.6397944e-09
4.5964021e-10
-7.6894648e-09
3.975779e-10
-7.7205669e-09
3.3602316e-10
-7.7384452e-09
2.7514925e-10
-7.7476563e-09
2.1466474e-10
-7.7520947e-09
1.544e-10
-7.7548907e-09
9.3802074e-11
3.361702e-11
-2.2880978e-09
2.8083039e-09
-4.1374098e-09
2.4115976e-09
-5.8742437e-09
2.3553084e-09
-7.1448908e-09
1.9615165e-09
-7.8124513e-09
1.6262888e-09
-8.0329102e-09
1.25146e-09
-7.8553688e-09
8.6581186e-10
-7.3858993e-09
5.5442654e-10
-6.7477131e-09
3.472276e-10
-5.9803341e-09
1.6871534e-10
-5.118171e-09
1.7785406e-11
-4.1923408e-09
-1.0613456e-10
-3.2377051e-09
-1.9735569e-10
-2.3067482e-09
-2.3498973e-10
-1.400693e-09
-2.6933877e-10
-5.2035067e-10
-3.0174358e-10
3.3873018e-10
-3.3829324e-10
1.2246106e-09
-4.262385e-10
2.0520325e-09
-4.298412e-10
2.7905946e-09
-4.0253518e-10
3.4213284e-09
-3.5558003e-10
3.9295711e-09
-2.9357292e-10
4.3027381e-09
-2.1876159e-10
4.530581e-09
-1.3403522e-10
-3.9426207e-11
8.326235e-10
1.9757649e-09
3.7684848e-09
-5.2421743e-10
7.1673663e-09
-1.0434937e-09
1.034747e-08
-1.2185237e-09
1.3630597e-08
-1.6567904e-09
1.6954345e-08
-2.0722528e-09
2.0173787e-08
-2.3535928e-09
2.3208794e-08
-2.4805403e-09
2.6044726e-08
-2.4886605e-09
2.8642446e-08
-2.4289568e-09
3.0995093e-08
-2.3348111e-09
3.311193e-08
-2.2229174e-09
3.5009074e-08
-2.0944438e-09
3.6739122e-08
-1.9649799e-09
3.8304994e-08
-1.8351521e-09
3.9699916e-08
-1.6966071e-09
4.0916056e-08
-1.5543736e-09
4.1898577e-08
-1.4087007e-09
4.2724564e-08
-1.2557697e-09
4.341521e-08
-1.0931235e-09
4.3979354e-08
-9.1966672e-10
4.4421246e-08
-7.3540831e-10
4.4741408e-08
-5.3886784e-10
4.4939347e-08
-3.31919e-10
-1.0914948e-10
1.5264326e-07
-2.582594e-09
1.5186327e-07
2.5670771e-10
1.5017696e-07
6.4362471e-10
1.4804321e-07
9.1593989e-10
1.4512255e-07
1.2645124e-09
1.4132091e-07
1.7299421e-09
1.3691111e-07
2.0566958e-09
1.3221097e-07
2.2200212e-09
1.2747262e-07
2.2500611e-09
1.2283085e-07
2.213155e-09
1.1834542e-07
2.150915e-09
1.1405923e-07
2.0635395e-09
1.1000618e-07
1.9588468e-09
1.0619658e-07
1.8448432e-09
1.0263681e-07
1.7248076e-09
9.9336875e-08
1.6035161e-09
9.630555e-08
1.4771203e-09
9.355355e-08
1.3434557e-09
9.1097484e-08
1.2004412e-09
8.8957587e-08
1.0469089e-09
8.7155957e-08
8.8209041e-10
8.5714464e-08
7.0620464e-10
8.4657688e-08
5.1802212e-10
8.4006533e-08
3.1934486e-10
1.0517397e-10
1.3441296e-08
-1.4303957e-09
1.5469775e-08
-1.7716583e-09
1.7768507e-08
-1.6549947e-09
2.0130771e-08
-1.4462153e-09
2.2563037e-08
-1.1676493e-09
2.5134608e-08
-8.4152896e-10
2.7694858e-08
-5.034572e-10
3.0218711e-08
-3.0373842e-10
3.2594164e-08
-1.2530327e-10
3.4779425e-08
2.7980128e-11
3.6772202e-08
1.5822171e-10
3.8608255e-08
2.2756988e-10
4.0286779e-08
2.8040398e-10
4.1797621e-08
3.3408133e-10
4.3113349e-08
4.0915899e-10
4.4172154e-08
5.4478823e-10
4.5078811e-08
5.7053966e-10
4.5858809e-08
5.6353161e-10
4.652565e-08
5.3367205e-10
4.708709e-08
4.8553994e-10
4.7547453e-08
4.2179599e-10
4.790904e-08
3.446848e-10
4.8171785e-08
2.5534242e-10
4.8334663e-08
1.5652987e-10
4.7571734e-11
-5.262386e-09
-6.2677517e-10
-6.2962656e-09
-7.3779568e-10
-7.0226538e-09
-9.2862619e-10
-7.4694063e-09
-9.9948375e-10
-7.6056135e-09
-1.031463e-09
-7.4150784e-09
-1.0320839e-09
-6.9092166e-09
-1.0093368e-09
-6.2415022e-09
-9.7146816e-10
-5.4454749e-09
-9.213435e-10
-4.5535978e-09
-8.6390733e-10
-3.5925411e-09
-8.0284278e-10
-2.623815e-09
-7.4116171e-10
-1.662743e-09
-6.8067145e-10
-7.0642413e-10
-6.2223904e-10
2.6770828e-10
-5.6497294e-10
1.3167131e-09
-5.0421415e-10
2.3322119e-09
-4.4495497e-10
3.2835483e-09
-3.8779898e-10
4.1498826e-09
-3.3265526e-10
4.9147015e-09
-2.7927082e-10
5.5639056e-09
-2.2739927e-10
6.0852156e-09
-1.7661579e-10
6.4673017e-09
-1.2673409e-10
6.701015e-09
-7.7173577e-11
-2.8675473e-11
-2.0782547e-09
-1.7167837e-10
-2.6285919e-09
-1.8746721e-10
-3.3498283e-09
-2.0740133e-10
-4.1100372e-09
-2.3928925e-10
-4.8632886e-09
-2.782279e-10
-5.5709077e-09
-3.244812e-10
-6.1889281e-09
-3.9133316e-10
-6.6676387e-09
-4.9277413e-10
-7.0634676e-09
-5.2553101e-10
-7.3847791e-09
-5.4261172e-10
-7.638464e-09
-5.4917351e-10
-7.832513e-09
-5.471277e-10
-7.976048e-09
-5.37151e-10
-8.0775877e-09
-5.2071332e-10
-8.1439408e-09
-4.9863333e-10
-8.1763306e-09
-4.7183735e-10
-8.1816927e-09
-4.3960524e-10
-8.1672068e-09
-4.0229673e-10
-8.1395282e-09
-3.6034535e-10
-8.1046714e-09
-3.1413851e-10
-8.0679849e-09
-2.6409621e-10
-8.0340672e-09
-2.1054356e-10
-8.0071978e-09
-1.5361318e-10
-7.9910827e-09
-9.3298016e-11
-3.0406573e-11
-5.2139599e-10
-3.2305217e-11
-6.8429975e-10
-2.4565783e-11
-8.7191521e-10
-1.9788998e-11
-1.0880587e-09
-2.3149192e-11
-1.3335496e-09
-3.2740761e-11
-1.6109242e-09
-4.7110809e-11
-1.9395903e-09
-6.2671739e-11
-2.3524021e-09
-7.9967523e-11
-2.7879664e-09
-8.9972588e-11
-3.2288082e-09
-1.0177636e-10
-3.6655222e-09
-1.1246647e-10
-4.0916153e-09
-1.21042e-10
-4.5023633e-09
-1.2641085e-10
-4.8939782e-09
-1.2910654e-10
-5.2631286e-09
-1.2949143e-10
-5.6072224e-09
-1.2775211e-10
-5.9228431e-09
-1.239934e-10
-6.2068947e-09
-1.1825403e-10
-6.4567186e-09
-1.105304e-10
-6.6700306e-09
-1.0083554e-10
-6.8450116e-09
-8.9124108e-11
-6.9810642e-09
-7.4499828e-11
-7.0787854e-09
-5.5900668e-11
-7.1391375e-09
-3.295452e-11
-9.1249923e-12
-1.4411979e-10
4.8210576e-12
-1.9144948e-10
2.2763144e-11
-2.4905274e-10
3.7813264e-11
-3.2045465e-10
4.8251541e-11
-4.0735548e-10
5.415874e-11
-5.1058891e-10
5.6121151e-11
-6.2735847e-10
5.4096193e-11
-7.5729622e-10
4.9968427e-11
-8.9377517e-10
4.6504385e-11
-1.0384535e-09
4.2899758e-11
-1.1894539e-09
3.8531635e-11
-1.3436948e-09
3.3196335e-11
-1.5000603e-09
2.9951975e-11
-1.656099e-09
2.6929365e-11
-1.8096316e-09
2.4038164e-11
-1.9588424e-09
2.1455572e-11
-2.1020026e-09
1.9163625e-11
-2.237335e-09
1.7074969e-11
-2.3629562e-09
1.5087366e-11
-2.4768935e-09
1.3098114e-11
-2.5770247e-09
1.1003505e-11
-2.6602573e-09
8.7291081e-12
-2.7224962e-09
6.3345595e-12
-2.7594162e-09
3.9618723e-12
1.6904358e-12
-2.6324258e-11
1.5067851e-12
-1.9931373e-11
1.6370209e-11
-1.324862e-11
3.1130444e-11
-9.0774568e-12
4.4080287e-11
-8.7771885e-12
5.385835e-11
-1.3263268e-11
6.0607068e-11
-2.3396027e-11
6.4228741e-11
-3.8846357e-11
6.5418498e-11
-5.7572453e-11
6.5230176e-11
-7.8679914e-11
6.400687e-11
-1.0181898e-10
6.1670319e-11
-1.2723732e-10
5.8614252e-11
-1.5297031e-10
5.5684522e-11
-1.7866796e-10
5.2626552e-11
-2.0398077e-10
4.9350481e-11
-2.2840776e-10
4.5882057e-11
-2.5146718e-10
4.2222521e-11
-2.7275409e-10
3.8361355e-11
-2.9192585e-10
3.4258584e-11
-3.0870624e-10
2.9877966e-11
-3.2289722e-10
2.5193944e-11
-3.3433402e-10
2.0165372e-11
-3.4276299e-10
1.4762987e-11
-3.4781046e-10
9.0088194e-12
3.0770526e-12
2.022132e-11
-1.2575734e-11
3.9444383e-11
-2.852639e-12
6.23574e-11
8.2176758e-12
8.8689915e-11
1.7748053e-11
1.1538545e-10
2.7163126e-11
1.4169804e-10
3.4294806e-11
1.6665007e-10
3.9277065e-11
1.897715e-10
4.2297425e-11
2.113766e-10
4.3625447e-11
2.3186014e-10
4.3523704e-11
2.5112094e-10
4.2409912e-11
2.6929075e-10
4.0444832e-11
2.8689401e-10
3.8081666e-11
3.0412985e-10
3.5391126e-11
3.2097439e-10
3.2506363e-11
3.373713e-10
2.9485574e-11
3.5306323e-10
2.6531039e-11
3.6790502e-10
2.3520011e-11
3.8163114e-10
2.0532929e-11
3.9400738e-10
1.7502192e-11
4.0482198e-10
1.4379812e-11
4.1372382e-10
1.1264003e-11
4.2038472e-10
8.1025522e-12
4.2453174e-10
4.8622676e-12
1.4872316e-12
2.3789364e-11
-2.5614758e-11
3.9504033e-11
-1.8567144e-11
5.9620824e-11
-1.1898917e-11
8.3332297e-11
-5.9631838e-12
1.1011665e-10
3.7904676e-13
1.3816021e-10
6.2515639e-12
1.6633239e-10
1.1105224e-11
1.9373651e-10
1.4893684e-11
2.199367e-10
1.7425656e-11
2.4485065e-10
1.861018e-11
2.686552e-10
1.8605801e-11
2.9102001e-10
1.8080486e-11
3.1197236e-10
1.7129789e-11
3.314852e-10
1.5878773e-11
3.4954533e-10
1.4446729e-11
3.6611231e-10
1.2919103e-11
3.8135248e-10
1.1291391e-11
3.9511876e-10
9.7542567e-12
4.0740293e-10
8.2492869e-12
4.1809435e-10
6.8112991e-12
4.2707235e-10
5.4023394e-12
4.3425274e-10
4.0841377e-12
4.3950685e-10
2.8489566e-12
4.4270477e-10
1.6648596e-12
5.0074358e-13
4.8813547e-12
-3.1139473e-11
1.4455631e-11
-2.8141369e-11
2.673794e-11
-2.4181144e-11
3.9987261e-11
-1.9212396e-11
5.5627494e-11
-1.5261049e-11
7.2837391e-11
-1.0958168e-11
9.0768928e-11
-6.8261227e-12
1.0904033e-10
-3.3775029e-12
1.2735895e-10
-8.9273006e-13
1.4468953e-10
1.2798528e-12
1.6041534e-10
2.8802518e-12
1.7461196e-10
3.8841443e-12
1.8740117e-10
4.3408653e-12
1.9880829e-10
4.4719472e-12
2.0888384e-10
4.3714859e-12
2.1775121e-10
4.0520347e-12
2.2542975e-10
3.6131548e-12
2.319956e-10
3.1887082e-12
2.3766123e-10
2.5839626e-12
2.4246744e-10
2.0053926e-12
2.4636068e-10
1.5093971e-12
2.4935029e-10
1.0948213e-12
2.5145094e-10
7.4859655e-13
2.5268598e-10
4.3010385e-13
1.0824788e-13
-1.2595475e-11
-3.0497396e-11
-1.1382493e-11
-2.9354392e-11
-8.4563823e-12
-2.7107282e-11
-3.537015e-12
-2.4131774e-11
2.2141181e-12
-2.1012179e-11
8.7460357e-12
-1.7490069e-11
1.6024013e-11
-1.4104072e-11
2.3874217e-11
-1.1227667e-11
3.165733e-11
-8.6757934e-12
3.9284361e-11
-6.3471217e-12
4.6454274e-11
-4.2895971e-12
5.2925365e-11
-2.5868778e-12
5.8781381e-11
-1.5150776e-12
6.3795718e-11
-5.4231264e-13
6.7969276e-11
1.9800555e-13
7.1360123e-11
6.6126759e-13
7.4040618e-11
9.3274019e-13
7.6173536e-11
1.0558701e-12
7.7732957e-11
1.024621e-12
7.8805485e-11
9.3294276e-13
7.9635626e-11
6.7933382e-13
8.026372e-11
4.6680189e-13
8.0699294e-11
3.1309736e-13
8.0974058e-11
1.5541365e-13
-9.7634715e-14
-2.1376003e-11
-2.6567736e-11
-2.4540652e-11
-2.6189842e-11
-2.6780936e-11
-2.4867093e-11
-2.8064596e-11
-2.2848205e-11
-2.8553558e-11
-2.0523302e-11
-2.8158005e-11
-1.7885703e-11
-2.702324e-11
-1.5238914e-11
-2.597179e-11
-1.2279191e-11
-2.4521873e-11
-1.0125782e-11
-2.2856257e-11
-8.0128064e-12
-2.1180507e-11
-5.9654139e-12
-1.9263627e-11
-4.503822e-12
-1.7729411e-11
-3.049355e-12
-1.6626768e-11
-1.645016e-12
-1.5939119e-11
-4.8970161e-13
-1.5579019e-11
3.0110968e-13
-1.5544483e-11
8.9814836e-13
-1.5897246e-11
1.4085782e-12
-1.6421498e-11
1.5488188e-12
-1.7019733e-11
1.5311253e-12
-1.7745044e-11
1.4045929e-12
-1.8494575e-11
1.2162809e-12
-1.9112192e-11
9.3066378e-13
-1.9622487e-11
6.6566091e-13
3.6788685e-13
-2.1402745e-11
-2.1885146e-11
-2.5716152e-11
-2.1876554e-11
-2.9584442e-11
-2.099892e-11
-3.3344362e-11
-1.9088402e-11
-3.6169088e-11
-1.7698694e-11
-3.8668846e-11
-1.5386062e-11
-4.0279903e-11
-1.3627974e-11
-4.1157666e-11
-1.1401544e-11
-4.21402e-11
-9.1433629e-12
-4.311806e-11
-7.0350618e-12
-4.3867107e-11
-5.216481e-12
-4.4507452e-11
-3.8635889e-12
-4.5145014e-11
-2.4119056e-12
-4.5690817e-11
-1.0993226e-12
-4.6208364e-11
2.7736949e-14
-4.680919e-11
9.018296e-13
-4.7483103e-11
1.5719569e-12
-4.8106678e-11
2.0320508e-12
-4.881313e-11
2.2551709e-12
-4.9557068e-11
2.2749657e-12
-5.0276173e-11
2.1236028e-12
-5.0882349e-11
1.8223634e-12
-5.1344367e-11
1.3925903e-12
-5.1574074e-11
8.9528092e-13
3.3123114e-13
-1.7216821e-11
-1.7831253e-11
-2.1218397e-11
-1.7875094e-11
-2.5024483e-11
-1.7192951e-11
-2.804887e-11
-1.6064131e-11
-3.104387e-11
-1.4703808e-11
-3.3263699e-11
-1.3166349e-11
-3.5055204e-11
-1.1836582e-11
-3.647901e-11
-9.9778514e-12
-3.7881229e-11
-7.7412566e-12
-3.8990295e-11
-5.9261072e-12
-3.9874962e-11
-4.3319245e-12
-4.0818072e-11
-2.9205885e-12
-4.1571424e-11
-1.6586614e-12
-4.2117537e-11
-5.5331546e-13
-4.2504809e-11
4.1490555e-13
-4.2822375e-11
1.2192941e-12
-4.3093233e-11
1.8427156e-12
-4.3314425e-11
2.2531469e-12
-4.3518228e-11
2.45888e-12
-4.3714901e-11
2.4715476e-12
-4.3889739e-11
2.2983517e-12
-4.4019078e-11
1.9516164e-12
-4.4066355e-11
1.4397834e-12
-4.3927566e-11
7.5641203e-13
1.5365819e-13
-1.2025455e-11
-1.4995124e-11
-1.4737561e-11
-1.5163091e-11
-1.715721e-11
-1.4773403e-11
-1.9248433e-11
-1.3973007e-11
-2.1050845e-11
-1.2901493e-11
-2.2304667e-11
-1.1912622e-11
-2.3342893e-11
-1.0798449e-11
-2.4086412e-11
-9.2344222e-12
-2.4672793e-11
-7.1549647e-12
-2.4973695e-11
-5.6252914e-12
-2.5093577e-11
-4.2121268e-12
-2.5129767e-11
-2.8844806e-12
-2.5113557e-11
-1.674951e-12
-2.5043459e-11
-6.2349192e-13
-2.4722379e-11
9.375008e-14
-2.4363043e-11
8.5988502e-13
-2.3940811e-11
1.4204138e-12
-2.3494038e-11
1.8063062e-12
-2.3075111e-11
2.0398879e-12
-2.2700573e-11
2.0969462e-12
-2.2388065e-11
1.9857826e-12
-2.2164633e-11
1.7281268e-12
-2.209025e-11
1.3653428e-12
-2.2176356e-11
8.4246458e-13
1.7974542e-13
-7.5127418e-12
-1.3397836e-11
-8.9066318e-12
-1.3769289e-11
-1.0024752e-11
-1.3655367e-11
-1.0925203e-11
-1.3072635e-11
-1.1585796e-11
-1.2240975e-11
-1.2106615e-11
-1.1391875e-11
-1.2353972e-11
-1.0551159e-11
-1.2195778e-11
-9.3926814e-12
-1.1581491e-11
-7.769313e-12
-1.0944079e-11
-6.2627611e-12
-1.0267706e-11
-4.8885539e-12
-9.5518415e-12
-3.6003976e-12
-8.737331e-12
-2.4895111e-12
-7.6674373e-12
-1.6934326e-12
-6.5829399e-12
-9.9079146e-13
-5.4376441e-12
-2.8545236e-13
-4.3145802e-12
2.9731102e-13
-3.2299926e-12
7.216821e-13
-2.2896667e-12
1.0995278e-12
-1.4616281e-12
1.2688753e-12
-7.4835893e-13
1.2724825e-12
-1.4952439e-13
1.1292631e-12
3.9026663e-13
8.2552351e-13
7.4422156e-13
4.8848368e-13
2.6432718e-13
-4.4232579e-12
-1.2555383e-11
-5.004084e-12
-1.3188537e-11
-5.3662023e-12
-1.3293316e-11
-5.4521222e-12
-1.2986777e-11
-5.287032e-12
-1.2406122e-11
-5.0149681e-12
-1.166399e-11
-4.7307734e-12
-1.0835401e-11
-4.1042109e-12
-1.0019287e-11
-3.0261917e-12
-8.8473711e-12
-1.7604294e-12
-7.5285585e-12
-2.557012e-13
-6.3933135e-12
1.27502e-12
-5.1311468e-12
2.8308765e-12
-4.0453925e-12
4.3318793e-12
-3.1944574e-12
5.9072964e-12
-2.5662279e-12
7.4871497e-12
-1.8653223e-12
9.076266e-12
-1.2918195e-12
1.0601195e-11
-8.0325893e-13
1.2030705e-11
-3.2999267e-13
1.3299013e-11
5.5903333e-16
1.4380913e-11
1.9057574e-13
1.5230181e-11
2.7998883e-13
1.5755387e-11
3.0031104e-13
1.6042779e-11
2.0108775e-13
-2.287622e-15
-2.7433577e-12
-1.2072613e-11
-3.0814132e-12
-1.2850543e-11
-3.0911174e-12
-1.3283668e-11
-2.8185027e-12
-1.3259441e-11
-2.2818587e-12
-1.2942809e-11
-1.523987e-12
-1.2421899e-11
-6.231808e-13
-1.1736239e-11
1.9027921e-13
-1.0832774e-11
1.2664391e-12
-9.9235541e-12
2.757402e-12
-9.0195405e-12
4.3838935e-12
-8.0198204e-12
6.2775509e-12
-7.0248162e-12
8.2220887e-12
-5.9899387e-12
1.0095069e-11
-5.0674435e-12
1.1820833e-11
-4.2919948e-12
1.3558633e-11
-3.6031227e-12
1.5328218e-11
-3.0614026e-12
1.6971007e-11
-2.4460442e-12
1.8547488e-11
-1.9064689e-12
2.0003954e-11
-1.4559006e-12
2.1274892e-11
-1.0803554e-12
2.2315863e-11
-7.6097383e-13
2.3161961e-11
-5.4578024e-13
2.3644102e-11
-2.8104374e-13
-5.6384986e-14
-1.9993312e-12
-1.1776056e-11
-2.2158106e-12
-1.2634115e-11
-2.2960806e-12
-1.3203443e-11
-2.0130911e-12
-1.354247e-11
-1.4999329e-12
-1.3456001e-11
-7.4557294e-13
-1.3176287e-11
1.4756396e-13
-1.2629399e-11
1.2075678e-12
-1.1892796e-11
2.425085e-12
-1.1141085e-11
3.7583796e-12
-1.0352845e-11
5.2189261e-12
-9.480373e-12
6.8262384e-12
-8.6321312e-12
8.7658599e-12
-7.9295601e-12
1.0725332e-11
-7.026913e-12
1.2556526e-11
-6.1231823e-12
1.43064e-11
-5.3529891e-12
1.5909148e-11
-4.6641413e-12
1.7457067e-11
-3.9939517e-12
1.8925272e-11
-3.374662e-12
2.0267018e-11
-2.7976335e-12
2.1455146e-11
-2.2684699e-12
2.2414397e-11
-1.7202105e-12
2.3059237e-11
-1.1906077e-12
2.3513587e-11
-7.3537894e-13
-3.0070472e-13
-1.8508946e-12
-1.1476717e-11
-2.0564719e-12
-1.2428581e-11
-2.1353159e-12
-1.3124637e-11
-2.1061635e-12
-1.3571654e-11
-1.8481605e-12
-1.3714031e-11
-1.3573783e-12
-1.3667092e-11
-7.0571844e-13
-1.3281077e-11
1.838513e-13
-1.2782379e-11
1.2638801e-12
-1.2221123e-11
2.4504537e-12
-1.1539423e-11
3.7839612e-12
-1.0813882e-11
5.219358e-12
-1.0067527e-11
6.6148199e-12
-9.325018e-12
8.1038848e-12
-8.5159716e-12
9.7673647e-12
-7.7866537e-12
1.1340077e-11
-6.9256912e-12
1.2797178e-11
-6.1212308e-12
1.416515e-11
-5.3619106e-12
1.5433293e-11
-4.6427905e-12
1.656822e-11
-3.9325463e-12
1.7533884e-11
-3.2341194e-12
1.8346713e-11
-2.5330241e-12
1.8963249e-11
-1.8071301e-12
1.9333745e-11
-1.1058597e-12
-3.8242528e-13
-1.9246825e-12
-1.104908e-11
-2.2209208e-12
-1.2132379e-11
-2.4043422e-12
-1.2941247e-11
-2.5051954e-12
-1.3470828e-11
-2.4804742e-12
-1.3738774e-11
-2.3626623e-12
-1.3784922e-11
-2.0288257e-12
-1.3614928e-11
-1.4906726e-12
-1.3320543e-11
-7.9873848e-13
-1.2913064e-11
7.0237688e-14
-1.2408404e-11
1.0418425e-12
-1.1785488e-11
2.087977e-12
-1.111366e-11
3.1754237e-12
-1.0412461e-11
4.3371081e-12
-9.6776499e-12
5.4729799e-12
-8.9225177e-12
6.6572353e-12
-8.1099371e-12
7.8136615e-12
-7.2776464e-12
8.9076588e-12
-6.4558964e-12
9.898703e-12
-5.6338224e-12
1.0778148e-11
-4.8119788e-12
1.1517286e-11
-3.9732453e-12
1.2102373e-11
-3.1180983e-12
1.2597236e-11
-2.3019816e-12
1.2873151e-11
-1.3817619e-12
-4.5001264e-13
-2.0183368e-12
-1.0581491e-11
-2.4732359e-12
-1.1677511e-11
-2.8280212e-12
-1.2586489e-11
-3.1100828e-12
-1.318879e-11
-3.2978108e-12
-1.3551066e-11
-3.3953877e-12
-1.3687361e-11
-3.409119e-12
-1.3601209e-11
-3.2411637e-12
-1.3488508e-11
-2.9159885e-12
-1.3238246e-11
-2.4925082e-12
-1.2831888e-11
-1.9354444e-12
-1.2342554e-11
-1.2963074e-12
-1.1752796e-11
-5.9808141e-13
-1.1110684e-11
1.3434052e-13
-1.0410068e-11
8.7609677e-13
-9.6642684e-12
1.6488368e-12
-8.8826705e-12
2.4353888e-12
-8.0641907e-12
3.1957194e-12
-7.2162185e-12
3.8985779e-12
-6.3366719e-12