/*--------------------------------*- C++ -*----------------------------------*\
| =========                 |                                                 |
| \\      /  F ield         | OpenFOAM: The Open Source CFD Toolbox           |
|  \\    /   O peration     | Version:  4.0                                   |
|   \\  /    A nd           | Web:      www.OpenFOAM.org                      |
|    \\/     M anipulation  |                                                 |
\*---------------------------------------------------------------------------*/
FoamFile
{
    version     2.0;
    format      ascii;
    class       volVectorField;
    location    "0.02";
    object      U;
}
// * * * * * * * * * * * * * * * * * * * * * * * * * * * * * * * * * * * * * //

dimensions      [0 1 -1 0 0 0 0];

internalField   nonuniform List<vector> 
1740
(
(1.5147527 -0.0026592876 5.3102485e-06)
(1.6164063 -0.0076335219 7.0719967e-07)
(1.5762137 -0.0043689629 4.7710291e-08)
(1.5847809 0.0022008077 8.3985897e-06)
(1.6598502 -0.014713005 1.7354999e-06)
(1.5736085 -0.012671063 3.0431417e-07)
(1.507213 0.0021737621 1.1225128e-05)
(1.6742483 -0.0014935992 2.3045303e-06)
(1.5083984 0.0010288843 4.5670823e-07)
(1.5649261 -0.0083639207 1.3471104e-05)
(1.6414434 0.023995672 3.6079431e-06)
(1.6241899 0.01584474 5.3389397e-07)
(1.5694025 -0.011597417 1.4982308e-05)
(1.5442658 0.0062944224 4.4573003e-06)
(1.6454799 0.0025041399 8.3930487e-07)
(1.5970184 -0.012570019 1.5895879e-05)
(1.569333 -0.012273609 5.0065601e-06)
(1.5709304 -0.011681104 9.7568915e-07)
(1.6924106 -0.0049564763 1.7098162e-05)
(1.5872213 0.0022805192 6.2180256e-06)
(1.5779338 0.0026030859 1.2003008e-06)
(1.6318216 -0.0052637904 1.8506765e-05)
(1.5369048 0.0032156543 6.9426102e-06)
(1.6280069 0.0043353414 1.3641538e-06)
(1.6152407 -0.0059904414 1.8979475e-05)
(1.5308055 -0.025392944 7.4561021e-06)
(1.5797833 -0.018879717 1.6162682e-06)
(1.6963092 0.010441312 1.9593565e-05)
(1.6267818 -0.022019468 8.277117e-06)
(1.5528917 -0.024562138 1.7622756e-06)
(1.5801334 0.013824167 1.9897562e-05)
(1.6892592 -0.0089813944 8.7414647e-06)
(1.5599917 -0.011366762 2.0033834e-06)
(1.5907714 -0.0040002672 2.0509306e-05)
(1.721311 0.0044940063 9.3376708e-06)
(1.4906511 0.0044267191 2.1762635e-06)
(1.6020589 -0.0048714839 2.0617579e-05)
(1.6367109 0.032964775 9.788816e-06)
(1.5203915 0.02368684 2.3889183e-06)
(1.6150477 0.0060057085 2.0492384e-05)
(1.5466639 0.023326743 1.0172975e-05)
(1.632805 0.017537371 2.5429125e-06)
(1.600501 0.0084235203 2.0455861e-05)
(1.6384526 0.0031683108 1.0533824e-05)
(1.6274932 -0.0060821307 2.7823985e-06)
(1.5012681 0.0037658861 2.0584233e-05)
(1.6023237 0.0043824881 1.0993409e-05)
(1.4990431 -0.0024045639 2.911212e-06)
(1.5450198 0.010349598 2.0995008e-05)
(1.6024236 0.018604866 1.1396005e-05)
(1.5862413 0.0067980559 3.0399411e-06)
(1.5166617 0.0017020771 2.1503995e-05)
(1.5918634 0.0068086854 1.1770379e-05)
(1.6970911 0.0044368146 3.2643768e-06)
(1.5617948 -0.013523377 2.188444e-05)
(1.5773445 -0.0075451606 1.2152135e-05)
(1.5909631 -0.0013316099 3.4484985e-06)
(1.5897165 -0.0031483684 2.1666008e-05)
(1.5932493 -0.002024213 1.2428859e-05)
(1.592832 0.002931816 3.6168396e-06)
(1.5169193 0.011340156 2.1528229e-05)
(1.5217438 -0.009404184 1.2747634e-05)
(1.6184773 -0.01268146 3.7829084e-06)
(1.5380245 0.0090704434 2.1866948e-05)
(1.634314 -0.0079645543 1.3077595e-05)
(1.5273834 -0.0089949087 3.9112338e-06)
(1.5219636 -0.012175236 2.1998684e-05)
(1.6499841 0.0055503547 1.3435988e-05)
(1.6089123 0.010271282 4.0969611e-06)
(1.5965784 -0.022456203 2.2128112e-05)
(1.5537396 -0.0028613349 1.3762051e-05)
(1.6132709 0.0047673046 4.2473431e-06)
(1.6230327 -0.0032952555 2.2690339e-05)
(1.5620336 -0.0018079837 1.4103425e-05)
(1.5668728 0.0039961361 4.4157305e-06)
(1.5785271 0.0036514064 2.2973828e-05)
(1.5614195 0.010182845 1.4422209e-05)
(1.5678368 0.0059972231 4.5383334e-06)
(1.5639252 0.010596069 2.2551166e-05)
(1.5414062 0.0063768438 1.4663888e-05)
(1.6018801 0.0062437285 4.6703656e-06)
(1.5137083 0.0038973509 2.2763627e-05)
(1.5189522 0.001212473 1.4879066e-05)
(1.5805591 -0.0080587135 4.8578789e-06)
(1.4398689 0.0067674783 2.2198025e-05)
(1.460857 -0.0098267717 1.5078275e-05)
(1.5599253 -0.0058488343 4.851606e-06)
(1.2915404 0.036149736 2.3151406e-05)
(1.3099656 0.077737965 1.5717455e-05)
(1.4450913 0.049165922 5.5295342e-06)
(0.84482556 0.36250395 1.1783495e-05)
(0.82218112 0.93416241 9.9364381e-06)
(0.75360623 1.2619803 5.3825751e-06)
(0.22291826 0.11611302 1.5300327e-06)
(0.19097883 0.377203 3.118593e-06)
(0.094604059 0.51928465 6.9969556e-07)
(-0.03441472 -0.014280919 1.105962e-06)
(-0.030872866 -0.029298058 1.3560816e-06)
(-0.019772028 -0.032988279 3.1405644e-07)
(-0.0097337451 -0.0036057682 3.1374783e-07)
(-0.0086857421 -0.0090550702 4.0684792e-07)
(-0.0067121467 -0.011739209 1.1190486e-07)
(-0.0032128314 -0.00061249821 5.0969221e-08)
(-0.0027647033 -0.001568594 7.825275e-08)
(-0.0020053205 -0.0022154046 2.1496722e-08)
(-0.0018304107 -0.00025091203 7.0873177e-09)
(-0.0015509386 -0.00054656974 1.1845315e-08)
(-0.0010790351 -0.00073997223 3.2633073e-09)
(-0.0010935919 -0.00012350673 2.7388555e-09)
(-0.00093898256 -0.00024930396 3.5616152e-09)
(-0.0006683606 -0.00032039957 1.6414872e-09)
(-0.00078124356 -3.6150095e-05 -2.0262191e-10)
(-0.00068850622 -5.4828475e-05 7.3523417e-10)
(-0.00052119894 -6.0791637e-05 4.617735e-10)
(-0.00063995593 -2.0611789e-05 -1.4301475e-09)
(-0.00058200716 -3.5145601e-05 -7.2657713e-10)
(-0.00047332345 -2.7238852e-05 -4.0866188e-10)
(-0.00055919103 -2.3497614e-05 -1.5347017e-09)
(-0.00052135976 -4.3450492e-05 -1.1473371e-09)
(-0.00044701847 -5.5933777e-05 -6.8412669e-10)
(-0.00048796308 -2.9895091e-05 -1.1089389e-09)
(-0.00046230267 -6.2699363e-05 -9.7604546e-10)
(-0.00041010036 -9.3710583e-05 -5.8688319e-10)
(-0.00041123383 -3.2918516e-05 -4.4884102e-10)
(-0.00039355676 -7.3163807e-05 -5.4631251e-10)
(-0.00035653399 -0.00011095948 -3.4136163e-10)
(-0.00033757203 -2.8253853e-05 -1.9527724e-11)
(-0.00032536376 -6.4872944e-05 -1.8928544e-10)
(-0.0002989357 -9.9371502e-05 -1.2426355e-10)
(-0.00027584186 -2.032049e-05 1.1506913e-10)
(-0.00026726162 -4.631618e-05 -9.7434702e-12)
(-0.00024812558 -7.2029026e-05 -2.2372404e-12)
(-0.00022725175 -1.4413475e-05 1.3835825e-10)
(-0.00022107708 -3.3081671e-05 5.4825531e-11)
(-0.00020694193 -5.0886501e-05 4.1140821e-11)
(-0.00019079238 -9.7835794e-06 1.1415654e-10)
(-0.00018625844 -2.212749e-05 5.9433699e-11)
(-0.00017560537 -3.490924e-05 4.5131952e-11)
(-0.00016469241 -6.3155629e-06 6.2267534e-11)
(-0.00016131406 -1.4156757e-05 3.8204252e-11)
(-0.00015316453 -2.190321e-05 3.2993562e-11)
(-0.00014634812 -4.1856669e-06 1.2719772e-11)
(-0.00014380114 -9.062483e-06 1.4196148e-11)
(-0.00013745863 -1.3619305e-05 2.0148631e-11)
(-0.00013296853 -3.112971e-06 -1.4268226e-11)
(-0.00013102238 -6.6101991e-06 7.9930816e-13)
(-0.0001259879 -1.0046229e-05 1.2354138e-11)
(-0.00012245172 -2.751256e-06 -2.6457706e-11)
(-0.00012095078 -5.7839382e-06 -1.4591594e-11)
(-0.000116899 -8.8135186e-06 1.3915722e-12)
(-0.00011362143 -2.6359763e-06 -3.2846649e-11)
(-0.00011246022 -5.6203006e-06 -2.6114766e-11)
(-0.00010917156 -8.5917546e-06 -6.797415e-12)
(-0.00010583602 -2.4166475e-06 -4.0856578e-11)
(-0.00010493297 -5.2261353e-06 -3.3315245e-11)
(-0.00010223797 -8.4940236e-06 -1.107669e-11)
(-9.8683887e-05 -2.3919312e-06 -3.5751823e-11)
(-9.7972926e-05 -5.1600071e-06 -3.4165972e-11)
(-9.5732532e-05 -8.343343e-06 -1.3887935e-11)
(-9.1945454e-05 -2.3440059e-06 -2.994839e-11)
(-9.138141e-05 -5.2253813e-06 -3.3872861e-11)
(-8.9495144e-05 -8.3308929e-06 -1.6984385e-11)
(-8.5562233e-05 -2.263836e-06 -2.2930717e-11)
(-8.5113112e-05 -5.1169745e-06 -3.0223739e-11)
(-8.3513645e-05 -8.1442152e-06 -1.5937299e-11)
(-7.9564503e-05 -2.1202939e-06 -1.7233901e-11)
(-7.9206235e-05 -4.819113e-06 -2.4557835e-11)
(-7.7843015e-05 -7.7540221e-06 -1.2153918e-11)
(-7.3999305e-05 -1.9420242e-06 -1.3173898e-11)
(-7.371299e-05 -4.4333916e-06 -1.8985806e-11)
(-7.2543443e-05 -7.1466011e-06 -8.7903647e-12)
(-6.8876208e-05 -1.7494115e-06 -1.2342053e-11)
(-6.864706e-05 -4.0086447e-06 -1.6472812e-11)
(-6.7635958e-05 -6.4749443e-06 -7.5215255e-12)
(-6.4157186e-05 -1.5791983e-06 -1.3048851e-11)
(-6.3973262e-05 -3.6098577e-06 -1.6047727e-11)
(-6.3093305e-05 -5.8342097e-06 -7.6214164e-12)
(-5.9809574e-05 -1.4598329e-06 -1.1668944e-11)
(-5.966042e-05 -3.3063282e-06 -1.3186223e-11)
(-5.8888908e-05 -5.3081073e-06 -5.931243e-12)
(-5.5836335e-05 -1.2771041e-06 -1.3681244e-11)
(-5.5714331e-05 -2.9441888e-06 -1.3377772e-11)
(-5.5030475e-05 -4.8094426e-06 -5.6305929e-12)
(-5.2218499e-05 -1.1602522e-06 -1.4331245e-11)
(-5.2118948e-05 -2.6475987e-06 -1.2376931e-11)
(-5.150819e-05 -4.2917854e-06 -5.0757045e-12)
(-4.8892423e-05 -1.0667478e-06 -1.4514378e-11)
(-4.8811519e-05 -2.4228495e-06 -1.1121099e-11)
(-4.8265571e-05 -3.9248961e-06 -4.0854687e-12)
(-4.5808068e-05 -9.9189487e-07 -1.4588657e-11)
(-4.5742452e-05 -2.2524903e-06 -1.0895452e-11)
(-4.5253434e-05 -3.6545009e-06 -4.1273612e-12)
(-4.2949907e-05 -9.2054514e-07 -1.4951877e-11)
(-4.2896746e-05 -2.0922322e-06 -1.13595e-11)
(-4.2456281e-05 -3.3945539e-06 -4.7721381e-12)
(-4.0310859e-05 -8.4797319e-07 -1.540772e-11)
(-4.0267854e-05 -1.9268464e-06 -1.1697684e-11)
(-3.9869143e-05 -3.1262038e-06 -5.217664e-12)
(-3.7882691e-05 -7.8100576e-07 -1.5321061e-11)
(-3.7847997e-05 -1.7753607e-06 -1.1324778e-11)
(-3.7485666e-05 -2.8802393e-06 -5.1124475e-12)
(-3.5657984e-05 -7.1855787e-07 -1.5042073e-11)
(-3.5630143e-05 -1.6353032e-06 -1.0975888e-11)
(-3.5299556e-05 -2.6537501e-06 -5.0126136e-12)
(-3.3630491e-05 -6.5607026e-07 -1.5044699e-11)
(-3.3608305e-05 -1.494252e-06 -1.1301492e-11)
(-3.3305392e-05 -2.4253305e-06 -5.4391714e-12)
(-3.1795065e-05 -5.9259611e-07 -1.5253313e-11)
(-3.1777513e-05 -1.3495904e-06 -1.2036011e-11)
(-3.1498658e-05 -2.1896905e-06 -6.2167504e-12)
(-3.0147021e-05 -5.3104135e-07 -1.511326e-11)
(-3.0133245e-05 -1.2110545e-06 -1.2131288e-11)
(-2.987522e-05 -1.9662647e-06 -6.429913e-12)
(-2.8682137e-05 -4.7573412e-07 -1.4015375e-11)
(-2.8671467e-05 -1.0894833e-06 -1.0674596e-11)
(-2.8431405e-05 -1.7694576e-06 -5.403939e-12)
(-2.7397458e-05 -4.1460162e-07 -1.3801467e-11)
(-2.7389338e-05 -9.4930035e-07 -1.0364784e-11)
(-2.7164639e-05 -1.5403769e-06 -5.2260364e-12)
(-2.6290248e-05 -3.50008e-07 -1.4349249e-11)
(-2.6284149e-05 -7.9847062e-07 -1.1139847e-11)
(-2.6072368e-05 -1.295542e-06 -5.8458414e-12)
(-2.5355677e-05 -2.901684e-07 -1.4389637e-11)
(-2.5351166e-05 -6.6287564e-07 -1.1246408e-11)
(-2.5150063e-05 -1.0767117e-06 -5.9996977e-12)
(-2.4587194e-05 -2.34943e-07 -1.3912456e-11)
(-2.4583995e-05 -5.4082552e-07 -1.0570891e-11)
(-2.4391584e-05 -8.8129616e-07 -5.5303204e-12)
(-2.3980414e-05 -1.8539995e-07 -1.3518994e-11)
(-2.3978239e-05 -4.2170853e-07 -1.0117027e-11)
(-2.3792701e-05 -6.8184114e-07 -5.1832079e-12)
(-2.3528453e-05 -1.3050116e-07 -1.3563105e-11)
(-2.3526958e-05 -2.9679341e-07 -1.007847e-11)
(-2.3346503e-05 -4.8074428e-07 -5.1842263e-12)
(-2.3248124e-05 -7.2143573e-08 -1.3869627e-11)
(-2.3247092e-05 -1.6450835e-07 -1.0137608e-11)
(-2.306977e-05 -2.6939661e-07 -5.268587e-12)
(-2.3096557e-05 -1.6654135e-08 -1.2901971e-11)
(-2.3095548e-05 -3.6611707e-08 -8.6394199e-12)
(-2.2919639e-05 -6.1790145e-08 -4.3789737e-12)
(-0.04730448 1.9855658 -3.781775e-07)
(-0.034269969 1.7310128 -3.4686898e-06)
(-0.062847899 0.35904199 -2.6327036e-07)
(-0.044547197 0.1614035 -9.8691756e-07)
(-0.014956466 -0.040816871 -2.6056514e-07)
(-0.011110452 -0.04409641 -4.9682028e-07)
(-0.0052074986 -0.013728029 -7.3003379e-08)
(-0.0042367379 -0.014786748 -1.427841e-07)
(-0.0014562254 -0.0027623524 -1.7199289e-08)
(-0.001081503 -0.0032542228 -2.9124106e-08)
(-0.00068336226 -0.00085606357 -2.5543099e-09)
(-0.00038827102 -0.00092505162 -3.6026917e-09)
(-0.00040740817 -0.00032897539 5.672598e-10)
(-0.00019929472 -0.00029333316 4.8950287e-10)
(-0.00034688731 -3.4659115e-05 2.691486e-10)
(-0.00019660822 2.4256899e-05 2.7901213e-10)
(-0.00035352612 1.1392606e-05 -3.0857303e-10)
(-0.00024299116 6.6554896e-05 -2.3758952e-10)
(-0.00036168054 -4.4721437e-05 -5.0741449e-10)
(-0.00027930379 -2.0753572e-05 -4.1662904e-10)
(-0.00034755633 -0.00010918265 -4.2534276e-10)
(-0.00028521746 -0.00011182458 -3.5328471e-10)
(-0.00031057509 -0.00013762617 -2.4209193e-10)
(-0.00026306087 -0.00015337439 -1.9761293e-10)
(-0.0002651884 -0.0001257294 -8.2727644e-11)
(-0.00022908595 -0.00014497091 -5.9379332e-11)
(-0.00022308495 -9.4708607e-05 1.5897716e-11)
(-0.00019552869 -0.00011297155 2.7522383e-11)
(-0.00018800032 -6.5888018e-05 4.8102144e-11)
(-0.00016667438 -7.8338866e-05 5.6539666e-11)
(-0.00016109231 -4.4823035e-05 4.6030615e-11)
(-0.0001443742 -5.1357939e-05 5.1989457e-11)
(-0.00014196069 -2.8881854e-05 3.2348506e-11)
(-0.00012881271 -3.2263079e-05 3.5776524e-11)
(-0.00012863902 -1.8036283e-05 2.0609089e-11)
(-0.00011817862 -2.0444914e-05 2.1128802e-11)
(-0.00011889934 -1.264986e-05 1.3677292e-11)
(-0.00011039337 -1.4842737e-05 1.2045806e-11)
(-0.00011113244 -1.0969581e-05 5.966829e-12)
(-0.00010412372 -1.3235288e-05 5.9637601e-12)
(-0.00010444414 -1.0946754e-05 1.3570084e-13)
(-9.8637483e-05 -1.2938419e-05 1.4749158e-12)
(-9.8333429e-05 -1.1284814e-05 -2.9048049e-12)
(-9.3482424e-05 -1.3381335e-05 -9.5745525e-13)
(-9.2471565e-05 -1.1442906e-05 -5.1387764e-12)
(-8.8387201e-05 -1.400815e-05 -2.0835755e-12)
(-8.6735e-05 -1.1286593e-05 -8.2568495e-12)
(-8.3263483e-05 -1.4076258e-05 -3.9214992e-12)
(-8.1156205e-05 -1.0966746e-05 -7.9069209e-12)
(-7.8176752e-05 -1.3720362e-05 -3.8104547e-12)
(-7.582071e-05 -1.0392971e-05 -5.5805503e-12)
(-7.3246996e-05 -1.2861371e-05 -2.5889217e-12)
(-7.0800284e-05 -9.6672843e-06 -3.4676803e-12)
(-6.8565944e-05 -1.1856357e-05 -1.4278828e-12)
(-6.6121886e-05 -8.841547e-06 -2.6093715e-12)
(-6.4171804e-05 -1.0944968e-05 -5.7462816e-13)
(-6.1770705e-05 -7.9760058e-06 -2.7909619e-12)
(-6.0061141e-05 -1.0014758e-05 -4.3030184e-13)
(-5.7726598e-05 -7.2195602e-06 -1.9497873e-12)
(-5.6219742e-05 -9.043684e-06 -1.0508795e-13)
(-5.3997436e-05 -6.5876118e-06 -1.6904347e-12)
(-5.2655116e-05 -8.225768e-06 -1.3002661e-13)
(-5.0582093e-05 -5.8661326e-06 -1.4947861e-12)
(-4.9375959e-05 -7.3538429e-06 -1.4270902e-13)
(-4.7435225e-05 -5.3859209e-06 -7.0120513e-13)
(-4.635064e-05 -6.7862658e-06 5.1633572e-13)
(-4.4508207e-05 -5.0304703e-06 -7.3892687e-13)
(-4.353209e-05 -6.3485852e-06 5.7929564e-13)
(-4.1783698e-05 -4.6671725e-06 -1.3681063e-12)
(-4.0900972e-05 -5.8872623e-06 6.1152871e-14)
(-3.925913e-05 -4.2981e-06 -1.8540132e-12)
(-3.8457293e-05 -5.4250521e-06 -4.0226421e-13)
(-3.6930392e-05 -3.9611169e-06 -1.9464825e-12)
(-3.6199411e-05 -5.0031868e-06 -5.8453284e-13)
(-3.4792167e-05 -3.6523735e-06 -1.9756589e-12)
(-3.4123244e-05 -4.6168663e-06 -6.6841773e-13)
(-3.2839853e-05 -3.3404608e-06 -2.3391847e-12)
(-3.2225272e-05 -4.225405e-06 -9.6518012e-13)
(-3.1069589e-05 -3.0172501e-06 -2.9662414e-12)
(-3.0502465e-05 -3.8195782e-06 -1.4442861e-12)
(-2.9477804e-05 -2.7117919e-06 -3.1732749e-12)
(-2.8951947e-05 -3.4367051e-06 -1.6064987e-12)
(-2.8061346e-05 -2.4390682e-06 -2.5163097e-12)
(-2.7571215e-05 -3.0890921e-06 -1.1714195e-12)
(-2.6818008e-05 -2.1221525e-06 -2.4692178e-12)
(-2.6358507e-05 -2.6861238e-06 -1.2107364e-12)
(-2.5745461e-05 -1.7882266e-06 -2.9445197e-12)
(-2.5311778e-05 -2.2684057e-06 -1.5894507e-12)
(-2.4839489e-05 -1.4870609e-06 -3.0945803e-12)
(-2.4427212e-05 -1.8882429e-06 -1.7153613e-12)
(-2.4094328e-05 -1.2168634e-06 -2.7768118e-12)
(-2.3699514e-05 -1.5421882e-06 -1.4861075e-12)
(-2.3505968e-05 -9.3965916e-07 -2.4988743e-12)
(-2.3124956e-05 -1.1911426e-06 -1.2527194e-12)
(-2.3067551e-05 -6.6303381e-07 -2.5287259e-12)
(-2.2696751e-05 -8.4115058e-07 -1.2863771e-12)
(-2.2795606e-05 -3.7248387e-07 -2.6887729e-12)
(-2.2431087e-05 -4.7293785e-07 -1.4721998e-12)
(-2.2647691e-05 -8.5969178e-08 -2.3108071e-12)
(-2.2286087e-05 -1.09292e-07 -1.3448356e-12)
(0.0019580739 1.1945703e-05 3.4581169e-11)
(0.0018763432 2.8111771e-05 2.8022272e-10)
(0.0017176729 7.4440072e-05 4.0148479e-10)
(0.0015267615 0.00010910021 5.0978397e-10)
(0.0013307543 0.00016659058 5.7991009e-10)
(0.001144456 0.00021657295 6.1762328e-10)
(0.00097459081 0.00026549113 6.2781294e-10)
(0.00082394057 0.00030652569 6.205659e-10)
(0.00069199179 0.00034052251 6.0270443e-10)
(0.00057721991 0.00036789831 5.7899899e-10)
(0.00047923877 0.00038881568 5.5291207e-10)
(0.00039665591 0.00040438451 5.2594964e-10)
(0.0003276293 0.00041487747 4.9918949e-10)
(0.00027015526 0.00042107563 4.7331772e-10)
(0.00022251737 0.00042491003 4.486581e-10)
(0.00018294497 0.00042610793 4.2518157e-10)
(0.00014989609 0.00042512699 4.0299699e-10)
(0.00012210065 0.00042348129 3.8214702e-10)
(9.8525108e-05 0.00042087694 3.6235214e-10)
(7.8316314e-05 0.00041688522 3.4332298e-10)
(6.0764038e-05 0.0004123575 3.2489521e-10)
(4.5286299e-05 0.00040715502 3.0720332e-10)
(3.1407616e-05 0.00039914869 2.8955059e-10)
(1.8682626e-05 0.00038990672 2.5995864e-10)
(6.4389875e-06 0.00037510968 1.7836824e-10)
(9.8291682e-05 -6.5242015e-05 -9.7100068e-10)
(8.0289958e-05 -0.00034385411 -1.6508988e-09)
(6.1003602e-05 -0.0004447869 -1.4728638e-09)
(4.3755032e-05 -0.00063703193 -8.6157341e-10)
(3.7876423e-05 -0.00075508882 -2.735019e-10)
(4.1665149e-05 -0.00090218185 1.8833077e-10)
(5.2138448e-05 -0.0010465521 4.9330485e-10)
(6.6698683e-05 -0.0012016074 6.839788e-10)
(8.4092053e-05 -0.0013664219 7.9657123e-10)
(0.00010283833 -0.0015393089 8.5112641e-10)
(0.00011827299 -0.001712425 8.6620631e-10)
(0.00012895676 -0.001880698 8.545743e-10)
(0.00013456006 -0.0020425682 8.2555075e-10)
(0.00013536074 -0.0021951376 7.8751975e-10)
(0.00013211166 -0.0023355986 7.459668e-10)
(0.00012551103 -0.0024612944 7.0366348e-10)
(0.0001163481 -0.0025700547 6.6155854e-10)
(0.00010530326 -0.0026600241 6.2010464e-10)
(9.2882559e-05 -0.0027299447 5.7954564e-10)
(7.9434079e-05 -0.0027786548 5.3992719e-10)
(6.5267318e-05 -0.0028048417 5.0163929e-10)
(5.0661145e-05 -0.0028085572 4.6541733e-10)
(3.5851211e-05 -0.0027931997 4.319338e-10)
(2.0914988e-05 -0.0027482616 3.8912917e-10)
(5.8908646e-06 -0.0026327077 2.526338e-10)
(0.00065565778 -0.00025829408 -9.2824484e-09)
(0.00062723408 -0.0013113677 -1.6052001e-08)
(0.00062147532 -0.001739275 -1.5721793e-08)
(0.00063912037 -0.0024257531 -1.2369621e-08)
(0.00067804384 -0.0029128512 -8.5216213e-09)
(0.00071534623 -0.0034999283 -5.2525352e-09)
(0.0007462387 -0.0040257936 -2.9354881e-09)
(0.00076530611 -0.0045611003 -1.3382073e-09)
(0.00077001582 -0.005120612 -2.2521353e-10)
(0.00076128406 -0.0058051192 5.0706906e-10)
(0.00074140492 -0.0065713227 9.5562265e-10)
(0.00071220791 -0.0072821821 1.1931846e-09)
(0.00067530551 -0.0079141315 1.2601806e-09)
(0.00063199623 -0.0084571479 1.2202926e-09)
(0.00058424761 -0.0089116034 1.1293547e-09)
(0.0005330747 -0.0092794956 1.0227037e-09)
(0.00047945598 -0.0095644992 9.1435403e-10)
(0.0004241334 -0.0097708044 8.1098071e-10)
(0.00036734434 -0.0099026377 7.151481e-10)
(0.00030969297 -0.0099621126 6.2845554e-10)
(0.00025172373 -0.0099525791 5.4952886e-10)
(0.00019388595 -0.0098783025 4.8108063e-10)
(0.00013662727 -0.0097509761 4.2824141e-10)
(8.0071469e-05 -0.0095397133 3.9410409e-10)
(2.47393e-05 -0.0091498802 2.9942398e-10)
(0.0030195167 -0.0010653571 -5.3508145e-08)
(0.0029563091 -0.00486146 -9.0454565e-08)
(0.0028723434 -0.0059836408 -9.0990259e-08)
(0.00274102 -0.0082902129 -7.7405211e-08)
(0.0026014803 -0.010159245 -5.8773612e-08)
(0.0024423776 -0.012775713 -4.1797946e-08)
(0.0022730148 -0.014806061 -2.9176406e-08)
(0.0020990336 -0.016376035 -1.9919157e-08)
(0.0019215492 -0.0174724 -1.2898038e-08)
(0.0017452587 -0.018043067 -7.9345284e-09)
(0.0015778623 -0.018200295 -4.4388692e-09)
(0.0014203479 -0.018107962 -1.801329e-09)
(0.0012723399 -0.017850972 -2.6096157e-10)
(0.0011352926 -0.01747884 3.4900618e-10)
(0.0010094738 -0.017029683 4.6112776e-10)
(0.00089208156 -0.016534333 3.4951053e-10)
(0.00078129302 -0.016011663 1.5777141e-10)
(0.00067314432 -0.015474503 -3.2905103e-11)
(0.00056901183 -0.014932596 -1.9107972e-10)
(0.00046979431 -0.014395957 -3.1221794e-10)
(0.00037537788 -0.013873726 -4.0019123e-10)
(0.00028535465 -0.013372624 -4.5763938e-10)
(0.00019939522 -0.012911041 -4.763027e-10)
(0.00011692584 -0.012429833 -4.0775302e-10)
(3.8406131e-05 -0.011860372 -1.9477728e-10)
(0.011410111 -0.0084515537 -2.3236495e-07)
(0.0089891547 -0.02661149 -3.6103774e-07)
(0.0079426784 -0.029248009 -3.5475196e-07)
(0.0063213641 -0.036463595 -3.2167206e-07)
(0.0051363934 -0.036168096 -2.7114337e-07)
(0.0040877665 -0.034697112 -2.2310895e-07)
(0.0031887109 -0.031758332 -1.8117484e-07)
(0.0024480102 -0.027978969 -1.4399769e-07)
(0.0018531563 -0.02399188 -1.1121371e-07)
(0.0013792925 -0.020107321 -8.2656739e-08)
(0.0010030964 -0.01639027 -5.8198608e-08)
(0.00070791967 -0.012908033 -3.830253e-08)
(0.00048052484 -0.0097103739 -2.2137706e-08)
(0.00030761122 -0.0068526194 -1.2900994e-08)
(0.00017582094 -0.0043397515 -7.1470675e-09)
(7.8944924e-05 -0.0021339464 -4.4836901e-09)
(1.0473564e-05 -0.00016454551 -3.5720851e-09)
(-3.3418763e-05 0.0016360564 -3.3702008e-09)
(-5.8460549e-05 0.0032413621 -3.3387064e-09)
(-6.9497951e-05 0.0045778901 -3.2902297e-09)
(-6.9647626e-05 0.0056267155 -3.1894167e-09)
(-6.1663278e-05 0.0064119665 -3.0437681e-09)
(-4.7165136e-05 0.0068890316 -2.8620386e-09)
(-2.8560156e-05 0.0072196587 -2.6183959e-09)
(-5.4028178e-06 0.0070303695 -2.156268e-09)
(0.015409355 0.025627747 -7.1766476e-07)
(0.0047005958 -0.0066440608 -9.5537496e-07)
(0.0024079241 0.047611834 -9.1273758e-07)
(0.00088007468 0.043154319 -8.3660087e-07)
(-0.00056387024 0.058079007 -7.6846799e-07)
(-0.0017428946 0.067948903 -6.7991216e-07)
(-0.0025047063 0.074160553 -5.9890649e-07)
(-0.0028797028 0.079238422 -5.2391149e-07)
(-0.0029886006 0.083328448 -4.5265244e-07)
(-0.0029538364 0.086221126 -3.8220482e-07)
(-0.0028455057 0.087966109 -3.1435148e-07)
(-0.002696924 0.088829447 -2.4720187e-07)
(-0.0025115337 0.08899884 -1.6355879e-07)
(-0.0023242622 0.088726793 -1.1397635e-07)
(-0.0021421862 0.08806203 -5.9382825e-08)
(-0.001947538 0.087081121 -2.7033459e-08)
(-0.0017498783 0.085810926 -1.2305678e-08)
(-0.0015470122 0.084254789 -6.9760499e-09)
(-0.0013405888 0.082441366 -5.4150565e-09)
(-0.0011325146 0.080512817 -4.9254903e-09)
(-0.00092362249 0.078463135 -4.5957699e-09)
(-0.00071524251 0.076452335 -4.2204492e-09)
(-0.00050686162 0.074127014 -3.7866976e-09)
(-0.00030106257 0.072440376 -3.4876649e-09)
(-9.3763986e-05 0.068775836 -2.2036858e-09)
(-0.0017320821 1.1962659 -2.5048122e-06)
(-0.00094113083 0.98631463 -1.9818329e-06)
(-0.0012244232 0.89296086 -1.59788e-06)
(-0.00079153977 0.80339905 -1.3015376e-06)
(-0.00066251395 0.71203866 -1.074653e-06)
(-0.00054749166 0.62571487 -9.0794287e-07)
(-0.00044764283 0.55075704 -7.7752519e-07)
(-0.00036927363 0.48862068 -6.7427165e-07)
(-0.00030726334 0.43712107 -6.0307403e-07)
(-0.0002558433 0.39318563 -5.391855e-07)
(-0.0002142341 0.35504425 -4.8607792e-07)
(-0.00018141543 0.32162678 -4.6185451e-07)
(-0.00015413903 0.29237544 -4.288367e-07)
(-0.0001312112 0.26692583 -3.423852e-07)
(-0.00010971953 0.24474838 -2.1569602e-07)
(-8.8110675e-05 0.22525257 -1.0265035e-07)
(-7.001051e-05 0.20805996 -3.3704561e-08)
(-5.6663086e-05 0.19295165 -3.9636271e-09)
(-4.6138161e-05 0.17968075 4.3789918e-09)
(-3.7062778e-05 0.16811488 4.7794032e-09)
(-2.9018018e-05 0.15792574 3.3905408e-09)
(-2.1740514e-05 0.14940131 2.1325539e-09)
(-1.4985202e-05 0.14137655 1.3912458e-09)
(-8.7514337e-06 0.13622268 5.940213e-10)
(-2.7008142e-06 0.12803984 1.5345136e-09)
(-0.01388396 0.09689248 -1.1861083e-06)
(-0.0037846412 0.097211813 -1.2045734e-06)
(-0.0018617751 0.10289614 -1.1211031e-06)
(-0.00051902028 0.10312296 -1.0117634e-06)
(0.00081047487 0.10312275 -8.9054081e-07)
(0.0019137833 0.10444796 -7.7439501e-07)
(0.0026266556 0.10527824 -6.6952983e-07)
(0.0029681251 0.10584486 -5.7843476e-07)
(0.0030379358 0.10636488 -4.7547437e-07)
(0.0029806797 0.10625872 -4.0698979e-07)
(0.0028811486 0.1056613 -3.4466173e-07)
(0.0027378087 0.1044411 -2.6833462e-07)
(0.002562173 0.10306746 -1.9037756e-07)
(0.0023730316 0.10146171 -1.1643955e-07)
(0.0021766136 0.099629513 -5.9852864e-08)
(0.0019722912 0.097436487 -2.6240025e-08)
(0.0017663566 0.094995975 -1.0750261e-08)
(0.0015592698 0.092505772 -5.2189366e-09)
(0.0013506323 0.089992461 -3.7119161e-09)
(0.0011408783 0.087491197 -3.3766405e-09)
(0.00093045314 0.084956142 -3.2358667e-09)
(0.00072056182 0.082551924 -3.0560855e-09)
(0.00051067199 0.079861462 -2.8114279e-09)
(0.00030342114 0.077964886 -2.7267018e-09)
(9.4676432e-05 0.073945572 -1.5297785e-09)
(-0.0087295959 -0.041268992 -5.712404e-07)
(-0.0074352219 -0.040637371 -5.4723199e-07)
(-0.006298396 -0.040689088 -4.7727368e-07)
(-0.0052052921 -0.039242592 -4.0395008e-07)
(-0.0042015724 -0.036553456 -3.3203743e-07)
(-0.00330857 -0.032891549 -2.6946241e-07)
(-0.0025425581 -0.028655905 -2.1633205e-07)
(-0.0019076961 -0.02418132 -1.7063925e-07)
(-0.001393955 -0.019876663 -1.2900843e-07)
(-0.00098567192 -0.015793971 -9.5125638e-08)
(-0.00066328262 -0.012026619 -7.03892e-08)
(-0.00041178606 -0.0086271787 -4.776527e-08)
(-0.00022204732 -0.005606549 -2.9612372e-08)
(-8.1306651e-05 -0.0029538897 -1.6967982e-08)
(2.0052159e-05 -0.00050905179 -9.7506263e-09)
(8.6546933e-05 0.0018041784 -6.3414648e-09)
(0.0001280117 0.0039270414 -4.9698801e-09)
(0.00014950016 0.0057619212 -4.428187e-09)
(0.00015521245 0.0072925708 -4.1296995e-09)
(0.00014869677 0.0085244514 -3.8676647e-09)
(0.00013260834 0.0094579837 -3.5962153e-09)
(0.00010938628 0.01012841 -3.3152193e-09)
(8.0376346e-05 0.010486479 -3.0242173e-09)
(4.7949576e-05 0.010707493 -2.6734772e-09)
(1.1443924e-05 0.010351931 -2.0746624e-09)
(-0.0037510155 -0.015281868 -1.4944964e-07)
(-0.0034510153 -0.016448693 -1.327568e-07)
(-0.0032187184 -0.018274092 -1.0411534e-07)
(-0.0030082455 -0.020195276 -7.9876129e-08)
(-0.0027993212 -0.021743964 -5.9415559e-08)
(-0.0025810244 -0.022864049 -4.3444332e-08)
(-0.0023591695 -0.023481402 -3.2035098e-08)
(-0.0021432518 -0.023619166 -2.2518984e-08)
(-0.0019346328 -0.023331079 -1.5892023e-08)
(-0.0017386912 -0.022847059 -9.7396145e-09)
(-0.0015583179 -0.02221808 -5.8208301e-09)
(-0.0013939717 -0.021491644 -3.1104392e-09)
(-0.0012436209 -0.020705582 -1.3885283e-09)
(-0.0011065597 -0.019888618 -5.2374697e-10)
(-0.00097987044 -0.01905849 -2.6105336e-10)
(-0.00085731299 -0.018231665 -2.8903531e-10)
(-0.00074269265 -0.01741931 -4.0540054e-10)
(-0.00063558757 -0.016632326 -5.1639459e-10)
(-0.00053518643 -0.015880823 -5.9318823e-10)
(-0.00044072417 -0.015171805 -6.3443016e-10)
(-0.00035155613 -0.014511136 -6.4628943e-10)
(-0.00026701962 -0.013901754 -6.3248404e-10)
(-0.00018657885 -0.013360601 -5.8270804e-10)
(-0.00010958912 -0.012818002 -4.4405935e-10)
(-3.6474451e-05 -0.012212734 -1.9553646e-10)
(-0.00087071122 -0.0037502221 -2.6080257e-08)
(-0.00079912789 -0.0042312068 -2.0832853e-08)
(-0.00081531721 -0.0047480662 -1.4495972e-08)
(-0.00085846384 -0.0052877805 -9.6260688e-09)
(-0.00090451963 -0.0058385094 -5.9172786e-09)
(-0.00093740658 -0.0064156671 -3.2481084e-09)
(-0.00094826484 -0.0070672304 -1.3901118e-09)
(-0.00094235643 -0.0078756886 -1.6576024e-11)
(-0.00092776623 -0.0087388755 8.4773242e-10)
(-0.00090136077 -0.0095233272 1.4576448e-09)
(-0.00086414833 -0.010209618 1.7165098e-09)
(-0.00081825043 -0.010788865 1.7672797e-09)
(-0.00076479756 -0.01126778 1.7054472e-09)
(-0.00070716789 -0.011651784 1.5724407e-09)
(-0.00064718286 -0.011947142 1.4074683e-09)
(-0.00058567783 -0.012160638 1.2427833e-09)
(-0.0005230354 -0.012297628 1.093121e-09)
(-0.00045978297 -0.012360666 9.6321556e-10)
(-0.00039630682 -0.012354721 8.5062422e-10)
(-0.00033288422 -0.012282899 7.5411041e-10)
(-0.0002698224 -0.012149154 6.7177246e-10)
(-0.00020737819 -0.011961014 6.0356862e-10)
(-0.00014588395 -0.011734373 5.5397356e-10)
(-8.5430617e-05 -0.011427977 5.1435834e-10)
(-2.6528797e-05 -0.010943673 3.5171107e-10)
(-0.00018614604 -0.0010332789 -2.0921185e-09)
(-6.1917011e-05 -0.0011809266 -9.5588693e-10)
(1.9439157e-07 -0.0013482774 1.915006e-12)
(1.5671059e-05 -0.0015367521 6.207327e-10)
(4.0325881e-06 -0.0017518193 1.0245042e-09)
(-2.2603186e-05 -0.0019945606 1.2766315e-09)
(-5.3458684e-05 -0.0022590337 1.4226469e-09)
(-8.6255679e-05 -0.0025365956 1.4935966e-09)
(-0.00011834933 -0.0028045814 1.5024398e-09)
(-0.00014144838 -0.0030573027 1.474427e-09)
(-0.00015549447 -0.0032989429 1.4123326e-09)
(-0.00016217834 -0.0035240949 1.3320347e-09)
(-0.00016417299 -0.0037305858 1.2467822e-09)
(-0.00016188811 -0.0039172129 1.1614443e-09)
(-0.00015588914 -0.004080582 1.0787101e-09)
(-0.00014690286 -0.0042202534 1.0009503e-09)
(-0.00013556124 -0.004336268 9.2863985e-10)
(-0.00012237585 -0.0044277301 8.6108452e-10)
(-0.00010776094 -0.0044943188 7.9736934e-10)
(-9.2057027e-05 -0.0045356979 7.368281e-10)
(-7.5581097e-05 -0.0045496714 6.8069271e-10)
(-5.8591848e-05 -0.0045378535 6.2732341e-10)
(-4.1385836e-05 -0.0045010023 5.7760098e-10)
(-2.4081844e-05 -0.0044193333 5.0884087e-10)
(-6.7763474e-06 -0.0042331019 3.0191819e-10)
(-5.3260497e-05 -0.00023045387 8.2414251e-10)
(5.1456584e-05 -0.00015899347 9.6318385e-10)
(0.00012199272 -9.9727462e-05 1.0138096e-09)
(0.0001612359 -5.9718047e-05 1.0033729e-09)
(0.00017779867 -4.133939e-05 9.7545377e-10)
(0.00017911292 -4.6868707e-05 9.4243691e-10)
(0.00016875656 -7.3739131e-05 9.0555378e-10)
(0.00015458534 -0.00011465598 8.6638873e-10)
(0.00014281423 -0.00016396061 8.2556713e-10)
(0.00013131736 -0.00021615083 7.8426599e-10)
(0.00011975853 -0.00026824773 7.4271415e-10)
(0.00010801572 -0.00031990372 7.0130134e-10)
(9.5413681e-05 -0.00036869066 6.610979e-10)
(8.336321e-05 -0.00041297349 6.2286811e-10)
(7.2531585e-05 -0.00045202371 5.8608303e-10)
(6.2976584e-05 -0.00048581012 5.50726e-10)
(5.4512282e-05 -0.00051425866 5.1678213e-10)
(4.6889639e-05 -0.00053695743 4.8394682e-10)
(3.9869758e-05 -0.00055390969 4.5196525e-10)
(3.3251927e-05 -0.00056532009 4.2085792e-10)
(2.6869653e-05 -0.00057101435 3.9080669e-10)
(2.0601678e-05 -0.00057181375 3.6164171e-10)
(1.447124e-05 -0.00056946336 3.3210278e-10)
(8.5932709e-06 -0.0005607274 2.8570368e-10)