/*--------------------------------*- C++ -*----------------------------------*\
| =========                 |                                                 |
| \\      /  F ield         | OpenFOAM: The Open Source CFD Toolbox           |
|  \\    /   O peration     | Version:  4.0                                   |
|   \\  /    A nd           | Web:      www.OpenFOAM.org                      |
|    \\/     M anipulation  |                                                 |
\*---------------------------------------------------------------------------*/
FoamFile
{
    version     2.0;
    format      ascii;
    class       volScalarField;
    location    "0.09";
    object      k;
}
// * * * * * * * * * * * * * * * * * * * * * * * * * * * * * * * * * * * * * //

dimensions      [0 2 -2 0 0 0 0];

internalField   nonuniform List<scalar> 
1740
(
0.0087604048
0.0091992798
0.018349822
0.0091622899
0.0099313561
0.027128931
0.0095128119
0.010444407
0.034883247
0.0097791121
0.010780064
0.041965322
0.0099431942
0.011111116
0.047016294
0.010041081
0.011471929
0.052045962
0.010158275
0.011876268
0.056496773
0.010182523
0.012021054
0.058948718
0.010096101
0.012160456
0.062020978
0.010074801
0.01245226
0.064725418
0.010078163
0.012865812
0.065926276
0.0099754672
0.013009004
0.067557304
0.0098941935
0.013185419
0.069094412
0.0098142766
0.013590057
0.069982552
0.0096388475
0.013769056
0.070216326
0.0095117806
0.013584845
0.070796318
0.0093900923
0.013683468
0.071875864
0.0093607292
0.014105157
0.072373202
0.0092991086
0.01436641
0.0722456
0.0091924163
0.014300558
0.071913107
0.0090627457
0.014224393
0.072391726
0.0089292514
0.014337449
0.072989978
0.0088011258
0.014492577
0.072883382
0.0086749395
0.014398856
0.072912803
0.0085620457
0.014528022
0.073196047
0.0085342922
0.0147876
0.073318411
0.0085114821
0.014898449
0.072970706
0.0084228094
0.014956306
0.072511551
0.0084582969
0.014994668
0.071832107
0.0090714629
0.016195394
0.066827012
0.012843203
0.01820959
0.047444012
0.024016178
0.031179581
0.03980962
0.010261629
0.012516392
0.01371335
0.004226368
0.004558279
0.0046164672
0.0019971982
0.0020402373
0.0020095173
0.0010006202
0.0010001776
0.00097590318
0.00049117399
0.00048659125
0.00047258957
0.00022214962
0.00021903082
0.00021172466
9.0007178e-05
8.8469474e-05
8.5125766e-05
3.3510841e-05
3.2894575e-05
3.1587632e-05
1.267738e-05
1.2469577e-05
1.2033318e-05
5.9744736e-06
5.9164916e-06
5.7956444e-06
4.1309916e-06
4.1207692e-06
4.1001681e-06
3.7857528e-06
3.7890262e-06
3.7967097e-06
3.8630872e-06
3.8696075e-06
3.8840398e-06
4.0514316e-06
4.0584109e-06
4.0737391e-06
4.2683003e-06
4.275049e-06
4.289835e-06
4.4936753e-06
4.5000468e-06
4.5139931e-06
4.7231227e-06
4.7291015e-06
4.7421828e-06
4.9557465e-06
4.9613463e-06
4.9735964e-06
5.1913477e-06
5.196588e-06
5.2080507e-06
5.4298103e-06
5.4347105e-06
5.4454293e-06
5.6709808e-06
5.6755595e-06
5.6855752e-06
5.9146464e-06
5.9189209e-06
5.9282713e-06
6.1605305e-06
6.1645167e-06
6.1732369e-06
6.4082892e-06
6.4120019e-06
6.4201247e-06
6.657508e-06
6.6609613e-06
6.6685171e-06
6.9076984e-06
6.9109054e-06
6.9179227e-06
7.1582938e-06
7.1612669e-06
7.1677728e-06
7.4086471e-06
7.4113981e-06
7.4174181e-06
7.6580288e-06
7.6605686e-06
7.6661271e-06
7.905626e-06
7.9079654e-06
7.9130857e-06
8.1505435e-06
8.1526929e-06
8.1573976e-06
8.3918065e-06
8.3937758e-06
8.3980868e-06
8.6283644e-06
8.6301635e-06
8.6341022e-06
8.8590974e-06
8.8607358e-06
8.8643233e-06
9.0828244e-06
9.0843117e-06
9.0875688e-06
9.2983097e-06
9.2996554e-06
9.3026028e-06
9.5042615e-06
9.505475e-06
9.5081335e-06
9.6992914e-06
9.7003821e-06
9.7027722e-06
9.8817445e-06
9.8827219e-06
9.8848645e-06
1.0049135e-05
1.0050009e-05
1.0051925e-05
1.0196504e-05
1.0197283e-05
1.0198993e-05
1.0312115e-05
1.031281e-05
1.0314335e-05
1.0367421e-05
1.0368039e-05
1.0369399e-05
1.0296516e-05
1.0297065e-05
1.029827e-05
9.9610814e-06
9.9615583e-06
9.9626019e-06
9.1078221e-06
9.1082109e-06
9.1090507e-06
7.3633488e-06
7.363626e-06
7.3643142e-06
4.3710648e-06
4.3712909e-06
4.3730949e-06
0.056266598
0.060857344
0.046079192
0.04659433
0.01247337
0.011344696
0.0043099995
0.0040730081
0.0019059137
0.0018319503
0.00093377282
0.00090208118
0.00045288067
0.00043627632
0.0002020147
0.00019289253
8.0708488e-05
7.6255963e-05
2.9851937e-05
2.8030046e-05
1.1451224e-05
1.0827748e-05
5.6353083e-06
5.4648395e-06
4.074945e-06
4.0526029e-06
3.8097637e-06
3.8297408e-06
3.9061345e-06
3.93594e-06
4.0968925e-06
4.1275778e-06
4.3120944e-06
4.3414753e-06
4.5349671e-06
4.5626228e-06
4.7618498e-06
4.7877767e-06
4.9920125e-06
5.0162921e-06
5.2252837e-06
5.2480076e-06
5.4615452e-06
5.4828e-06
5.7006353e-06
5.7205011e-06
5.9423325e-06
5.9608836e-06
6.1863519e-06
6.2036574e-06
6.4323425e-06
6.4484664e-06
6.6798833e-06
6.6948856e-06
6.9284802e-06
6.9424171e-06
7.1775619e-06
7.1904863e-06
7.4264771e-06
7.4384393e-06
7.6744926e-06
7.6855406e-06
7.9207927e-06
7.9309728e-06
8.16448e-06
8.1738367e-06
8.4045776e-06
8.4131543e-06
8.6400335e-06
8.6478726e-06
8.8697269e-06
8.8768701e-06
9.0924759e-06
9.0989647e-06
9.3070446e-06
9.31292e-06
9.512141e-06
9.517444e-06
9.7063766e-06
9.7111484e-06
9.888097e-06
9.8923788e-06
1.0054817e-05
1.0058651e-05
1.0201577e-05
1.0205005e-05
1.0316641e-05
1.0319705e-05
1.0371456e-05
1.0374193e-05
1.0300093e-05
1.0302519e-05
9.9641665e-06
9.9662295e-06
9.1103084e-06
9.1118302e-06
7.3662945e-06
7.3671086e-06
4.387425e-06
4.3885422e-06
3.9377149e-06
1.916666e-05
9.1995074e-05
0.00019959235
0.0002887996
0.00033769128
0.0003525964
0.00034650256
0.00032884747
0.00030500684
0.00027773502
0.0002485581
0.00021853976
0.00018858415
0.00015951926
0.0001321059
0.00010702671
8.482804e-05
6.5859052e-05
5.0230313e-05
3.7795727e-05
2.8143562e-05
2.0570279e-05
1.41042e-05
7.9080847e-06
2.1975661e-06
4.6952826e-05
0.0002102557
0.00041806249
0.0005677333
0.00064042803
0.00066147543
0.00065345455
0.00062964589
0.00059664112
0.00055741294
0.00051355803
0.00046623873
0.00041648409
0.00036534251
0.0003140277
0.00026398836
0.00021676661
0.00017380169
0.00013622473
0.00010465803
7.900616e-05
5.8126443e-05
3.9200027e-05
1.7040063e-05
7.7253884e-06
0.00015507452
0.00058746042
0.0010094587
0.0012452633
0.0013411813
0.0013615169
0.0013432467
0.0013051127
0.0012545382
0.0011941667
0.0011254443
0.0010494092
0.00096662227
0.00087752459
0.00078321498
0.00068569128
0.00058764018
0.00049219778
0.00040264528
0.00032191967
0.0002518339
0.0001916311
0.0001351259
6.5881776e-05
3.7916278e-05
0.00058105073
0.001679736
0.0024110742
0.0027237192
0.0028091834
0.0027849963
0.0027155058
0.0026293817
0.0025325421
0.0024252994
0.0023088684
0.0021844359
0.0020509681
0.0019059975
0.0017493993
0.0015826653
0.0014083899
0.0012302163
0.001052845
0.00088176898
0.00072248581
0.00057795401
0.00044159582
0.00026941038
0.00028254871
0.0024546181
0.0049332495
0.0060627953
0.0064138582
0.0063501577
0.0061084446
0.0058220615
0.0055438287
0.0052641743
0.0049783737
0.0046922085
0.0044123306
0.004135462
0.0038492411
0.0035537321
0.0032506511
0.002941591
0.0026287954
0.0023157207
0.0020072271
0.0017101178
0.001432593
0.0011891561
0.0010063299
0.0023558561
0.01049844
0.016604546
0.018617279
0.018206215
0.016683584
0.014880293
0.013195166
0.011710227
0.010416966
0.0092970542
0.0083285442
0.0074887691
0.0067522154
0.0060952363
0.0055005279
0.0049547595
0.0044471679
0.0039696325
0.0035169054
0.0030863483
0.0026786635
0.0022968335
0.0019561224
0.001692286
0.044938899
0.034045401
0.026551518
0.021407899
0.01777155
0.015084663
0.013014145
0.011375513
0.010058619
0.0089855374
0.0080969258
0.0073474427
0.0067023587
0.0061344241
0.0056222753
0.0051498277
0.0047053378
0.0042803992
0.0038694102
0.0034694132
0.0030797579
0.002702462
0.0023416569
0.0020112372
0.0017498037
0.037272652
0.031031555
0.027856795
0.025263467
0.022425838
0.019473252
0.016767206
0.014469281
0.012575766
0.01101302
0.0097131539
0.0086228527
0.0076960273
0.0068955767
0.006194284
0.0055703287
0.0050057942
0.0044864461
0.0040017005
0.0035446071
0.0031113785
0.0027019554
0.0023186691
0.0019763105
0.0017105014
0.010206701
0.0095476593
0.0092199397
0.0089092063
0.0084520023
0.0078816302
0.0073041582
0.0067914176
0.0063192028
0.0058851948
0.005486472
0.0051213779
0.0047776722
0.0044362747
0.0040983936
0.0037631999
0.0034291978
0.0030955998
0.002762896
0.0024332384
0.0021105078
0.0018007561
0.001511497
0.0012569113
0.0010637669
0.0039093559
0.0038321258
0.0038032376
0.0037524282
0.0036423389
0.0034840095
0.0033128605
0.0031483426
0.0029888868
0.0028343865
0.0026835066
0.0025342216
0.0023825965
0.0022236122
0.0020564351
0.0018811364
0.0016985006
0.0015103303
0.0013196548
0.0011307861
0.00094899271
0.00077964061
0.00062548709
0.00047909723
0.00029283683
0.0018003894
0.0017993522
0.0018077655
0.0018019673
0.0017694613
0.0017127604
0.0016428315
0.0015676426
0.0014892902
0.0014083898
0.0013248213
0.0012380699
0.0011471746
0.0010512024
0.0009504384
0.00084597563
0.00073958174
0.00063365935
0.00053115572
0.00043527461
0.00034886635
0.00027364617
0.00020859945
0.00014693677
7.143659e-05
0.00088792686
0.00088637917
0.00088789608
0.00088277505
0.00086553496
0.00083631616
0.0007987214
0.00075613464
0.00071024879
0.00066184262
0.00061129224
0.00055884765
0.00050470497
0.00044917671
0.00039299786
0.00033727639
0.00028337549
0.00023276501
0.00018684365
0.00014673379
0.00011302948
8.5563923e-05
6.3039705e-05
4.2356426e-05
1.8099603e-05
0.0004260738
0.0004207775
0.00041653342
0.00040932461
0.00039671736
0.00037848682
0.00035597688
0.00033080118
0.00030408735
0.00027652457
0.00024857364
0.00022061634
0.00019301438
0.0001661463
0.0001404611
0.00011645374
9.4606096e-05
7.5317737e-05
5.8845448e-05
4.5261803e-05
3.4425821e-05
2.5962753e-05
1.9205946e-05
1.3053004e-05
5.7146107e-06
0.00018584093
0.0001805611
0.00017569457
0.00016972012
0.00016168213
0.00015147784
0.00013965581
0.000126953
0.00011396163
0.00010107442
8.8549784e-05
7.6583151e-05
6.5335045e-05
5.4941023e-05
4.55191e-05
3.7164919e-05
2.9941101e-05
2.386579e-05
1.8905736e-05
1.4974565e-05
1.1933353e-05
9.5901153e-06
7.6959302e-06
5.9691185e-06
4.3352781e-06
7.2389972e-05
6.9125017e-05
6.6061929e-05
6.2707899e-05
5.8747695e-05
5.4156314e-05
4.9138223e-05
4.3972063e-05
3.888889e-05
3.403831e-05
2.9507862e-05
2.535153e-05
2.1603638e-05
1.8283927e-05
1.5399711e-05
1.2946751e-05
1.0909214e-05
9.2593598e-06
7.9573146e-06
6.9503631e-06
6.170344e-06
5.5286462e-06
4.9140612e-06
4.22286e-06
3.5186488e-06
2.6356872e-05
2.488053e-05
2.3505964e-05
2.2095787e-05
2.0559347e-05
1.8890372e-05
1.7151492e-05
1.5427924e-05
1.3789907e-05
1.2279937e-05
1.0918678e-05
9.7142023e-06
8.6678834e-06
7.7763746e-06
7.0324123e-06
6.4254783e-06
5.9422782e-06
5.5668229e-06
5.2796263e-06
5.0548606e-06
4.8537143e-06
4.6122524e-06
4.2255889e-06
3.5397537e-06
2.2981435e-06
1.0242161e-05
9.721206e-06
9.2475098e-06
8.7870017e-06
8.3153468e-06
7.8299075e-06
7.345945e-06
6.8849229e-06
6.464106e-06
6.0928216e-06
5.7739906e-06
5.5068222e-06
5.2886723e-06
5.1157566e-06
4.9834177e-06
4.8863193e-06
4.8184859e-06
4.7729013e-06
4.7399163e-06
4.7030163e-06
4.6295219e-06
4.4535015e-06
4.0516259e-06
3.2254279e-06
1.7054398e-06
5.3082747e-06
5.1759769e-06
5.0656593e-06
4.9692564e-06
4.8800327e-06
4.7961482e-06
4.7200389e-06
4.6557113e-06
4.60617e-06
4.5724549e-06
4.5539891e-06
4.5492766e-06
4.5564337e-06
4.573388e-06
4.5979463e-06
4.6277904e-06
4.6603037e-06
4.6918924e-06
4.7159977e-06
4.7181762e-06
4.6655912e-06
4.4881817e-06
4.0537484e-06
3.1590593e-06
1.5846984e-06
4.0395759e-06
4.0389296e-06
4.0502354e-06
4.0711827e-06
4.0993968e-06
4.1334679e-06
4.1729379e-06
4.2177365e-06
4.2676121e-06
4.3219092e-06
4.3796391e-06
4.4396353e-06
4.5007114e-06
4.5616954e-06
4.621428e-06
4.6786995e-06
4.7320003e-06
4.7787376e-06
4.8130934e-06
4.8208799e-06
4.7687748e-06
4.5855117e-06
4.1383254e-06
3.2294444e-06
1.6575406e-06
3.8579639e-06
3.8949124e-06
3.9400854e-06
3.9923665e-06
4.0504839e-06
4.1133026e-06
4.1798812e-06
4.2493793e-06
4.3209475e-06
4.3936854e-06
4.4666584e-06
4.5389322e-06
4.6096074e-06
4.6778379e-06
4.7428033e-06
4.8036276e-06
4.8591075e-06
4.9068964e-06
4.9413299e-06
4.9482815e-06
4.8945366e-06
4.7094984e-06
4.2629584e-06
3.3642182e-06
1.8402733e-06
3.9734199e-06
4.0182859e-06
4.0699285e-06
4.1275085e-06
4.1900843e-06
4.2566943e-06
4.3264025e-06
4.3982974e-06
4.4714812e-06
4.5450688e-06
4.6181971e-06
4.6900353e-06
4.7597908e-06
4.8267231e-06
4.890114e-06
4.949182e-06
5.0028025e-06
5.0486866e-06
5.0812125e-06
5.0863294e-06
5.0310641e-06
4.8454779e-06
4.4006575e-06
3.5058387e-06
1.9750458e-06
4.1654358e-06
4.2099981e-06
4.2606475e-06
4.3166485e-06
4.3771966e-06
4.4414428e-06
4.5085257e-06
4.5775826e-06
4.6477604e-06
4.7182224e-06
4.7881577e-06
4.8567886e-06
4.9233753e-06
4.9872176e-06
5.0476355e-06
5.10388e-06
5.1548503e-06
5.19827e-06
5.2285179e-06
5.2315228e-06
5.1742049e-06
4.9861544e-06
4.5367748e-06
3.6298102e-06
2.0625864e-06
4.377568e-06
4.4198839e-06
4.4678411e-06
4.5207728e-06
4.5779545e-06
4.6386167e-06
4.7019689e-06
4.7672086e-06
4.8335356e-06
4.9001622e-06
4.9663222e-06
5.031277e-06
5.0943225e-06
5.1547893e-06
5.2120199e-06
5.265285e-06
5.3134941e-06
5.3543635e-06
5.3822184e-06
5.3827997e-06
5.3224386e-06
5.1290811e-06
4.6681614e-06
3.7361027e-06
2.1320652e-06
4.5965661e-06
4.6363285e-06
4.68137e-06
4.7310806e-06
4.7847961e-06
4.8418088e-06
4.9013877e-06
4.9627868e-06
5.0252557e-06
5.0880525e-06
5.1504525e-06
5.2117545e-06
5.2712868e-06
5.328408e-06
5.3824836e-06
5.4328005e-06
5.4782736e-06
5.516594e-06
5.5419782e-06
5.5398263e-06
5.4755396e-06
5.2748325e-06
4.7985637e-06
3.8359992e-06
2.1829741e-06
4.8195962e-06
4.8568709e-06
4.8990991e-06
4.9457202e-06
4.9961198e-06
5.0496445e-06
5.1056133e-06
5.1633306e-06
5.2220934e-06
5.2812027e-06
5.3399736e-06
5.3977412e-06
5.4538662e-06
5.5077354e-06
5.5587385e-06
5.6061779e-06
5.6489695e-06
5.6847648e-06
5.70763e-06
5.702533e-06
5.6338106e-06
5.4248945e-06
4.9324722e-06
3.9400801e-06
2.2485518e-06
5.0460934e-06
5.0810123e-06
5.1205825e-06
5.1642846e-06
5.2115497e-06
5.2617713e-06
5.314315e-06
5.3685296e-06
5.4237564e-06
5.4793374e-06
5.5346257e-06
5.588992e-06
5.6418294e-06
5.6925528e-06
5.7405762e-06
5.785218e-06
5.8253922e-06
5.8587011e-06
5.8790373e-06
5.870903e-06
5.7975788e-06
5.5804264e-06
5.0724667e-06
4.0510058e-06
2.3096275e-06
5.2759042e-06
5.3086e-06
5.3456622e-06
5.3866087e-06
5.4309103e-06
5.4780029e-06
5.5272951e-06
5.5781771e-06
5.6300309e-06
5.6822379e-06
5.7341876e-06
5.7852848e-06
5.8349546e-06
5.8826404e-06
5.9277799e-06
5.9697079e-06
6.0073347e-06
6.0382088e-06
6.05604e-06
6.0448606e-06
5.9669483e-06
5.741868e-06
5.2197674e-06
4.1726409e-06
2.3897283e-06
5.5088986e-06
5.5394944e-06
5.5741865e-06
5.6125265e-06
5.6540212e-06
5.6981451e-06
5.7443462e-06
5.7920539e-06
5.8406881e-06
5.8896676e-06
5.9384172e-06
5.9863744e-06
6.0329951e-06
6.0777508e-06
6.1201032e-06
6.1594029e-06
6.1945566e-06
6.2230577e-06
6.238432e-06
6.2242433e-06
6.1417784e-06
5.9088494e-06
5.3728711e-06
4.3005613e-06
2.4641466e-06
5.7448999e-06
5.7735092e-06
5.8059574e-06
5.8418271e-06
5.880659e-06
5.9219625e-06
5.9652218e-06
6.0099031e-06
6.0554627e-06
6.1013541e-06
6.1470361e-06
6.1919783e-06
6.2356662e-06
6.2775984e-06
6.3172602e-06
6.354018e-06
6.3867755e-06
6.4129722e-06
6.4259527e-06
6.4088119e-06
6.3218087e-06
6.0807992e-06
5.5297777e-06
4.4293088e-06
2.5416018e-06
5.9836727e-06
6.0104003e-06
6.0407209e-06
6.0742465e-06
6.1105486e-06
6.1491697e-06
6.1896271e-06
6.2314216e-06
6.2740437e-06
6.3169803e-06
6.3597224e-06
6.4017705e-06
6.442639e-06
6.4818528e-06
6.51892e-06
6.5532224e-06
6.5836614e-06
6.6076244e-06
6.6182794e-06
6.5982534e-06
6.5067473e-06
6.2575574e-06
5.6912727e-06
4.5638532e-06
2.6351425e-06
6.2249202e-06
6.2498629e-06
6.2781642e-06
6.3094627e-06
6.3433596e-06
6.3794271e-06
6.4172145e-06
6.4562546e-06
6.4960698e-06
6.5361793e-06
6.5761045e-06
6.6153757e-06
6.6535351e-06
6.6901335e-06
6.724701e-06
6.7566342e-06
6.7848315e-06
6.8066298e-06
6.815022e-06
6.7921633e-06
6.6961521e-06
6.4385621e-06
5.8562862e-06
4.7002822e-06
2.723116e-06
6.4682809e-06
6.491529e-06
6.5179119e-06
6.5470927e-06
6.5787011e-06
6.6123367e-06
6.6475786e-06
6.6839898e-06
6.7211232e-06
6.7585279e-06
6.7957551e-06
6.8323632e-06
6.8679216e-06
6.9020054e-06
6.9341663e-06
6.9638151e-06
6.9898464e-06
7.0095452e-06
7.0157281e-06
6.9900712e-06
6.8895245e-06
6.6232256e-06
6.0236326e-06
4.8353986e-06
2.8149974e-06
6.7133248e-06
6.7349626e-06
6.7595218e-06
6.7866884e-06
6.8161177e-06
6.8474367e-06
6.8802513e-06
6.9141534e-06
6.9487246e-06
6.9835426e-06
7.0181865e-06
7.0522422e-06
7.0853047e-06
7.1169731e-06
7.1468192e-06
7.1742672e-06
7.1982062e-06
7.2158671e-06
7.2198851e-06
7.1914477e-06
7.0863287e-06
6.8111068e-06
6.1932326e-06
4.9690621e-06
2.8885236e-06
6.9595493e-06
6.9796565e-06
7.0024812e-06
7.0277316e-06
7.0550858e-06
7.084197e-06
7.1146973e-06
7.1462048e-06
7.1783286e-06
7.2106736e-06
7.2428457e-06
7.2744565e-06
7.3051259e-06
7.3344758e-06
7.3620976e-06
7.3874274e-06
7.4093469e-06
7.4250283e-06
7.4269177e-06
7.3956991e-06
7.285957e-06
7.0017602e-06
6.3659515e-06
5.1079549e-06
2.9713398e-06
7.2063763e-06
7.225028e-06
7.2462029e-06
7.2696296e-06
7.2950083e-06
7.3220159e-06
7.3503095e-06
7.3795326e-06
7.4093199e-06
7.4393018e-06
7.46911e-06
7.4983808e-06
7.5267575e-06
7.5538843e-06
7.5793707e-06
7.6026637e-06
7.6226354e-06
7.6363947e-06
7.636188e-06
7.6021801e-06
7.4877569e-06
7.1945358e-06
6.5410713e-06
5.2512087e-06
3.0681687e-06
7.4531485e-06
7.4704164e-06
7.490022e-06
7.5117135e-06
7.535212e-06
7.560216e-06
7.5864066e-06
7.6134511e-06
7.6410088e-06
7.6687345e-06
7.6962838e-06
7.7233169e-06
7.7494995e-06
7.7744967e-06
7.7979355e-06
7.8192724e-06
7.8373674e-06
7.8492612e-06
7.8469906e-06
7.8101854e-06
7.6910247e-06
7.3886903e-06
6.717364e-06
5.394068e-06
3.1547385e-06
7.6991278e-06
7.7150805e-06
7.7331942e-06
7.7532354e-06
7.7749448e-06
7.7980421e-06
7.8222299e-06
7.8471985e-06
7.8726303e-06
7.8982033e-06
7.9235965e-06
7.948492e-06
7.9725771e-06
7.9955369e-06
8.0170149e-06
8.0364754e-06
8.0527648e-06
8.0628501e-06
8.0585478e-06
8.018935e-06
7.8949655e-06
7.5833936e-06
6.8940789e-06
5.5371716e-06
3.2405763e-06
7.9434944e-06
7.9581979e-06
7.9748942e-06
7.9933671e-06
8.0133758e-06
8.0346598e-06
8.0569423e-06
8.0799349e-06
8.1033421e-06
8.126864e-06
8.1502013e-06
8.1730574e-06
8.1951403e-06
8.2161537e-06
8.2357565e-06
8.2534203e-06
8.267975e-06
8.2763099e-06
8.2700102e-06
8.2275769e-06
8.0986961e-06
7.7776513e-06
7.0700892e-06
5.6799838e-06
3.3278562e-06
8.1853475e-06
8.1988657e-06
8.214217e-06
8.2312011e-06
8.249595e-06
8.2691565e-06
8.2896286e-06
8.3107432e-06
8.332225e-06
8.3537954e-06
8.3751754e-06
8.3960891e-06
8.4162637e-06
8.4354208e-06
8.4532338e-06
8.4691802e-06
8.4820718e-06
8.488716e-06
8.480457e-06
8.4351944e-06
8.3012906e-06
7.9704577e-06
7.2440391e-06
5.8200152e-06
3.4124172e-06
8.4237074e-06
8.4361025e-06
8.4501793e-06
8.4657525e-06
8.4826154e-06
8.5005435e-06
8.5192983e-06
8.5386308e-06
8.5582851e-06
8.5780021e-06
8.5975226e-06
8.6165898e-06
8.6349493e-06
8.6523395e-06
8.6684477e-06
8.682756e-06
8.6940571e-06
8.6990734e-06
8.6888997e-06
8.6408118e-06
8.5017825e-06
8.1607845e-06
7.4145476e-06
5.955086e-06
3.4921042e-06
8.6575201e-06
8.6688532e-06
8.6817245e-06
8.695963e-06
8.7113776e-06
8.7277601e-06
8.7448894e-06
8.7625343e-06
8.7804576e-06
8.7984186e-06
8.8161764e-06
8.8334924e-06
8.8501296e-06
8.8658424e-06
8.8803309e-06
8.8930811e-06
8.9028657e-06
8.9063214e-06
8.8942922e-06
8.843424e-06
8.6992901e-06
8.3481217e-06
7.5821451e-06
6.0879066e-06
3.5558874e-06
8.8856633e-06
8.8959946e-06
8.9077286e-06
8.9207078e-06
8.9347555e-06
8.9496792e-06
8.9652738e-06
8.9813253e-06
8.9976134e-06
9.013915e-06
9.0300067e-06
9.0456667e-06
9.0606745e-06
9.0747994e-06
9.0877535e-06
9.0990265e-06
9.1073707e-06
9.1093385e-06
9.0955269e-06
9.0419622e-06
8.8928363e-06
8.5316368e-06
7.7458318e-06
6.2153925e-06
3.6266184e-06
9.1069543e-06
9.1163432e-06
9.1270074e-06
9.1388021e-06
9.151564e-06
9.1651151e-06
9.1792656e-06
9.1938171e-06
9.2085658e-06
9.2233047e-06
9.2378267e-06
9.2519261e-06
9.2653976e-06
9.2780247e-06
9.2895305e-06
9.299408e-06
9.3063896e-06
9.3069453e-06
9.291431e-06
9.235268e-06
9.0813044e-06
8.7104083e-06
7.9056587e-06
6.3410393e-06
3.6980306e-06
9.3201566e-06
9.3286623e-06
9.3383241e-06
9.3490087e-06
9.3605656e-06
9.3728303e-06
9.3856271e-06
9.3987724e-06
9.4120775e-06
9.4253507e-06
9.4383999e-06
9.4510345e-06
9.4630636e-06
9.4742837e-06
9.4844284e-06
9.4929931e-06
9.4986907e-06
9.4979108e-06
9.4807732e-06
9.422103e-06
9.2634277e-06
8.8830936e-06
8.0601825e-06
6.463542e-06
3.7695259e-06
9.523978e-06
9.5316599e-06
9.5403866e-06
9.5500357e-06
9.5604686e-06
9.5715331e-06
9.583067e-06
9.5949003e-06
9.6068582e-06
9.6187632e-06
9.6304374e-06
9.641704e-06
9.6523854e-06
9.6622905e-06
9.6711621e-06
9.6784979e-06
9.6829913e-06
9.6809533e-06
9.6622713e-06
9.6011824e-06
9.4379038e-06
9.0482814e-06
8.2074699e-06
6.5793215e-06
3.8355087e-06
9.7170304e-06
9.723948e-06
9.7318072e-06
9.7404958e-06
9.749886e-06
9.7598373e-06
9.7701997e-06
9.7808158e-06
9.7915238e-06
9.8021593e-06
9.8125573e-06
9.8225539e-06
9.8319837e-06
9.8406668e-06
9.8483551e-06
9.8545473e-06
9.8579181e-06
9.854702e-06
9.8345634e-06
9.7711738e-06
9.6034904e-06
9.2049372e-06
8.3467266e-06
6.6871545e-06
3.8929603e-06
9.8976598e-06
9.903873e-06
9.9109329e-06
9.9187367e-06
9.9271664e-06
9.9360923e-06
9.9453755e-06
9.9548704e-06
9.9644271e-06
9.973893e-06
9.983115e-06
9.9919409e-06
1.0000217e-05
1.0007773e-05
1.0014368e-05
1.0019504e-05
1.0021836e-05
1.0017527e-05
9.9960334e-06
9.9305021e-06
9.7587353e-06
9.351956e-06
8.4778851e-06
6.7903983e-06
3.9526561e-06
1.0063382e-05
1.0068952e-05
1.0075282e-05
1.0082277e-05
1.008983e-05
1.009782e-05
1.0106117e-05
1.0114588e-05
1.0123094e-05
1.0131492e-05
1.013964e-05
1.0147396e-05
1.0154617e-05
1.0161142e-05
1.0166738e-05
1.0170907e-05
1.0172287e-05
1.0166975e-05
1.0144237e-05
1.0076749e-05
9.9012746e-06
9.4870733e-06
8.5988467e-06
6.8875004e-06
4.0154297e-06
1.0209239e-05
1.0214227e-05
1.0219898e-05
1.0226165e-05
1.0232926e-05
1.024007e-05
1.0247478e-05
1.0255024e-05
1.0262581e-05
1.0270015e-05
1.0277194e-05
1.0283983e-05
1.0290249e-05
1.029584e-05
1.0300531e-05
1.0303822e-05
1.0304338e-05
1.0298117e-05
1.0274255e-05
1.0205009e-05
1.002623e-05
9.6054305e-06
8.7044875e-06
6.9707956e-06
4.0645064e-06
1.0323495e-05
1.0327965e-05
1.0333052e-05
1.0338674e-05
1.0344735e-05
1.035113e-05
1.0357746e-05
1.036447e-05
1.0371183e-05
1.0377762e-05
1.0384079e-05
1.0390006e-05
1.0395419e-05
1.0400174e-05
1.040405e-05
1.0406549e-05
1.0406285e-05
1.0399247e-05
1.0374386e-05
1.0303601e-05
1.0121981e-05
9.6956052e-06
8.7840422e-06
7.0319546e-06
4.0993378e-06
1.0377587e-05
1.0381602e-05
1.0386185e-05
1.0391258e-05
1.0396727e-05
1.0402482e-05
1.0408416e-05
1.0414429e-05
1.0420413e-05
1.042625e-05
1.0431817e-05
1.0436991e-05
1.0441652e-05
1.0445662e-05
1.0448802e-05
1.0450577e-05
1.0449598e-05
1.0441823e-05
1.0416094e-05
1.0344047e-05
1.0160279e-05
9.7301268e-06
8.8123765e-06
7.0525782e-06
4.1235016e-06
1.030554e-05
1.0309152e-05
1.0313318e-05
1.0317967e-05
1.0322994e-05
1.0328261e-05
1.0333657e-05
1.0339105e-05
1.0344507e-05
1.0349735e-05
1.0354676e-05
1.0359206e-05
1.0363214e-05
1.0366565e-05
1.0369016e-05
1.0370078e-05
1.0368387e-05
1.0359921e-05
1.0333481e-05
1.0260629e-05
1.0076018e-05
9.6457027e-06
8.730928e-06
6.9838075e-06
4.0917923e-06
9.968825e-06
9.9720359e-06
9.9758709e-06
9.9802772e-06
9.9851024e-06
9.9901282e-06
9.9952299e-06
1.0000388e-05
1.0005505e-05
1.0010339e-05
1.0014832e-05
1.0018845e-05
1.0022317e-05
1.0025105e-05
1.0026848e-05
1.0027109e-05
1.0024596e-05
1.0015423e-05
9.9885262e-06
9.915884e-06
9.7334145e-06
9.3110497e-06
8.4190938e-06
6.7265821e-06
3.9410203e-06
9.1137878e-06
9.1164798e-06
9.1200343e-06
9.1245081e-06
9.1294704e-06
9.1346115e-06
9.1398398e-06
9.1453353e-06
9.1509647e-06
9.1559389e-06
9.1604424e-06
9.1641746e-06
9.1673189e-06
9.1697342e-06
9.1706054e-06
9.1699596e-06
9.166448e-06
9.1565387e-06
9.1297124e-06
9.0597282e-06
8.8864484e-06
8.490271e-06
7.6634951e-06
6.1144312e-06
3.6070442e-06
7.3681091e-06
7.3700305e-06
7.3733653e-06
7.3793241e-06
7.3846727e-06
7.3900667e-06
7.3957874e-06
7.402579e-06
7.4103238e-06
7.416591e-06
7.4222947e-06
7.426265e-06
7.4297546e-06
7.4319668e-06
7.4309301e-06
7.4296714e-06
7.4254251e-06
7.4151092e-06
7.3896262e-06
7.3278511e-06
7.1789512e-06
6.8458299e-06
6.1636619e-06
4.9109818e-06
2.916328e-06
4.3886816e-06
4.3897295e-06
4.3935922e-06
4.408737e-06
4.4144181e-06
4.4189199e-06
4.4240383e-06
4.4312506e-06
4.4407064e-06
4.4481428e-06
4.4553923e-06
4.4599062e-06
4.480639e-06
4.4819183e-06
4.4756444e-06
4.4744009e-06
4.4710145e-06
4.4624476e-06
4.4426459e-06
4.4005615e-06
4.3037368e-06
4.094328e-06
3.6759348e-06
2.926783e-06
1.7632032e-06
)
;

boundaryField
{
    Walls
    {
        type            kqRWallFunction;
        value           nonuniform List<scalar> 
38
(
3.9377149e-06
2.1975661e-06
7.7253884e-06
3.7916278e-05
0.00028254871
0.0023558561
0.056266598
0.060857344
0.018349822
0.027128931
0.034883247
0.041965322
0.047016294
0.052045962
0.056496773
0.058948718
0.062020978
0.064725418
0.065926276
0.067557304
0.069094412
0.069982552
0.070216326
0.070796318
0.071875864
0.072373202
0.0722456
0.071913107
0.072391726
0.072989978
0.072883382
0.072912803
0.073196047
0.073318411
0.072970706
0.072511551
0.071832107
0.066827012
)
;
    }
    Inlet
    {
        type            turbulentIntensityKineticEnergyInlet;
        intensity       0.05;
        value           nonuniform List<scalar> 3(0.0081206404 0.0082441188 0.010050224);
    }
    Outlet
    {
        type            inletOutlet;
        inletValue      uniform 0;
        value           nonuniform List<scalar> 
86
(
0
0
0
0
0
0
0
0
0
0
0
0
0
0
0
0
0
0
0
0
0
0
0
0
0
0
0
0
0
0
0.0017498037
0.0017105014
0.0010637669
0
0
0
0
4.3352781e-06
3.5186488e-06
0
0
0
0
1.8402733e-06
1.9750458e-06
2.0625864e-06
2.1320652e-06
2.1829741e-06
2.2485518e-06
2.3096275e-06
2.3897283e-06
2.4641466e-06
2.5416018e-06
2.6351425e-06
2.723116e-06
2.8149974e-06
2.8885236e-06
2.9713398e-06
3.0681687e-06
3.1547385e-06
3.2405763e-06
3.3278562e-06
3.4124172e-06
3.4921042e-06
0
0
0
0
0
0
0
0
0
0
0
0
0
0
0
1.7632032e-06
0
0
0
0
0.0010063299
0.001692286
)
;
    }
    Front
    {
        type            wedge;
    }
    Back
    {
        type            wedge;
    }
    defaultFaces
    {
        type            empty;
    }
}


// ************************************************************************* //
