/*--------------------------------*- C++ -*----------------------------------*\
| =========                 |                                                 |
| \\      /  F ield         | OpenFOAM: The Open Source CFD Toolbox           |
|  \\    /   O peration     | Version:  4.0                                   |
|   \\  /    A nd           | Web:      www.OpenFOAM.org                      |
|    \\/     M anipulation  |                                                 |
\*---------------------------------------------------------------------------*/
FoamFile
{
    version     2.0;
    format      ascii;
    class       volScalarField;
    location    "0.09";
    object      nut;
}
// * * * * * * * * * * * * * * * * * * * * * * * * * * * * * * * * * * * * * //

dimensions      [0 2 -1 0 0 0 0];

internalField   nonuniform List<scalar> 
1740
(
1.7460738e-05
1.3154547e-05
1.2300044e-06
1.499746e-05
7.2016615e-06
1.8054193e-06
3.6434519e-05
5.6247708e-06
2.3070137e-06
2.5551496e-05
4.8863787e-06
2.7602008e-06
1.7739061e-05
4.3836785e-06
3.0800184e-06
1.2632816e-05
4.0704895e-06
3.3960184e-06
8.4119443e-06
3.8538988e-06
3.6736019e-06
9.7234358e-06
3.71332e-06
3.8257618e-06
1.0607029e-05
3.6134785e-06
4.0154876e-06
9.4522806e-06
3.552613e-06
4.1818253e-06
8.4556784e-06
3.5212505e-06
4.2554444e-06
7.8721987e-06
3.4903781e-06
4.3555936e-06
7.3802766e-06
3.4773527e-06
4.449912e-06
6.9544999e-06
3.4894531e-06
4.5036815e-06
6.6093505e-06
3.4856878e-06
4.5183345e-06
6.3098049e-06
3.4634484e-06
4.5531584e-06
5.9897614e-06
3.467365e-06
4.6188551e-06
5.624754e-06
3.4959482e-06
4.649529e-06
5.3450257e-06
3.5161409e-06
4.6414402e-06
5.1595917e-06
3.5109111e-06
4.6212523e-06
5.0023454e-06
3.5044963e-06
4.6500873e-06
4.8656015e-06
3.5120451e-06
4.6865548e-06
4.7270799e-06
3.5264201e-06
4.6802454e-06
4.6080552e-06
3.5226737e-06
4.6816148e-06
4.4937972e-06
3.5356905e-06
4.6982528e-06
4.3783524e-06
3.5553112e-06
4.7068462e-06
4.2786271e-06
3.5620385e-06
4.686067e-06
4.2110964e-06
3.5670035e-06
4.6573124e-06
4.1659895e-06
3.5781307e-06
4.6164308e-06
2.695683e-06
3.4857956e-06
4.3113054e-06
1.9479303e-06
2.1913051e-06
4.4153377e-06
7.1893209e-06
7.3554183e-06
6.6966092e-06
6.5227943e-06
6.7313908e-06
6.3670371e-06
5.1186327e-06
5.0626364e-06
4.8183227e-06
4.1255833e-06
4.0606536e-06
3.9210694e-06
3.2228985e-06
3.1811955e-06
3.1015593e-06
2.2631184e-06
2.2370852e-06
2.1848686e-06
1.3193673e-06
1.3019258e-06
1.2651526e-06
6.1562143e-07
6.0549412e-07
5.8406207e-07
2.4274174e-07
2.3822627e-07
2.287909e-07
9.3348547e-08
9.1769804e-08
8.8523011e-08
4.4562923e-08
4.4105735e-08
4.3184775e-08
3.1171221e-08
3.1079416e-08
3.0912183e-08
2.8820637e-08
2.8837363e-08
2.8889961e-08
2.9593292e-08
2.9639241e-08
2.9748044e-08
3.1173567e-08
3.1225792e-08
3.1344525e-08
3.2952484e-08
3.3004533e-08
3.3120909e-08
3.4788346e-08
3.4838404e-08
3.4949365e-08
3.665401e-08
3.6701571e-08
3.6806482e-08
3.8546674e-08
3.8591626e-08
3.8690496e-08
4.0467266e-08
4.0509632e-08
4.0602651e-08
4.2416423e-08
4.2456278e-08
4.2543685e-08
4.4393942e-08
4.443138e-08
4.4513429e-08
4.6398824e-08
4.6433945e-08
4.651088e-08
4.8429341e-08
4.8462245e-08
4.8534302e-08
5.0483073e-08
5.0513857e-08
5.0581259e-08
5.2556901e-08
5.2585658e-08
5.2648617e-08
5.4646994e-08
5.4673814e-08
5.4732528e-08
5.6748774e-08
5.6773743e-08
5.6828403e-08
5.8856893e-08
5.8880092e-08
5.8930876e-08
6.0965203e-08
6.098671e-08
6.103379e-08
6.3066743e-08
6.3086633e-08
6.3130177e-08
6.5153735e-08
6.5172082e-08
6.521225e-08
6.7217595e-08
6.7234471e-08
6.7271421e-08
6.9248958e-08
6.9264435e-08
6.9298322e-08
7.1237733e-08
7.125188e-08
7.1282861e-08
7.3173171e-08
7.318606e-08
7.3214288e-08
7.5043964e-08
7.5055666e-08
7.5081299e-08
7.6838379e-08
7.6848966e-08
7.6872163e-08
7.8544437e-08
7.8553984e-08
7.8574905e-08
8.0150219e-08
8.01588e-08
8.0177609e-08
8.1644432e-08
8.1652124e-08
8.166899e-08
8.3017575e-08
8.3024457e-08
8.3039553e-08
8.4264032e-08
8.4270187e-08
8.4283698e-08
8.5384888e-08
8.5390407e-08
8.5402526e-08
8.6389176e-08
8.6394154e-08
8.6405095e-08
8.7287694e-08
8.7292236e-08
8.7302223e-08
8.8070589e-08
8.8074798e-08
8.8084059e-08
8.865722e-08
8.8661194e-08
8.8669964e-08
8.8767203e-08
8.8771033e-08
8.8779871e-08
4.1739993e-06
4.4965519e-06
6.6693146e-06
8.3840149e-06
5.9864611e-06
6.0297539e-06
4.6668123e-06
4.7587569e-06
3.844908e-06
3.9090041e-06
3.0483192e-06
3.0653942e-06
2.1344849e-06
2.1115737e-06
1.2210496e-06
1.1835784e-06
5.5645212e-07
5.291408e-07
2.1640488e-07
2.0350906e-07
8.4251017e-08
7.9723791e-08
4.1991086e-08
4.0744774e-08
3.07229e-08
3.0569002e-08
2.8991766e-08
2.9155183e-08
2.9921251e-08
3.0159564e-08
3.1527645e-08
3.1773049e-08
3.3298284e-08
3.3533992e-08
3.511753e-08
3.534022e-08
3.6964999e-08
3.7174565e-08
3.8839632e-08
3.9036635e-08
4.0742821e-08
4.0927912e-08
4.2675324e-08
4.284912e-08
4.4636952e-08
4.4800024e-08
4.6626683e-08
4.6779561e-08
4.8642753e-08
4.8785929e-08
5.0682701e-08
5.0816632e-08
5.2743372e-08
5.2868484e-08
5.4820898e-08
5.4937591e-08
5.6910672e-08
5.7019322e-08
5.9007318e-08
5.9108281e-08
6.1104663e-08
6.1198283e-08
6.3195731e-08
6.3282337e-08
6.5272729e-08
6.5352641e-08
6.7327062e-08
6.7400595e-08
6.934936e-08
6.9416824e-08
7.1329529e-08
7.1391231e-08
7.3256821e-08
7.331307e-08
7.5119932e-08
7.5171039e-08
7.6907133e-08
7.6953413e-08
7.8606456e-08
7.8648229e-08
8.0205988e-08
8.0243583e-08
8.1694451e-08
8.1728203e-08
8.306236e-08
8.3092619e-08
8.4304126e-08
8.4331257e-08
8.5420871e-08
8.5445265e-08
8.6421673e-08
8.6443749e-08
8.731737e-08
8.7337567e-08
8.8098123e-08
8.8116868e-08
8.8683527e-08
8.8701212e-08
8.8796738e-08
8.8813879e-08
3.2655984e-10
9.3774636e-09
1.3455961e-07
5.5678136e-07
1.097435e-06
1.4549245e-06
1.6096211e-06
1.6439459e-06
1.6151971e-06
1.5514062e-06
1.4646606e-06
1.3603723e-06
1.2418949e-06
1.1124852e-06
9.7597745e-07
8.3694168e-07
7.0063216e-07
5.725491e-07
4.577744e-07
3.6025797e-07
2.8221978e-07
2.2374192e-07
1.8224413e-07
1.5073594e-07
1.160853e-07
1.822477e-10
2.3031435e-08
3.0203892e-07
1.1269428e-06
2.05109e-06
2.5962376e-06
2.8394255e-06
2.9235075e-06
2.9247682e-06
2.876295e-06
2.7902324e-06
2.6706185e-06
2.5190603e-06
2.3372489e-06
2.1280656e-06
1.896555e-06
1.650765e-06
1.4015684e-06
1.1617407e-06
9.4437558e-07
7.6086226e-07
6.1896995e-07
5.2122499e-07
4.6182369e-07
4.1048625e-07
6.4067636e-10
7.6415196e-08
8.1885121e-07
2.3459015e-06
3.4597811e-06
4.0251751e-06
4.3099067e-06
4.460956e-06
4.5417883e-06
4.5752886e-06
4.5670344e-06
4.5162006e-06
4.4190207e-06
4.2714032e-06
4.0695904e-06
3.8123486e-06
3.5030871e-06
3.1511545e-06
2.7728877e-06
2.3918741e-06
2.037465e-06
1.7411842e-06
1.5310223e-06
1.4208557e-06
1.3563192e-06
3.1443531e-09
2.8623567e-07
2.0558348e-06
3.9496976e-06
4.9236903e-06
5.4325012e-06
5.7440188e-06
5.9701896e-06
6.1545991e-06
6.308173e-06
6.4296136e-06
6.5145053e-06
6.5529616e-06
6.5349656e-06
6.448087e-06
6.2821981e-06
6.0309209e-06
5.6932606e-06
5.2762214e-06
4.7979119e-06
4.290021e-06
3.798217e-06
3.3762361e-06
3.0643415e-06
2.7600976e-06
2.3425582e-08
1.1418085e-06
4.0026868e-06
5.6142294e-06
6.4622148e-06
6.9701323e-06
7.3277077e-06
7.6315188e-06
7.9218088e-06
8.1948035e-06
8.445245e-06
8.6731428e-06
8.8642248e-06
9.0051713e-06
9.0739601e-06
9.0553431e-06
8.9353245e-06
8.7017757e-06
8.347779e-06
7.8754925e-06
7.2999282e-06
6.653401e-06
5.9868707e-06
5.3806286e-06
4.947252e-06
1.9490496e-07
2.7463235e-06
5.9152996e-06
7.7465019e-06
8.6858334e-06
9.1226363e-06
9.3308408e-06
9.4731841e-06
9.609173e-06
9.7519138e-06
9.9038537e-06
1.0064123e-05
1.0226241e-05
1.0376713e-05
1.0497414e-05
1.0567693e-05
1.0565145e-05
1.0467062e-05
1.0253395e-05
9.9105554e-06
9.4347819e-06
8.8368807e-06
8.1438044e-06
7.4218047e-06
6.8065672e-06
4.3355865e-06
4.3092189e-06
4.3573634e-06
4.4733129e-06
4.6540003e-06
4.8894166e-06
5.1703406e-06
5.4937143e-06
5.8597907e-06
6.2675468e-06
6.7128322e-06
7.1872538e-06
7.6767781e-06
8.1614832e-06
8.6167753e-06
9.0153088e-06
9.3285753e-06
9.5285172e-06
9.5901596e-06
9.4951984e-06
9.2352803e-06
8.8158144e-06
8.2578931e-06
7.6169936e-06
7.029798e-06
9.1193044e-06
9.3941234e-06
9.808882e-06
1.0244584e-05
1.0436752e-05
1.04136e-05
1.0305486e-05
1.0211238e-05
1.0168004e-05
1.0174013e-05
1.0220994e-05
1.0300093e-05
1.0397794e-05
1.0497918e-05
1.0581601e-05
1.062714e-05
1.061024e-05
1.0506064e-05
1.0292457e-05
9.953852e-06
9.4846768e-06
8.8941023e-06
8.2073057e-06
7.488825e-06
6.8733082e-06
6.4029361e-06
6.8164567e-06
7.2508108e-06
7.652192e-06
7.9498577e-06
8.1519569e-06
8.3138321e-06
8.4820273e-06
8.6534968e-06
8.8306046e-06
9.00801e-06
9.1712782e-06
9.3082306e-06
9.3961489e-06
9.4228575e-06
9.3730876e-06
9.2304407e-06
8.9806442e-06
8.6148607e-06
8.1334445e-06
7.5496197e-06
6.8938477e-06
6.2150702e-06
5.5923267e-06
5.1391716e-06
5.0535464e-06
5.3883334e-06
5.7120857e-06
5.9932988e-06
6.2089024e-06
6.3662469e-06
6.4927976e-06
6.6072267e-06
6.7116275e-06
6.804468e-06
6.878754e-06
6.9243459e-06
6.9304749e-06
6.8832792e-06
6.7716187e-06
6.585551e-06
6.3176858e-06
5.9656971e-06
5.5353503e-06
5.0437578e-06
4.521822e-06
4.0146402e-06
3.5753536e-06
3.2414284e-06
2.8945584e-06
4.0954538e-06
4.3209204e-06
4.5380253e-06
4.7198766e-06
4.8525204e-06
4.9378083e-06
4.987529e-06
5.011545e-06
5.0126086e-06
4.9893833e-06
4.9375683e-06
4.8513751e-06
4.7244902e-06
4.5503277e-06
4.3246054e-06
4.0460513e-06
3.7176163e-06
3.3480244e-06
2.9532426e-06
2.5569289e-06
2.1886734e-06
1.8807264e-06
1.6620113e-06
1.5458901e-06
1.467092e-06
3.148795e-06
3.2611707e-06
3.3703374e-06
3.4537182e-06
3.498863e-06
3.5042157e-06
3.4755101e-06
3.4190269e-06
3.3378398e-06
3.2324552e-06
3.1019284e-06
2.9449849e-06
2.760653e-06
2.5488442e-06
2.3117618e-06
2.0544885e-06
1.785185e-06
1.5148354e-06
1.2563836e-06
1.0231718e-06
8.267282e-07
6.7498294e-07
5.7111028e-07
5.1216518e-07
4.8192045e-07
2.119903e-06
2.1456235e-06
2.1705806e-06
2.1788114e-06
2.1603307e-06
2.1127414e-06
2.0395652e-06
1.9461111e-06
1.8365113e-06
1.7134831e-06
1.5790358e-06
1.4351696e-06
1.2842284e-06
1.1290751e-06
9.7339253e-07
8.2158234e-07
6.7837579e-07
5.482708e-07
4.3494606e-07
3.4078398e-07
2.6654015e-07
2.1125235e-07
1.7213846e-07
1.439917e-07
1.1638687e-07
1.1583158e-06
1.1418864e-06
1.1261602e-06
1.1025012e-06
1.0651768e-06
1.0129326e-06
9.4825019e-07
8.750693e-07
7.9690411e-07
7.1637459e-07
6.3545877e-07
5.5584488e-07
4.7906491e-07
4.0651996e-07
3.3949919e-07
2.7912439e-07
2.2625621e-07
1.8139872e-07
1.4464651e-07
1.1568053e-07
9.3798362e-08
7.7948002e-08
6.6674767e-08
5.7900726e-08
4.9327365e-08
5.0585471e-07
4.8649085e-07
4.6830889e-07
4.4791664e-07
4.230201e-07
3.932353e-07
3.5978866e-07
3.2453538e-07
2.8912167e-07
2.5470633e-07
2.2206101e-07
1.9172177e-07
1.6407028e-07
1.3936223e-07
1.1774257e-07
9.9253943e-08
8.3840684e-08
7.1348795e-08
6.1541147e-08
5.4118704e-08
4.8734225e-08
4.5001779e-08
4.2485696e-08
4.068296e-08
3.9237504e-08
1.9178061e-07
1.8158671e-07
1.7223162e-07
1.6267513e-07
1.5218727e-07
1.4064367e-07
1.2844015e-07
1.1617371e-07
1.0436966e-07
9.3357118e-08
8.3331987e-08
7.4373965e-08
6.6533281e-08
5.9815322e-08
5.4186955e-08
4.9584443e-08
4.5920899e-08
4.3093471e-08
4.0991088e-08
3.9501025e-08
3.8513325e-08
3.7919902e-08
3.7606807e-08
3.7442899e-08
3.7304043e-08
7.552351e-08
7.1849059e-08
6.8568227e-08
6.5418943e-08
6.2203664e-08
5.8878596e-08
5.553108e-08
5.2302329e-08
4.9316207e-08
4.6648521e-08
4.4330688e-08
4.2373004e-08
4.0766915e-08
3.9491529e-08
3.8516934e-08
3.780713e-08
3.7322935e-08
3.7025078e-08
3.687715e-08
3.6848028e-08
3.6912561e-08
3.7048095e-08
3.7224932e-08
3.7385115e-08
3.7408566e-08
3.9626463e-08
3.8717089e-08
3.7998434e-08
3.740534e-08
3.6878826e-08
3.6393943e-08
3.5958156e-08
3.5594291e-08
3.5322489e-08
3.5151893e-08
3.5081446e-08
3.5102522e-08
3.5205226e-08
3.5376408e-08
3.5601309e-08
3.5864614e-08
3.6151546e-08
3.6449222e-08
3.6748272e-08
3.7044458e-08
3.7339099e-08
3.7635769e-08
3.7930608e-08
3.8188987e-08
3.8303186e-08
3.050065e-08
3.0544298e-08
3.0695861e-08
3.0934382e-08
3.1236589e-08
3.1585784e-08
3.1973141e-08
3.2394512e-08
3.2846398e-08
3.3323863e-08
3.3820558e-08
3.4327407e-08
3.4837389e-08
3.5342761e-08
3.5835684e-08
3.6308731e-08
3.6755481e-08
3.7171458e-08
3.7555563e-08
3.7911826e-08
3.8250184e-08
3.8583474e-08
3.8917495e-08
3.9227303e-08
3.9415505e-08
2.9391455e-08
2.9706455e-08
3.0095654e-08
3.0548155e-08
3.1050997e-08
3.1592114e-08
3.2161427e-08
3.2750525e-08
3.3351869e-08
3.3958287e-08
3.4562817e-08
3.515855e-08
3.573845e-08
3.6296917e-08
3.6828364e-08
3.7327722e-08
3.7790966e-08
3.8216016e-08
3.860426e-08
3.89625e-08
3.9303915e-08
3.9644887e-08
3.9994298e-08
4.0329314e-08
4.0554312e-08
3.046339e-08
3.0831829e-08
3.1259732e-08
3.1739229e-08
3.2261222e-08
3.2816418e-08
3.3395999e-08
3.3991767e-08
3.4596076e-08
3.5201746e-08
3.5802025e-08
3.6390614e-08
3.6960818e-08
3.7507422e-08
3.8025429e-08
3.8510407e-08
3.8958995e-08
3.9369842e-08
3.9745219e-08
4.0093067e-08
4.0427874e-08
4.0767011e-08
4.1118971e-08
4.1458055e-08
4.1679947e-08
3.2078336e-08
3.2440636e-08
3.2854919e-08
3.3314705e-08
3.3812738e-08
3.4341381e-08
3.4893018e-08
3.5460216e-08
3.6035826e-08
3.6613003e-08
3.7185234e-08
3.7746352e-08
3.8290483e-08
3.8811981e-08
3.9306097e-08
3.9768641e-08
4.0196504e-08
4.0588653e-08
4.0947806e-08
4.1282471e-08
4.1607616e-08
4.1940428e-08
4.2287617e-08
4.2619445e-08
4.2823958e-08
3.3825053e-08
3.4168092e-08
3.455845e-08
3.49905e-08
3.5458022e-08
3.5954406e-08
3.6472914e-08
3.7006794e-08
3.7549404e-08
3.8094282e-08
3.8635202e-08
3.9166202e-08
3.9681628e-08
4.0176218e-08
4.0645025e-08
4.1084064e-08
4.1490414e-08
4.1863272e-08
4.2205669e-08
4.2526474e-08
4.2840851e-08
4.3165572e-08
4.3505741e-08
4.3828728e-08
4.4018413e-08
3.5614462e-08
3.593684e-08
3.6303053e-08
3.6708077e-08
3.7146372e-08
3.7612019e-08
3.8098917e-08
3.8600876e-08
3.9111702e-08
3.9625311e-08
4.0135778e-08
4.0637398e-08
4.1124739e-08
4.1592752e-08
4.2036628e-08
4.2452498e-08
4.2837612e-08
4.3191387e-08
4.3517133e-08
4.3824043e-08
4.4127514e-08
4.4444204e-08
4.4778444e-08
4.5096081e-08
4.527674e-08
3.743235e-08
3.7735058e-08
3.8078696e-08
3.84587e-08
3.8870021e-08
3.9307272e-08
3.9764836e-08
4.0236983e-08
4.071793e-08
4.1201943e-08
4.1683408e-08
4.2156887e-08
4.2617179e-08
4.3059408e-08
4.3479112e-08
4.3872423e-08
4.4236797e-08
4.4571879e-08
4.4881273e-08
4.5174541e-08
4.5467479e-08
4.5777039e-08
4.6107459e-08
4.6423672e-08
4.6601494e-08
3.9278836e-08
3.9563122e-08
3.9885773e-08
4.024258e-08
4.0628901e-08
4.1039768e-08
4.1469977e-08
4.1914182e-08
4.2366975e-08
4.2822953e-08
4.3276801e-08
4.3723354e-08
4.4157657e-08
4.4575045e-08
4.4971283e-08
4.5342675e-08
4.5686853e-08
4.6003692e-08
4.6297112e-08
4.6577116e-08
4.6860054e-08
4.716344e-08
4.7491717e-08
4.7808914e-08
4.7985189e-08
4.1155411e-08
4.1422397e-08
4.1725404e-08
4.2060527e-08
4.2423458e-08
4.2809587e-08
4.3214073e-08
4.3631914e-08
4.4058035e-08
4.4487348e-08
4.4914829e-08
4.5335577e-08
4.5744886e-08
4.6138311e-08
4.6511803e-08
4.6861951e-08
4.7186492e-08
4.7485561e-08
4.776342e-08
4.8030565e-08
4.8303988e-08
4.860184e-08
4.8928728e-08
4.9247594e-08
4.942433e-08
4.3062721e-08
4.3313386e-08
4.359789e-08
4.3912594e-08
4.4253482e-08
4.461626e-08
4.4996406e-08
4.5389236e-08
4.5789979e-08
4.6193848e-08
4.6596096e-08
4.699208e-08
4.7377333e-08
4.7747639e-08
4.8099154e-08
4.8428675e-08
4.8734137e-08
4.9015919e-08
4.927864e-08
4.9533313e-08
4.9797598e-08
5.0090206e-08
5.0415537e-08
5.0734449e-08
5.0905726e-08
4.5000455e-08
4.5235668e-08
4.5502661e-08
4.5798039e-08
4.611805e-08
4.6458681e-08
4.6815698e-08
4.7184713e-08
4.7561242e-08
4.7940774e-08
4.831883e-08
4.8691022e-08
4.9053116e-08
4.9401114e-08
4.9731379e-08
5.0040908e-08
5.0327852e-08
5.0592834e-08
5.0840836e-08
5.1083397e-08
5.1338832e-08
5.1626332e-08
5.1949858e-08
5.2267923e-08
5.2433436e-08
4.6967478e-08
4.7188023e-08
4.7438391e-08
4.7715414e-08
4.8015583e-08
4.8335142e-08
4.8670122e-08
4.9016406e-08
4.9369782e-08
4.9726002e-08
5.0080842e-08
5.0430157e-08
5.0769944e-08
5.1096418e-08
5.1406142e-08
5.16963e-08
5.1965297e-08
5.2213968e-08
5.2447662e-08
5.2678443e-08
5.2925257e-08
5.320774e-08
5.3529467e-08
5.3847088e-08
5.400925e-08
4.8961937e-08
4.9168526e-08
4.9403076e-08
4.9662621e-08
4.9943888e-08
5.0243353e-08
5.0557295e-08
5.0881849e-08
5.1213058e-08
5.1546925e-08
5.1879468e-08
5.2206778e-08
5.2525076e-08
5.2830785e-08
5.3120665e-08
5.3392093e-08
5.3643686e-08
5.3876533e-08
5.4096332e-08
5.4315655e-08
5.4554049e-08
5.4831541e-08
5.5151189e-08
5.5467169e-08
5.5621085e-08
5.0981291e-08
5.1174581e-08
5.1394051e-08
5.1636929e-08
5.1900159e-08
5.2180432e-08
5.2474261e-08
5.277802e-08
5.3087988e-08
5.3400407e-08
5.371153e-08
5.4017672e-08
5.4315269e-08
5.4600948e-08
5.4871664e-08
5.5124982e-08
5.5359717e-08
5.5577235e-08
5.5783564e-08
5.5991771e-08
5.6221981e-08
5.6494573e-08
5.6811986e-08
5.7125458e-08
5.7269741e-08
5.3022317e-08
5.3202917e-08
5.3407996e-08
5.363496e-08
5.3880953e-08
5.4142879e-08
5.4417463e-08
5.4701303e-08
5.4990907e-08
5.5282742e-08
5.5573283e-08
5.5859062e-08
5.6136723e-08
5.6403091e-08
5.6655308e-08
5.6891125e-08
5.710956e-08
5.7312234e-08
5.7505521e-08
5.770297e-08
5.7925266e-08
5.8193129e-08
5.8508454e-08
5.8819876e-08
5.8954155e-08
5.5081087e-08
5.5249567e-08
5.5440899e-08
5.5652658e-08
5.5882168e-08
5.6126538e-08
5.6382698e-08
5.6647453e-08
5.6917527e-08
5.7189603e-08
5.7460369e-08
5.7726564e-08
5.7985032e-08
5.8232788e-08
5.8467159e-08
5.8686077e-08
5.8888759e-08
5.9077074e-08
5.9257749e-08
5.9444808e-08
5.9659478e-08
5.9922833e-08
6.0236393e-08
6.0546889e-08
6.0675255e-08
5.7152942e-08
5.7309841e-08
5.7488032e-08
5.7685254e-08
5.7899e-08
5.8126566e-08
5.836508e-08
5.8611546e-08
5.8862892e-08
5.9116004e-08
5.9367775e-08
5.9615142e-08
5.9855141e-08
6.0084971e-08
6.0302137e-08
6.0504747e-08
6.0692214e-08
6.086665e-08
6.1035142e-08
6.1212174e-08
6.1419517e-08
6.1678592e-08
6.1990518e-08
6.229992e-08
6.2421832e-08
5.9232463e-08
5.9378293e-08
5.9543923e-08
5.9727242e-08
5.9925909e-08
6.0137393e-08
6.0359007e-08
6.0587948e-08
6.0821337e-08
6.1056256e-08
6.1289789e-08
6.1519066e-08
6.1741305e-08
6.1953883e-08
6.2154476e-08
6.2341364e-08
6.251415e-08
6.2675189e-08
6.2831913e-08
6.2999274e-08
6.3199575e-08
6.3454557e-08
6.3764814e-08
6.4072374e-08
6.4183881e-08
6.1313446e-08
6.1448699e-08
6.1602321e-08
6.1772347e-08
6.1956593e-08
6.2152691e-08
6.2358129e-08
6.2570284e-08
6.2786465e-08
6.3003938e-08
6.3219976e-08
6.3431884e-08
6.3637059e-08
6.3833051e-08
6.4017696e-08
6.4189442e-08
6.4348079e-08
6.4496199e-08
6.4641572e-08
6.4799617e-08
6.4993147e-08
6.5244169e-08
6.5552664e-08
6.5858071e-08
6.5959351e-08
6.3388887e-08
6.3514035e-08
6.3656185e-08
6.3813509e-08
6.3983969e-08
6.4165356e-08
6.4355322e-08
6.4551415e-08
6.475112e-08
6.4951881e-08
6.5151147e-08
6.5346399e-08
6.5535201e-08
6.5715263e-08
6.5884582e-08
6.6041765e-08
6.6186784e-08
6.6322463e-08
6.6456905e-08
6.660599e-08
6.6793017e-08
6.7040197e-08
6.7346794e-08
6.7649594e-08
6.7740068e-08
6.5450971e-08
6.5566476e-08
6.5697677e-08
6.5842874e-08
6.600017e-08
6.6167504e-08
6.6342686e-08
6.6523428e-08
6.6707378e-08
6.6892152e-08
6.7075365e-08
6.7254665e-08
6.7427775e-08
6.7592564e-08
6.7747177e-08
6.7890379e-08
6.8022313e-08
6.8146034e-08
6.8269971e-08
6.8410454e-08
6.8591251e-08
6.883472e-08
6.9139249e-08
6.9438603e-08
6.9516126e-08
6.7491089e-08
6.7597402e-08
6.7718166e-08
6.7851802e-08
6.7996546e-08
6.8150477e-08
6.8311555e-08
6.8477646e-08
6.8646557e-08
6.8816062e-08
6.8983937e-08
6.9147987e-08
6.930609e-08
6.9456261e-08
6.9596792e-08
6.9726595e-08
6.9845982e-08
6.9958233e-08
7.0072098e-08
7.020435e-08
7.037922e-08
7.0619198e-08
7.0921757e-08
7.1217566e-08
7.1281659e-08
6.9499864e-08
6.9597432e-08
6.9708265e-08
6.98309e-08
6.9963697e-08
7.010487e-08
7.025252e-08
7.0404658e-08
7.0559241e-08
7.0714196e-08
7.0867449e-08
7.1016954e-08
7.1160736e-08
7.1296951e-08
7.1424028e-08
7.1541022e-08
7.1648408e-08
7.1749681e-08
7.1853909e-08
7.1978305e-08
7.2147572e-08
7.2384367e-08
7.268534e-08
7.2978095e-08
7.3028668e-08
7.1467196e-08
7.1556463e-08
7.165787e-08
7.1770062e-08
7.1891518e-08
7.2020578e-08
7.2155475e-08
7.229436e-08
7.243533e-08
7.2576456e-08
7.2715807e-08
7.2851479e-08
7.2981634e-08
7.3104562e-08
7.3218824e-08
7.3323609e-08
7.3419546e-08
7.351034e-08
7.3605363e-08
7.3722253e-08
7.3886172e-08
7.4119945e-08
7.4419386e-08
7.4708926e-08
7.4745269e-08
7.3382338e-08
7.346375e-08
7.3556237e-08
7.3658547e-08
7.376927e-08
7.3886866e-08
7.4009692e-08
7.4136028e-08
7.4264108e-08
7.4392134e-08
7.4518313e-08
7.4640873e-08
7.4758106e-08
7.4868428e-08
7.4970525e-08
7.5063713e-08
7.5148767e-08
7.5229586e-08
7.5315829e-08
7.5425528e-08
7.5584274e-08
7.5815033e-08
7.6112878e-08
7.6399512e-08
7.6423381e-08
7.5233993e-08
7.5308e-08
7.5392077e-08
7.5485071e-08
7.5585677e-08
7.5692464e-08
7.5803908e-08
7.5918412e-08
7.6034333e-08
7.6150002e-08
7.6263751e-08
7.6373934e-08
7.6478966e-08
7.657738e-08
7.6667978e-08
7.6750197e-08
7.6824947e-08
7.689631e-08
7.6974206e-08
7.7077029e-08
7.7230744e-08
7.7458416e-08
7.775435e-08
7.803753e-08
7.8048319e-08
7.7010442e-08
7.7077498e-08
7.7153685e-08
7.7237939e-08
7.7329051e-08
7.7425697e-08
7.7526462e-08
7.7629862e-08
7.7734373e-08
7.7838442e-08
7.7940521e-08
7.8039081e-08
7.8132649e-08
7.8219871e-08
7.8299658e-08
7.8371556e-08
7.8436604e-08
7.849905e-08
7.8569059e-08
7.8665357e-08
7.8814252e-08
7.9038883e-08
7.9332748e-08
7.9611918e-08
7.9608151e-08
7.8699727e-08
7.8760298e-08
7.8829123e-08
7.8905222e-08
7.898748e-08
7.9074667e-08
7.9165471e-08
7.9258515e-08
7.9352381e-08
7.944563e-08
7.9536819e-08
7.962453e-08
7.9707397e-08
7.9784167e-08
7.9853851e-08
7.99161e-08
7.9972071e-08
8.0026169e-08
8.0088787e-08
8.0178968e-08
8.0323355e-08
8.0545179e-08
8.0837188e-08
8.1112582e-08
8.1094569e-08
8.0289953e-08
8.0344514e-08
8.0406519e-08
8.0475066e-08
8.0549124e-08
8.0627554e-08
8.0709137e-08
8.0792594e-08
8.0876606e-08
8.0959835e-08
8.1040941e-08
8.1118606e-08
8.119156e-08
8.1258644e-08
8.1318965e-08
8.1372265e-08
8.1419813e-08
8.146616e-08
8.1521917e-08
8.1606424e-08
8.174665e-08
8.1965935e-08
8.225638e-08
8.2528772e-08
8.249949e-08
8.1769862e-08
8.1818902e-08
8.1874646e-08
8.1936263e-08
8.20028e-08
8.2073199e-08
8.2146327e-08
8.2220994e-08
8.2295972e-08
8.2370017e-08
8.2441881e-08
8.2510336e-08
8.25742e-08
8.2632403e-08
8.2684131e-08
8.2729216e-08
8.2769027e-08
8.2808251e-08
8.2857695e-08
8.2936975e-08
8.307335e-08
8.3290236e-08
8.3579107e-08
8.3848572e-08
8.380923e-08
8.3129996e-08
8.3174025e-08
8.322409e-08
8.3279427e-08
8.3339153e-08
8.3402283e-08
8.346776e-08
8.3534474e-08
8.3601281e-08
8.366702e-08
8.3730527e-08
8.3790656e-08
8.3846304e-08
8.3896475e-08
8.3940431e-08
8.3978079e-08
8.4010878e-08
8.4043634e-08
8.4087326e-08
8.41618e-08
8.4294542e-08
8.4508976e-08
8.4795884e-08
8.5061551e-08
8.5009979e-08
8.4364806e-08
8.4404362e-08
8.4449364e-08
8.4499111e-08
8.4552781e-08
8.4609455e-08
8.4668139e-08
8.4727795e-08
8.4787352e-08
8.4845724e-08
8.4901824e-08
8.4954579e-08
8.5002952e-08
8.504601e-08
8.5083076e-08
8.5114123e-08
8.5140684e-08
8.5167662e-08
8.5206163e-08
8.5276191e-08
8.5405353e-08
8.5616979e-08
8.590114e-08
8.6162076e-08
8.6098495e-08
8.5475471e-08
8.5511128e-08
8.555173e-08
8.5596635e-08
8.5645072e-08
8.5696173e-08
8.5748999e-08
8.5802569e-08
8.5855876e-08
8.5907902e-08
8.595763e-08
8.6004049e-08
8.6046179e-08
8.6083131e-08
8.6114271e-08
8.6139623e-08
8.6160778e-08
8.61827e-08
8.6216555e-08
8.6282376e-08
8.6407709e-08
8.6615601e-08
8.6895407e-08
8.7149952e-08
8.707675e-08
8.647113e-08
8.6503507e-08
8.6540431e-08
8.6581308e-08
8.6625415e-08
8.6671916e-08
8.6719909e-08
8.6768461e-08
8.6816615e-08
8.6863409e-08
8.6907893e-08
8.6949111e-08
8.6986124e-08
8.7018071e-08
8.7044334e-08
8.7064968e-08
8.7081597e-08
8.7099204e-08
8.7128902e-08
8.7190545e-08
8.7311285e-08
8.7513512e-08
8.7785679e-08
8.8029658e-08
8.7942575e-08
8.7362662e-08
8.7392413e-08
8.7426426e-08
8.7464158e-08
8.7504912e-08
8.7547863e-08
8.7592135e-08
8.7636833e-08
8.7681035e-08
8.7723796e-08
8.7764243e-08
8.7801462e-08
8.7834553e-08
8.7862661e-08
8.7885141e-08
8.7902069e-08
8.7915071e-08
8.7929078e-08
8.795499e-08
8.8012171e-08
8.8126839e-08
8.8320066e-08
8.8578947e-08
8.8804729e-08
8.8695235e-08
8.8140207e-08
8.8167978e-08
8.8199858e-08
8.823537e-08
8.8273774e-08
8.831425e-08
8.8355949e-08
8.8398039e-08
8.8439606e-08
8.8479601e-08
8.8517269e-08
8.8551694e-08
8.8582051e-08
8.8607479e-08
8.862721e-08
8.8641425e-08
8.8651649e-08
8.8662674e-08
8.8684971e-08
8.8737047e-08
8.8843415e-08
8.90229e-08
8.9260533e-08
8.9458096e-08
8.9325251e-08
8.8723248e-08
8.8749614e-08
8.8780112e-08
8.8814582e-08
8.8851597e-08
8.8890586e-08
8.8930804e-08
8.8971567e-08
8.9011947e-08
8.9050513e-08
8.9086724e-08
8.9119497e-08
8.9148266e-08
8.917201e-08
8.9189661e-08
8.9202072e-08
8.9210263e-08
8.9218744e-08
8.9237326e-08
8.9283402e-08
8.9378909e-08
8.9539439e-08
8.9747184e-08
8.990575e-08
8.9739029e-08
8.8834893e-08
8.886025e-08
8.889031e-08
8.8927191e-08
8.8963869e-08
8.9002115e-08
8.9041723e-08
8.9082364e-08
8.9123121e-08
8.916164e-08
8.9197805e-08
8.9230007e-08
8.9262383e-08
8.9285006e-08
8.929998e-08
8.9311228e-08
8.931798e-08
8.9324119e-08
8.9338627e-08
8.9377963e-08
8.9460877e-08
8.9599353e-08
8.9772613e-08
8.9888117e-08
8.9690903e-08
)
;

boundaryField
{
    Walls
    {
        type            nutUWallFunction;
        Cmu             0.09;
        kappa           0.41;
        E               9.8;
        value           uniform 0;
    }
    Inlet
    {
        type            calculated;
        value           nonuniform List<scalar> 3(2.8704148e-05 1.7313359e-05 8.1327215e-07);
    }
    Outlet
    {
        type            calculated;
        value           nonuniform List<scalar> 
86
(
0
0
0
0
0
0
0
0
0
0
0
0
0
0
0
0
0
0
0
0
0
0
0
0
0
0
0
0
0
0
7.029798e-06
6.8733082e-06
5.1391716e-06
0
0
0
0
4.9327365e-08
3.9237504e-08
0
0
0
0
4.0554312e-08
4.1679947e-08
4.2823958e-08
4.4018413e-08
4.527674e-08
4.6601494e-08
4.7985189e-08
4.942433e-08
5.0905726e-08
5.2433436e-08
5.400925e-08
5.5621085e-08
5.7269741e-08
5.8954155e-08
6.0675255e-08
6.2421832e-08
6.4183881e-08
6.5959351e-08
6.7740068e-08
6.9516126e-08
7.1281659e-08
0
0
0
0
0
0
0
0
0
0
0
0
0
0
0
8.9690903e-08
0
0
0
0
4.947252e-06
6.8065672e-06
)
;
    }
    Front
    {
        type            wedge;
    }
    Back
    {
        type            wedge;
    }
    defaultFaces
    {
        type            empty;
    }
}


// ************************************************************************* //
