/*--------------------------------*- C++ -*----------------------------------*\
| =========                 |                                                 |
| \\      /  F ield         | OpenFOAM: The Open Source CFD Toolbox           |
|  \\    /   O peration     | Version:  4.0                                   |
|   \\  /    A nd           | Web:      www.OpenFOAM.org                      |
|    \\/     M anipulation  |                                                 |
\*---------------------------------------------------------------------------*/
FoamFile
{
    version     2.0;
    format      ascii;
    class       volScalarField;
    location    "0.09";
    object      omega;
}
// * * * * * * * * * * * * * * * * * * * * * * * * * * * * * * * * * * * * * //

dimensions      [0 0 -1 0 0 0 0];

internalField   nonuniform List<scalar> 
1740
(
61.79005
699.32319
14918.501
153.65918
1379.0368
15026.388
261.09338
1856.8591
15120.52
382.72171
2206.1459
15203.72
496.30745
2534.6557
15264.939
610.43397
2818.3169
15325.583
744.88632
3081.6243
15379.123
871.47773
3237.2793
15408.361
951.83116
3365.3047
15445.442
1065.8593
3505.099
15477.791
1191.8811
3653.7623
15492.219
1267.1767
3727.1046
15510.47
1340.6264
3791.798
15527.141
1411.2124
3894.6093
15538.966
1458.3653
3950.1691
15540.312
1507.4603
3922.3468
15548.837
1567.6906
3946.3593
15561.403
1664.2024
4034.7157
15565.706
1739.7687
4085.8458
15565.341
1781.617
4073.1759
15561.39
1811.6993
4058.8981
15567.821
1835.1794
4082.3648
15574.336
1861.8526
4109.7139
15572.556
1882.5598
4087.4793
15574.285
1905.3031
4108.9632
15579.419
1949.2017
4159.2983
15576.972
1989.3021
4182.5625
15571.844
2000.1464
4192.961
15569.398
2030.3212
4190.6429
15560.096
2151.9988
4287.3596
15500.413
3209.6865
4569.2721
10745.274
3340.5349
4238.995
5944.7429
1573.1952
1859.4065
2153.804
825.683
900.37653
958.10669
484.10081
502.44061
512.49214
310.47213
314.40307
314.64921
217.03415
217.51127
216.30114
168.37587
168.23602
167.35109
146.2054
146.1112
145.74781
138.05142
138.08122
138.06333
135.80694
135.87887
135.93435
134.06826
134.14336
134.20573
132.52582
132.58837
132.63923
131.35563
131.39295
131.41969
130.53929
130.5569
130.56454
129.96368
129.96983
129.96653
129.52894
129.52915
129.52045
129.17186
129.16914
129.15809
128.85692
128.85284
128.84097
128.56483
128.56018
128.54827
128.28511
128.28031
128.26874
128.01198
128.00723
127.99618
127.74222
127.73764
127.72719
127.47406
127.4697
127.45988
127.20657
127.20246
127.19328
126.93936
126.93551
126.92694
126.67239
126.66878
126.66082
126.40583
126.40248
126.39509
126.14006
126.13695
126.13011
125.87561
125.87273
125.86641
125.61311
125.61046
125.60464
125.35333
125.35089
125.34553
125.0971
125.09487
125.08996
124.84538
124.84334
124.83885
124.59919
124.59733
124.59324
124.35962
124.35792
124.3542
124.1278
124.12626
124.12289
123.90483
123.90344
123.9004
123.69159
123.69034
123.6876
123.48795
123.48683
123.48437
123.2903
123.2893
123.2871
123.08415
123.08325
123.08129
122.82344
122.82264
122.82091
122.37861
122.37792
122.37639
121.41986
121.41925
121.41794
119.18757
119.18705
119.18591
114.11782
114.11735
114.11625
103.41503
103.4145
103.41316
83.054136
83.05354
83.053086
49.241889
49.242312
49.257729
13480.261
13534.225
5991.7665
5327.0144
2083.5966
1881.4526
923.5425
855.89751
495.69813
468.64885
306.32384
294.27901
212.17329
206.61193
165.44348
162.97402
145.04121
144.1128
137.94485
137.73365
135.91793
135.81577
134.20249
134.12369
132.63543
132.5723
131.40847
131.35712
130.54716
130.50388
129.94603
129.90814
129.499
129.46491
129.13685
129.10567
128.8205
128.79174
128.52883
128.50216
128.25041
128.22564
127.979
127.95595
127.71112
127.68969
127.44489
127.42496
127.17931
127.16079
126.91396
126.89677
126.64877
126.63283
126.38392
126.36916
126.11979
126.10614
125.85688
125.84428
125.59586
125.58425
125.33747
125.3268
125.08256
125.07278
124.83209
124.82315
124.58707
124.57891
124.3486
124.34118
124.11781
124.11109
123.89581
123.88973
123.68347
123.678
123.48065
123.47574
123.28377
123.27938
123.07833
123.07441
122.81829
122.81482
122.3741
122.37106
121.41595
121.41332
119.18415
119.18177
114.11437
114.1116
103.41093
103.4062
83.062715
83.055332
49.409754
49.412797
12058.173
2043.9066
683.67523
358.47527
263.15873
232.10227
219.05553
210.77491
203.59588
196.60024
189.62416
182.7133
175.97282
169.5161
163.44564
157.84362
152.75734
148.15854
143.86792
139.42874
133.92303
125.78583
112.87211
93.568926
68.123049
12058.128
2038.6409
696.12121
370.97046
276.7959
246.67543
232.96101
223.51731
215.28061
207.43391
199.77294
192.29928
185.08439
178.19415
171.67822
165.57795
159.9188
154.66003
149.60454
144.24846
137.55187
127.64135
111.51891
84.880936
41.511897
12058.176
2029.3675
717.42023
430.30737
359.92545
333.19826
315.90402
301.11184
287.35656
274.1987
261.4753
249.20159
237.47552
226.30087
215.62971
205.44159
195.73915
186.48409
177.50368
168.33882
158.0001
144.63369
125.16545
95.101778
48.573944
12058.53
2029.9732
817.05787
610.44525
553.18654
517.10682
484.85153
454.84415
427.22225
401.46998
377.20765
354.4196
333.35094
313.84528
295.59116
278.46929
262.42514
247.37843
233.16237
219.43817
205.53955
190.2171
171.18294
144.1079
97.609002
12061.545
2149.7634
1232.4845
1079.8981
992.51703
911.05268
833.60921
762.89684
699.81854
642.37956
589.48837
541.0044
497.76835
459.2319
424.20741
392.44588
363.79777
338.04491
314.90956
294.04139
274.96532
257.02912
239.28912
221.00692
203.41191
12087.205
3822.7252
2807.0507
2403.3144
2096.0815
1828.8118
1594.743
1392.8966
1218.6508
1068.197
938.73097
827.54797
732.30911
650.70854
580.64172
520.50416
468.97221
424.87259
387.153
354.86461
327.12449
303.12319
282.03446
263.56425
248.62548
10365.126
7900.5967
6093.4827
4785.6922
3818.5537
3085.1662
2517.0769
2070.6416
1716.5492
1433.661
1206.1862
1022.2879
873.06923
751.63104
652.4802
571.23142
504.40047
449.21986
403.47714
365.38606
333.47747
306.54706
283.5659
264.04606
248.91237
4087.2253
3303.2943
2839.9562
2466.0314
2148.7372
1869.9826
1627.0176
1416.9958
1236.7979
1082.4657
950.31405
837.16258
740.1596
656.85185
585.38249
524.16065
471.78897
427.03397
388.79935
356.10405
328.04265
303.7918
282.51282
263.90128
248.86145
1594.0658
1400.6778
1271.5736
1164.2685
1063.164
966.83905
878.55493
800.68331
730.24847
666.45435
609.06593
558.41484
513.27394
472.13755
434.94169
401.48989
371.50965
344.69685
320.71279
299.16456
279.55154
261.21205
243.1987
224.75642
206.9919
773.58661
711.18943
665.82293
626.10397
586.63169
547.2627
510.23622
476.49986
445.32967
416.54784
390.11522
365.98714
343.78546
323.04547
303.68442
285.64602
268.84853
253.16912
238.40494
224.19516
209.86954
194.19937
174.94412
147.80435
101.16805
439.60681
416.42799
398.35951
381.78272
364.64788
346.86652
329.38787
312.80625
297.10881
282.27733
268.31452
255.1998
242.81447
231.01686
219.77459
209.08673
198.93978
189.26366
179.8551
170.23336
159.39626
145.50026
125.51025
95.049942
48.692647
281.98941
271.79785
263.44427
255.60135
247.37606
238.66001
229.81415
221.15493
212.78696
204.7492
197.06846
189.76248
182.82086
176.2276
169.99929
164.16563
158.73733
153.65696
148.71544
143.41072
136.71904
126.76457
110.38097
82.700714
37.557241
200.9874
196.10966
191.89953
187.86601
183.63733
179.14489
174.53567
169.98062
165.57881
161.38155
157.42115
153.72145
150.29599
147.15256
144.30057
141.74323
139.45972
137.37324
135.29367
132.8167
129.15811
122.89924
111.57266
90.65108
49.100133
160.44064
158.12527
156.01206
153.94098
151.78901
149.54386
147.27739
145.07766
143.00545
141.09157
139.3478
137.77792
136.38036
135.14963
134.0772
133.14823
132.33272
131.56537
130.70302
129.44758
127.22347
123.03221
115.42493
103.09229
87.887891
143.10428
142.08904
141.06486
139.99904
138.87684
137.71987
136.57524
135.49236
134.507
133.63747
132.88178
132.23083
131.67307
131.19715
130.79136
130.44067
130.11838
129.77598
129.30072
128.42812
126.61213
122.85395
115.6639
103.79923
89.675654
137.43241
137.01735
136.4788
135.82769
135.09242
134.31371
133.53684
132.80048
132.12563
131.53723
131.02626
130.61294
130.27891
130.0064
129.78054
129.58658
129.40248
129.18019
128.79937
127.96783
126.02688
121.63145
112.36234
94.537381
61.605748
135.61553
135.3004
134.86582
134.31892
133.67937
132.98394
132.28529
131.63702
131.07468
130.61125
130.24816
129.96063
129.72952
129.54061
129.38251
129.24333
129.10254
128.90996
128.53261
127.63278
125.4186
120.20865
108.84173
86.275725
45.589554
133.95782
133.68714
133.31232
132.84885
132.32614
131.78424
131.26477
130.79938
130.40332
130.07706
129.8119
129.59971
129.42492
129.27791
129.15105
129.035
128.91022
128.72407
128.3325
127.36524
124.95189
119.25309
106.87275
82.721737
41.372497
132.44229
132.23187
131.94728
131.60705
131.23702
130.86482
130.51386
130.1991
129.92633
129.69412
129.49636
129.33209
129.19198
129.07015
128.96162
128.8588
128.74271
128.55933
128.15927
127.16032
124.67325
118.84652
106.33586
82.326444
42.053009
131.26141
131.11334
130.91875
130.69092
130.44618
130.2003
129.96566
129.74996
129.55638
129.38478
129.23305
129.09896
128.98174
128.877
128.78126
128.68794
128.57855
128.39895
127.9996
127.00113
124.53051
118.79208
106.58915
83.418683
45.377992
130.43262
130.32915
130.19717
130.04438
129.8799
129.71234
129.54853
129.39302
129.24822
129.11487
128.99262
128.88036
128.77937
128.68715
128.60115
128.51544
128.412
128.23741
127.84462
126.86307
124.44543
118.85782
107.02256
84.56351
47.385996
129.85199
129.77545
129.68066
129.57187
129.45407
129.3321
129.20997
129.09066
128.9761
128.8674
128.76503
128.66908
128.57961
128.49686
128.41864
128.33931
128.24126
128.072
127.68738
126.72504
124.35716
118.88659
107.28377
85.167939
48.164309
129.41792
129.35706
129.28361
129.20001
129.10914
129.01386
128.91673
128.81982
128.7247
128.63249
128.54397
128.45966
128.37988
128.30449
128.23267
128.15881
128.06558
127.90122
127.52359
126.57526
124.23746
118.82343
107.29989
85.243238
48.435757
129.06459
129.01325
128.95252
128.88391
128.80924
128.73036
128.649
128.56669
128.48471
128.4041
128.32572
128.2502
128.178
128.10905
128.04271
127.97364
127.88466
127.7244
127.35164
126.41066
124.08448
118.68437
107.16236
85.062805
48.214031
128.75484
128.70978
128.65722
128.59822
128.53401
128.46591
128.39518
128.32301
128.25046
128.17849
128.10789
128.03937
127.97342
127.91015
127.84848
127.78364
127.69843
127.54151
127.17175
126.23334
123.90858
118.50689
106.97775
84.872221
48.250637
128.46851
128.42799
128.38118
128.32886
128.27198
128.21153
128.14849
128.08384
128.01849
127.95328
127.88898
127.82624
127.7656
127.70717
127.64982
127.58881
127.50697
127.35285
126.98497
126.04694
123.72113
118.32102
106.8074
84.733273
48.132092
128.19467
128.15772
128.11529
128.06803
128.01668
127.96206
127.90498
127.84626
127.7867
127.72705
127.66803
127.61026
127.55425
127.50013
127.44679
127.38923
127.31047
127.15884
126.79243
125.85446
123.5291
118.14096
106.68104
84.727812
48.351253
127.92732
127.89336
127.8545
127.81132
127.76444
127.71454
127.66233
127.60854
127.55385
127.49896
127.44452
127.39114
127.33927
127.28903
127.23931
127.18504
127.10919
126.95993
126.59505
125.65772
123.33483
117.96417
106.57173
84.766099
48.406079
127.66315
127.63179
127.596
127.55627
127.51318
127.4673
127.41926
127.36971
127.31927
127.26858
127.21823
127.16879
127.12069
127.07403
127.02765
126.97647
126.9034
126.75653
126.39353
125.45782
123.13893
117.78484
106.44452
84.742391
48.47292
127.40034
127.37131
127.33823
127.30156
127.26178
127.21944
127.17509
127.1293
127.08267
127.03576
126.98913
126.9433
126.89868
126.85533
126.81208
126.76386
126.69342
126.54898
126.18826
125.25528
122.9422
117.60615
106.32037
84.755802
48.790577
127.13795
127.11105
127.08043
127.04651
127.00973
126.97057
126.92955
126.88718
126.84401
126.80057
126.75736
126.71488
126.6735
126.63324
126.59294
126.54747
126.47959
126.33756
125.97937
125.04983
122.74345
117.42442
106.18604
84.739897
48.958341
126.87558
126.85065
126.8223
126.7909
126.75686
126.72062
126.68265
126.64344
126.60347
126.56323
126.52321
126.48385
126.4455
126.40816
126.37062
126.32775
126.26232
126.1226
125.76694
124.84105
122.54148
117.23649
106.0275
84.645249
49.153311
126.61319
126.5901
126.56385
126.53479
126.50329
126.46976
126.43462
126.39833
126.36134
126.3241
126.28706
126.25064
126.21515
126.18055
126.14562
126.10521
126.04205
125.90448
125.55116
124.62873
122.33571
117.04314
105.85193
84.479303
48.996099
126.35098
126.32961
126.30533
126.27845
126.24932
126.21831
126.18583
126.15227
126.11807
126.08365
126.04941
126.01575
125.98296
125.95096
125.91851
125.88041
125.81938
125.68375
125.33243
124.41287
122.12573
116.84628
105.68281
84.363622
48.971195
126.08933
126.06959
126.04715
126.02232
125.99541
125.96677
125.93677
125.90578
125.87421
125.84243
125.81085
125.7798
125.74956
125.72003
125.68992
125.654
125.59495
125.46106
125.11133
124.19392
121.91169
116.64559
105.51729
84.289173
49.152173
125.82878
125.81056
125.78987
125.76696
125.74214
125.71573
125.68806
125.6595
125.6304
125.60113
125.57204
125.54347
125.51564
125.48845
125.46056
125.42671
125.3695
125.23714
124.88861
123.97263
121.69425
116.44066
105.34594
84.187111
49.15157
125.56997
125.5532
125.53414
125.51305
125.49019
125.46588
125.44042
125.41414
125.38738
125.36047
125.33375
125.30752
125.28199
125.25701
125.23123
125.19933
125.14383
125.01279
124.6651
123.74973
121.47381
116.23098
105.16855
84.077343
49.1299
125.31368
125.29826
125.28074
125.26136
125.24037
125.21803
125.19465
125.17053
125.14598
125.1213
125.09682
125.0728
125.04944
125.02657
125.00279
124.97274
124.91882
124.78894
124.4417
123.52608
121.25064
116.01474
104.98034
83.961832
49.12685
125.06075
125.04661
125.03056
125.01279
124.99354
124.97308
124.95166
124.92957
124.9071
124.88454
124.86217
124.84025
124.81894
124.79806
124.77618
124.74787
124.69543
124.56655
124.21943
123.30271
121.0255
115.79124
104.77463
83.815269
49.088137
124.81214
124.79921
124.78453
124.76828
124.75068
124.73197
124.71241
124.69224
124.67173
124.65116
124.63079
124.61085
124.59149
124.57249
124.5524
124.52574
124.47469
124.34667
123.99942
123.08086
120.79961
115.56043
104.54546
83.618218
48.990221
124.56888
124.55709
124.54369
124.52887
124.51283
124.49577
124.47795
124.45958
124.44093
124.42224
124.40375
124.38568
124.36816
124.35093
124.33254
124.30744
124.25769
124.13047
123.783
122.86235
120.57634
115.33045
104.31464
83.421012
48.691664
124.33206
124.32133
124.30915
124.29567
124.28108
124.26558
124.24939
124.23272
124.21581
124.19889
124.18217
124.16586
124.15006
124.13452
124.11772
124.09409
124.04559
123.91915
123.57152
122.64902
120.3586
115.10582
104.08352
83.194779
48.519705
124.10281
124.09308
124.08203
124.06981
124.05659
124.04255
124.02789
124.01281
123.99753
123.98226
123.9672
123.95254
123.93837
123.9244
123.9091
123.88686
123.83955
123.7139
123.36624
122.4422
120.14807
114.89025
103.86756
82.998427
48.388733
123.88225
123.87346
123.86347
123.85242
123.84047
123.82779
123.81455
123.80096
123.7872
123.77348
123.75998
123.74686
123.7342
123.7217
123.70782
123.68689
123.64071
123.51582
123.16818
122.24269
119.94482
114.6821
103.66214
82.82607
48.297336
123.67125
123.66333
123.65432
123.64436
123.63359
123.62218
123.61027
123.59806
123.58572
123.57343
123.56137
123.54969
123.53844
123.52731
123.51474
123.49503
123.44991
123.32574
122.97807
122.05096
119.74869
114.47886
103.45627
82.642419
48.179849
123.46968
123.46256
123.45446
123.44551
123.43584
123.42559
123.41491
123.40397
123.39294
123.38198
123.37126
123.3609
123.35096
123.3411
123.32974
123.31116
123.26701
123.14349
122.79576
121.86704
119.56037
114.28291
103.25355
82.442875
48.005192
123.27395
123.26757
123.26032
123.2523
123.24363
123.23445
123.2249
123.21514
123.20531
123.19557
123.18607
123.17693
123.16818
123.15948
123.14924
123.13169
123.08842
122.9655
122.61774
121.68775
119.3778
114.09564
103.0666
82.279163
47.91128
123.06958
123.06388
123.05741
123.05025
123.04251
123.03431
123.0258
123.0171
123.00837
122.99975
122.99137
122.98333
122.97566
122.968
122.95876
122.94214
122.89968
122.77732
122.42963
121.49887
119.18714
113.90379
102.88273
82.142132
47.911545
122.81053
122.80549
122.79976
122.79341
122.78654
122.77926
122.77169
122.76398
122.75626
122.74867
122.7413
122.73425
122.72752
122.72077
122.71239
122.69657
122.65481
122.53298
122.18554
121.25464
118.94281
113.66166
102.65224
81.950017
47.812109
122.36732
122.36293
122.35796
122.35246
122.34648
122.34011
122.33345
122.32668
122.31993
122.31332
122.3069
122.30072
122.2948
122.28879
122.28107
122.26583
122.22459
122.10324
121.75629
120.82623
118.51694
113.24395
102.25757
81.613105
47.612189
121.41012
121.40645
121.40239
121.39797
121.39317
121.38794
121.38236
121.37666
121.371
121.36544
121.35999
121.35465
121.34939
121.34389
121.33648
121.32137
121.28022
121.15916
120.81316
119.88598
117.58533
112.33688
101.41361
80.924637
47.354794
119.17897
119.17612
119.17341
119.17084
119.16819
119.16503
119.1613
119.15741
119.15354
119.14954
119.1454
119.14102
119.13641
119.13117
119.12339
119.10736
119.0652
118.94393
118.59992
117.68053
115.40339
110.21958
99.457317
79.334712
46.528002
114.10853
114.10643
114.1059
114.10705
114.10905
114.11047
114.11104
114.1117
114.11253
114.11201
114.11062
114.10795
114.10449
114.09971
114.09036
114.07137
114.02591
113.90343
113.56407
112.66492
110.44779
105.42394
95.046216
75.745765
44.433281
103.40103
103.39899
103.40192
103.411
103.42223
103.43304
103.4434
103.45631
103.47134
103.48079
103.48763
103.48955
103.48958
103.48714
103.47393
103.45005
103.39851
103.27388
102.94543
102.09635
100.02372
95.371764
85.855359
68.349669
40.381014
83.04598
83.042958
83.051993
83.086853
83.112437
83.136663
83.163393
83.201626
83.25089
83.285213
83.315385
83.329297
83.341549
83.344165
83.316048
83.290346
83.235099
83.111563
82.808691
82.074058
80.320417
76.456029
68.678054
54.623667
32.497878
49.402677
49.400374
49.427122
49.576929
49.620348
49.649605
49.685003
49.743298
49.826649
49.888526
49.949573
49.982134
50.196274
50.197883
50.119209
50.098974
50.057272
49.957925
49.728165
49.235419
48.107474
45.695955
40.947174
32.560288
19.658662
)
;

boundaryField
{
    Walls
    {
        Cmu             0.09;
        kappa           0.41;
        E               9.8;
        beta1           0.075;
        type            omegaWallFunction;
        value           nonuniform List<scalar> 
38
(
12058.173
12058.128
12058.176
12058.53
12061.545
12087.205
13480.261
13534.225
14918.501
15026.388
15120.52
15203.72
15264.939
15325.583
15379.123
15408.361
15445.442
15477.791
15492.219
15510.47
15527.141
15538.966
15540.312
15548.837
15561.403
15565.706
15565.341
15561.39
15567.821
15574.336
15572.556
15574.285
15579.419
15576.972
15571.844
15569.398
15560.096
15500.413
)
;
    }
    Inlet
    {
        type            turbulentMixingLengthDissipationRateInlet;
        mixingLength    0.03;
        phi             phi;
        k               k;
        value           nonuniform List<scalar> 3(0.0048595607 0.0048946216 0.0049128885);
    }
    Outlet
    {
        type            inletOutlet;
        inletValue      uniform 1e-05;
        value           nonuniform List<scalar> 
86
(
1e-05
1e-05
1e-05
1e-05
1e-05
1e-05
1e-05
1e-05
1e-05
1e-05
1e-05
1e-05
1e-05
1e-05
1e-05
1e-05
1e-05
1e-05
1e-05
1e-05
1e-05
1e-05
1e-05
1e-05
1e-05
1e-05
1e-05
1e-05
1e-05
1e-05
248.91237
248.86145
206.9919
1e-05
1e-05
1e-05
1e-05
87.887891
89.675654
1e-05
1e-05
1e-05
1e-05
45.377992
47.385996
48.164309
48.435757
48.214031
48.250637
48.132092
48.351253
48.406079
48.47292
48.790577
48.958341
49.153311
48.996099
48.971195
49.152173
49.15157
49.1299
49.12685
49.088137
48.990221
1e-05
1e-05
1e-05
1e-05
1e-05
1e-05
1e-05
1e-05
1e-05
1e-05
1e-05
1e-05
1e-05
1e-05
1e-05
19.658662
1e-05
1e-05
1e-05
1e-05
203.41191
248.62548
)
;
    }
    Front
    {
        type            wedge;
    }
    Back
    {
        type            wedge;
    }
    defaultFaces
    {
        type            empty;
    }
}


// ************************************************************************* //
