/*--------------------------------*- C++ -*----------------------------------*\
| =========                 |                                                 |
| \\      /  F ield         | OpenFOAM: The Open Source CFD Toolbox           |
|  \\    /   O peration     | Version:  4.0                                   |
|   \\  /    A nd           | Web:      www.OpenFOAM.org                      |
|    \\/     M anipulation  |                                                 |
\*---------------------------------------------------------------------------*/
FoamFile
{
    version     2.0;
    format      ascii;
    class       volScalarField;
    location    "0.09";
    object      p;
}
// * * * * * * * * * * * * * * * * * * * * * * * * * * * * * * * * * * * * * //

dimensions      [0 2 -2 0 0 0 0];

internalField   nonuniform List<scalar> 
1740
(
491.60647
491.71177
491.65427
475.10032
475.05164
474.96239
458.60903
458.50408
458.36461
442.44011
442.5931
442.55828
426.45481
426.46584
426.88449
410.07395
409.93849
410.61042
393.89349
394.09347
394.38738
377.888
378.18413
378.16903
361.33722
361.25938
361.34479
344.44953
344.25096
344.22715
327.92085
327.7798
327.50956
311.69318
311.55069
311.35744
295.12867
295.47379
295.45305
278.31387
278.89845
278.97559
261.7875
261.87141
262.04163
245.32399
245.07172
245.15792
228.8132
228.63579
228.54328
212.3259
212.21581
212.22198
195.66743
195.56154
195.60843
179.00073
179.04691
178.96454
162.24473
162.23908
162.19624
145.01221
145.01205
145.13114
127.97834
128.11958
128.2729
111.59325
111.6208
111.54489
94.863688
94.845323
94.687899
78.080948
78.29529
78.277615
62.00351
62.418998
62.529449
46.367872
46.329164
46.31187
31.01013
30.490457
30.275681
16.307594
15.84311
15.427035
4.1174932
3.5209205
1.6768883
-0.62789099
-0.5713461
-0.38837952
-0.16231384
-0.15537612
-0.13045525
-0.050437398
-0.049090791
-0.041101432
-0.035262211
-0.032736091
-0.02612749
-0.028301859
-0.026053963
-0.021191094
-0.025933029
-0.024029717
-0.020168498
-0.024076371
-0.022525976
-0.019448737
-0.022033655
-0.020801588
-0.01835366
-0.019894395
-0.018926917
-0.016987289
-0.017962798
-0.017201935
-0.015664198
-0.016383043
-0.015777729
-0.014541662
-0.015103417
-0.014615461
-0.013611357
-0.014034339
-0.013638613
-0.012818771
-0.013117441
-0.01279479
-0.012122063
-0.01231319
-0.012047999
-0.011491845
-0.011593226
-0.011373294
-0.010909723
-0.01093842
-0.010754389
-0.010364823
-0.010335242
-0.010179937
-0.0098499533
-0.0097734624
-0.0096413473
-0.0093597108
-0.0092451851
-0.0091319432
-0.0088898516
-0.0087443152
-0.0086465599
-0.0084370901
-0.0082662277
-0.0081813299
-0.0079990138
-0.0078076753
-0.0077335376
-0.0075740074
-0.0073664516
-0.0073013728
-0.0071610971
-0.006941018
-0.006883628
-0.0067597449
-0.0065303216
-0.0064795107
-0.0063696921
-0.006133647
-0.0060885119
-0.0059908456
-0.0057504944
-0.0057102875
-0.0056231959
-0.0053804943
-0.0053445943
-0.0052667641
-0.0050233598
-0.0049912512
-0.004921586
-0.0046788553
-0.004650104
-0.0045876793
-0.0043467502
-0.0043209877
-0.0042650182
-0.0040267771
-0.0040036892
-0.003953504
-0.0037186047
-0.0036979226
-0.0036529457
-0.0034218268
-0.0034033191
-0.0033630541
-0.0031359638
-0.0031194306
-0.0030834484
-0.0028604699
-0.002845738
-0.0028136659
-0.0025947411
-0.0025816597
-0.0025531732
-0.0023381221
-0.0023265605
-0.0023013771
-0.0020899147
-0.0020797592
-0.0020576341
-0.0018493851
-0.0018405379
-0.0018212595
-0.0016157733
-0.0016081501
-0.0015915362
-0.0013882978
-0.0013818268
-0.001367722
-0.0011661545
-0.0011607753
-0.0011490491
-0.00094851563
-0.00094417859
-0.00093472307
-0.00073452452
-0.00073118987
-0.0007239188
-0.00052325761
-0.00052089514
-0.00051574307
-0.00031400185
-0.00031259112
-0.00030951171
-0.00010488173
-0.00010441197
-0.00010338445
-1.2854918
-0.90512708
-0.30195308
-0.23329332
-0.11032252
-0.095136366
-0.033713282
-0.026205386
-0.018333915
-0.010502241
-0.015319248
-0.00969515
-0.015436749
-0.010756665
-0.015628627
-0.011749372
-0.015260557
-0.012038277
-0.014487029
-0.011814015
-0.013641726
-0.011426755
-0.012891148
-0.011044777
-0.012253362
-0.010705508
-0.011696524
-0.010395578
-0.011190275
-0.010093116
-0.010713553
-0.0097842708
-0.010255288
-0.0094644372
-0.0098107054
-0.009134049
-0.0093774968
-0.0087952716
-0.0089541506
-0.0084503714
-0.0085394855
-0.0081012288
-0.0081326053
-0.0077494116
-0.0077329684
-0.0073963455
-0.0073404074
-0.0070434246
-0.0069550703
-0.0066920377
-0.0065773121
-0.0063435373
-0.0062075897
-0.005999186
-0.0058463817
-0.005660115
-0.0054941349
-0.0053273008
-0.0051512427
-0.0050015669
-0.0048180342
-0.0046835961
-0.00449477
-0.0043739326
-0.0041816211
-0.0040729818
-0.0038786502
-0.0037810017
-0.0035858004
-0.003498098
-0.0033028957
-0.0032242317
-0.0030296508
-0.002959234
-0.002765684
-0.0027028236
-0.0025105317
-0.0024546238
-0.0022636616
-0.0022141784
-0.0020244844
-0.001980965
-0.0017923638
-0.0017544085
-0.0015666261
-0.0015338907
-0.0013465682
-0.0013187579
-0.0011314582
-0.0011083241
-0.00092053568
-0.0009018722
-0.00071300719
-0.0006986496
-0.00050801006
-0.00049783324
-0.00030488852
-0.00029880345
-0.00010184243
-9.9812264e-05
0.00010732325
0.00071522634
0.0015855061
0.0024050941
0.0030210506
0.003433331
0.0036895774
0.0037920613
0.003775595
0.0036699825
0.0034950085
0.0032665227
0.0030002169
0.0027114881
0.0024134294
0.0021162124
0.0018273646
0.0015519629
0.0012929803
0.0010516808
0.00082791403
0.00062045354
0.00042723011
0.00024573103
7.5686449e-05
0.00042557366
0.0011710903
0.00209912
0.0028900535
0.0034167353
0.0037269742
0.0039019576
0.003905198
0.0037908673
0.0035928983
0.0033339975
0.0030340384
0.0027134346
0.0023888863
0.0020716411
0.0017697104
0.0014883652
0.0012308184
0.00099845815
0.00079110308
0.00060725828
0.00044443039
0.00029990906
0.00017172486
5.7443479e-05
-0.0018042799
-0.00083004091
7.6686464e-05
0.00059779062
0.00072325798
0.00055837254
0.00014980584
-0.00033287875
-0.00081189663
-0.0012271619
-0.0015600845
-0.0018073517
-0.0019649636
-0.002038746
-0.0020403792
-0.0019789952
-0.0018644174
-0.0017067537
-0.0015158198
-0.0013007131
-0.0010695826
-0.00082959752
-0.00058654276
-0.00034179754
-9.4542015e-05
-0.014597037
-0.014301368
-0.014625816
-0.015414937
-0.016228156
-0.016853069
-0.01719221
-0.017164671
-0.016828103
-0.016257131
-0.01549164
-0.014588459
-0.01357294
-0.012472019
-0.011304953
-0.010098541
-0.0088774319
-0.00766359
-0.0064751729
-0.0053264175
-0.0042277236
-0.0031855245
-0.0022015143
-0.0012688131
-0.00038501301
-0.064984783
-0.065144428
-0.064504668
-0.061941632
-0.058836936
-0.055039081
-0.050984346
-0.046780207
-0.042572214
-0.038446088
-0.034453484
-0.030734883
-0.027222649
-0.023896718
-0.020681219
-0.017720916
-0.015015168
-0.012550594
-0.010310972
-0.0082787246
-0.0064361722
-0.0047652796
-0.003250695
-0.0018702076
-0.00061256529
-0.2293446
-0.18611777
-0.16464494
-0.13404124
-0.10907712
-0.087347322
-0.068892753
-0.053860591
-0.041772622
-0.032130627
-0.024521874
-0.018500931
-0.013836523
-0.010221169
-0.0075218013
-0.0054639676
-0.0039164681
-0.00277035
-0.0019344802
-0.0013339872
-0.00090894133
-0.0006097823
-0.00040284531
-0.00024822588
-0.00017381439
-0.32788239
-0.12615731
-0.078534037
-0.043248684
-0.011080459
0.014498034
0.030696204
0.03846461
0.040960917
0.040646042
0.038807996
0.036103545
0.032881677
0.029419838
0.025916471
0.022495553
0.019232565
0.016171942
0.013335204
0.010728145
0.0083433078
0.0061672351
0.0041690245
0.0023504899
0.00059515271
-0.19202915
-0.16683059
-0.14259409
-0.1185678
-0.095978046
-0.076131921
-0.059482783
-0.04599608
-0.035210841
-0.02672073
-0.020027207
-0.014811151
-0.010862276
-0.0078435343
-0.0055516342
-0.0038448236
-0.0025991128
-0.001710784
-0.0010953652
-0.00068295008
-0.00041609283
-0.00025349424
-0.00016693499
-0.00011762934
-0.00013865309
-0.085730467
-0.080301512
-0.075524621
-0.070614729
-0.065356963
-0.0600017
-0.05477795
-0.049738248
-0.044944326
-0.040347135
-0.036028291
-0.031968084
-0.028079882
-0.024456454
-0.021134583
-0.018107402
-0.015355775
-0.012856838
-0.010586933
-0.0085226689
-0.0066342397
-0.0049195503
-0.0033619988
-0.0019386477
-0.00063942071
-0.022502227
-0.021906471
-0.022378029
-0.023030148
-0.023439388
-0.023516499
-0.023278883
-0.022731303
-0.021914603
-0.020837495
-0.019585718
-0.018222505
-0.016772151
-0.015257987
-0.013710714
-0.012157195
-0.010620677
-0.0091210921
-0.0076747205
-0.0062938702
-0.0049952088
-0.0037659005
-0.0026035441
-0.0015009231
-0.00045794458
-0.0049825624
-0.0020402945
-0.001002882
-0.00094891884
-0.0014343584
-0.0023212142
-0.0031898925
-0.0039173969
-0.0044675213
-0.004820888
-0.0049998871
-0.0050329182
-0.004940498
-0.0047460895
-0.0044711471
-0.0041314385
-0.0037416599
-0.0033163954
-0.0028740876
-0.0024210892
-0.0019673238
-0.0015151324
-0.0010665611
-0.00062043972
-0.00017907753
-0.0048210607
-0.0014050669
0.00064836851
0.0017363084
0.0022850751
0.0025564213
0.002547705
0.0023475232
0.0020384244
0.0016893602
0.0013432311
0.0010239877
0.00075069016
0.00051891716
0.00032159069
0.00016153465
3.7946197e-05
-5.0896639e-05
-0.00010399482
-0.00013072044
-0.00013696302
-0.00012638
-0.000100518
-6.2748009e-05
-1.5194744e-05
-0.0066820818
-0.0035425234
-0.0014133872
-6.0214072e-05
0.00075218967
0.0012816423
0.0016038207
0.0017480055
0.0017616186
0.0016883298
0.0015661435
0.0014182831
0.0012571257
0.0010927182
0.00092670786
0.00077242758
0.00063323523
0.00051023665
0.0004029281
0.00031035062
0.0002316985
0.00016657389
0.0001104503
6.084315e-05
1.7394386e-05
-0.0082867606
-0.0054977423
-0.0034265618
-0.0019548683
-0.00091856388
-0.00017085189
0.00035634172
0.00070814825
0.00092376951
0.0010367488
0.0010698997
0.0010404674
0.0009620464
0.0008621605
0.00076522052
0.0006669633
0.00056972875
0.00047759303
0.00039202743
0.00031333776
0.00024179991
0.00017756034
0.00011954219
6.6468382e-05
1.7721863e-05
-0.0090688386
-0.0065737737
-0.0046291808
-0.0031647566
-0.0020638798
-0.0012302681
-0.00059795129
-0.00012997665
0.00020711018
0.00044036157
0.00058960067
0.00066916193
0.00069377371
0.00068141358
0.00064703472
0.000596905
0.00053313082
0.0004662289
0.00039732365
0.00032824238
0.00026068406
0.00019583188
0.00013424115
7.5831513e-05
2.080125e-05
-0.0092763782
-0.007065626
-0.0052601575
-0.0038426028
-0.0027436031
-0.0018877037
-0.0012184002
-0.00069675738
-0.00029492286
5.671019e-06
0.00022261292
0.00037125092
0.00046458765
0.00051548873
0.00053385647
0.0005294771
0.00050689248
0.00046678582
0.00041579372
0.00035654514
0.00029232253
0.00022561388
0.0001578898
9.0981914e-05
2.7175775e-05
-0.0092638863
-0.0073180847
-0.0056693666
-0.0043244308
-0.0032493396
-0.0023941264
-0.0017121678
-0.0011677851
-0.00073299237
-0.00039169801
-0.00012913003
6.7357952e-05
0.00020868204
0.00030469321
0.00036492198
0.00039609826
0.00040318776
0.00038974741
0.00036026127
0.00031871086
0.00026791102
0.00021060575
0.00014921411
8.6223631e-05
2.5178815e-05
-0.0091956801
-0.0074832716
-0.005985212
-0.0047243644
-0.0036877497
-0.0028442678
-0.00215948
-0.0016035051
-0.0011490796
-0.00078441653
-0.00049267143
-0.00026321835
-8.665424e-05
4.5138555e-05
0.00013972191
0.00020308033
0.00024004908
0.00025460377
0.00025063821
0.00023172833
0.00020100254
0.00016146254
0.00011586073
6.7094439e-05
1.9199194e-05
-0.009119292
-0.0076113342
-0.0062544246
-0.0050802162
-0.004089585
-0.0032661386
-0.002585904
-0.0020247997
-0.0015617597
-0.0011811325
-0.0008694436
-0.00061610702
-0.00041270642
-0.00025195115
-0.00012766825
-3.4492776e-05
3.1901254e-05
7.5294835e-05
9.9284211e-05
0.00010721428
0.00010209453
8.684748e-05
6.403627e-05
3.6932853e-05
1.0345873e-05
-0.0090337715
-0.0077077621
-0.006483646
-0.0053967605
-0.0044576137
-0.00366017
-0.0029896486
-0.0024283469
-0.0019589946
-0.0015671579
-0.0012404422
-0.0009687899
-0.0007439835
-0.00055934454
-0.00040934379
-0.00028946762
-0.00019558633
-0.00012412415
-7.1898701e-05
-3.5834576e-05
-1.3121971e-05
-1.0839876e-06
2.8403029e-06
1.879167e-06
-7.7866426e-07
-0.0089228007
-0.0077584535
-0.006658502
-0.0056587286
-0.0047752305
-0.0040094336
-0.0033537795
-0.0027962884
-0.0023238252
-0.0019238698
-0.001585239
-0.0012987388
-0.0010566424
-0.00085248967
-0.0006809857
-0.00053786141
-0.00041936773
-0.00032221487
-0.00024347174
-0.00018048552
-0.00013064443
-9.1447923e-05
-6.0556203e-05
-3.5174852e-05
-1.2893058e-05
-0.0087765293
-0.0077546487
-0.006769201
-0.0058544653
-0.0050292235
-0.0042998638
-0.0036642427
-0.0031152924
-0.0026432998
-0.0022383204
-0.0018909369
-0.0015926053
-0.0013362613
-0.0011158667
-0.00092635642
-0.00076355176
-0.00062396121
-0.00050449305
-0.000402384
-0.0003152164
-0.0002406665
-0.00017649161
-0.00012061717
-7.056139e-05
-2.4283805e-05
-0.0085940853
-0.0076966519
-0.0068153054
-0.0059816436
-0.0052152805
-0.0045256031
-0.0039143246
-0.0033781423
-0.0029106094
-0.002504118
-0.0021508985
-0.0018437329
-0.0015761595
-0.0013425415
-0.0011381454
-0.00095897722
-0.00080166773
-0.00066330404
-0.0005413481
-0.00043346755
-0.00033754676
-0.00025161151
-0.00017383985
-0.00010202751
-3.4363924e-05
-0.0083796472
-0.0075902302
-0.0068023932
-0.0060444798
-0.0053357913
-0.0046873332
-0.0041034057
-0.0035835217
-0.0031239754
-0.0027193173
-0.0023634497
-0.0020503538
-0.0017743694
-0.0015304546
-0.0013142015
-0.0011218255
-0.00095006806
-0.00079620454
-0.00065782358
-0.00053275357
-0.00041903162
-0.00031488227
-0.00021871116
-0.00012860567
-4.2962408e-05
-0.0081387734
-0.0074427946
-0.0067382476
-0.006050124
-0.005396697
-0.0047896195
-0.0042348455
-0.0037339362
-0.0032853569
-0.0028855598
-0.0025299938
-0.0022137905
-0.0019321683
-0.0016806904
-0.0014553522
-0.0012526299
-0.0010695138
-0.00090334517
-0.00075184118
-0.0006129771
-0.00048494074
-0.00036611243
-0.00025506638
-0.00015012297
-4.9907127e-05
-0.0078766775
-0.0072614672
-0.0066307437
-0.0060063449
-0.0054051003
-0.0048386507
-0.0043139094
-0.0038338877
-0.0033986939
-0.0030063854
-0.0026537707
-0.0023370863
-0.0020524071
-0.0017959194
-0.0015640803
-0.001353694
-0.0011619531
-0.00098636659
-0.00082476724
-0.00067525759
-0.00053615609
-0.00040594921
-0.00028333893
-0.00016685062
-5.5235975e-05
-0.007597801
-0.0070524589
-0.0064870295
-0.0059204737
-0.0053680216
-0.0048408773
-0.0043463836
-0.0038885279
-0.0034686248
-0.0030860202
-0.0027387139
-0.0024239436
-0.0021385977
-0.001879491
-0.0016435544
-0.0014279439
-0.001230084
-0.0010476799
-0.00087870299
-0.00072136934
-0.00057410018
-0.00043548458
-0.00030431672
-0.00017923672
-5.9174819e-05
-0.0073058644
-0.0068210748
-0.0063133743
-0.0057991348
-0.0052919922
-0.0048024653
-0.0043379551
-0.0039030282
-0.0034998743
-0.003128834
-0.0027889088
-0.0024782234
-0.0021944107
-0.0019348953
-0.0016970819
-0.0014784838
-0.0012767926
-0.0010899137
-0.00091597055
-0.00075329509
-0.00060040383
-0.00045597905
-0.00031889592
-0.00018788412
-6.1918748e-05
-0.0070040718
-0.006571912
-0.0061152823
-0.0056482821
-0.0051830214
-0.0047292127
-0.0042940689
-0.0038824398
-0.003497107
-0.0031391634
-0.0028084111
-0.0025037417
-0.0022234636
-0.0019655645
-0.0017279081
-0.001508367
-0.0013049094
-0.0011156488
-0.00093886616
-0.00077301343
-0.00061670405
-0.00046870449
-0.00032795694
-0.00019323985
-6.358164e-05
-0.0066952747
-0.0063090169
-0.0058976415
-0.0054732788
-0.0050466234
-0.0046265374
-0.0042198919
-0.0038316083
-0.0034648318
-0.0031211993
-0.0028011411
-0.0025041846
-0.0022292263
-0.0019747703
-0.001739112
-0.0015204736
-0.0013170981
-0.0011273105
-0.00094955292
-0.00078239965
-0.00062455894
-0.00047487309
-0.0003323596
-0.00019582895
-6.4353052e-05
-0.0063820543
-0.0060359872
-0.0056648061
-0.005278949
-0.0048878232
-0.0044994469
-0.0041202627
-0.0037551124
-0.0034073334
-0.0030789331
-0.0027708177
-0.0024830249
-0.0022149544
-0.0019655632
-0.0017335442
-0.0015174502
-0.0013157918
-0.0011271047
-0.00094999309
-0.00078315431
-0.0006253894
-0.00047561137
-0.00033289994
-0.00019613293
-6.4412344e-05
-0.0060667423
-0.0057560106
-0.0054206318
-0.0050695905
-0.004711144
-0.004352502
-0.0039996334
-0.0036572029
-0.0033286072
-0.0030160905
-0.0027209011
-0.0024434785
-0.0021836332
-0.0019407211
-0.0017137814
-0.0015016747
-0.0013031636
-0.0011169907
-0.00094192103
-0.00077677647
-0.00062045204
-0.00047192915
-0.00033034302
-0.00019460441
-6.3860448e-05
-0.0057514066
-0.0054718776
-0.0051684895
-0.0048489829
-0.0045205969
-0.0041897846
-0.0038620274
-0.0035417481
-0.0032323107
-0.0029360848
-0.002654558
-0.0023884717
-0.0021379679
-0.0019027299
-0.0016821108
-0.0014752396
-0.0012811136
-0.0010986714
-0.00092683566
-0.00076455217
-0.00061081276
-0.00046467197
-0.00032531909
-0.00019165924
-6.2800164e-05
-0.0054378406
-0.0051859894
-0.0049112833
-0.0046204013
-0.0043196848
-0.0040148892
-0.0037110147
-0.0034122057
-0.0031217262
-0.0028419903
-0.0025746362
-0.0023206261
-0.0020803607
-0.0018537922
-0.0016405342
-0.0014399568
-0.0012512737
-0.0010735989
-0.00090600525
-0.00074755937
-0.00059734787
-0.00045449613
-0.0003182347
-0.0001874848
-6.1377521e-05
-0.0051275674
-0.0049003797
-0.0046514809
-0.0043866439
-0.0041114201
-0.0038309322
-0.0035497147
-0.0032716162
-0.0029997559
-0.002736532
-0.0024836636
-0.0022422649
-0.0020129306
-0.0017958283
-0.0015907881
-0.0013973887
-0.00121503
-0.0010429902
-0.00088048148
-0.00072668339
-0.00058077272
-0.00044194414
-0.00030948465
-0.00018232559
-5.9644245e-05
-0.0048218601
-0.0046167482
-0.0043911527
-0.0041500701
-0.0038983626
-0.0036405797
-0.0033808173
-0.0031226211
-0.002868937
-0.0026221016
-0.0023838621
-0.0021554273
-0.0019375318
-0.00173051
-0.0015343707
-0.001348865
-0.0011735545
-0.0010078648
-0.00085113413
-0.00070264893
-0.00056167407
-0.00042747563
-0.000299398
-0.00017638247
-5.7656674e-05
-0.0045217696
-0.0043365016
-0.0041320198
-0.0039126551
-0.0036826684
-0.0034460947
-0.0032066199
-0.0029674908
-0.0027314622
-0.002500775
-0.0022771638
-0.0020618869
-0.0018557745
-0.0016592858
-0.0014725691
-0.0012955193
-0.0011278351
-0.00096907154
-0.0008186814
-0.00067605184
-0.00054053041
-0.00041145359
-0.00028822189
-0.00016980965
-5.5474766e-05
-0.0042281458
-0.0040607874
-0.0038754985
-0.0036760381
-0.0034661402
-0.0032493805
-0.0030290666
-0.0028081565
-0.0025892042
-0.0023743327
-0.0021652314
-0.0019631721
-0.001769044
-0.0015833949
-0.0014064798
-0.0012383102
-0.0010787017
-0.0009273205
-0.0007837218
-0.00064738345
-0.00051773287
-0.00039417383
-0.00027616365
-0.00016272263
-5.3140192e-05
-0.0039416467
-0.0037905143
-0.0036227265
-0.0034415498
-0.0032502569
-0.0030520123
-0.0028497776
-0.002646236
-0.0024437393
-0.0022442784
-0.0020494732
-0.0018605814
-0.001678519
-0.0015038923
-0.0013370356
-0.0011780524
-0.0010268566
-0.00088320893
-0.00074675375
-0.00061705119
-0.00049360314
-0.0003758786
-0.00026339142
-0.00015521656
-5.0679096e-05
-0.0036627413
-0.003526362
-0.0033745795
-0.0032102348
-0.0030361956
-0.0028552602
-0.0026700736
-0.0024830597
-0.0022963719
-0.0021118614
-0.0019310635
-0.0017551985
-0.0015851851
-0.0014216626
-0.001265021
-0.0011154339
-0.00097289295
-0.00083723889
-0.00070819472
-0.00058539468
-0.0004684095
-0.00035677031
-0.00025004591
-0.00014737348
-4.8112684e-05
-0.0033917134
-0.0032687942
-0.0031316906
-0.0029828749
-0.00282486
-0.0026601168
-0.0024910015
-0.0023196956
-0.0021481601
-0.0019781038
-0.0018109667
-0.0016479164
-0.0014898546
-0.001337434
-0.0011910795
-0.0010510154
-0.00091729263
-0.00078981867
-0.00066838466
-0.00055269125
-0.00044237197
-0.00033701618
-0.0002362445
-0.00013926191
-4.5463521e-05
-0.0031286751
-0.0030180778
-0.0028944754
-0.0027600198
-0.0026169114
-0.0024673286
-0.0023133652
-0.0021569771
-0.0019999407
-0.0018438227
-0.0016899616
-0.0015394605
-0.0013931905
-0.0012518002
-0.0011157331
-0.00098524758
-0.0008604406
-0.00074127285
-0.00062759262
-0.00051915863
-0.00041566136
-0.00031674359
-0.00022207571
-0.00013093234
-4.2747498e-05
-0.0028735871
-0.0027743083
-0.0026631607
-0.0025420166
-0.0024128002
-0.0022774285
-0.0021377568
-0.0019955323
-0.0018523561
-0.0017096546
-0.0015686617
-0.0014304087
-0.0012957243
-0.0011652407
-0.0010394055
-0.0009184985
-0.00080265026
-0.00069186329
-0.000586033
-0.00048496815
-0.0003884098
-0.00029605008
-0.00020760511
-0.00012242213
-3.9976086e-05
-0.0026262809
-0.0025374354
-0.0024378128
-0.0023290401
-0.002212797
-0.0020907665
-0.0019645873
-0.0018358135
-0.0017058806
-0.0015760792
-0.0014475372
-0.001321209
-0.0011978732
-0.001078135
-0.00096243568
-0.00085106469
-0.00074417548
-0.00064180259
-0.00054387993
-0.00045025881
-0.00036072501
-0.00027501549
-0.000192888
-0.0001137634
-3.7158297e-05
-0.0023864788
-0.0023072853
-0.0022183619
-0.0021211193
-0.0020170205
-0.0019075377
-0.0017941132
-0.0016781226
-0.0015608457
-0.0014434424
-0.0013269353
-0.0012121991
-0.0010999561
-0.0009907773
-0.00088508852
-0.00078317984
-0.00068521817
-0.00059126154
-0.00050127462
-0.00041514463
-0.00033269646
-0.00025370717
-0.00017797226
-0.00010498515
-3.429996e-05
-0.002153811
-0.0020835811
-0.0020046249
-0.0019181622
-0.0018254622
-0.0017278078
-0.0016264619
-0.0015226356
-0.0014174626
-0.0013119776
-0.0012070998
-0.0011036227
-0.0010022088
-0.00090338904
-0.00080756687
-0.0007150253
-0.00062593694
-0.00054037586
-0.00045833063
-0.00037971826
-0.00030439732
-0.00023218125
-0.0001628972
-9.6109136e-05
-3.1406975e-05
-0.0019278323
-0.0018659609
-0.0017963259
-0.0017199767
-0.0016380093
-0.0015515353
-0.0014616536
-0.0013694235
-0.0012758418
-0.0011818235
-0.0010881873
-0.0009956453
-0.00090479773
-0.00081613136
-0.00073002181
-0.00064673885
-0.00056645432
-0.00048925184
-0.00041513791
-0.00034405378
-0.00027588703
-0.00021048202
-0.00014769455
-8.7151127e-05
-2.8486198e-05
-0.0017080373
-0.0016539952
-0.0015931138
-0.0015262902
-0.0014544639
-0.0013785912
-0.0012996208
-0.0012184714
-0.0011360111
-0.0010530413
-0.00097028284
-0.00088836745
-0.00080783173
-0.00072911524
-0.00065256156
-0.00057842226
-0.00050686297
-0.00043797144
-0.00037176673
-0.00030820931
-0.00024721099
-0.00018864313
-0.000132389
-7.8128837e-05
-2.5543281e-05
-0.0014938723
-0.0014472003
-0.0013945777
-0.001336765
-0.0012745596
-0.0012087759
-0.0011402249
-0.001069694
-0.00099793068
-0.00092562786
-0.00085341224
-0.00078183614
-0.00071137203
-0.00064241014
-0.00057525886
-0.00051014751
-0.00044723112
-0.00038659687
-0.00032827177
-0.00027223106
-0.00021840668
-0.00016669426
-0.00011700032
-6.9055167e-05
-2.2582445e-05
-0.0012847428
-0.0012450468
-0.001200257
-0.0011510096
-0.0010979732
-0.0010418318
-0.00098326821
-0.00092294785
-0.00086150432
-0.00079952711
-0.00073755207
-0.00067605359
-0.00061543993
-0.00055605067
-0.00049815658
-0.00044196161
-0.00038760651
-0.00033517403
-0.00028469511
-0.00023615594
-0.00018950498
-0.00014465906
-0.00010154583
-5.9940195e-05
-1.9606801e-05
-0.0010800163
-0.001046963
-0.0010096452
-0.00096858456
-0.00092433151
-0.00087744916
-0.0008285012
-0.00077803831
-0.00072658623
-0.00067463596
-0.00062263517
-0.00057098213
-0.0005200211
-0.00047004015
-0.00042127073
-0.00037388893
-0.0003280183
-0.00028373389
-0.00024106726
-0.00020001226
-0.00016053079
-0.00012255799
-8.6038379e-05
-5.0792036e-05
-1.661973e-05
-0.00087902643
-0.0008523392
-0.00082219356
-0.00078900547
-0.00075321402
-0.00071527013
-0.00067562559
-0.00063472258
-0.00059298433
-0.00055080712
-0.00050855339
-0.0004665466
-0.00042506755
-0.00038435232
-0.00034459172
-0.00030593211
-0.00026847749
-0.00023229262
-0.00019740697
-0.00016381924
-0.00013150199
-0.00010040592
-7.0489347e-05
-4.1614835e-05
-1.3627723e-05
-0.00068106944
-0.00066052596
-0.000637311
-0.00061174153
-0.00058415214
-0.00055488754
-0.00052429336
-0.00049270864
-0.00046045839
-0.00042784748
-0.00039515536
-0.00036263208
-0.00033049534
-0.00029892886
-0.00026808181
-0.00023806934
-0.00020897414
-0.00018084872
-0.00015371836
-0.00012758445
-0.00010242792
-7.8212053e-05
-5.4907756e-05
-3.2415596e-05
-1.0629121e-05
-0.0004853694
-0.00047080097
-0.00045433279
-0.00043618822
-0.00041660301
-0.00039582021
-0.00037408369
-0.00035163327
-0.00032869916
-0.00030549755
-0.00028222679
-0.00025906459
-0.00023616575
-0.00021366118
-0.00019165755
-0.0001702378
-0.00014946203
-0.0001293691
-0.0001099785
-9.1292751e-05
-7.3299689e-05
-5.5974779e-05
-3.9297534e-05
-2.3201139e-05
-7.6093471e-06
-0.00029134975
-0.0002826358
-0.00027278332
-0.00026192525
-0.00025020215
-0.00023775872
-0.00022474057
-0.00021129086
-0.0001975472
-0.0001836392
-0.00016968558
-0.00015579264
-0.00014205255
-0.00012854321
-0.00011532841
-0.00010245819
-8.9969309e-05
-7.7885883e-05
-6.6220512e-05
-5.4975599e-05
-4.4144818e-05
-3.3714536e-05
-2.3673844e-05
-1.3977052e-05
-4.5787643e-06
-9.732538e-05
-9.4417761e-05
-9.1129916e-05
-8.7506101e-05
-8.3593243e-05
-7.9439689e-05
-7.5094083e-05
-7.0604231e-05
-6.6016114e-05
-6.1373102e-05
-5.6715233e-05
-5.2077743e-05
-4.7490916e-05
-4.2979997e-05
-3.8565989e-05
-3.4265665e-05
-3.0091518e-05
-2.6051883e-05
-2.2151241e-05
-1.8390677e-05
-1.4768379e-05
-1.128013e-05
-7.9216432e-06
-4.6766369e-06
-1.5310223e-06
)
;

boundaryField
{
    Walls
    {
        type            zeroGradient;
    }
    Inlet
    {
        type            fixedValue;
        value           uniform 500;
    }
    Outlet
    {
        type            fixedValue;
        value           uniform 0;
    }
    Front
    {
        type            wedge;
    }
    Back
    {
        type            wedge;
    }
    defaultFaces
    {
        type            empty;
    }
}


// ************************************************************************* //
