/*--------------------------------*- C++ -*----------------------------------*\
| =========                 |                                                 |
| \\      /  F ield         | OpenFOAM: The Open Source CFD Toolbox           |
|  \\    /   O peration     | Version:  4.0                                   |
|   \\  /    A nd           | Web:      www.OpenFOAM.org                      |
|    \\/     M anipulation  |                                                 |
\*---------------------------------------------------------------------------*/
FoamFile
{
    version     2.0;
    format      ascii;
    class       surfaceScalarField;
    location    "0.09";
    object      phi;
}
// * * * * * * * * * * * * * * * * * * * * * * * * * * * * * * * * * * * * * //

dimensions      [0 3 -1 0 0 0 0];

internalField   nonuniform List<scalar> 
3364
(
-4.062404e-10
1.6455936e-08
-4.8962723e-10
4.8597235e-08
8.8785474e-08
-3.917866e-10
1.6847698e-08
-8.8197311e-10
4.9087447e-08
8.7903537e-08
5.6004776e-11
1.6791671e-08
-2.6157378e-10
4.9405052e-08
8.7641971e-08
-9.3991823e-11
1.6885641e-08
1.8762301e-10
4.9123434e-08
8.7829577e-08
3.3654208e-10
1.6549068e-08
-1.0475418e-09
5.050748e-08
8.6781992e-08
7.4101189e-10
1.5808012e-08
-1.4517736e-09
5.2700183e-08
8.5330147e-08
-4.9911291e-10
1.6307078e-08
-1.1230239e-09
5.3324013e-08
8.4207085e-08
-1.0060151e-09
1.7313034e-08
-1.4868776e-10
5.2466661e-08
8.4058372e-08
1.2998757e-10
1.7183e-08
-1.4210205e-10
5.2738717e-08
8.3916231e-08
2.8937211e-10
1.6893599e-08
-1.0176453e-10
5.3129776e-08
8.381441e-08
-2.2078826e-10
1.7114379e-08
5.9804082e-10
5.2310908e-08
8.4412411e-08
1.1893296e-10
1.6995444e-08
5.9621742e-10
5.1833621e-08
8.5008599e-08
-5.2088464e-10
1.7516316e-08
2.1954636e-10
5.1093154e-08
8.5228097e-08
-8.9248095e-10
1.8408742e-08
-3.2028462e-10
5.0520897e-08
8.490779e-08
6.0490413e-11
1.8348185e-08
-3.6019255e-10
5.0941538e-08
8.4547587e-08
9.8847648e-10
1.7359656e-08
1.3225689e-10
5.1797715e-08
8.4679819e-08
8.5503898e-10
1.6504559e-08
3.8270515e-10
5.2269965e-08
8.5062479e-08
5.4880656e-11
1.6449628e-08
-6.0401062e-10
5.2928809e-08
8.4458437e-08
-1.5093107e-10
1.6600548e-08
-7.7361855e-10
5.3551505e-08
8.3684797e-08
-2.9424682e-10
1.6894794e-08
6.1013366e-10
5.2647114e-08
8.4294902e-08
-1.8355824e-10
1.7078318e-08
5.8378721e-10
5.1879722e-08
8.4878639e-08
-1.7193599e-10
1.725022e-08
-6.6156933e-10
5.2369308e-08
8.4217016e-08
-1.9019381e-10
1.7440389e-08
-7.2772644e-10
5.2906813e-08
8.3489248e-08
9.3331198e-11
1.7347025e-08
6.124759e-10
5.2387624e-08
8.4101676e-08
2.2258895e-10
1.7124392e-08
9.7065728e-10
5.1639484e-08
8.5072285e-08
-2.6071518e-10
1.7385057e-08
5.5435861e-11
5.1323293e-08
8.5127687e-08
-6.9540485e-10
1.8080419e-08
-4.1547619e-10
5.1043341e-08
8.4712179e-08
6.6161535e-11
1.801421e-08
-1.394531e-10
5.1248922e-08
8.4572693e-08
8.375215e-10
1.7176715e-08
4.2132165e-10
5.1665206e-08
8.4994034e-08
1.7372732e-09
1.5439652e-08
4.9728447e-09
4.842977e-08
8.9966878e-08
1.1145326e-08
4.2936828e-09
4.8688059e-08
1.0885168e-08
1.1005212e-08
1.2764715e-07
4.8237965e-09
-5.3059492e-10
1.7136587e-08
-1.4291216e-09
-1.4676473e-09
2.960755e-08
-4.0205752e-10
-1.2850592e-10
-1.4618519e-09
-3.6926383e-10
-4.7192754e-10
-2.4574841e-09
-1.1069391e-10
-1.7796984e-11
-4.221222e-10
-5.7799714e-11
-8.7863185e-11
-8.0614508e-10
-1.6484173e-11
-1.3109923e-12
-6.9877389e-11
-4.4016094e-12
-2.8952753e-12
-1.5483853e-10
-1.0883078e-12
-2.2273621e-13
-5.7882829e-12
2.9822462e-13
5.712697e-12
-1.4396062e-11
1.3789892e-12
-1.6018693e-12
6.1030433e-12
-4.4262811e-12
-2.6649865e-12
1.447999e-11
1.2416701e-12
-2.8437246e-12
4.2848264e-12
-7.4699315e-12
-8.936474e-12
1.0555283e-11
6.0773152e-14
-2.9045476e-12
3.7924262e-13
-7.7887372e-12
-1.0224199e-11
1.666339e-12
-5.100009e-13
-2.3945392e-12
-1.8854215e-12
-6.4134166e-12
-8.7367279e-12
-3.3730627e-12
-5.3990839e-13
-1.8546113e-12
-1.8900868e-12
-5.0632857e-12
-6.5201027e-12
-4.1068037e-12
-3.9654005e-13
-1.4580559e-12
-1.5080526e-12
-3.9517968e-12
-5.1394437e-12
-2.888786e-12
-2.4522473e-13
-1.2128215e-12
-9.1159724e-13
-3.2854488e-12
-4.3209307e-12
-1.7301774e-12
-1.6266394e-13
-1.0501523e-12
-5.7593467e-13
-2.8721962e-12
-3.8755439e-12
-1.02138e-12
-1.1065558e-13
-9.3949491e-13
-3.8130853e-13
-2.6015576e-12
-3.6163612e-12
-6.4053555e-13
-8.4678724e-14
-8.5481652e-13
-2.8971005e-13
-2.3965385e-12
-3.4251456e-12
-4.8095902e-13
-6.9746772e-14
-7.8507152e-13
-2.4112908e-13
-2.2251679e-12
-3.2558883e-12
-4.1041327e-13
-5.8545987e-14
-7.2652821e-13
-2.0608098e-13
-2.077645e-12
-3.099347e-12
-3.6264589e-13
-4.8210786e-14
-6.7832074e-13
-1.7168917e-13
-1.9541793e-12
-2.96321e-12
-3.07849e-13
-3.9022844e-14
-6.3930159e-13
-1.4062976e-13
-1.8525856e-12
-2.8473178e-12
-2.5654463e-13
-3.156811e-14
-6.0773737e-13
-1.166622e-13
-1.7675048e-12
-2.7482651e-12
-2.1573729e-13
-2.8454371e-14
-5.7928692e-13
-1.0003503e-13
-1.6959373e-12
-2.6627551e-12
-1.8556695e-13
-2.4302821e-14
-5.5498792e-13
-8.8063469e-14
-1.6321892e-12
-2.5833529e-12
-1.674866e-13
-2.1628034e-14
-5.3336354e-13
-8.0160389e-14
-1.5736689e-12
-2.5075525e-12
-1.5598075e-13
-1.9892955e-14
-5.1347402e-13
-7.5189803e-14
-1.5183832e-12
-2.4335571e-12
-1.4920379e-13
-1.844471e-14
-4.9503251e-13
-7.1813771e-14
-1.4650245e-12
-2.359815e-12
-1.4557304e-13
-1.7401489e-14
-4.7763397e-13
-6.5861653e-14
-1.416574e-12
-2.2866939e-12
-1.3899869e-13
-1.675404e-14
-4.6088262e-13
-6.4076113e-14
-1.3692607e-12
-2.2186373e-12
-1.3214745e-13
-1.60941e-14
-4.4479095e-13
-6.2385909e-14
-1.3229768e-12
-2.150136e-12
-1.3090049e-13
-1.5261921e-14
-4.2953121e-13
-5.9333349e-14
-1.2789126e-12
-2.0829823e-12
-1.264991e-13
-1.5364343e-14
-4.1416881e-13
-5.999866e-14
-1.2342847e-12
-2.0136446e-12
-1.2934718e-13
-1.5210992e-14
-3.9895954e-13
-5.9654735e-14
-1.1898467e-12
-1.9442725e-12
-1.2903648e-13
-1.4829673e-14
-3.8413141e-13
-5.8293383e-14
-1.1463882e-12
-1.8759756e-12
-1.2659909e-13
-1.4344035e-14
-3.6978875e-13
-5.6509926e-14
-1.1042271e-12
-1.8092265e-12
-1.2326685e-13
-1.3785934e-14
-3.5600406e-13
-5.443063e-14
-1.0635866e-12
-1.7444689e-12
-1.1919542e-13
-1.3170316e-14
-3.4283488e-13
-5.2086445e-14
-1.0246744e-12
-1.6822418e-12
-1.1431999e-13
-1.2508847e-14
-3.3032707e-13
-4.9496848e-14
-9.8768998e-13
-1.6227508e-12
-1.0899366e-13
-1.178224e-14
-3.1854579e-13
-4.6696366e-14
-9.5277915e-13
-1.5665414e-12
-1.0291105e-13
-1.0987336e-14
-3.0755934e-13
-4.3564684e-14
-9.2020483e-13
-1.5139615e-12
-9.6149411e-14
-1.01425e-14
-2.9741768e-13
-4.0252147e-14
-8.9009798e-13
-1.4652523e-12
-8.8965786e-14
-9.2597393e-15
-2.8815873e-13
-3.677558e-14
-8.6258474e-13
-1.4206393e-12
-8.1392743e-14
-8.345993e-15
-2.7981348e-13
-3.3160697e-14
-8.3777247e-13
-1.3803951e-12
-7.3408676e-14
-7.4057957e-15
-2.724084e-13
-2.9441925e-14
-8.1573862e-13
-1.3445781e-12
-6.52625e-14
-6.4361993e-15
-2.6597288e-13
-2.5590028e-14
-7.9658696e-13
-1.3133873e-12
-5.6784301e-14
-5.4481352e-15
-2.6052539e-13
-2.1681231e-14
-7.8035591e-13
-1.2869654e-12
-4.8106343e-14
-4.3825769e-15
-2.5614343e-13
-1.7428536e-14
-7.6731189e-13
-1.2657052e-12
-3.8691706e-14
-3.2903386e-15
-2.5285367e-13
-1.3088503e-14
-7.5751556e-13
-1.2499033e-12
-2.8893333e-14
-2.2800214e-15
-2.5057422e-13
-9.1044939e-15
-7.5069288e-13
-1.2389735e-12
-2.0037048e-14
-1.0079529e-15
-2.4956683e-13
-4.0169497e-15
-7.4768566e-13
-1.2332612e-12
-9.7320987e-15
-8.8608011e-17
-3.409659e-16
-9.172685e-17
1.3718562e-07
-9.5437756e-09
-8.7552397e-09
1.4593456e-07
2.1592843e-08
-1.5302835e-09
-1.4028133e-09
1.4239866e-08
-3.4385231e-09
-5.4912512e-10
-5.8886813e-10
-4.2523271e-09
-1.229503e-09
-1.2572098e-10
-1.6417711e-10
-1.6541353e-09
-2.8071306e-10
1.591042e-13
-2.9226823e-12
-4.4195383e-10
-3.1071497e-11
1.6834194e-11
3.0575367e-11
-6.4567893e-11
2.5459215e-11
5.8526797e-12
1.599455e-11
4.0039044e-11
2.3131014e-11
-6.7244637e-12
-1.3912056e-12
4.0515804e-11
5.4092173e-12
-1.0467793e-11
-7.7575536e-12
1.1775216e-11
-4.8933648e-12
-8.9475966e-12
-6.9972559e-12
-5.6536788e-12
-6.6116309e-12
-6.4428238e-12
-4.5825419e-12
-9.0263072e-12
-4.514351e-12
-4.8173393e-12
-2.9702557e-12
-6.1266805e-12
-2.4380734e-12
-4.1095349e-12
-2.5000042e-12
-2.908416e-12
-1.275566e-12
-3.855435e-12
-2.7252089e-12
-1.0504607e-12
-7.3391015e-13
-3.762132e-12
-3.1785316e-12
-2.8067854e-13
-4.9960936e-13
-3.7435402e-12
-3.4173478e-12
-2.608684e-13
-4.439718e-13
-3.7100278e-12
-3.5546495e-12
-3.0673051e-13
-4.1944779e-13
-3.653264e-12
-3.6589056e-12
-3.1524244e-13
-3.6916001e-13
-3.5919873e-12
-3.7557388e-12
-2.7237238e-13
-3.2125258e-13
-3.5273117e-12
-3.8247697e-12
-2.5226399e-13
-2.7898968e-13
-3.4640906e-12
-3.8688359e-12
-2.3496368e-13
-2.4559377e-13
-3.4040942e-12
-3.8795712e-12
-2.3489692e-13
-2.2825105e-13
-3.3433587e-12
-3.8721623e-12
-2.3569639e-13
-2.2038176e-13
-3.2789852e-12
-3.8483487e-12
-2.4422987e-13
-2.1873024e-13
-3.2094844e-12
-3.8098405e-12
-2.5727073e-13
-2.1921902e-13
-3.1358621e-12
-3.7583179e-12
-2.707715e-13
-2.1810638e-13
-3.0567764e-12
-3.6937066e-12
-2.8274527e-13
-2.1093025e-13
-2.9780138e-12
-3.6190676e-12
-2.8559454e-13
-2.0192499e-13
-2.9070078e-12
-3.5380396e-12
-2.8297623e-13
-2.1555421e-13
-2.8179694e-12
-3.4544986e-12
-2.991162e-13
-2.1777071e-13
-2.7295608e-12
-3.362333e-12
-3.0995511e-13
-2.1659502e-13
-2.6420157e-12
-3.2655007e-12
-3.1344432e-13
-2.1380786e-13
-2.5548191e-12
-3.1665198e-12
-3.1280402e-13
-2.0968609e-13
-2.4684107e-12
-3.066523e-12
-3.0969661e-13
-2.0387625e-13
-2.3837397e-12
-2.9675602e-12
-3.0285117e-13
-1.9593728e-13
-2.3021311e-12
-2.8712494e-12
-2.922589e-13
-1.8779612e-13
-2.2233365e-12
-2.7771477e-12
-2.8190756e-13
-1.7771649e-13
-2.1485382e-12
-2.6876276e-12
-2.6724528e-13
-1.6630812e-13
-2.0783859e-12
-2.6030738e-12
-2.5086987e-13
-1.5413279e-13
-2.0132248e-12
-2.5242952e-12
-2.3291867e-13
-1.4124049e-13
-1.9533826e-12
-2.4517485e-12
-2.1379397e-13
-1.2751575e-13
-1.8992806e-12
-2.3857346e-12
-1.9353589e-13
-1.1349442e-13
-1.8510535e-12
-2.3269961e-12
-1.722388e-13
-9.8872249e-14
-1.80897e-12
-2.2755417e-12
-1.5033224e-13
-8.3808316e-14
-1.7732723e-12
-2.2318712e-12
-1.2748408e-13
-6.7662434e-14
-1.7443057e-12
-2.1962224e-12
-1.033162e-13
-5.0700715e-14
-1.7225021e-12
-2.1696393e-12
-7.728848e-14
-3.3816359e-14
-1.7087266e-12
-2.1530067e-12
-5.0453641e-14
-1.6597624e-14
-1.7018648e-12
-2.1448467e-12
-2.4762182e-14
-6.3507062e-16
-1.4702047e-15
4.0293974e-12
-4.0292914e-12
1.0905508e-11
-6.8760009e-12
1.988417e-11
-8.9828255e-12
2.9514494e-11
-9.6352491e-12
3.8302391e-11
-8.7923915e-12
4.5510624e-11
-7.2122147e-12
5.1231119e-11
-5.7240026e-12
5.4552565e-11
-3.3245046e-12
5.5055185e-11
-5.0528783e-13
5.2470284e-11
2.5826105e-12
4.667163e-11
5.7966815e-12
3.774539e-11
8.924577e-12
2.6057362e-11
1.1686616e-11
1.2150567e-11
1.390563e-11
-3.3860436e-12
1.5535637e-11
-1.9950135e-11
1.6563311e-11
-3.6950859e-11
1.700008e-11
-5.3809323e-11
1.6857966e-11
-6.9960732e-11
1.6151008e-11
-8.4861323e-11
1.4900302e-11
-9.7995958e-11
1.3134417e-11
-1.0888582e-10
1.0889737e-11
-1.1706042e-10
8.1745292e-12
-1.2198447e-10
4.9240244e-12
1.2554598e-12
-3.2606406e-11
2.8578645e-11
-6.976641e-11
3.0286356e-11
-1.1396336e-10
3.521686e-11
-1.6877994e-10
4.5184161e-11
-2.3690231e-10
5.9332772e-11
-3.1794453e-10
7.3832673e-11
-4.1046399e-10
8.6797944e-11
-5.1607409e-10
1.0228786e-10
-6.3365554e-10
1.1707814e-10
-7.6110536e-10
1.3003409e-10
-8.9597544e-10
1.4066809e-10
-1.0357057e-09
1.4865581e-10
-1.177565e-09
1.5354659e-10
-1.3188663e-09
1.552073e-10
-1.4571715e-09
1.5384085e-10
-1.5901904e-09
1.4958209e-10
-1.7158011e-09
1.4261033e-10
-1.8321127e-09
1.3316891e-10
-1.9374938e-09
1.2153126e-10
-2.0305714e-09
1.0797696e-10
-2.1102059e-09
9.276786e-11
-2.1755318e-09
7.6214627e-11
-2.226682e-09
5.9323613e-11
-2.2586795e-09
3.6920504e-11
9.5969696e-12
-1.3502913e-10
1.6361274e-10
-2.8881864e-10
1.8408347e-10
-4.6723953e-10
2.1364634e-10
-6.7479899e-10
2.5275204e-10
-9.1352982e-10
2.9807139e-10
-1.1858012e-09
3.4611095e-10
-1.4967618e-09
3.9776433e-10
-1.8729204e-09
4.7845128e-10
-2.329654e-09
5.7381524e-10
-2.8012934e-09
6.0167583e-10
-3.2708352e-09
6.1021104e-10
-3.7273265e-09
6.0514731e-10
-4.1633744e-09
5.8959366e-10
-4.5736152e-09
5.6544661e-10
-4.9534859e-09
5.3370922e-10
-5.2987964e-09
4.9488967e-10
-5.6066692e-09
4.5047965e-10
-5.8754592e-09
4.0195504e-10
-6.1045073e-09
3.5057505e-10
-6.2939283e-09
2.9739339e-10
-6.4444565e-09
2.4329122e-10
-6.5571423e-09
1.8889595e-10
-6.6323392e-09
1.3451599e-10
-6.6753718e-09
7.9948725e-11
2.5704181e-11
-3.852369e-10
5.4886124e-10
-8.2045486e-10
6.1931884e-10
-1.3266293e-09
7.1983938e-10
-2.1372951e-09
1.0634335e-09
-3.022728e-09
1.1835163e-09
-3.8854469e-09
1.2088383e-09
-4.6761898e-09
1.1885126e-09
-5.3359542e-09
1.1382185e-09
-5.8312696e-09
1.0691316e-09
-6.21639e-09
9.8679568e-10
-6.5026002e-09
8.9641953e-10
-6.7035292e-09
8.0607365e-10
-6.8300522e-09
7.1611338e-10
-6.8918373e-09
6.2722784e-10
-6.8953873e-09
5.3725491e-10
-6.8548196e-09
4.5431735e-10
-6.7837558e-09
3.7941109e-10
-6.6943434e-09
3.1253761e-10
-6.5970772e-09
2.5330372e-10
-6.5007503e-09
2.0106131e-10
-6.4125026e-09
1.5503833e-10
-6.3379756e-09
1.1436366e-10
-6.2819758e-09
7.8511006e-11
-6.2488419e-09
4.6809596e-11
1.9451614e-11
-2.2241993e-09
2.77308e-09
-3.9668087e-09
2.3619492e-09
-5.4579747e-09
2.211025e-09
-6.1583169e-09
1.7637878e-09
-6.2741226e-09
1.2993312e-09
-5.8537677e-09
7.8849057e-10
-5.142047e-09
4.767978e-10
-4.2086923e-09
2.0486923e-10
-3.1146007e-09
-2.4954792e-11
-1.915941e-09
-2.1185869e-10
-7.046226e-10
-3.1489358e-10
4.7736362e-10
-3.759076e-10
1.6338979e-09
-4.4041786e-10
2.8472612e-09
-5.8613275e-10
4.0882621e-09
-7.0374232e-10
5.2621351e-09
-7.1955053e-10
6.3396224e-09
-6.9806968e-10
7.3039799e-09
-6.5181213e-10
8.1449968e-09
-5.8770416e-10
8.8567579e-09
-5.1068953e-10
9.4364051e-09
-4.2459741e-10
9.8833372e-09
-3.3255603e-10
1.0198674e-08
-2.3681302e-10
1.0385399e-08
-1.3990311e-10
-3.9288232e-11
1.1390785e-09
1.6340856e-09
4.4036902e-09
-9.0261311e-10
8.1710169e-09
-1.5562307e-09
1.1888368e-08
-1.9535294e-09
1.5633422e-08
-2.4456947e-09
1.930028e-08
-2.8783366e-09
2.2908002e-08
-3.1308887e-09
2.6304079e-08
-3.1911672e-09
2.9396172e-08
-3.1170015e-09
3.215325e-08
-2.9688875e-09
3.4620023e-08
-2.7816131e-09
3.6806074e-08
-2.5619028e-09
3.8701123e-08
-2.3354094e-09
4.022659e-08
-2.1115407e-09
4.1410293e-08
-1.8873861e-09
4.2356097e-08
-1.6652957e-09
4.3109009e-08
-1.4509218e-09
4.3703499e-08
-1.2462436e-09
4.4167951e-08
-1.0520967e-09
4.4525813e-08
-8.6849329e-10
4.4795997e-08
-6.9472406e-10
4.4993158e-08
-5.2965933e-10
4.5127652e-08
-3.7125066e-10
4.5206637e-08
-2.1883214e-10
-6.666607e-11
1.4984637e-07
-2.2765106e-09
1.4833364e-07
6.1103956e-10
1.4566666e-07
1.1115402e-09
1.4219333e-07
1.5204957e-09
1.3768948e-07
2.0587715e-09
1.3228951e-07
2.5221556e-09
1.2634923e-07
2.809835e-09
1.2025513e-07
2.9033267e-09
1.1428908e-07
2.8493762e-09
1.0859377e-07
2.7267128e-09
1.0323562e-07
2.5767885e-09
9.827738e-08
2.3965641e-09
9.374513e-08
2.1970419e-09
8.964473e-08
1.9890414e-09
8.5978915e-08
1.7785926e-09
8.2742188e-08
1.5715821e-09
7.9920196e-08
1.3712083e-09
7.7494717e-08
1.1793626e-09
7.5445777e-08
9.9696251e-10
7.3753301e-08
8.2409316e-10
7.2398644e-08
6.600383e-10
7.1365221e-08
5.0386306e-10
7.0640369e-08
3.5369571e-10
7.0212781e-08
2.0884664e-10
6.398842e-11
1.3538439e-08
-1.5749582e-09
1.5875056e-08
-1.725463e-09
1.8500916e-08
-1.5142047e-09
2.1206141e-08
-1.1846183e-09
2.4025114e-08
-7.6009406e-10
2.6939191e-08
-3.9181897e-10
2.9874365e-08
-1.2524336e-10
3.2669663e-08
1.0811951e-10
3.523512e-08
2.8400885e-10
3.7589987e-08
3.719355e-10
3.9707122e-08
4.5974181e-10
4.1542443e-08
5.613292e-10
4.2939789e-08
7.9978178e-10
4.4060603e-08
8.6831032e-10
4.4956666e-08
8.8261161e-10
4.5665761e-08
8.6256636e-10
4.6219996e-08
8.1705038e-10
4.6647447e-08
7.5198574e-10
4.6972614e-08
6.7186856e-10
4.7216307e-08
5.8047018e-10
4.7395846e-08
4.8056829e-10
4.7524508e-08
3.7526732e-10
4.7611195e-08
2.6707257e-10
4.766214e-08
1.5796333e-10
4.5053224e-11
-5.0155809e-09
-8.117168e-10
-5.7030323e-09
-1.0380227e-09
-6.0746162e-09
-1.1426325e-09
-6.0622399e-09
-1.1970059e-09
-5.6195802e-09
-1.2027633e-09
-4.8410736e-09
-1.1703328e-09
-3.8535136e-09
-1.1128079e-09
-2.7089401e-09
-1.0364556e-09
-1.47569e-09
-9.4924001e-10
-2.4708951e-10
-8.5666117e-10
9.7559854e-10
-7.6294012e-10
2.2059467e-09
-6.6901077e-10
3.5797175e-09
-5.7397865e-10
4.9319299e-09
-4.8388969e-10
6.2165825e-09
-4.0202696e-10
7.4086282e-09
-3.2946387e-10
8.491974e-09
-2.6627868e-10
9.4559664e-09
-2.1198921e-10
1.0293645e-08
-1.6579141e-10
1.1000962e-08
-1.2682833e-10
1.1578619e-08
-9.7070036e-11
1.2024883e-08
-7.0978242e-11
1.2340412e-08
-4.8437879e-11
1.2527377e-08
-2.8984141e-11
-1.4141835e-11
-2.2696234e-09
-1.9623256e-10
-3.0695854e-09
-2.3806616e-10
-3.9159443e-09
-2.9628167e-10
-4.7534075e-09
-3.5955317e-10
-5.5275583e-09
-4.2862485e-10
-6.1380627e-09
-5.5984197e-10
-6.6278427e-09
-6.2304225e-10
-7.0093653e-09
-6.5494761e-10
-7.2888892e-09
-6.6973071e-10
-7.4757041e-09
-6.6986062e-10
-7.5793766e-09
-6.5928159e-10
-7.6078996e-09
-6.4050122e-10
-7.5674215e-09
-6.1446958e-10
-7.47031e-09
-5.8101339e-10
-7.331213e-09
-5.4113554e-10
-7.1644963e-09
-4.9619135e-10
-6.9832893e-09
-4.4749587e-10
-6.7990993e-09
-3.9618877e-10
-6.6219984e-09
-3.4290142e-10
-6.4599883e-09
-2.8884699e-10
-6.3219329e-09
-2.351337e-10
-6.2112441e-09
-1.8167498e-10
-6.1309227e-09
-1.28767e-10
-6.0835189e-09
-7.6395242e-11
-2.4903364e-11
-6.3599706e-10
-2.1892032e-12
-8.6462707e-10
-9.4362445e-12
-1.1323798e-09
-2.8529667e-11
-1.4392316e-09
-5.2702986e-11
-1.7861465e-09
-8.171245e-11
-2.2432522e-09
-1.027398e-10
-2.7420744e-09
-1.2422479e-10
-3.2518946e-09
-1.4513329e-10
-3.7582003e-09
-1.6343198e-10
-4.2502466e-09
-1.7782206e-10
-4.7213598e-09
-1.8817691e-10
-5.1671094e-09
-1.9476076e-10
-5.5838013e-09
-1.977873e-10
-5.9674284e-09
-1.9739634e-10
-6.3146725e-09
-1.9390188e-10
-6.6230435e-09
-1.8783096e-10
-6.8905245e-09
-1.8002567e-10
-7.1109424e-09
-1.7578165e-10
-7.2887393e-09
-1.6511502e-10
-7.4317543e-09
-1.4584218e-10
-7.5433983e-09
-1.2349973e-10
-7.6262891e-09
-9.8793798e-11
-7.6829507e-09
-7.2114769e-11
-7.716081e-09
-4.3274113e-11
-1.2354988e-11
-1.1048387e-10
4.3726974e-11
-1.6817636e-10
4.8256429e-11
-2.4715391e-10
5.0447936e-11
-3.4682167e-10
4.696463e-11
-4.67215e-10
3.8680476e-11
-6.0107434e-10
3.1118853e-11
-7.5055936e-10
2.5259183e-11
-9.1314542e-10
1.7451353e-11
-1.0852926e-09
8.713456e-12
-1.2631693e-09
5.2546122e-14
-1.4433249e-09
-8.023699e-12
-1.6229618e-09
-1.5126634e-11
-1.8001508e-09
-2.0601229e-11
-1.9728851e-09
-2.4665253e-11
-2.1393789e-09
-2.7411491e-11
-2.2981216e-09
-2.9091787e-11
-2.4484173e-09
-2.9733788e-11
-2.5948675e-09
-2.9335229e-11
-2.7322993e-09
-2.7687149e-11
-2.8530219e-09
-2.5123379e-11
-2.9547077e-09
-2.1817796e-11
-3.0359416e-09
-1.7563693e-11
-3.0951457e-09
-1.2914361e-11
-3.1306121e-09
-7.8114744e-12
-2.2358475e-12
5.7005249e-11
2.6761028e-11
7.0272532e-11
3.4989428e-11
7.9642937e-11
4.107779e-11
8.4278496e-11
4.2329295e-11
8.1432271e-11
4.1526885e-11
7.1354672e-11
4.1196596e-11
5.7064208e-11
3.9549751e-11
3.7822816e-11
3.6692808e-11
1.3784332e-11
3.2751959e-11
-1.4192144e-11
2.8028995e-11
-4.5565874e-11
2.3349956e-11
-7.9711774e-11
1.9019142e-11
-1.148593e-10
1.4546127e-11
-1.4948892e-10
9.9641367e-12
-1.8426797e-10
7.367286e-12
-2.1842751e-10
5.0674449e-12
-2.513717e-10
3.2100442e-12
-2.8244462e-10
1.7372891e-12
-3.1075209e-10
6.1988948e-13
-3.3572412e-10
-1.5180311e-13
-3.5695618e-10
-5.8620285e-13
-3.7385229e-10
-6.6803655e-13
-3.8619163e-10
-5.754769e-13
-3.9363384e-10
-3.6971319e-13
-2.1791709e-14
6.1761325e-11
5.5157768e-12
8.4733242e-11
1.2017868e-11
1.0866753e-10
1.7143904e-11
1.3086746e-10
2.0129795e-11
1.5046417e-10
2.1930615e-11
1.6827971e-10
2.3381506e-11
1.8429953e-10
2.353039e-11
1.9816772e-10
2.2825071e-11
2.1023982e-10
2.0680312e-11
2.1982242e-10
1.8446835e-11
2.2722693e-10
1.5945878e-11
2.3265457e-10
1.3591923e-11
2.3654167e-10
1.0659442e-11
2.3914974e-10
7.3564653e-12
2.4144414e-10
5.0732759e-12
2.4289496e-10
3.6169919e-12
2.4398039e-10
2.1249847e-12
2.4489216e-10
8.2587417e-13
2.4578168e-10
-2.6928709e-13
2.4654207e-10
-9.1185864e-13
2.4717273e-10
-1.216534e-12
2.4771935e-10
-1.21434e-12
2.4812084e-10
-9.766503e-13
2.4832407e-10
-5.7263725e-13
-2.1303015e-13
2.0538143e-11
-3.2470971e-12
3.100213e-11
1.5539974e-12
4.2808632e-11
5.3375569e-12
5.4661127e-11
8.2774777e-12
6.5992906e-11
1.0599027e-11
7.7265023e-11
1.2109587e-11
8.7537884e-11
1.3257728e-11
9.6958399e-11
1.3404754e-11
1.0498436e-10
1.2654542e-11
1.1169298e-10
1.1738413e-11
1.1687412e-10
1.0764922e-11
1.2120574e-10
9.2604859e-12
1.2455077e-10
7.3145928e-12
1.2653765e-10
5.3697602e-12
1.2789672e-10
3.7143721e-12
1.2931935e-10
2.1945296e-12
1.3028518e-10
1.1593189e-12
1.311589e-10
-4.7691478e-14
1.3191965e-10
-1.0298778e-12
1.3264132e-10
-1.633369e-12
1.3332087e-10
-1.8959203e-12
1.3395936e-10
-1.8526706e-12
1.3456421e-10
-1.5813454e-12
1.3509973e-10
-1.1080113e-12
-5.0146152e-13
-5.2577425e-12
-3.6431449e-12
-3.8863927e-12
1.8256605e-13
-2.2789452e-12
3.7300465e-12
-1.061674e-13
6.1046473e-12
2.5505443e-12
7.9422701e-12
5.2440673e-12
9.4160242e-12
7.6277203e-12
1.0874038e-11
9.1355087e-12
1.1896929e-11
9.6485298e-12
1.2141484e-11
9.7212214e-12
1.1665681e-11
9.3711527e-12
1.1114949e-11
8.3807088e-12
1.0250885e-11
6.5492021e-12
9.146052e-12
3.5790302e-12
8.3398818e-12
3.8066282e-13
6.9126868e-12
-3.066532e-12
5.6416699e-12
-6.3919689e-12
4.4847005e-12
-9.8192646e-12
3.3795489e-12
-1.3384212e-11
2.5350142e-12
-1.6675316e-11
1.6576801e-12
-1.9617636e-11
1.0463455e-12
-2.2109384e-11
6.3902476e-13
-2.405839e-11
3.6760741e-13
-2.5380677e-11
2.1422907e-13
1.8590537e-13
-1.1029524e-11
-1.6400468e-12
-1.2505585e-11
1.6585077e-12
-1.3517613e-11
4.7419611e-12
-1.4933914e-11
7.5208396e-12
-1.5837472e-11
8.8457206e-12
-1.6798507e-11
1.0376955e-11
-1.7607783e-11
1.1683212e-11
-1.8453728e-11
1.2742773e-11
-2.0132497e-11
1.3820152e-11
-2.2154796e-11
1.3687878e-11
-2.4729079e-11
1.3689127e-11
-2.7711115e-11
1.3232815e-11
-3.109194e-11
1.252677e-11
-3.4609135e-11
1.1856968e-11
-3.8607708e-11
1.0911149e-11
-4.2809688e-11
9.8435384e-12
-4.707692e-11
8.7518192e-12
-5.1312081e-11
7.6145964e-12
-5.5290929e-11
6.5137488e-12
-5.9029761e-11
5.3963987e-12
-6.2315795e-11
4.3322658e-12
-6.500482e-11
3.3279392e-12
-6.6991439e-11
2.3541151e-12
-6.8152353e-11
1.3750382e-12
4.3802748e-13
-7.5144578e-12
-2.5236164e-13
-8.6230872e-12
2.7670466e-12
-9.5183266e-12
5.6371128e-12
-1.0131371e-11
8.1338006e-12
-1.1117649e-11
9.8319156e-12
-1.2027561e-11
1.1286786e-11
-1.2836858e-11
1.2492428e-11
-1.3613614e-11
1.3519449e-11
-1.4201043e-11
1.4407502e-11
-1.5435795e-11
1.4922552e-11
-1.6930151e-11
1.5183405e-11
-1.8771414e-11
1.5073999e-11
-2.1024608e-11
1.4779882e-11
-2.3381267e-11
1.4213543e-11
-2.5937016e-11
1.3466814e-11
-2.8662578e-11
1.2569014e-11
-3.1480093e-11
1.1569246e-11
-3.431956e-11
1.0453974e-11
-3.7026631e-11
9.2207298e-12
-3.9542055e-11
7.9117315e-12
-4.1756421e-11
6.5465408e-12
-4.3564966e-11
5.1363945e-12
-4.4896417e-11
3.6854753e-12
-4.5726162e-11
2.2046982e-12
6.9979428e-13
-3.0336752e-12
-1.2718094e-13
-2.903155e-12
2.6364561e-12
-2.6095345e-12
5.3434309e-12
-2.1494807e-12
7.6736929e-12
-1.8720634e-12
9.5544486e-12
-1.5377488e-12
1.0952425e-11
-1.0343134e-12
1.1988949e-11
-5.761086e-13
1.3061202e-11
-1.9900743e-14
1.3851254e-11
3.6392703e-13
1.4538685e-11
5.7997375e-13
1.496732e-11
4.985636e-13
1.515537e-11
2.0169003e-13
1.5076716e-11
-3.3091487e-13
1.4746108e-11
-1.0069411e-12
1.4142798e-11
-1.9073019e-12
1.3469332e-11
-2.9554353e-12
1.2617335e-11
-4.0578629e-12
1.1556355e-11
-5.1846905e-12
1.034751e-11
-6.2805618e-12
9.007554e-12
-7.2729229e-12
7.5388519e-12
-8.1150853e-12
5.9785063e-12
-8.7641313e-12
4.3344693e-12
-9.1323856e-12
2.572905e-12
7.6920004e-13
-4.6047179e-13
-7.1723698e-13
5.2903896e-13
1.6468911e-12
1.7854769e-12
4.0869506e-12
3.1309893e-12
6.3281471e-12
4.4907047e-12
8.1947063e-12
5.8230262e-12
9.6200807e-12
7.2236523e-12
1.0588304e-11
8.7607875e-12
1.1524052e-11
1.0213209e-11
1.2398819e-11
1.160532e-11
1.3146563e-11
1.2969315e-11
1.3603315e-11
1.4277464e-11
1.3847211e-11
1.5363686e-11
1.3990486e-11
1.6197395e-11
1.3912389e-11
1.6764893e-11
1.357529e-11
1.7221635e-11
1.3012579e-11
1.7572261e-11
1.2266697e-11
1.7799973e-11
1.1328629e-11
1.7946382e-11
1.0201086e-11
1.8000519e-11
8.9534001e-12
1.7971575e-11
7.567777e-12
1.7911366e-11
6.038695e-12
1.7864277e-11
4.3815369e-12
1.7786625e-11
2.6505389e-12
9.129031e-13
4.9419525e-13
-1.49217e-12
1.7018357e-12
4.392046e-13
3.2653244e-12
2.5234274e-12
5.010177e-12
4.5832696e-12
6.8310535e-12
6.3738123e-12
8.655439e-12
7.7956834e-12
1.0568216e-11
8.6755198e-12
1.2329268e-11
9.7629958e-12
1.4200806e-11
1.0527281e-11
1.6131275e-11
1.1216095e-11
1.7897055e-11
1.1837538e-11
1.9623319e-11
1.2120951e-11
2.1343735e-11
1.2270075e-11
2.2999164e-11
1.2256965e-11
2.4524835e-11
1.2049625e-11
2.589649e-11
1.1640928e-11
2.7078372e-11
1.1084818e-11
2.8074089e-11
1.0332914e-11
2.8882613e-11
9.3925622e-12
2.9556201e-11
8.2798123e-12
3.0103249e-11
7.0207267e-12
3.0508817e-11
5.6331237e-12
3.0747715e-11
4.1426329e-12
3.0864025e-11
2.5342261e-12
8.1527469e-13
4.9799035e-13
-2.2510849e-12
1.6214583e-12
-6.8430732e-13
3.1029393e-12
1.0419133e-12
4.8274269e-12
2.8587579e-12
6.6796965e-12
4.5215261e-12
8.5614514e-12
5.9139178e-12
1.0413477e-11
6.8234881e-12
1.2463242e-11
7.7132292e-12
1.432537e-11
8.6651543e-12
1.6102459e-11
9.439009e-12
1.8102901e-11
9.8371022e-12
2.0040219e-11
1.018364e-11
2.1912233e-11
1.0398069e-11
2.3750983e-11
1.0418224e-11
2.5523233e-11
1.0277384e-11
2.7197399e-11
9.9667718e-12
2.8770431e-11
9.5117941e-12
3.0232862e-11
8.8704907e-12
3.1501283e-11
8.1241484e-12
3.2567516e-11
7.2135849e-12
3.344052e-11
6.1477267e-12
3.4121446e-11
4.9522006e-12
3.4626221e-11
3.6378593e-12
3.4927399e-11
2.2330527e-12
7.2901864e-13
2.8273565e-13
-2.8406021e-12
1.198217e-12
-1.5998316e-12
2.4166175e-12
-1.7652113e-13
3.9263741e-12
1.3489754e-12
5.6263194e-12
2.8215619e-12
7.3942577e-12
4.1459665e-12
9.0596728e-12
5.1580645e-12
1.0940436e-11
5.8324616e-12
1.2776555e-11
6.8290339e-12
1.4647265e-11
7.5682993e-12
1.645433e-11
8.0300413e-12
1.8299512e-11
8.3384619e-12
2.0226471e-11
8.4711168e-12
2.2119128e-11
8.5255747e-12
2.3937691e-11
8.4588282e-12
2.5665522e-11
8.238949e-12
2.729653e-11
7.8807945e-12
2.8780165e-11
7.3868643e-12
3.0141459e-11
6.7628616e-12
3.1339791e-11
6.0152594e-12
3.2349364e-11
5.1381598e-12
3.3159858e-11
4.1417116e-12
3.3760695e-11
3.0370249e-12
3.4139628e-11
1.8541264e-12
6.5607922e-13
1.0308556e-13
-3.2589761e-12
8.216998e-13
-2.3184853e-12
1.8003722e-12
-1.1552265e-12
3.0626912e-12
8.6629469e-14
4.5165562e-12
1.3676756e-12
6.10969e-12
2.5528167e-12
7.6806095e-12
3.5871334e-12
9.2970379e-12
4.2160251e-12
1.1032864e-11
5.0932025e-12
1.2798582e-11
5.8025795e-12
1.45632e-11
6.2654226e-12
1.6336641e-11
6.565023e-12
1.8075773e-11
6.7319883e-12
1.9807636e-11
6.7937162e-12
2.1521367e-11
6.745103e-12
2.3240769e-11
6.519553e-12
2.4812565e-11
6.3090052e-12
2.6274614e-11
5.9248217e-12
2.7604459e-11
5.4330232e-12
2.8788044e-11
4.8316807e-12
2.9790963e-11
4.135246e-12
3.0588739e-11
3.3439408e-12
3.1158617e-11
2.4671501e-12
3.1491802e-11
1.5209476e-12
4.4914546e-13
-1.9484523e-14
-3.5119071e-12
5.7187556e-13
-2.909883e-12
1.3955771e-12
-1.97896e-12
2.4284756e-12
-9.4629594e-13
3.6500199e-12
1.4610915e-13
5.0453513e-12
1.1574673e-12
6.5214769e-12
2.1109937e-12
7.9007235e-12
2.8367676e-12
9.541371e-12
3.4525471e-12
1.1170794e-11
4.1731512e-12
1.2816755e-11
4.6194586e-12
1.445976e-11
4.922017e-12
1.6085701e-11
5.1060472e-12
1.7700967e-11
5.1784525e-12
1.9289106e-11
5.1569664e-12
2.077139e-11
5.037273e-12
2.2230617e-11
4.849783e-12
2.3587615e-11
4.5678281e-12
2.4833271e-11
4.1873729e-12
2.5945583e-11
3.7193735e-12
2.6879977e-11
3.2008574e-12
2.7637015e-11
2.5869071e-12
2.8215189e-11
1.8889797e-12
2.8595273e-11
1.1408703e-12
4.1597983e-13
-3.6299908e-14
-3.727912e-12
4.1360392e-13
-3.359823e-12
1.0983153e-12
-2.6637028e-12
1.9673126e-12
-1.8153201e-12
3.0274388e-12
-9.1403989e-13
4.2052423e-12
-2.0355239e-14
5.5250306e-12
7.9118955e-13
6.8237733e-12
1.5380122e-12
8.2594095e-12
2.0169006e-12
9.7523741e-12
2.6801788e-12
1.1256525e-11
3.1153018e-12
1.2760196e-11
3.4183428e-12
1.424796e-11
3.6182815e-12
1.570378e-11
3.7226319e-12
1.7123585e-11
3.737162e-12
1.8481625e-11
3.6792353e-12
1.9785182e-11
3.5462286e-12
2.1007842e-11
3.3451715e-12
2.2119226e-11
3.0759925e-12
2.3098483e-11
2.7401212e-12
2.3947584e-11
2.3517605e-12
2.4623744e-11
1.9107509e-12
2.5069247e-11
1.4434794e-12
2.5327758e-11
8.823664e-13
2.0965764e-13
-4.2641599e-14
-3.920273e-12
2.8857618e-13
-3.6910755e-12
8.393971e-13
-3.2145544e-12
1.5853147e-12
-2.5612645e-12
2.4910179e-12
-1.8197662e-12
3.5257974e-12
-1.0551546e-12
4.6533277e-12
-3.3635764e-13
5.8841785e-12
3.0714721e-13
7.0594433e-12
8.4162397e-13
8.4252926e-12
1.3143199e-12
9.7824289e-12
1.758158e-12
1.1120675e-11
2.0800912e-12
1.2448594e-11
2.2903585e-12
1.3751135e-11
2.4200887e-12
1.5011438e-11
2.4768577e-12
1.6223235e-11
2.4674386e-12
1.7371314e-11
2.3981501e-12
1.8442178e-11
2.2743096e-12
1.9417888e-11
2.1002855e-12
2.027875e-11
1.8792626e-12
2.1018486e-11
1.6120276e-12
2.163705e-11
1.2921907e-12
2.2150085e-11
9.3044646e-13
2.2452724e-11
5.7973393e-13
2.4970031e-13
-9.2280521e-14
-4.0629264e-12
1.8547855e-13
-3.9688679e-12
6.2445946e-13
-3.6535652e-12
1.2415487e-12
-3.1783801e-12
2.0075166e-12
-2.5857573e-12
2.8931784e-12
-1.9408366e-12
3.8778878e-12
-1.3210845e-12
4.9204333e-12
-7.3541347e-13
5.9848115e-12
-2.2276709e-13
7.1528889e-12
1.4623161e-13
8.3346986e-12
5.7633932e-13
9.5281828e-12
8.8659982e-13
1.0691384e-11
1.1271518e-12
1.1825072e-11
1.2863972e-12
1.2922028e-11
1.3798987e-12
1.3972926e-11
1.4165391e-12
1.4965532e-11
1.4055442e-12
1.5888438e-11
1.3514048e-12
1.6728768e-11
1.2599566e-12
1.7475026e-11
1.1330074e-12
1.8114473e-11
9.7258278e-13
1.8610314e-11
7.9635317e-13
1.8949964e-11
5.9079837e-13
1.9173834e-11
3.5586939e-13
9.7038826e-14
-1.4279969e-13
-4.1558582e-12
7.2607845e-14
-4.1843073e-12
4.2255042e-13
-4.0035364e-12
9.1552447e-13
-3.6713798e-12
1.54558e-12