/*--------------------------------*- C++ -*----------------------------------*\
| =========                 |                                                 |
| \\      /  F ield         | OpenFOAM: The Open Source CFD Toolbox           |
|  \\    /   O peration     | Version:  4.0                                   |
|   \\  /    A nd           | Web:      www.OpenFOAM.org                      |
|    \\/     M anipulation  |                                                 |
\*---------------------------------------------------------------------------*/
FoamFile
{
    version     2.0;
    format      ascii;
    class       volVectorField;
    location    "0.09";
    object      U;
}
// * * * * * * * * * * * * * * * * * * * * * * * * * * * * * * * * * * * * * //

dimensions      [0 1 -1 0 0 0 0];

internalField   nonuniform List<vector> 
1740
(
(1.45937 -0.0092706336 5.5399145e-06)
(1.486776 -0.015417647 9.0701877e-07)
(1.6366301 -0.0083957399 7.3533919e-08)
(1.5854363 -0.0073758084 7.8189646e-06)
(1.4981659 -0.024297149 1.5274085e-06)
(1.6341525 -0.017572338 2.9290897e-07)
(1.5574161 0.0049629383 1.1525614e-05)
(1.544085 -0.0092272207 2.5344874e-06)
(1.5883897 -0.0089843098 4.0104743e-07)
(1.5418267 -8.9370512e-05 1.3747254e-05)
(1.5225759 -0.00010767701 3.5542294e-06)
(1.6733582 -0.0053553648 6.0606866e-07)
(1.5613328 0.010487411 1.5366827e-05)
(1.4761663 -0.0049223434 4.3933315e-06)
(1.5655113 -0.0090584556 8.1863505e-07)
(1.4609318 0.015742764 1.6325151e-05)
(1.5759835 -0.0015472363 5.0788213e-06)
(1.593735 -0.008809311 9.0289592e-07)
(1.4374781 -0.017956234 1.6876522e-05)
(1.6866252 -0.019369047 5.821545e-06)
(1.5874561 -0.011473963 1.196353e-06)
(1.5691105 -0.03174405 1.7416591e-05)
(1.6099485 -0.017849229 6.4234981e-06)
(1.5001108 -0.0020198311 1.350546e-06)
(1.6197284 -0.0023432897 1.837932e-05)
(1.5563183 0.0028512461 7.0851563e-06)
(1.547904 0.0012874068 1.4919778e-06)
(1.4997327 -2.5444696e-05 1.911275e-05)
(1.646652 0.0062066962 7.7045431e-06)
(1.5498904 -0.00023732071 1.7448248e-06)
(1.5788186 -0.016368633 1.9691305e-05)
(1.6035677 0.0052283121 8.4051301e-06)
(1.4996513 0.0066756786 1.9181306e-06)
(1.5802736 -0.0010446386 2.0260936e-05)
(1.5821665 0.0092409731 8.8992494e-06)
(1.5654612 0.0072374405 2.0868861e-06)
(1.533082 -0.012091809 2.0300658e-05)
(1.5989379 -0.0080461352 9.5570206e-06)
(1.6036384 -0.0017779757 2.3219886e-06)
(1.6599767 -0.015621332 2.0113201e-05)
(1.5343989 -0.021316816 9.9190264e-06)
(1.5403624 -0.012839035 2.49918e-06)
(1.7392758 0.0054008716 2.0355827e-05)
(1.5598147 -0.0016011579 1.0522672e-05)
(1.5459072 -0.0068338181 2.7073363e-06)
(1.6318266 0.031841571 2.0634507e-05)
(1.5298221 0.021656484 1.0905397e-05)
(1.5303139 0.00031130329 2.8421483e-06)
(1.5240203 0.031190437 2.0838943e-05)
(1.6126459 0.020855895 1.1232373e-05)
(1.5782476 -0.0027381962 3.0637811e-06)
(1.5172597 0.0046749075 2.1436372e-05)
(1.6247287 -0.0082662899 1.1770403e-05)
(1.5820873 -0.0094982317 3.2345244e-06)
(1.5200372 -0.0040017366 2.1723243e-05)
(1.6275571 -0.016461461 1.2214713e-05)
(1.5225279 -0.0067446728 3.4099165e-06)
(1.5229437 -0.016367359 2.1858435e-05)
(1.6392543 0.0063462252 1.2572473e-05)
(1.5291171 0.0066612219 3.583589e-06)
(1.5508122 -0.012139806 2.1768353e-05)
(1.5682696 0.0054081921 1.2878885e-05)
(1.5522479 0.012957984 3.7416187e-06)
(1.5562015 -0.0084166358 2.1907238e-05)
(1.5683768 -0.011154362 1.3189729e-05)
(1.5592264 -0.0049410764 3.9368477e-06)
(1.6234783 -0.0033757888 2.216421e-05)
(1.6420706 -0.017000265 1.3511003e-05)
(1.5372479 -0.0081354834 4.1203576e-06)
(1.6129842 0.0023111242 2.2218031e-05)
(1.632409 0.011082517 1.3844165e-05)
(1.5294968 0.008431328 4.2729197e-06)
(1.5206483 0.0078742417 2.2092134e-05)
(1.5161084 0.019058642 1.4066144e-05)
(1.5118757 0.0075131289 4.4190257e-06)
(1.5591943 -0.0039674201 2.2251206e-05)
(1.588439 -0.0062292168 1.4401114e-05)
(1.5720901 -0.0049750302 4.5285002e-06)
(1.6240332 -0.015839192 2.2433289e-05)
(1.5671996 -0.020631714 1.4699899e-05)
(1.5697814 -0.0065704878 4.6788363e-06)
(1.6381642 0.006597694 2.2641186e-05)
(1.4860338 -0.0035798758 1.4952636e-05)
(1.4865936 -0.002835072 4.8363695e-06)
(1.4813614 0.025043923 2.2196341e-05)
(1.4771266 0.016257089 1.5096811e-05)
(1.5178984 0.00088935304 4.8233095e-06)
(1.2649754 0.043663641 2.340238e-05)
(1.3142687 0.10251708 1.566924e-05)
(1.4049821 0.055306405 5.5379083e-06)
(0.82729187 0.36209565 1.1617125e-05)
(0.80575022 0.93101277 9.9322708e-06)
(0.73663255 1.2533536 5.3930041e-06)
(0.22149358 0.1123432 1.5184142e-06)
(0.18987029 0.36722611 3.1312329e-06)
(0.092025518 0.50634279 7.2384351e-07)
(-0.030372327 -0.013955486 1.2476303e-06)
(-0.02770319 -0.028290705 1.7452952e-06)
(-0.018448699 -0.03210456 6.7999943e-07)
(-0.0067227516 -0.003263753 4.9055668e-07)
(-0.0065356706 -0.0083004042 8.2302868e-07)
(-0.0055649582 -0.011126937 4.6264386e-07)
(-0.0012040987 -0.00046621478 1.5486406e-07)
(-0.001256507 -0.0012515331 3.2202752e-07)
(-0.0010814847 -0.0018936097 2.2611375e-07)
(-0.00052791918 -3.1590465e-05 4.5582613e-08)
(-0.00049362399 -8.5553501e-05 1.1309149e-07)
(-0.00033977466 -0.00014930586 9.1016619e-08)
(-0.0002491825 3.4090089e-05 9.5183538e-09)
(-0.00021023167 0.00010905867 3.2607964e-08)
(-0.0001101024 0.00018729544 2.864928e-08)
(-0.00022567743 3.6238081e-05 -6.5772619e-10)
(-0.0001887726 8.2767793e-05 5.6261266e-09)
(-0.00011019667 0.00012605137 5.0938464e-09)
(-0.00023652534 9.8305975e-07 -1.2536695e-09)
(-0.00020492288 8.464582e-06 -1.3209755e-10)
(-0.00014198676 1.8640334e-05 -4.1140226e-10)
(-0.00022783086 -1.6428233e-05 1.0419959e-11)
(-0.00020252022 -3.2126035e-05 1.5515115e-10)
(-0.00015236657 -4.6755376e-05 -2.1447341e-10)
(-0.00019616159 -1.6895839e-05 5.7073503e-10)
(-0.00017679474 -3.6449428e-05 7.4326644e-10)
(-0.00013808021 -5.3212e-05 4.6568528e-10)
(-0.00016002063 -1.1980428e-05 4.2898742e-10)
(-0.00014545478 -2.7697376e-05 6.5434123e-10)
(-0.00011609103 -3.8955202e-05 5.6093956e-10)
(-0.00013167412 -7.8430855e-06 1.5089461e-10)
(-0.00012051272 -1.6790825e-05 3.1734388e-10)
(-9.762509e-05 -2.3617581e-05 3.4153839e-10)
(-0.00011143037 -5.1296269e-06 -3.9731261e-11)
(-0.00010265526 -1.0285776e-05 3.9890737e-11)
(-8.4452434e-05 -1.3025778e-05 1.1007213e-10)
(-9.6576566e-05 -3.6062113e-06 -1.1539113e-10)
(-8.9674716e-05 -6.7732428e-06 -9.7818301e-11)
(-7.5198464e-05 -8.7079474e-06 -2.2661762e-11)
(-8.5472926e-05 -2.8157955e-06 -1.1467398e-10)
(-8.0069456e-05 -5.1550948e-06 -1.2520124e-10)
(-6.8589434e-05 -6.7816025e-06 -6.3427394e-11)
(-7.7004995e-05 -2.3292626e-06 -8.9486362e-11)
(-7.276291e-05 -4.3010855e-06 -1.040438e-10)
(-6.3619883e-05 -5.7940163e-06 -5.6953454e-11)
(-7.0360951e-05 -1.9550526e-06 -6.6100565e-11)
(-6.700936e-05 -3.6645978e-06 -7.6990814e-11)
(-5.967739e-05 -5.0726004e-06 -3.8512424e-11)
(-6.5049685e-05 -1.6170555e-06 -5.2470886e-11)
(-6.2382471e-05 -3.0482261e-06 -6.0626159e-11)
(-5.6458428e-05 -4.2694999e-06 -2.5800007e-11)
(-6.0757885e-05 -1.3208568e-06 -4.6004785e-11)
(-5.8621042e-05 -2.4956433e-06 -5.396784e-11)
(-5.3796529e-05 -3.5068551e-06 -2.1279858e-11)
(-5.7255106e-05 -1.0807211e-06 -4.2666583e-11)
(-5.5532928e-05 -2.0561994e-06 -5.243954e-11)
(-5.1571446e-05 -2.9307108e-06 -2.1745664e-11)
(-5.4359156e-05 -9.7443178e-07 -4.0254713e-11)
(-5.2960774e-05 -1.7877019e-06 -5.2557905e-11)
(-4.967963e-05 -2.5355411e-06 -2.4263655e-11)
(-5.1912173e-05 -8.3629903e-07 -3.7781418e-11)
(-5.0768109e-05 -1.5616733e-06 -5.176816e-11)
(-4.8027239e-05 -2.2769904e-06 -2.6178052e-11)
(-4.9780612e-05 -7.4358646e-07 -3.5050024e-11)
(-4.884058e-05 -1.4154044e-06 -4.9544191e-11)
(-4.653371e-05 -2.1066942e-06 -2.6618147e-11)
(-4.7869484e-05 -6.7953142e-07 -3.2475866e-11)
(-4.709397e-05 -1.3232173e-06 -4.6053674e-11)
(-4.5138434e-05 -2.0046005e-06 -2.5563808e-11)
(-4.611412e-05 -6.2358979e-07 -3.0772223e-11)
(-4.5470938e-05 -1.2531604e-06 -4.1855562e-11)
(-4.3800705e-05 -1.9479126e-06 -2.344011e-11)
(-4.4468113e-05 -5.8995162e-07 -2.913754e-11)
(-4.3931764e-05 -1.1557897e-06 -3.9745293e-11)
(-4.2494692e-05 -1.8191876e-06 -2.2531223e-11)
(-4.2899902e-05 -5.6637075e-07 -2.8145913e-11)
(-4.2450528e-05 -1.133241e-06 -3.7730623e-11)
(-4.1205366e-05 -1.7405922e-06 -2.1902424e-11)
(-4.1389308e-05 -5.4051966e-07 -2.7793726e-11)
(-4.1011394e-05 -1.1001614e-06 -3.6503862e-11)
(-3.9925221e-05 -1.7282782e-06 -2.1364355e-11)
(-3.992354e-05 -5.1086093e-07 -2.7209541e-11)
(-3.9604297e-05 -1.0446579e-06 -3.4982579e-11)
(-3.8650638e-05 -1.6582884e-06 -2.0729072e-11)
(-3.8494261e-05 -5.0974516e-07 -2.6258189e-11)
(-3.8223361e-05 -1.0579234e-06 -3.3205432e-11)
(-3.7380804e-05 -1.6888335e-06 -1.9909879e-11)
(-3.7097467e-05 -5.0115544e-07 -2.5516721e-11)
(-3.6866776e-05 -1.0528522e-06 -3.1624096e-11)
(-3.6118183e-05 -1.6840015e-06 -1.9145116e-11)
(-3.5733999e-05 -4.8596711e-07 -2.4912533e-11)
(-3.5536881e-05 -1.0295961e-06 -3.0267333e-11)
(-3.4868259e-05 -1.6504533e-06 -1.8482769e-11)
(-3.4408464e-05 -4.6778229e-07 -2.4342526e-11)
(-3.4239454e-05 -9.9857487e-07 -2.9045353e-11)
(-3.3639245e-05 -1.6052881e-06 -1.7880534e-11)
(-3.3127623e-05 -4.4760734e-07 -2.3810809e-11)
(-3.298222e-05 -9.6211139e-07 -2.7970376e-11)
(-3.2440789e-05 -1.5501884e-06 -1.7383762e-11)
(-3.1898835e-05 -4.258583e-07 -2.331813e-11)
(-3.1773316e-05 -9.2116814e-07 -2.7034575e-11)
(-3.1282565e-05 -1.4861928e-06 -1.6979187e-11)
(-3.0729047e-05 -4.0286446e-07 -2.2850997e-11)
(-3.0620339e-05 -8.7667133e-07 -2.6209813e-11)
(-3.0173456e-05 -1.4165744e-06 -1.6643579e-11)
(-2.9624483e-05 -3.7883235e-07 -2.2405904e-11)
(-2.9530041e-05 -8.2663345e-07 -2.5462637e-11)
(-2.9121256e-05 -1.3358891e-06 -1.6354011e-11)
(-2.8590617e-05 -3.5264713e-07 -2.201517e-11)
(-2.8508297e-05 -7.7146605e-07 -2.4828399e-11)
(-2.8132629e-05 -1.2474855e-06 -1.6099797e-11)
(-2.763216e-05 -3.249405e-07 -2.1643608e-11)
(-2.7560124e-05 -7.1294627e-07 -2.426247e-11)
(-2.7213196e-05 -1.1537728e-06 -1.586889e-11)
(-2.6753017e-05 -2.961405e-07 -2.1304574e-11)
(-2.6689691e-05 -6.5172126e-07 -2.3774674e-11)
(-2.636762e-05 -1.0554245e-06 -1.5685701e-11)
(-2.5956245e-05 -2.6662965e-07 -2.1030893e-11)
(-2.5900281e-05 -5.8791333e-07 -2.3410302e-11)
(-2.5599623e-05 -9.5247804e-07 -1.5594769e-11)
(-2.5244199e-05 -2.364664e-07 -2.0867829e-11)
(-2.5194423e-05 -5.2177389e-07 -2.3223206e-11)
(-2.4912104e-05 -8.4546742e-07 -1.5627504e-11)
(-2.4619048e-05 -2.0545129e-07 -2.079643e-11)
(-2.4574422e-05 -4.5355746e-07 -2.318057e-11)
(-2.4307634e-05 -7.3523944e-07 -1.577104e-11)
(-2.408311e-05 -1.7389282e-07 -2.0760976e-11)
(-2.4042715e-05 -3.8441268e-07 -2.3212813e-11)
(-2.3788862e-05 -6.2308672e-07 -1.5988701e-11)
(-2.3639066e-05 -1.401575e-07 -2.0918764e-11)
(-2.3602081e-05 -3.0933257e-07 -2.3469858e-11)
(-2.335875e-05 -5.0120294e-07 -1.6351048e-11)
(-2.3291927e-05 -1.0568202e-07 -2.1222571e-11)
(-2.325761e-05 -2.3236251e-07 -2.3814537e-11)
(-2.3022506e-05 -3.7523013e-07 -1.6688913e-11)
(-2.3033811e-05 -7.3741911e-08 -2.1563945e-11)
(-2.3001408e-05 -1.6082247e-07 -2.3897206e-11)
(-2.2772368e-05 -2.6086548e-07 -1.6611742e-11)
(-2.291627e-05 -3.3876031e-08 -2.1508132e-11)
(-2.28852e-05 -6.9235505e-08 -2.2763734e-11)
(-2.2659817e-05 -1.2236472e-07 -1.5264828e-11)
(-2.283588e-05 -4.5286726e-09 -1.841852e-11)
(-2.280509e-05 -6.2609297e-09 -1.7354428e-11)
(-2.2581353e-05 -3.8062831e-09 -1.0822295e-11)
(-0.046232079 1.9608059 -3.56489e-07)
(-0.033068341 1.7051727 -3.4374165e-06)
(-0.060903384 0.34890649 -2.346517e-07)
(-0.042785978 0.15706852 -9.8376953e-07)
(-0.014205614 -0.03934109 -8.0878511e-08)
(-0.010974215 -0.041959347 -4.8426268e-07)
(-0.0049050653 -0.013577634 5.9309333e-08)
(-0.0045067667 -0.014836841 -2.0778244e-07)
(-0.0009921518 -0.0027285883 5.1187282e-08)
(-0.00088297104 -0.0036068819 -9.3263635e-08)
(-0.00016894008 -0.0002629294 2.1217899e-08)
(6.0278083e-06 -0.00044705145 -4.8255345e-08)
(4.4202835e-06 0.00026381455 2.2699883e-09)
(0.00010188551 0.00033392348 -2.7900385e-08)
(-1.9173437e-05 0.00021348905 -4.1270415e-09)
(6.1874655e-05 0.00032040814 -1.5835578e-08)
(-6.9044967e-05 4.5438803e-05 -3.5042695e-09)
(-2.2867678e-06 8.4847894e-05 -7.5474599e-09)
(-9.3394195e-05 -5.4410091e-05 -1.357113e-09)
(-3.7817392e-05 -5.4202923e-05 -2.7243114e-09)
(-9.1340799e-05 -6.8477781e-05 -2.770358e-11)
(-4.5800596e-05 -7.9584029e-05 -5.3220085e-10)
(-7.9569401e-05 -4.7638253e-05 3.5732747e-10)
(-4.2849199e-05 -5.4436739e-05 1.572144e-10)
(-6.8620364e-05 -2.6507459e-05 2.8644189e-10)
(-3.8634244e-05 -2.6939533e-05 2.1834174e-10)
(-6.1077358e-05 -1.3947066e-05 1.2553488e-10)
(-3.6329148e-05 -1.1701919e-05 1.1701665e-10)
(-5.6350665e-05 -8.3493505e-06 1.6518348e-11)
(-3.5961116e-05 -4.9038361e-06 3.2141173e-11)
(-5.3400114e-05 -5.3745862e-06 -2.4426949e-11)
(-3.6608233e-05 -3.2492825e-06 -2.4986776e-12)
(-5.1347826e-05 -4.8555557e-06 -2.5520434e-11)
(-3.750645e-05 -3.4258084e-06 -5.5337075e-12)
(-4.9718098e-05 -4.7296759e-06 -1.3907229e-11)
(-3.8291904e-05 -3.4088913e-06 1.2257637e-12)
(-4.8329859e-05 -4.2302162e-06 -4.5156609e-12)
(-3.8864236e-05 -2.9588376e-06 7.2316494e-12)
(-4.7117241e-05 -3.6779671e-06 -1.0704833e-12)
(-3.923625e-05 -2.6776905e-06 9.3203336e-12)
(-4.6042666e-05 -3.1716208e-06 -2.35246e-12)
(-3.9442957e-05 -2.3440778e-06 7.6958219e-12)
(-4.5068031e-05 -2.7376416e-06 -5.9791977e-12)
(-3.9506548e-05 -2.1660132e-06 4.3363473e-12)
(-4.415113e-05 -2.5173877e-06 -9.0585092e-12)
(-3.9434405e-05 -2.1172244e-06 1.0189642e-12)
(-4.3252371e-05 -2.4128586e-06 -1.0782132e-11)
(-3.92268e-05 -2.1323004e-06 -1.3329123e-12)
(-4.2341542e-05 -2.3661926e-06 -1.1155146e-11)
(-3.8884484e-05 -2.2410727e-06 -2.4237511e-12)
(-4.1400206e-05 -2.3501281e-06 -1.0630596e-11)
(-3.8412875e-05 -2.3608479e-06 -2.7633456e-12)
(-4.0420134e-05 -2.3030644e-06 -1.0340386e-11)
(-3.7822647e-05 -2.451618e-06 -2.9585996e-12)
(-3.9400491e-05 -2.2017382e-06 -1.0528048e-11)
(-3.7128105e-05 -2.4533683e-06 -3.4953902e-12)
(-3.8344661e-05 -2.1416259e-06 -1.0658909e-11)
(-3.6344822e-05 -2.4007068e-06 -3.9659229e-12)
(-3.7257956e-05 -2.2076878e-06 -1.0505099e-11)
(-3.5487739e-05 -2.5616232e-06 -4.1726948e-12)
(-3.6146635e-05 -2.2400242e-06 -1.0300111e-11)
(-3.457113e-05 -2.6352449e-06 -4.2962246e-12)
(-3.5018437e-05 -2.2303485e-06 -1.0094308e-11)
(-3.3609255e-05 -2.6457789e-06 -4.4028105e-12)
(-3.3883315e-05 -2.1974189e-06 -9.900411e-12)
(-3.2616913e-05 -2.6254849e-06 -4.4831275e-12)
(-3.2752905e-05 -2.1509037e-06 -9.7226644e-12)
(-3.1609675e-05 -2.5861492e-06 -4.5527754e-12)
(-3.1639503e-05 -2.0882349e-06 -9.6074988e-12)
(-3.060301e-05 -2.5330266e-06 -4.6470725e-12)
(-3.0554899e-05 -2.0110425e-06 -9.5562715e-12)
(-2.9611254e-05 -2.4609734e-06 -4.7857375e-12)
(-2.9509733e-05 -1.920776e-06 -9.5533615e-12)
(-2.8647053e-05 -2.3544367e-06 -4.9638394e-12)
(-2.8513215e-05 -1.8128873e-06 -9.5797023e-12)
(-2.7721235e-05 -2.2273797e-06 -5.1576076e-12)
(-2.757311e-05 -1.6949501e-06 -9.5949773e-12)
(-2.684291e-05 -2.0881099e-06 -5.324184e-12)
(-2.6695908e-05 -1.5696686e-06 -9.5968476e-12)
(-2.6019654e-05 -1.941244e-06 -5.4585881e-12)
(-2.5886953e-05 -1.4377372e-06 -9.6186175e-12)
(-2.5257629e-05 -1.7840857e-06 -5.5933647e-12)
(-2.5150555e-05 -1.299394e-06 -9.7003318e-12)
(-2.4561796e-05 -1.6168274e-06 -5.7620895e-12)
(-2.4490137e-05 -1.1543754e-06 -9.8585348e-12)
(-2.3936206e-05 -1.4404741e-06 -5.9791649e-12)
(-2.3908667e-05 -1.0049067e-06 -1.0096574e-11)
(-2.3384358e-05 -1.2545358e-06 -6.2557575e-12)
(-2.3409083e-05 -8.5182746e-07 -1.0398685e-11)
(-2.2909535e-05 -1.0629159e-06 -6.5822282e-12)
(-2.299459e-05 -6.8703863e-07 -1.0785781e-11)
(-2.2515208e-05 -8.5886603e-07 -6.9609681e-12)
(-2.2670579e-05 -5.1437104e-07 -1.1108719e-11)
(-2.2206976e-05 -6.4591827e-07 -7.2768746e-12)
(-2.2429468e-05 -3.4884304e-07 -1.105278e-11)
(-2.1977527e-05 -4.2610059e-07 -7.3041077e-12)
(-2.2322225e-05 -1.70815e-07 -9.9863076e-12)
(-2.1877145e-05 -2.0918078e-07 -6.5958885e-12)
(-2.224633e-05 -3.1191627e-09 -6.8656356e-12)
(-2.1804531e-05 -1.0257849e-08 -4.4862845e-12)
(-3.8617603e-06 2.7431689e-05 -1.9427828e-08)
(-6.7115453e-05 4.2734206e-05 -4.4457998e-08)
(-0.00016555253 9.9822021e-05 -5.9963733e-08)
(-0.00025347394 0.00012868449 -6.7260539e-08)
(-0.00031620292 0.00016572997 -6.8133475e-08)
(-0.00035687351 0.00018198854 -6.4591366e-08)
(-0.00038235154 0.00019288904 -5.8658776e-08)
(-0.00039043768 0.00019423385 -5.1830891e-08)
(-0.00038574556 0.0001863207 -4.4934642e-08)
(-0.00037164278 0.00016990422 -3.8380063e-08)
(-0.00035039508 0.00014672903 -3.2361869e-08)
(-0.00032391868 0.00011727711 -2.6954352e-08)
(-0.00029415527 8.367859e-05 -2.2155328e-08)
(-0.00026283425 4.726216e-05 -1.7909563e-08)
(-0.00023126901 1.0163255e-05 -1.4175519e-08)
(-0.0002004426 -2.6164196e-05 -1.0934497e-08)
(-0.00017104944 -6.0488257e-05 -8.1765572e-09)
(-0.00014354307 -9.236514e-05 -5.8806936e-09)
(-0.0001181676 -0.000120707 -4.0061455e-09)
(-9.4992651e-05 -0.00014481022 -2.5325601e-09)
(-7.394238e-05 -0.00016461532 -1.4190189e-09)
(-5.4829921e-05 -0.00017905646 -6.3642381e-10)
(-3.741124e-05 -0.00018897025 -1.5122922e-10)
(-2.1456843e-05 -0.00019293283 9.5915182e-11)
(-6.929244e-06 -0.00018735621 1.7021163e-10)
(0.0001023594 -8.28822e-05 -3.3847262e-08)
(8.25999e-05 -0.00038377832 -7.6095454e-08)
(8.0243247e-05 -0.00052313952 -1.0095961e-07)
(9.5962515e-05 -0.00076547816 -1.1123097e-07)
(0.00012205879 -0.00096488718 -1.1087981e-07)
(0.0001528586 -0.0012072277 -1.0448303e-07)
(0.00018844731 -0.0014468894 -9.5361861e-08)
(0.00021972626 -0.0016896154 -8.5464698e-08)
(0.00024443056 -0.0019469813 -7.5594771e-08)
(0.0002609766 -0.0022089959 -6.6149926e-08)
(0.00026944016 -0.0024570073 -5.7402017e-08)
(0.00027049413 -0.0026905976 -4.9427139e-08)
(0.00026475519 -0.002906621 -4.220576e-08)
(0.00025334873 -0.0031012569 -3.5604789e-08)
(0.0002375928 -0.0032713129 -2.955529e-08)
(0.00021851411 -0.0034153667 -2.4051975e-08)
(0.00019703495 -0.0035320916 -1.9124383e-08)
(0.00017396279 -0.0036209671 -1.4802638e-08)
(0.00014997727 -0.0036824583 -1.1035776e-08)
(0.00012563275 -0.0037167356 -7.894237e-09)
(0.00010135637 -0.0037249774 -5.3397328e-09)
(7.7466051e-05 -0.0037094822 -3.3746751e-09)
(5.4163818e-05 -0.0036765893 -1.9561875e-09)
(3.138633e-05 -0.0036139143 -9.4055501e-10)
(9.087389e-06 -0.0034638258 -2.6902302e-10)
(0.00080097838 -0.00036470769 -6.993012e-08)
(0.000825792 -0.0016482707 -1.5137815e-07)
(0.00089191368 -0.0022005528 -1.9340367e-07)
(0.00097527683 -0.0031039099 -2.0433262e-07)
(0.0010459891 -0.0038404978 -1.9771455e-07)
(0.0010954736 -0.0046038494 -1.8406909e-07)
(0.0011228379 -0.0053587948 -1.6822762e-07)
(0.0011215476 -0.0061840985 -1.5258658e-07)
(0.0010975583 -0.0071371516 -1.3734441e-07)
(0.0010566556 -0.0081257553 -1.2267139e-07)
(0.0010021618 -0.0089991903 -1.0920245e-07)
(0.00093818793 -0.0097402201 -9.6905455e-08)
(0.00086715243 -0.010352229 -8.574497e-08)
(0.0007913689 -0.010839791 -7.5303296e-08)
(0.00071245841 -0.011209657 -6.5404737e-08)
(0.00063226507 -0.011471773 -5.6022238e-08)
(0.00055234733 -0.011633243 -4.7206678e-08)
(0.00047408622 -0.011701958 -3.9124241e-08)
(0.00039849997 -0.011689198 -3.1520159e-08)
(0.00032629592 -0.011602851 -2.4711847e-08)
(0.00025796558 -0.011453038 -1.8750507e-08)
(0.00019371878 -0.011251433 -1.3728173e-08)
(0.00013351866 -0.011012669 -9.6266705e-09)
(7.6856967e-05 -0.010693491 -5.9562707e-09)
(2.3593115e-05 -0.010226852 -2.6359056e-09)
(0.0033686618 -0.0010800522 -1.5042685e-07)
(0.0034337912 -0.0048402978 -3.0030694e-07)
(0.0034433914 -0.0062346487 -3.5757646e-07)
(0.0033299304 -0.0095331299 -3.5669558e-07)
(0.0031691918 -0.012519881 -3.3393436e-07)
(0.0029571839 -0.015201042 -3.0705713e-07)
(0.0027188021 -0.017184528 -2.8037871e-07)
(0.0024674181 -0.01845608 -2.5731948e-07)
(0.0022185905 -0.018998844 -2.3561056e-07)
(0.00197811 -0.019071046 -2.1366895e-07)
(0.0017480814 -0.01881449 -1.9391488e-07)
(0.00153728 -0.018345992 -1.7583501e-07)
(0.0013422583 -0.017732073 -1.5983773e-07)
(0.0011616339 -0.01699952 -1.4465794e-07)
(0.00099075086 -0.016189674 -1.2996942e-07)
(0.00083680313 -0.015349041 -1.157651e-07)
(0.0006992168 -0.014510818 -1.0204647e-07)
(0.00057672613 -0.013699576 -8.8828707e-08)
(0.00046793135 -0.012934212 -7.6090533e-08)
(0.00037140131 -0.012226822 -6.39555e-08)
(0.00028575435 -0.011586471 -5.252761e-08)
(0.00020964509 -0.011017558 -4.194809e-08)
(0.00014196463 -0.010529655 -3.2799582e-08)
(8.1422921e-05 -0.010041676 -2.3568006e-08)
(2.7594774e-05 -0.0095437491 -1.3604439e-08)
(0.011431364 -0.0087212239 -3.37591e-07)
(0.0091579884 -0.025690543 -5.6703599e-07)
(0.0079707257 -0.02816903 -6.1189282e-07)
(0.006295927 -0.032468253 -5.8806866e-07)
(0.0049333793 -0.030116513 -5.4470794e-07)
(0.0037445178 -0.02649089 -4.9807758e-07)
(0.0027455722 -0.021930049 -4.5387538e-07)
(0.0019479643 -0.017151373 -4.126491e-07)
(0.0013239542 -0.012358357 -3.7780969e-07)
(0.00084237405 -0.0078511966 -3.4617155e-07)
(0.00047921298 -0.0037847089 -3.1720415e-07)
(0.00020761807 -0.00024542025 -2.8966272e-07)
(1.4010279e-05 0.0028096417 -2.6729538e-07)
(-0.00011937306 0.0056267156 -2.4569481e-07)
(-0.00020065063 0.0082235164 -2.2453454e-07)
(-0.00024582713 0.010520063 -2.041116e-07)
(-0.00026317614 0.012430864 -1.8436133e-07)
(-0.00025964079 0.013956811 -1.6520672e-07)
(-0.0002410097 0.015120518 -1.4659512e-07)
(-0.00021199541 0.015953268 -1.2851976e-07)
(-0.00017631141 0.016482213 -1.1093038e-07)
(-0.00013691161 0.016750201 -9.3475234e-08)
(-9.5594187e-05 0.016749546 -7.9003714e-08)
(-5.424313e-05 0.016621558 -6.4068366e-08)
(-1.1264072e-05 0.015956154 -5.1821089e-08)
(0.013986036 0.024451172 -7.427644e-07)
(0.0032456181 -0.00016151639 -1.0307442e-06)
(0.00074746728 0.049430561 -1.0209941e-06)
(-0.0009883114 0.052401666 -9.4123907e-07)
(-0.0025275929 0.066580644 -8.6215407e-07)
(-0.0036860219 0.076881388 -7.7618747e-07)
(-0.0043297337 0.083998123 -6.9876643e-07)
(-0.0045186315 0.089952854 -6.3045038e-07)
(-0.0044278002 0.094363075 -5.7013292e-07)
(-0.0041920388 0.097121506 -5.1758041e-07)
(-0.0038825427 0.098600988 -4.7203941e-07)
(-0.0035254922 0.099049097 -4.2416476e-07)
(-0.0031652223 0.098794684 -3.9479746e-07)
(-0.002819964 0.097768123 -3.627504e-07)
(-0.0024685385 0.095896258 -3.3088365e-07)
(-0.0021304179 0.093581398 -3.015928e-07)
(-0.0018142799 0.091031262 -2.7397909e-07)
(-0.0015217427 0.08835626 -2.4766808e-07)
(-0.0012530459 0.085628536 -2.2246859e-07)
(-0.0010075139 0.082908185 -1.9827935e-07)
(-0.00078375816 0.080215851 -1.7503657e-07)
(-0.00058005414 0.077630239 -1.5258178e-07)
(-0.00039390534 0.075004595 -1.3154189e-07)
(-0.00022420713 0.07285292 -1.1160465e-07)
(-6.4180135e-05 0.069127069 -9.0479806e-08)
(-0.001960952 1.1793229 -2.5048189e-06)
(-0.0010196091 0.96510656 -1.994644e-06)
(-0.0011668773 0.86865746 -1.6176157e-06)
(-0.0008188874 0.77577593 -1.3223894e-06)
(-0.00069399816 0.67976795 -1.0983863e-06)
(-0.00059479852 0.58864541 -9.3283844e-07)
(-0.00049935318 0.51048965 -8.0968117e-07)
(-0.00041757751 0.44697398 -7.1659361e-07)
(-0.00034860716 0.39464261 -6.395081e-07)
(-0.00028748012 0.35005154 -5.7848018e-07)
(-0.00023890845 0.31159697 -5.2895348e-07)
(-0.00019613716 0.2785472 -4.8407445e-07)
(-0.00015811337 0.25036732 -4.4481176e-07)
(-0.00012640632 0.22631039 -4.0898158e-07)
(-0.00010474285 0.20570096 -3.755083e-07)
(-8.6080582e-05 0.18804528 -3.4389652e-07)
(-7.0038065e-05 0.17291831 -3.1371102e-07)
(-5.6336764e-05 0.1599537 -2.8471539e-07)
(-4.4622182e-05 0.14883427 -2.5682472e-07)
(-3.4630577e-05 0.13931073 -2.3002176e-07)
(-2.6231742e-05 0.13112438 -2.0432419e-07)
(-1.8977565e-05 0.1242048 -1.796526e-07)
(-1.2575468e-05 0.11805692 -1.5613079e-07)
(-6.9665551e-06 0.11357869 -1.3468316e-07)
(-1.8755e-06 0.10710706 -1.0862911e-07)
(-0.0127372 0.094390231 -1.1724352e-06)
(-0.0024100538 0.10137925 -1.198895e-06)
(-0.0001571302 0.10688048 -1.1434562e-06)
(0.0014507307 0.10805478 -1.0476975e-06)
(0.0028750974 0.1099147 -9.4303916e-07)
(0.0039460733 0.1113932 -8.4179205e-07)
(0.0045276629 0.11287831 -7.5149407e-07)
(0.0046725593 0.1143157 -6.721635e-07)
(0.0045226896 0.11499765 -5.873546e-07)
(0.004250484 0.11493172 -5.4348816e-07)
(0.0039510307 0.11418109 -4.9746141e-07)
(0.00360597 0.11264977 -4.4950673e-07)
(0.0032291132 0.11054896 -4.084649e-07)
(0.0028536111 0.10770637 -3.7200256e-07)
(0.0024919737 0.10452622 -3.3888664e-07)
(0.0021504221 0.10121354 -3.0826513e-07)
(0.0018319416 0.0978538 -2.7955498e-07)
(0.0015376566 0.094507564 -2.5237729e-07)
(0.001267418 0.091221175 -2.2649805e-07)
(0.0010202425 0.088036815 -2.0177059e-07)
(0.00079408621 0.08496054 -1.7809457e-07)
(0.0005880964 0.082060062 -1.5524538e-07)
(0.00039971254 0.079172002 -1.3400354e-07)
(0.00022778529 0.07683488 -1.1381189e-07)
(6.5578072e-05 0.072867209 -9.207664e-08)
(-0.0089985314 -0.039834717 -6.8416882e-07)
(-0.0076906187 -0.03770135 -7.3625433e-07)
(-0.0063794944 -0.036058276 -7.1789223e-07)
(-0.0050701121 -0.032899309 -6.7164422e-07)
(-0.0038497012 -0.028244815 -6.1574736e-07)
(-0.0027916953 -0.022927139 -5.5720876e-07)
(-0.0019210927 -0.017420798 -5.0454964e-07)
(-0.0012345894 -0.011969111 -4.5658233e-07)
(-0.00070559798 -0.0070328155 -4.1235471e-07)
(-0.00031237558 -0.0026380222 -3.790867e-07)
(-2.3794417e-05 0.0011440604 -3.4708682e-07)
(0.00018051641 0.0044400942 -3.164877e-07)
(0.00031299864 0.0076582941 -2.8865108e-07)
(0.00039277175 0.01060937 -2.6293466e-07)
(0.00043227202 0.01316576 -2.3892028e-07)
(0.00044045022 0.015294076 -2.1624609e-07)
(0.00042511489 0.017007188 -1.9463901e-07)
(0.00039281627 0.018334681 -1.7391744e-07)
(0.00034888403 0.019308744 -1.5400035e-07)
(0.0002976615 0.019964049 -1.3481581e-07)
(0.00024307224 0.020332347 -1.1625691e-07)
(0.0001863603 0.020445991 -9.778999e-08)
(0.00012936786 0.020324256 -8.3267523e-08)
(7.3532685e-05 0.020068186 -6.7032803e-08)
(1.7015657e-05 0.019230219 -5.3876127e-08)
(-0.0042944167 -0.016219575 -3.5239235e-07)
(-0.0041606596 -0.018711101 -4.088498e-07)
(-0.0039614925 -0.021463282 -4.1374404e-07)
(-0.0037025792 -0.023546521 -3.9501937e-07)
(-0.0033941511 -0.024939055 -3.6800695e-07)
(-0.0030625256 -0.025529069 -3.4218442e-07)
(-0.0027413426 -0.025503867 -3.1005687e-07)
(-0.002434874 -0.025021813 -2.8039973e-07)
(-0.0021509661 -0.024280289 -2.5402384e-07)
(-0.0018878591 -0.023335495 -2.3158838e-07)
(-0.0016488149 -0.022262196 -2.1063714e-07)
(-0.0014313428 -0.021108624 -1.9088649e-07)
(-0.0012297168 -0.019868481 -1.7251288e-07)
(-0.0010475977 -0.018609462 -1.5530026e-07)
(-0.00088579126 -0.017368868 -1.3905434e-07)
(-0.00074308717 -0.016174117 -1.2357925e-07)
(-0.00061767817 -0.015047199 -1.0872641e-07)
(-0.0005075427 -0.014004716 -9.4392389e-08)
(-0.00041047917 -0.013056949 -8.0794112e-08)
(-0.00032486478 -0.012208601 -6.7894743e-08)
(-0.00024857067 -0.011465022 -5.5774849e-08)
(-0.00018138997 -0.01082776 -4.4586999e-08)
(-0.00012234209 -0.010295078 -3.4986107e-08)
(-7.0242299e-05 -0.0097835494 -2.5113169e-08)
(-2.4527259e-05 -0.0092849261 -1.4463165e-08)
(-0.00094066082 -0.0044622537 -1.8412549e-07)
(-0.0010897467 -0.0052755111 -2.2774835e-07)
(-0.0012241971 -0.0061271007 -2.3862779e-07)
(-0.0013169045 -0.0069491659 -2.3185869e-07)
(-0.0013680071 -0.0077828107 -2.1703895e-07)
(-0.0013868531 -0.0087877717 -1.9937659e-07)
(-0.0013739862 -0.0099450911 -1.795297e-07)
(-0.0013343772 -0.011006277 -1.6062034e-07)
(-0.0012746277 -0.01192172 -1.4365583e-07)
(-0.001198843 -0.012677662 -1.2865639e-07)
(-0.0011138961 -0.013283457 -1.1485165e-07)
(-0.0010244607 -0.01375293 -1.0196521e-07)
(-0.00093285395 -0.014093176 -8.9961574e-08)
(-0.00084005388 -0.014320572 -7.8752656e-08)
(-0.00074731954 -0.014443139 -6.8308616e-08)
(-0.00065622661 -0.01446969 -5.8518374e-08)
(-0.00056795138 -0.014409639 -4.927731e-08)
(-0.00048344045 -0.014265104 -4.0792712e-08)
(-0.00040364988 -0.014045634 -3.2886743e-08)
(-0.00032870979 -0.01377222 -2.5744625e-08)
(-0.00025920242 -0.013460928 -1.9477733e-08)
(-0.00019423667 -0.013126056 -1.4189606e-08)
(-0.00013361163 -0.012781628 -9.9290436e-09)
(-7.672927e-05 -0.012367936 -6.1068402e-09)
(-2.3606914e-05 -0.011812776 -2.7344705e-09)
(8.7641384e-05 -0.0007045906 -9.7079181e-08)
(7.9168162e-05 -0.00097521073 -1.2295025e-07)
(2.1814255e-05 -0.0012707231 -1.3095913e-07)
(-4.6951735e-05 -0.001609951 -1.2811022e-07)
(-0.00011585871 -0.0019631139 -1.1970139e-07)
(-0.00019141786 -0.0023208933 -1.0890263e-07)
(-0.00025504 -0.0026932392 -9.7065691e-08)
(-0.00030163207 -0.0030550951 -8.5544516e-08)
(-0.00033179564 -0.0033998321 -7.5013491e-08)
(-0.00034682013 -0.003720026 -6.5564883e-08)
(-0.00034992562 -0.0040104898 -5.6953822e-08)
(-0.00034387845 -0.0042683996 -4.9034677e-08)
(-0.00033041944 -0.0044923431 -4.1767546e-08)
(-0.0003113387 -0.0046835886 -3.5125939e-08)
(-0.00028787213 -0.004842336 -2.9097734e-08)
(-0.00026157506 -0.0049694118 -2.363906e-08)
(-0.00023340566 -0.0050671682 -1.8723728e-08)
(-0.0002041967 -0.005143683 -1.4393986e-08)
(-0.00017489778 -0.0052007313 -1.0637545e-08)
(-0.00014581016 -0.0052289835 -7.5027217e-09)
(-0.00011741734 -0.0052230039 -4.9685777e-09)
(-8.9811016e-05 -0.005184501 -3.0245676e-09)
(-6.286577e-05 -0.0051200564 -1.6643346e-09)
(-3.6380882e-05 -0.0050134529 -7.3791e-10)
(-1.0484706e-05 -0.004799591 -2.1408261e-10)
(0.00018051442 0.00040782498 -5.0517418e-08)
(0.00021597647 0.00045274468 -6.2900368e-08)
(0.00021611524 0.00046310386 -6.6726182e-08)
(0.000196112 0.00044946169 -6.4913441e-08)
(0.00017036257 0.00040838257 -6.0043664e-08)
(0.00014520112 0.000337746 -5.382864e-08)
(0.00011673084 0.00025622842 -4.7177408e-08)
(8.7342707e-05 0.00017482485 -4.0731678e-08)
(5.9384349e-05 8.8217778e-05 -3.4839444e-08)
(3.4759031e-05 -4.9755708e-07 -2.957846e-08)
(1.454217e-05 -8.8251419e-05 -2.4874575e-08)
(-8.9267137e-07 -0.00017419858 -2.0660544e-08)
(-1.1241004e-05 -0.00025517757 -1.6905999e-08)
(-1.8237275e-05 -0.00032802001 -1.3592202e-08)
(-2.3582374e-05 -0.00039315849 -1.0701183e-08)
(-2.6880974e-05 -0.00045119122 -8.2026776e-09)
(-2.8293231e-05 -0.00050172993 -6.0701946e-09)
(-2.8127445e-05 -0.00054458774 -4.2903546e-09)
(-2.6410601e-05 -0.00057964071 -2.8422227e-09)
(-2.3653202e-05 -0.00060621753 -1.7064085e-09)
(-2.0183179e-05 -0.0006242078 -8.5829383e-10)
(-1.6202138e-05 -0.00063356373 -2.7592735e-10)