/*--------------------------------*- C++ -*----------------------------------*\
| =========                 |                                                 |
| \\      /  F ield         | OpenFOAM: The Open Source CFD Toolbox           |
|  \\    /   O peration     | Version:  4.0                                   |
|   \\  /    A nd           | Web:      www.OpenFOAM.org                      |
|    \\/     M anipulation  |                                                 |
\*---------------------------------------------------------------------------*/
FoamFile
{
    version     2.0;
    format      ascii;
    class       volScalarField;
    location    "0.03";
    object      nut;
}
// * * * * * * * * * * * * * * * * * * * * * * * * * * * * * * * * * * * * * //

dimensions      [0 2 -1 0 0 0 0];

internalField   nonuniform List<scalar> 
1740
(
4.3141424e-05
1.355403e-05
1.231386e-06
1.3815155e-05
7.2529001e-06
1.8084481e-06
3.376101e-05
5.5733134e-06
2.3179359e-06
2.4590546e-05
4.756649e-06
2.7601118e-06
1.944595e-05
4.2857529e-06
3.1186379e-06
1.4541216e-05
4.0155906e-06
3.4049341e-06
1.369467e-05
3.8571376e-06
3.630727e-06
1.2287204e-05
3.7480993e-06
3.832562e-06
1.1129925e-05
3.6731563e-06
3.980696e-06
9.9875437e-06
3.6156289e-06
4.1745721e-06
8.9000933e-06
3.590073e-06
4.3154206e-06
8.1246058e-06
3.5741642e-06
4.3600562e-06
7.5862188e-06
3.5588528e-06
4.4503443e-06
7.0771926e-06
3.5452422e-06
4.5014009e-06
6.6343772e-06
3.5224545e-06
4.5199718e-06
6.2507315e-06
3.5208725e-06
4.5599283e-06
5.9410986e-06
3.5238513e-06
4.5644605e-06
5.6692278e-06
3.5075767e-06
4.6106426e-06
5.4348881e-06
3.5046321e-06
4.6663696e-06
5.2379043e-06
3.5302868e-06
4.6601584e-06
5.0305866e-06
3.5245775e-06
4.6546302e-06
4.8649294e-06
3.5158432e-06
4.6727973e-06
4.724098e-06
3.5176884e-06
4.6700079e-06
4.6020478e-06
3.5111851e-06
4.6759838e-06
4.4965581e-06
3.5049569e-06
4.6800758e-06
4.3911107e-06
3.5076924e-06
4.6758239e-06
4.2956383e-06
3.5210846e-06
4.6828539e-06
4.1978331e-06
3.5530176e-06
4.6463332e-06
4.1512753e-06
3.5685337e-06
4.6111376e-06
2.5367169e-06
3.7568194e-06
4.3056764e-06
1.8624583e-06
2.2200066e-06
4.4052059e-06
7.0902224e-06
7.280166e-06
6.6513356e-06
5.8619809e-06
6.1423211e-06
5.890665e-06
3.6631992e-06
3.7769024e-06
3.6795356e-06
1.6557245e-06
1.7445695e-06
1.738781e-06
4.5470828e-07
4.8684783e-07
4.9193119e-07
9.6469591e-08
1.0266492e-07
1.0416035e-07
3.0696483e-08
3.1668592e-08
3.2096574e-08
2.2355643e-08
2.2557613e-08
2.2795722e-08
2.2817755e-08
2.291909e-08
2.3123484e-08
2.4452164e-08
2.4539881e-08
2.4732528e-08
2.6240947e-08
2.6323815e-08
2.6506203e-08
2.8069384e-08
2.814778e-08
2.8319765e-08
2.9928478e-08
3.0002363e-08
3.0164144e-08
3.1819133e-08
3.1888622e-08
3.2040633e-08
3.3742465e-08
3.3807762e-08
3.3950535e-08
3.5699194e-08
3.5760536e-08
3.5894619e-08
3.7689748e-08
3.774737e-08
3.7873291e-08
3.9714326e-08
3.9768447e-08
3.9886695e-08
4.1772889e-08
4.1823712e-08
4.1934732e-08
4.3865118e-08
4.3912824e-08
4.4017018e-08
4.5990332e-08
4.6035088e-08
4.6132822e-08
4.8147432e-08
4.818939e-08
4.8280999e-08
5.0334835e-08
5.0374139e-08
5.0459933e-08
5.2550412e-08
5.2587196e-08
5.2667461e-08
5.4791417e-08
5.4825802e-08
5.4900806e-08
5.7054436e-08
5.7086536e-08
5.7156526e-08
5.9335333e-08
5.9365253e-08
5.9430457e-08
6.1629191e-08
6.165703e-08
6.1717663e-08
6.3930265e-08
6.3956118e-08
6.4012383e-08
6.6231948e-08
6.6255904e-08
6.6307998e-08
6.8526744e-08
6.8548889e-08
6.8597001e-08
7.0806254e-08
7.0826673e-08
7.0870984e-08
7.3061185e-08
7.3079959e-08
7.3120647e-08
7.5281375e-08
7.5298583e-08
7.5335823e-08
7.7455837e-08
7.747156e-08
7.7505525e-08
7.9572836e-08
7.9587153e-08
7.9618018e-08
8.1619994e-08
8.1632985e-08
8.1660926e-08
8.3584419e-08
8.3596166e-08
8.3621361e-08
8.5452867e-08
8.5463451e-08
8.548608e-08
8.7211922e-08
8.7221427e-08
8.7241673e-08
8.8848218e-08
8.8856728e-08
8.8874779e-08
9.0348684e-08
9.0356284e-08
9.0372328e-08
9.1700898e-08
9.1707673e-08
9.1721897e-08
9.2893954e-08
9.2899985e-08
9.2912574e-08
9.3921587e-08
9.3926954e-08
9.3938086e-08
9.4792195e-08
9.4796973e-08
9.4806823e-08
9.5547722e-08
9.5551991e-08
9.5560749e-08
9.6253323e-08
9.6257186e-08
9.6265087e-08
9.6785423e-08
9.6789003e-08
9.6796318e-08
4.1662765e-06
4.4931586e-06
6.594897e-06
8.2577203e-06
5.5684398e-06
5.574541e-06
3.5135031e-06
3.438681e-06
1.624693e-06
1.4932866e-06
4.4817561e-07
3.8802721e-07
9.5250864e-08
8.2316096e-08
3.1005859e-08
2.9320263e-08
2.2928057e-08
2.306825e-08
2.3408884e-08
2.3783768e-08
2.5021896e-08
2.5404376e-08
2.6781106e-08
2.7143849e-08
2.8578557e-08
2.8919631e-08
3.040733e-08
3.0727715e-08
3.2269047e-08
3.2569977e-08
3.4165054e-08
3.4447739e-08
3.6096093e-08
3.6361658e-08
3.8062512e-08
3.8311994e-08
4.0064394e-08
4.0298749e-08
4.2101579e-08
4.2321678e-08
4.4173618e-08
4.4380252e-08
4.6279726e-08
4.6473612e-08
4.8418709e-08
4.8600505e-08
5.0588907e-08
5.0759213e-08
5.2788124e-08
5.2947491e-08
5.5013555e-08
5.5162501e-08
5.7261731e-08
5.7400742e-08
5.9528465e-08
5.9657995e-08
6.1808795e-08
6.1929271e-08
6.4096945e-08
6.420877e-08
6.6386282e-08
6.648984e-08
6.8669289e-08
6.8764953e-08
7.0937551e-08
7.102568e-08
7.3181759e-08
7.3262707e-08
7.5391743e-08
7.5465858e-08
7.7556515e-08
7.7624143e-08
7.9664341e-08
7.9725827e-08
8.1702846e-08
8.175854e-08
8.3659145e-08
8.3709401e-08
8.5520001e-08
8.5565178e-08
8.7272009e-08
8.7312474e-08
8.890181e-08
8.8937935e-08
9.0396341e-08
9.0428506e-08
9.1743179e-08
9.1771766e-08
9.2931409e-08
9.2956804e-08
9.3954755e-08
9.3977344e-08
9.482161e-08
9.4841789e-08
9.5573965e-08
9.5592168e-08
9.6277105e-08
9.6293824e-08
9.6807535e-08
9.6823265e-08
2.0285681e-10
9.7799842e-10
9.3328355e-09
2.2080233e-08
2.7064655e-08
2.6968233e-08
2.5781482e-08
2.4779128e-08
2.4207476e-08
2.4057488e-08
2.4255052e-08
2.471135e-08
2.5345024e-08
2.6087913e-08
2.6882643e-08
2.7683347e-08
2.8455669e-08
2.9175267e-08
2.9825739e-08
3.0397248e-08
3.0887297e-08
3.130744e-08
3.1698323e-08
3.2134351e-08
3.2618369e-08
4.3198417e-11
4.3839565e-09
4.028023e-08
8.7624619e-08
9.8580108e-08
8.8341726e-08
7.3917681e-08
6.0916192e-08
5.0470224e-08
4.2569518e-08
3.6927349e-08
3.3132473e-08
3.0767181e-08
2.9482063e-08
2.8967283e-08
2.8960758e-08
2.9258816e-08
2.9713444e-08
3.022278e-08
3.0721994e-08
3.1176011e-08
3.1578314e-08
3.1957915e-08
3.2372047e-08
3.2825325e-08
2.7045937e-10
2.9207815e-08
2.3868202e-07
4.8780032e-07
5.3479046e-07
4.7318022e-07
3.8611987e-07
3.0287771e-07
2.3196069e-07
1.7480364e-07
1.3052821e-07
9.7382561e-08
7.3297742e-08
5.6586335e-08
4.5609268e-08
3.8821333e-08
3.4925394e-08
3.2914496e-08
3.2049104e-08
3.18201e-08
3.1909228e-08
3.2139451e-08
3.2443982e-08
3.2832865e-08
3.3329658e-08
2.2731929e-09
1.8791973e-07
1.1808629e-06
1.9707979e-06
2.104234e-06
1.9473107e-06
1.6899098e-06
1.4091129e-06
1.1380297e-06
8.9159174e-07
6.7787371e-07
5.0064505e-07
3.5820983e-07
2.492046e-07
1.702836e-07
1.1604036e-07
8.0674219e-08
5.888956e-08
4.6299275e-08
3.948984e-08
3.6114362e-08
3.4644727e-08
3.4185302e-08
3.4323613e-08
3.5004017e-08
2.1797681e-08
1.0178767e-06
3.4358108e-06
4.5415604e-06
4.827395e-06
4.7324069e-06
4.4419634e-06
4.04813e-06
3.5949499e-06
3.1054392e-06
2.6012632e-06
2.1076431e-06
1.6403147e-06
1.2207772e-06
8.6884792e-07
5.9205512e-07
3.8776339e-07
2.4636973e-07
1.5501789e-07
9.9544034e-08
6.8139858e-08
5.1669825e-08
4.3707908e-08
4.0335883e-08
3.9208616e-08
1.9445843e-07
2.7374388e-06
5.9477644e-06
7.6641869e-06
8.3408866e-06
8.4059594e-06
8.1554839e-06
7.7435655e-06
7.2316271e-06
6.6369693e-06
5.9683094e-06
5.2382138e-06
4.4686049e-06
3.6883138e-06
2.9301671e-06
2.2281554e-06
1.6128415e-06
1.1063381e-06
7.1775708e-07
4.4191117e-07
2.6167299e-07
1.5365097e-07
9.4230414e-08
6.4373284e-08
5.0817985e-08
4.3293535e-06
4.3022402e-06
4.3470998e-06
4.4535698e-06
4.6101114e-06
4.7922278e-06
4.9717353e-06
5.1226164e-06
5.2204307e-06
5.2411989e-06
5.1640598e-06
4.9754904e-06
4.6725641e-06
4.2638652e-06
3.7683332e-06
3.2128798e-06
2.6291664e-06
2.0511025e-06
1.5129871e-06
1.0466445e-06
6.7541365e-07
4.0748635e-07
2.3356003e-07
1.3235236e-07
8.0644024e-08
8.9920337e-06
9.3515427e-06
9.789299e-06
1.0122403e-05
1.0105507e-05
9.7624315e-06
9.2247837e-06
8.5940654e-06
7.9105609e-06
7.180421e-06
6.4059304e-06
5.5958564e-06
4.7654309e-06
3.9360668e-06
3.1348017e-06
2.3921656e-06
1.7376027e-06
1.1949784e-06
7.761949e-07
4.7767139e-07
2.8202977e-07
1.6452855e-07
9.9800584e-08
6.72214e-08
5.2403418e-08
5.8000537e-06
6.0152623e-06
6.173118e-06
6.194643e-06
6.0163631e-06
5.6579785e-06
5.1811796e-06
4.6414318e-06
4.0713503e-06
3.4934735e-06
2.9168261e-06
2.3505889e-06
1.8220519e-06
1.3551592e-06
9.6449748e-07
6.5925085e-07
4.3314456e-07
2.75103e-07
1.7211118e-07
1.0957525e-07
7.421728e-08
5.5669173e-08
4.6668473e-08
4.2784537e-08
4.1363723e-08
3.4066975e-06
3.3389801e-06
3.2207299e-06
3.0249118e-06
2.7390193e-06
2.3880293e-06
2.0133954e-06
1.6495954e-06
1.3181494e-06
1.027966e-06
7.7908017e-07
5.7151705e-07
4.0669446e-07
2.8204902e-07
1.9212409e-07
1.3070926e-07
9.0526673e-08
6.5599815e-08
5.1093196e-08
4.3227598e-08
3.9298248e-08
3.7545655e-08
3.6936829e-08
3.6977648e-08
3.7535414e-08
1.3528995e-06
1.2087312e-06
1.0664329e-06
9.1828024e-07
7.6303308e-07
6.116343e-07
4.7644156e-07
3.6374427e-07
2.7419511e-07
2.0494688e-07
1.5207625e-07
1.1260244e-07
8.4278961e-08
6.4804695e-08
5.2015462e-08
4.4083947e-08
3.9447846e-08
3.6963317e-08
3.5803625e-08
3.5395576e-08
3.5373085e-08
3.5531807e-08
3.579016e-08
3.6146588e-08
3.6598493e-08
3.2539919e-07
2.6979561e-07
2.2396235e-07
1.8462988e-07
1.496778e-07
1.1952254e-07
9.4989956e-08
7.6062603e-08
6.2031465e-08
5.1906212e-08
4.47502e-08
3.988373e-08
3.6786692e-08
3.4997089e-08
3.4123702e-08
3.385787e-08
3.3960217e-08
3.4263043e-08
3.4652329e-08
3.5055227e-08
3.5432291e-08
3.5777013e-08
3.6123238e-08
3.6539619e-08
3.7075905e-08
6.9372234e-08
5.8842662e-08
5.1111035e-08
4.5266826e-08
4.0621653e-08
3.6984256e-08
3.4318129e-08
3.2532968e-08
3.1478075e-08
3.0983242e-08
3.0899408e-08
3.1113657e-08
3.1535951e-08
3.2089842e-08
3.2713275e-08
3.3358656e-08
3.3990586e-08
3.4584463e-08
3.5123856e-08
3.5599088e-08
3.6008561e-08
3.6367104e-08
3.6724378e-08
3.717632e-08
3.7773391e-08
2.775016e-08
2.6705412e-08
2.6226949e-08
2.6143049e-08
2.6309545e-08
2.6660205e-08
2.7163637e-08
2.7791465e-08
2.851212e-08
2.9295299e-08
3.0113927e-08
3.0945682e-08
3.1771656e-08
3.2575657e-08
3.3344224e-08
3.4066491e-08
3.473384e-08
3.5339622e-08
3.587893e-08
3.6349031e-08
3.6752212e-08
3.710551e-08
3.7460421e-08
3.7907305e-08
3.842761e-08
2.3318156e-08
2.3732747e-08
2.4303814e-08
2.4990531e-08
2.5756404e-08
2.6577786e-08
2.7438403e-08
2.8324689e-08
2.9223089e-08
3.0122246e-08
3.1011209e-08
3.1879976e-08
3.2719462e-08
3.3521477e-08
3.4278715e-08
3.4984764e-08
3.5634069e-08
3.6221932e-08
3.6744624e-08
3.7200079e-08
3.7590885e-08
3.7933634e-08
3.8275585e-08
3.8686134e-08
3.9103596e-08
2.4256221e-08
2.4827423e-08
2.5486466e-08
2.6216718e-08
2.7001844e-08
2.7827566e-08
2.8681359e-08
2.9551871e-08
3.0428504e-08
3.1301215e-08
3.2161026e-08
3.2999392e-08
3.3808374e-08
3.4580678e-08
3.5309666e-08
3.5989381e-08
3.6614566e-08
3.71807e-08
3.7684156e-08
3.8122909e-08
3.8499401e-08
3.8828921e-08
3.9152026e-08
3.9515611e-08
3.9835142e-08
2.5875804e-08
2.6430405e-08
2.7058788e-08
2.7749723e-08
2.8491446e-08
2.9272364e-08
3.0081337e-08
3.0907766e-08
3.1741594e-08
3.2573319e-08
3.3393932e-08
3.4195155e-08
3.4969221e-08
3.5708954e-08
3.6407809e-08
3.7059888e-08
3.7659974e-08
3.8203572e-08
3.8687067e-08
3.910841e-08
3.9469779e-08
3.9784833e-08
4.0087573e-08
4.0411652e-08
4.0690762e-08
2.7589115e-08
2.811057e-08
2.8700055e-08
2.9348225e-08
3.0045092e-08
3.0780427e-08
3.1544057e-08
3.2326052e-08
3.3116826e-08
3.3907201e-08
3.4688486e-08
3.5452447e-08
3.6191481e-08
3.6898513e-08
3.7567074e-08
3.8191328e-08
3.8766104e-08
3.9286939e-08
3.9750237e-08
4.0153919e-08
4.0499878e-08
4.0800506e-08
4.1086783e-08
4.1394815e-08
4.1695905e-08
2.9337873e-08
2.9827248e-08
3.0380453e-08
3.0989233e-08
3.1644698e-08
3.2337585e-08
3.3058534e-08
3.379825e-08
3.454765e-08
3.5297963e-08
3.6040807e-08
3.6768175e-08
3.7472639e-08
3.8147273e-08
3.8785725e-08
3.938225e-08
3.9931749e-08
4.0429813e-08
4.0872877e-08
4.1258841e-08
4.1589393e-08
4.1876324e-08
4.2150835e-08
4.2458236e-08
4.2804791e-08
3.1120498e-08
3.1580071e-08
3.2099803e-08
3.2672239e-08
3.3289306e-08
3.3942531e-08
3.4623257e-08
3.532279e-08
3.6032551e-08
3.6744191e-08
3.7449664e-08
3.8141292e-08
3.8811819e-08
3.9454523e-08
4.0063202e-08
4.0632235e-08
4.1156615e-08
4.1632008e-08
4.2054898e-08
4.2423188e-08
4.2738481e-08
4.3012612e-08
4.327904e-08
4.3594855e-08
4.3997577e-08
3.2938977e-08
3.3370816e-08
3.3859433e-08
3.4398017e-08
3.4979178e-08
3.5595103e-08
3.6237755e-08
3.6899013e-08
3.7570788e-08
3.8245149e-08
3.8914409e-08
3.9571206e-08
4.0208537e-08
4.0819888e-08
4.1399236e-08
4.1941104e-08
4.2440607e-08
4.28935e-08
4.3296334e-08
4.3647049e-08
4.3947302e-08
4.4209482e-08
4.4470394e-08
4.4798659e-08
4.5246277e-08
3.4794484e-08
3.5200424e-08
3.5659969e-08
3.6166853e-08
3.6714265e-08
3.7294986e-08
3.7901526e-08
3.8526285e-08
3.9161654e-08
3.9800112e-08
4.0434336e-08
4.1057273e-08
4.166222e-08
4.2242874e-08
4.2793412e-08
4.3308526e-08
4.3783466e-08
4.4214098e-08
4.4597054e-08
4.4930353e-08
4.521585e-08
4.5466929e-08
4.5724256e-08
4.6065528e-08
4.6538383e-08
3.6687522e-08
3.7069192e-08
3.7501477e-08
3.7978575e-08
3.849418e-08
3.9041589e-08
3.9613828e-08
4.0203772e-08
4.0804255e-08
4.1408166e-08
4.200854e-08
4.2598646e-08
4.3172065e-08
4.3722751e-08
4.4245081e-08
4.4733929e-08
4.5184696e-08
4.5593372e-08
4.5956689e-08
4.6272772e-08
4.6543763e-08
4.6784217e-08
4.7038493e-08
4.7390157e-08
4.787187e-08
3.8618237e-08
3.8977087e-08
3.9383721e-08
3.9832745e-08
4.0318304e-08
4.083415e-08
4.1373769e-08
4.1930484e-08
4.2497551e-08
4.3068246e-08
4.3635964e-08
4.4194292e-08
4.4737101e-08
4.5258599e-08
4.5753385e-08
4.6216523e-08
4.6643577e-08
4.7030668e-08
4.7374642e-08
4.7673747e-08
4.7930436e-08
4.8160337e-08
4.8410537e-08
4.8766509e-08
4.9244345e-08
4.0586523e-08
4.0923863e-08
4.130629e-08
4.1728792e-08
4.2185897e-08
4.2671787e-08
4.3180362e-08
4.3705354e-08
4.4240415e-08
4.4779196e-08
4.5315439e-08
4.5843055e-08
4.6356196e-08
4.6849327e-08
4.7317285e-08
4.7755323e-08
4.8159175e-08
4.8525107e-08
4.8850081e-08
4.9132477e-08
4.9375031e-08
4.9594218e-08
4.9838806e-08
5.0193457e-08
5.0659244e-08
4.2592035e-08
4.290906e-08
4.3268601e-08
4.3665977e-08
4.4096093e-08
4.4553503e-08
4.5032498e-08
4.5527191e-08
4.60316e-08
4.6539733e-08
4.7045668e-08
4.7543631e-08
4.8028059e-08
4.8493677e-08
4.893555e-08
4.9349134e-08
4.9730339e-08
5.0075577e-08
5.0381938e-08
5.0647928e-08
5.0876532e-08
5.108487e-08
5.1322842e-08
5.1674107e-08
5.2132236e-08
4.4634145e-08
4.4931955e-08
4.5269808e-08
4.5643352e-08
4.6047819e-08
4.6478122e-08
4.6928903e-08
4.7394633e-08
4.7869681e-08
4.8348391e-08
4.8825163e-08
4.9294526e-08
4.9751201e-08
5.0190168e-08
5.0606721e-08
5.0996528e-08
5.1355669e-08
5.1680712e-08
5.1968875e-08
5.2218804e-08
5.2433726e-08
5.2631347e-08
5.2862479e-08
5.3209943e-08
5.3662496e-08
4.6711911e-08
4.6991506e-08
4.7308783e-08
4.7659683e-08
4.8039749e-08
4.8444218e-08
4.8868066e-08
4.9306096e-08
4.9753006e-08
5.0203467e-08
5.0652187e-08
5.1093986e-08
5.1523861e-08
5.1937043e-08
5.2329058e-08
5.2695776e-08
5.3033457e-08
5.3338823e-08
5.3609229e-08
5.3843463e-08
5.4044998e-08
5.4232055e-08
5.4456018e-08
5.4798081e-08
5.5241904e-08
4.8824005e-08
4.9086304e-08
4.9384029e-08
4.9713388e-08
5.0070213e-08
5.0450038e-08
5.0848154e-08
5.1259676e-08
5.1679617e-08
5.2102953e-08
5.2524692e-08
5.2939937e-08
5.3343948e-08
5.3732205e-08
5.410046e-08
5.4444787e-08
5.4761625e-08
5.5047849e-08
5.5300953e-08
5.5519863e-08
5.5708268e-08
5.5884799e-08
5.6101299e-08
5.643863e-08
5.6881297e-08
5.0968646e-08
5.1214498e-08
5.1493618e-08
5.180246e-08
5.2137125e-08
5.2493424e-08
5.2866937e-08
5.325308e-08
5.3647163e-08
5.4044455e-08
5.4440247e-08
5.4829914e-08
5.5208978e-08
5.5573157e-08
5.5918427e-08
5.624106e-08
5.6537675e-08
5.6805301e-08
5.7041566e-08
5.7245538e-08
5.7421109e-08
5.7587295e-08
5.7796514e-08
5.8130187e-08
5.8572928e-08
5.3143532e-08
5.3373724e-08
5.3635119e-08
5.3924397e-08
5.4237908e-08
5.457173e-08
5.4921712e-08
5.5283548e-08
5.5652832e-08
5.6025113e-08
5.6395955e-08
5.6760996e-08
5.7116007e-08
5.7456942e-08
5.7779991e-08
5.8081624e-08
5.8358637e-08
5.8608211e-08
5.882811e-08
5.9017542e-08
5.9180607e-08
5.9336689e-08
5.9538641e-08
5.9867699e-08
6.0306033e-08
5.5345776e-08
5.5561037e-08
5.5805526e-08
5.6076132e-08
5.6369438e-08
5.6681766e-08
5.7009226e-08
5.7347777e-08
5.7693278e-08
5.8041541e-08
5.8388395e-08
5.8729732e-08
5.9061563e-08
5.9380071e-08
5.9681656e-08
5.9962979e-08
6.0221008e-08
6.0453077e-08
6.0657087e-08
6.0832394e-08
6.0983347e-08
6.1129829e-08
6.1325406e-08
6.1651531e-08
6.2089798e-08
5.7571839e-08
5.7772848e-08
5.8001195e-08
5.8253967e-08
5.8527959e-08
5.8819727e-08
5.9125625e-08
5.9441862e-08
5.976455e-08
6.0089757e-08
6.0413556e-08
6.0732083e-08
6.1041587e-08
6.1338468e-08
6.1619331e-08
6.1881026e-08
6.2120687e-08
6.2335797e-08
6.2524392e-08
6.2685988e-08
6.2825224e-08
6.2962679e-08
6.3153227e-08
6.347955e-08
6.3919311e-08
5.9817468e-08
6.0004865e-08
6.0217789e-08
6.0453513e-08
6.0709035e-08
6.0981129e-08
6.126638e-08
6.1561233e-08
6.1862041e-08
6.2165113e-08
6.2466762e-08
6.2763355e-08
6.3051365e-08
6.3327404e-08
6.3588278e-08
6.3831017e-08
6.4052919e-08
6.4251613e-08
6.4425267e-08
6.4573546e-08
6.4701371e-08
6.4830024e-08
6.5015876e-08
6.5343305e-08
6.5786075e-08
6.2077643e-08
6.2252037e-08
6.2450219e-08
6.2669641e-08
6.2907497e-08
6.3160762e-08
6.342624e-08
6.3700601e-08
6.3980426e-08
6.4262256e-08
6.454263e-08
6.4818141e-08
6.5085474e-08
6.5341446e-08
6.5583052e-08
6.5807501e-08
6.601225e-08
6.6195067e-08
6.6354252e-08
6.6489608e-08
6.6606311e-08
6.6726268e-08
6.6907187e-08
6.7234805e-08
6.7678183e-08
6.4346536e-08
6.4508507e-08
6.4692599e-08
6.4896434e-08
6.511739e-08
6.5352636e-08
6.5599182e-08
6.5853911e-08
6.6113623e-08
6.6375075e-08
6.6635028e-08
6.6890286e-08
6.713774e-08
6.7374405e-08
6.7597459e-08
6.7804279e-08
6.7992476e-08
6.8159958e-08
6.8305148e-08
6.8427987e-08
6.8533887e-08
6.8645313e-08
6.8821046e-08
6.9147459e-08
6.9591296e-08
6.6617474e-08
6.6767577e-08
6.6938206e-08
6.7127142e-08
6.7331936e-08
6.7549946e-08
6.7778373e-08
6.8014303e-08
6.8254743e-08
6.8496663e-08
6.8737028e-08
6.8972847e-08
6.9201208e-08
6.9419315e-08
6.9624521e-08
6.9814368e-08
6.9986616e-08
7.0139303e-08
7.0270975e-08
7.0381705e-08
7.0477135e-08
7.0580272e-08
7.0750958e-08
7.1076178e-08
7.1514804e-08
6.8882909e-08
6.9021676e-08
6.9179448e-08
6.9354152e-08
6.9543502e-08
6.9745034e-08
6.9956134e-08
7.0174079e-08
7.0396074e-08
7.0619286e-08
7.0840883e-08
7.1058064e-08
7.1268108e-08
7.1468398e-08
7.1656458e-08
7.1829985e-08
7.1986882e-08
7.2125317e-08
7.224395e-08
7.2342982e-08
7.2428274e-08
7.2523365e-08
7.2689206e-08
7.3013728e-08
7.3451253e-08
7.1134401e-08
7.1262353e-08
7.1407855e-08
7.1568976e-08
7.1743585e-08
7.1929381e-08
7.2123929e-08
7.2324688e-08
7.2529051e-08
7.2734372e-08
7.2938008e-08
7.3137346e-08
7.3329843e-08
7.3513054e-08
7.3684666e-08
7.3842527e-08
7.3984676e-08
7.4109403e-08
7.4215483e-08
7.4303237e-08
7.4378743e-08
7.4466056e-08
7.4627114e-08
7.4950042e-08
7.5381505e-08
7.3362628e-08
7.3480272e-08
7.361408e-08
7.3762255e-08
7.3922812e-08
7.4093605e-08
7.4272367e-08
7.4456731e-08
7.4644265e-08
7.4832505e-08
7.5018986e-08
7.5201272e-08
7.537699e-08
7.5543861e-08
7.5699726e-08
7.5842578e-08
7.5970585e-08
7.6082157e-08
7.6176175e-08
7.6253085e-08
7.6319181e-08
7.6399035e-08
7.6555493e-08
7.6876462e-08
7.7297792e-08
7.5557408e-08
7.5665246e-08
7.5787928e-08
7.5923787e-08
7.6070973e-08
7.622749e-08
7.6391226e-08
7.6559979e-08
7.6731486e-08
7.6903453e-08
7.7073584e-08
7.723961e-08
7.7399323e-08
7.7550598e-08
7.7691424e-08
7.781993e-08
7.7934411e-08
7.8033388e-08
7.8115849e-08
7.8182357e-08
7.8239435e-08
7.8312179e-08
7.8464322e-08
7.8783539e-08
7.9198915e-08
7.7707745e-08
7.7806276e-08
7.7918402e-08
7.8042571e-08
7.8177065e-08
7.832003e-08
7.8469501e-08
7.862343e-08
7.8779714e-08
7.8936218e-08
7.9090808e-08
7.9241374e-08
7.9385861e-08
7.9522292e-08
7.9648797e-08
7.9763633e-08
7.9865214e-08
7.9952169e-08
8.0023585e-08
8.0080142e-08
8.0128569e-08
8.019446e-08
8.0342428e-08
8.066036e-08
8.1071916e-08
7.9801908e-08
7.9891633e-08
7.9993769e-08
8.0106879e-08
8.0229365e-08
8.0359506e-08
8.0495476e-08
8.0635374e-08
8.0777244e-08
8.0919105e-08
8.1058973e-08
8.1194888e-08
8.132494e-08
8.1447293e-08
8.1560206e-08
8.1662061e-08
8.1751384e-08
8.1826905e-08
8.1887803e-08
8.1934863e-08
8.197499e-08
8.2034175e-08
8.2177748e-08
8.2493754e-08
8.2900547e-08
8.1827529e-08
8.1908952e-08
8.2001672e-08
8.2104356e-08
8.2215524e-08
8.2333577e-08
8.245682e-08
8.2583489e-08
8.2711768e-08
8.2839818e-08
8.2965798e-08
8.3087886e-08
8.320431e-08
8.3313365e-08
8.3413435e-08
8.3503015e-08
8.3580739e-08
8.364543e-08
8.3696356e-08
8.373439e-08
8.3766574e-08
8.3819185e-08
8.3958036e-08
8.4271029e-08
8.4670981e-08
8.3771733e-08
8.3845364e-08
8.3929249e-08
8.4022152e-08
8.4122702e-08
8.4229414e-08
8.4340717e-08
8.4454974e-08
8.4570499e-08
8.4685587e-08
8.4798528e-08
8.4907633e-08
8.5011257e-08
8.5107816e-08
8.519581e-08
8.5273844e-08
8.5340648e-08
8.5395136e-08
8.5436655e-08
8.5466161e-08
8.5490813e-08
8.5537108e-08
8.5671156e-08
8.5980303e-08
8.637099e-08
8.5621295e-08
8.5687654e-08
8.5763295e-08
8.5847074e-08
8.5937719e-08
8.6033853e-08
8.6134019e-08
8.6236698e-08
8.6340326e-08
8.644332e-08
8.6544094e-08
8.6641082e-08
8.6732755e-08
8.6817643e-08
8.6894355e-08
8.6961594e-08
8.7018182e-08
8.7063115e-08
8.7095817e-08
8.7117327e-08
8.7134935e-08
8.7175388e-08
8.7305086e-08
8.7610432e-08
8.7989528e-08
8.7362826e-08
8.7422444e-08
8.7490445e-08
8.756577e-08
8.764724e-08
8.7733577e-08
8.7823428e-08
8.7915384e-08
8.8007993e-08
8.8099786e-08
8.8189291e-08
8.8275051e-08
8.8355648e-08
8.8429718e-08
8.8495965e-08
8.8553187e-08
8.8600288e-08
8.8636341e-08
8.866084e-08
8.8674907e-08
8.8685975e-08
8.8721083e-08
8.8847011e-08
8.9149561e-08
8.9517549e-08
8.8982983e-08
8.9036402e-08
8.909738e-08
8.9164938e-08
8.923798e-08
8.9315321e-08
8.9395703e-08
8.9477814e-08
8.9560309e-08
8.9641819e-08
8.9720975e-08
8.9796426e-08
8.9866851e-08
8.9930981e-08
8.9987612e-08
9.0035622e-08
9.0073994e-08
9.0101869e-08
9.0118805e-08
9.0126001e-08
9.0131037e-08
9.0161269e-08
9.0283932e-08
9.0584483e-08
9.0946215e-08
9.0468718e-08
9.051649e-08
9.0571077e-08
9.0631572e-08
9.0696954e-08
9.076612e-08
9.0837899e-08
9.0911071e-08
9.0984379e-08
9.1056551e-08
9.1126312e-08
9.11924e-08
9.1253586e-08
9.1308687e-08
9.1356578e-08
9.1396214e-08
9.1426645e-08
9.1447072e-08
9.1457112e-08
9.1458037e-08
9.145758e-08
9.1483454e-08
9.1603448e-08
9.1902694e-08
9.225868e-08
9.1807619e-08
9.1850309e-08
9.1899151e-08
9.1953302e-08
9.2011811e-08
9.2073647e-08
9.2137716e-08
9.2202877e-08
9.2267957e-08
9.2331765e-08
9.2393111e-08
9.2450814e-08
9.2503727e-08
9.2550741e-08
9.2590803e-08
9.2622935e-08
9.2646245e-08
9.2659989e-08
9.266383e-08
9.2659101e-08
9.2653657e-08
9.2675512e-08
9.2792916e-08
9.3090688e-08
9.3441113e-08
9.2988779e-08
9.302696e-08
9.3070717e-08
9.3119264e-08
9.3171709e-08
9.3227086e-08
9.3284365e-08
9.3342475e-08
9.3400314e-08
9.3456766e-08
9.3510711e-08
9.3561046e-08
9.3606692e-08
9.3646604e-08
9.3679788e-08
9.3705323e-08
9.3722371e-08
9.3730234e-08
9.3728613e-08
9.3718876e-08
9.3708943e-08
9.3726988e-08
9.3841494e-08
9.4136893e-08
9.448116e-08
9.4005929e-08
9.4040185e-08
9.4079529e-08
9.4123232e-08
9.4170456e-08
9.4220283e-08
9.4271738e-08
9.4323802e-08
9.4375432e-08
9.4425578e-08
9.4473191e-08
9.4517236e-08
9.4556698e-08
9.4590573e-08
9.4617897e-08
9.4637799e-08
9.4649499e-08
9.4652339e-08
9.4646048e-08
9.4632013e-08
9.4618176e-08
9.4632759e-08
9.4744292e-08
9.503676e-08
9.5374761e-08
9.4867486e-08
9.4898406e-08
9.4934014e-08
9.4973663e-08
9.5016561e-08
9.5061828e-08
9.5108519e-08
9.5155625e-08
9.5202153e-08
9.5247122e-08
9.5289573e-08
9.5328548e-08
9.5363091e-08
9.5392171e-08
9.541479e-08
9.5430127e-08
9.5437487e-08
9.5436266e-08
9.5426194e-08
9.5408671e-08
9.5391623e-08
9.5403191e-08
9.5511617e-08
9.5800054e-08
9.6130611e-08
9.5615504e-08
9.5643673e-08
9.56762e-08
9.5712608e-08
9.5752166e-08
9.5794009e-08
9.5837178e-08
9.588057e-08
9.5923212e-08
9.5964235e-08
9.6002874e-08
9.6038276e-08
9.606951e-08
9.6095372e-08
9.6114662e-08
9.6126665e-08
9.6130858e-08
9.6126715e-08
9.6113896e-08
9.6093808e-08
9.6074252e-08
9.6082807e-08
9.6186151e-08
9.646432e-08
9.6777055e-08
9.6315361e-08
9.6341354e-08
9.6371415e-08
9.6405398e-08
9.6442666e-08
9.6482355e-08
9.6523418e-08
9.6564455e-08
9.6604472e-08
9.6642798e-08
9.6679127e-08
9.6712727e-08
9.6742575e-08
9.676706e-08
9.6784517e-08
9.6794511e-08
9.6796846e-08
9.6791089e-08
9.6776695e-08
9.6755071e-08
9.6733811e-08
9.673826e-08
9.6830522e-08
9.7081399e-08
9.7343273e-08
9.6843564e-08
9.6867978e-08
9.6896212e-08
9.6928513e-08
9.6964353e-08
9.7002864e-08
9.7042884e-08
9.7082617e-08
9.7121016e-08
9.7157657e-08
9.7192884e-08
9.7226026e-08
9.7255828e-08
9.7280209e-08
9.7296925e-08
9.7305978e-08
9.7307558e-08
9.7301306e-08
9.7286417e-08
9.726446e-08
9.7243817e-08
9.7242325e-08
9.731393e-08
9.7511272e-08
9.7686609e-08
)
;

boundaryField
{
    Walls
    {
        type            nutUWallFunction;
        Cmu             0.09;
        kappa           0.41;
        E               9.8;
        value           uniform 0;
    }
    Inlet
    {
        type            calculated;
        value           nonuniform List<scalar> 3(1.8640928e-05 1.7079449e-05 8.0152134e-07);
    }
    Outlet
    {
        type            calculated;
        value           nonuniform List<scalar> 
86
(
0
0
0
0
0
0
0
0
0
0
0
0
0
0
0
0
0
0
0
0
0
0
0
0
0
0
0
0
0
0
8.0644024e-08
5.2403418e-08
4.1363723e-08
0
0
0
0
3.842761e-08
3.9103596e-08
0
0
0
0
4.3997577e-08
4.5246277e-08
4.6538383e-08
4.787187e-08
4.9244345e-08
5.0659244e-08
5.2132236e-08
5.3662496e-08
5.5241904e-08
5.6881297e-08
5.8572928e-08
6.0306033e-08
6.2089798e-08
6.3919311e-08
6.5786075e-08
6.7678183e-08
6.9591296e-08
7.1514804e-08
7.3451253e-08
7.5381505e-08
7.7297792e-08
7.9198915e-08
0
0
0
0
0
0
0
0
0
0
0
0
0
0
0
3.2618369e-08
0
0
0
3.9208616e-08
5.0817985e-08
)
;
    }
    Front
    {
        type            wedge;
    }
    Back
    {
        type            wedge;
    }
    defaultFaces
    {
        type            empty;
    }
}


// ************************************************************************* //
