/*--------------------------------*- C++ -*----------------------------------*\
| =========                 |                                                 |
| \\      /  F ield         | OpenFOAM: The Open Source CFD Toolbox           |
|  \\    /   O peration     | Version:  4.0                                   |
|   \\  /    A nd           | Web:      www.OpenFOAM.org                      |
|    \\/     M anipulation  |                                                 |
\*---------------------------------------------------------------------------*/
FoamFile
{
    version     2.0;
    format      ascii;
    class       volScalarField;
    location    "0.03";
    object      omega;
}
// * * * * * * * * * * * * * * * * * * * * * * * * * * * * * * * * * * * * * //

dimensions      [0 0 -1 0 0 0 0];

internalField   nonuniform List<scalar> 
1740
(
59.785621
671.9035
14919.795
160.04891
1350.2099
15027.45
278.75359
1858.1154
15124.306
394.61043
2278.5205
15205.356
511.54152
2634.9996
15271.977
641.54763
2918.2666
15329.089
742.94892
3071.8425
15371.811
830.45675
3226.0742
15412.137
914.20898
3368.2869
15441.831
1018.3651
3468.3918
15476.838
1144.4352
3642.7995
15501.388
1248.1208
3787.3805
15512.078
1323.5351
3868.7441
15527.486
1399.1563
3924.1646
15536.145
1472.6401
3932.8072
15539.724
1543.1413
3970.7726
15547.587
1604.5057
4023.6303
15548.889
1658.8444
4015.2612
15559.108
1704.9349
4028.5843
15569.352
1741.2231
4121.6597
15566.286
1795.1273
4130.1284
15568.26
1836.9206
4113.3576
15571.544
1860.1288
4108.2878
15570.798
1882.1279
4093.4894
15571.065
1889.4227
4088.1403
15573.362
1907.767
4099.8315
15571.636
1931.7927
4132.7967
15572.592
1983.6006
4209.5763
15566.295
2007.9549
4226.506
15555.85
2137.0357
4296.423
15497.683
3196.8222
4570.3461
10742.687
3333.1031
4239.0675
5938.8199
1578.3466
1867.3728
2161.1661
826.79891
902.73502
961.16052
512.00377
529.74902
540.87403
410.68274
413.91972
415.70041
389.09106
389.79532
390.36996
383.06615
383.63723
384.06904
378.70573
378.88331
378.92921
375.75094
375.75358
375.63131
373.40605
373.34997
373.17798
371.29976
371.22678
371.04692
369.28837
369.21278
369.03864
367.31552
367.24228
367.07807
365.35771
365.2885
365.13524
363.40447
363.33976
363.19735
361.45096
361.39073
361.25864
359.4949
359.43898
359.31656
357.53535
357.4835
357.3701
355.57215
355.5241
355.4191
353.60563
353.56115
353.46397
351.63664
351.59548
351.50559
349.66642
349.62836
349.54528
347.69663
347.66147
347.58475
345.72939
345.69694
345.62615
343.76724
343.73732
343.67209
341.8132
341.78565
341.72561
339.87073
339.84541
339.79023
337.94379
337.92054
337.86993
336.03679
336.01549
335.96915
334.15464
334.13516
334.09282
332.30268
332.28491
332.24631
330.48671
330.47054
330.43544
328.71294
328.69825
328.66643
326.98794
326.97464
326.94586
325.3186
325.30659
325.28065
323.7121
323.70128
323.67798
322.17577
322.16607
322.1452
320.71711
320.70842
320.68979
319.34357
319.33582
319.31926
318.06257
318.05568
318.04099
316.88121
316.87509
316.8621
315.80541
315.79998
315.78853
314.83461
314.8298
314.81972
313.93076
313.9265
313.91764
312.85887
312.85511
312.84733
310.48905
310.48574
310.47897
302.29065
302.28778
302.28205
273.41418
273.41184
273.40741
186.747
186.74551
186.74299
13479.003
13533.817
5996.0795
5333.4475
2088.3999
1884.8866
928.02813
861.34701
528.49366
506.48965
412.73588
407.61978
390.43549
390.19163
384.01134
383.50542
378.69338
378.20009
375.33674
374.88448
372.87879
372.46216
370.7608
370.37581
368.77048
368.41439
366.8286
366.49906
364.90382
364.59876
362.98289
362.70041
361.05999
360.79837
359.13258
358.89027
357.19974
356.97531
355.26137
355.05354
353.318
353.12559
351.37057
351.19254
349.42046
349.25585
347.46947
347.31739
345.51979
345.37943
343.57407
343.44469
341.6354
341.51629
339.70733
339.59785
337.79388
337.69342
335.89953
335.80752
334.02922
333.94512
332.18834
332.11165
330.38273
330.31298
328.61864
328.55536
326.90266
326.84542
325.24172
325.1901
323.64301
323.5966
322.1139
322.07232
320.66187
320.62473
319.29443
319.26137
318.01899
317.98964
316.84266
316.81668
315.77139
315.74843
314.80463
314.78437
313.90437
313.88651
312.8357
312.82002
310.46889
310.45546
302.27371
302.26331
273.40144
273.39572
186.74018
186.73976
12058.153
2052.8345
728.3641
461.07641
403.69546
390.08121
384.9521
381.82717
379.62659
377.91386
376.44179
375.10996
373.88332
372.75019
371.70691
370.75276
369.88795
369.11109
368.40741
367.68517
366.47174
362.73968
349.67987
312.27118
245.65267
12058.107
2048.9958
745.41201
476.56502
416.62327
399.95556
392.02867
386.24187
382.02881
379.19295
377.15575
375.50554
374.07929
372.81202
371.67418
370.65062
369.73258
368.91199
368.16476
367.36942
365.93211
361.33548
344.69038
291.10355
150.16864
12058.121
2038.4205
753.31111
493.24145
435.34324
416.3105
405.4823
397.6843
391.84568
387.32944
383.70986
380.74525
378.27972
376.21486
374.47338
372.99127
371.72499
370.63328
369.6566
368.60242
366.6603
360.67443
340.27557
278.68632
131.36884
12058.4
2029.569
823.5942
619.3077
562.99796
528.51992
499.40417
474.40578
453.52547
436.39232
422.54199
411.51853
402.75556
395.86393
390.50341
386.33475
383.06841
380.4752
378.35251
376.4135
373.85884
367.87691
349.38382
294.64481
158.83897
12061.3
2137.7119
1228.2797
1080.7195
992.89005
911.34666
834.36183
764.37958
702.50374
648.42334
601.67647
561.92861
528.28231
500.1667
477.27837
458.96536
444.44044
432.95563
423.84862
416.51055
410.34206
404.37901
395.75693
378.5923
347.47124
12087.137
3784.2832
2783.0371
2395.1668
2104.4406
1853.6173
1635.0162
1445.5215
1282.6017
1142.5829
1021.8775
917.46452
827.41356
750.09422
684.03987
628.06121
581.15868
542.45895
511.06938
486.11233
466.4954
451.29798
438.84452
428.24085
417.12355
10362.879
7904.6997
6103.5531
4800.9448
3840.13
3115.2266
2557.3359
2121.7956
1778.4895
1505.7556
1287.3572
1111.0546
967.66644
850.24978
753.50396
673.43188
607.09843
552.45077
508.07466
472.93237
445.97458
426.06586
411.65693
401.44073
393.97462
4082.8789
3291.7452
2833.9545
2472.4237
2166.9325
1902.2602
1672.3084
1474.4668
1305.3165
1160.2563
1035.3908
928.0234
835.84778
756.84613
689.33635
631.96507
583.6607
543.64546
511.16932
485.40819
465.23865
449.68226
437.04483
426.39782
415.42415
1598.9637
1406.3135
1277.9302
1169.835
1067.859
971.31264
882.48338
803.39103
734.39228
675.06725
624.08208
580.1557
543.06226
512.34608
487.24921
467.17339
451.08176
438.21819
427.99529
419.82796
413.02364
406.58147
397.64926
380.54261
349.85649
778.9077
714.86889
667.02156
624.78638
584.27634
546.22314
512.30334
483.48236
459.87737
440.88769
425.62441
413.4062
403.7962
396.32564
390.54109
386.07912
382.58584
379.81548
377.55418
375.493
372.7782
366.5062
347.5005
292.27501
157.34441
481.77434
461.6564
446.08589
432.80715
420.90393
410.46484
401.6792
394.50417
388.74546
384.13165
380.39436
377.34197
374.84378
372.78685
371.07805
369.64506
368.43071
367.38982
366.45191
365.38816
363.27362
356.66524
334.75533
271.09375
125.61798
401.96217
396.86234
392.3259
388.18431
384.48737
381.30668
378.63846
376.3812
374.43912
372.72449
371.21673
369.88599
368.69753
367.62861
366.66438
365.7953
365.01453
364.31418
363.6663
362.92995
361.43704
356.44305
338.53883
282.31185
140.72264
389.47549
387.58861
384.59148
381.29896
378.3537
375.96221
374.04821
372.47501
371.10409
369.86991
368.73747
367.68688
366.70863
365.79894
364.95714
364.18404
363.48082
362.84675
362.26756
361.652
360.52973
356.87149
343.68105
304.25426
219.37397
382.49907
380.87179
378.87094
376.82743
374.96411
373.34377
371.93176
370.67018
369.51605
368.43422
367.41155
366.44329
365.52901
364.67052
363.87067
363.13264
362.45931
361.85171
361.30023
360.73627
359.80643
357.04633
347.86513
323.50264
285.26893
377.44664
376.40259
375.17273
373.88279
372.6196
371.41864
370.28219
369.19879
368.16787
367.17687
366.22471
365.31371
364.44751
363.63032
362.86643
362.15991
361.51426
360.93125
360.40374
359.87765
359.08266
356.96321
350.51243
334.90879
312.21656
374.27912
373.51438
372.63095
371.67851
370.69678
369.71032
368.73187
367.76779
366.82277
365.90303
365.01108
364.15212
363.3317
362.55518
361.82761
361.15351
360.53674
359.97947
359.47628
358.98339
358.28694
356.57462
351.49633
337.63109
287.58465
371.9342
371.2969
370.56971
369.77653
368.93943
368.07609
367.19993
366.32129
365.44876
364.58993
363.75267
362.94291
362.16692
361.43065
360.73949
360.09821
359.51088
358.97992
358.50113
358.03734
357.40257
355.82114
350.23367
327.15138
224.34239
369.89815
369.33274
368.69179
367.99001
367.24218
366.46192
365.66127
364.85082
364.03999
363.23736
362.45075
361.68783
360.95491
360.25811
359.60296
358.99436
358.43644
357.93181
357.47702
357.03779
356.42916
354.76456
347.87988
316.63123
190.36293
367.97619
367.46167
366.88012
366.24243
365.55993
364.84382
364.10474
363.35263
362.59674
361.84561
361.10707
360.38893
359.69765
359.03933
358.41951
357.84312
357.31429
356.83575
356.40434
355.98591
355.38179
353.55926
345.49443
309.49385
177.51277
366.09488
365.62182
365.0877
364.50143
363.87246
363.21044
362.52484
361.82483
361.11914
360.41601
359.72314
359.04774
358.39662
357.77569
357.19039
356.64557
356.14537
355.69249
355.28378
354.88334
354.27255
352.28501
343.38183
305.72953
181.50439
364.22502
363.78812
363.29489
362.75304
362.17079
361.55666
360.91921
360.26685
359.60774
358.94968
358.30005
357.66572
357.05332
356.4686
355.91689
355.40294
354.93078
354.50307
354.1164
353.7321
353.11146
350.99304
341.6864
304.96721
194.44601
362.35441
361.95004
361.49341
360.99135
360.45121
359.88062
359.28736
358.67918
358.06366
357.44813
356.83959
356.24464
355.66943
355.11972
354.60062
354.11671
353.67194
353.26885
352.90354
352.53412
351.90313
349.68346
340.2115
305.23945
208.96842
360.47788
360.10322
359.67995
359.21423
358.71266
358.18219
357.62993
357.06299
356.48844
355.91313
355.34366
354.78631
354.24693
353.73096
353.2434
352.78867
352.37055
351.99145
351.64702
351.29265
350.65834
348.3899
338.96585
305.72633
217.25483
358.59333
358.24606
357.85351
357.42129
356.9554
356.46218
355.94815
355.41988
354.88393
354.3467
353.81439
353.29292
352.78786
352.30438
351.84727
351.42076
351.0285
350.67274
350.34874
350.01014
349.38152
347.11628
337.90344
306.25613
223.24429
356.70017
356.37827
356.01419
355.61304
355.18032
354.72184
354.2436
353.75166
353.25212
352.75094
352.25395
351.76671
351.29449
350.84222
350.41439
350.01511
349.64787
349.31474
349.01071
348.6885
348.0711
345.82595
336.77183
305.75863
222.90619
354.79864
354.5003
354.16269
353.79049
353.38873
352.96274
352.51806
352.0603
351.59511
351.12808
350.66463
350.21
349.76916
349.34676
348.94708
348.57401
348.23089
347.91965
347.6351
347.3297
346.72798
344.51551
335.57621
304.46452
218.14595
352.88953
352.61312
352.30019
351.955
351.58218
351.18665
350.77349
350.34792
349.91518
349.48046
349.04885
348.62526
348.21435
347.82051
347.44781
347.09992
346.78001
346.48987
346.22415
345.93537
345.35117
343.18149
334.39475
303.35607
214.34025
350.97403
350.71808
350.42818
350.10825
349.76255
349.39559
349.01207
348.61683
348.21472
347.81059
347.40918
347.01509
346.6327
346.26614
345.91924
345.59548
345.29787
345.02803
344.7805
344.50806
343.94218
341.81536
333.14812
301.96715
209.5601
349.05373
348.81688
348.54852
348.25224
347.93196
347.59182
347.2362
346.86954
346.49637
346.12118
345.74841
345.38234
345.02709
344.68653
344.36428
344.06362
343.78737
343.53703
343.30705
343.05066
342.5032
340.41358
331.81399
300.44558
206.60091
347.13058
346.91161
346.66341
346.38929
346.09285
345.77793
345.44855
345.10884
344.76299
344.41518
344.06954
343.73007
343.40063
343.08484
342.78611
342.50751
342.2517
342.02004
341.8069
341.56591
341.03614
338.98503
330.49675
299.37308
206.05039
345.20696
345.00472
344.77541
344.52207
344.24801
343.95679
343.65211
343.33781
343.01775
342.69583
342.37589
342.06166
341.75673
341.46451
341.18817
340.93062
340.69435
340.48055
340.28349
340.05698
339.54275
337.52392
329.14122
298.31705
205.65809
343.28564
343.09907
342.88746
342.65362
342.40059
342.13166
341.85024
341.55987
341.26416
340.96671
340.67109
340.38077
340.0991
339.82928
339.57425
339.33676
339.11912
338.92237
338.74057
338.52708
338.02278
336.01132
327.65234
297.06435
206.84972
341.36983
341.19795
341.00295
340.78741
340.55413
340.30615
340.04662
339.77882
339.50608
339.23174
338.95912
338.69144
338.43183
338.18326
337.94849
337.73008
337.53018
337.34969
337.1824
336.9808
336.48224
334.45774
326.0471
295.55359
207.05051
339.46317
339.30508
339.12566
338.92729
338.71258
338.4843
338.24537
337.99883
337.74774
337.49522
337.24433
336.99807
336.75935
336.53093
336.31539
336.11511
335.9321
335.7671
335.61368
335.42365
334.93125
332.89568
324.43451
293.9839
206.82578
337.56979
337.42461
337.25981
337.07758
336.88029
336.67053
336.45099
336.22445
335.99378
335.76183
335.53146
335.30545
335.08649
334.87715
334.67983
334.49676
334.32979
334.17952
334.03935
333.86059
333.37541
331.33576
322.85237
292.50293
206.5164
335.69424
335.56117
335.41009
335.24298
335.06207
334.86971
334.66839
334.46068
334.24923
334.03667
333.82565
333.61875
333.41846
333.22716
333.0471
332.88033
332.72857
332.5923
332.46473
332.29678
331.81905
329.77817
321.27436
290.95996
207.32642
333.84154
333.71982
333.58159
333.42868
333.26313
333.0871
332.9029
332.7129
332.51952
332.32522
332.13244
331.94355
331.76088
331.58663
331.42287
331.27152
331.13417
331.01115
330.89554
330.73776
330.26647
328.22031
319.6717
289.16902
204.03234
332.01716
331.90607
331.77987
331.64027
331.48911
331.32841
331.16027
330.98689
330.8105
330.63337
330.45774
330.28582
330.11974
329.96156
329.8132
329.67641
329.55267
329.4422
329.33791
329.18979
328.72485
326.67716
318.12058
287.67999
202.88303
330.22698
330.12583
330.0109
329.88374
329.74607
329.59972
329.44664
329.28884
329.12839
328.96738
328.80786
328.65188
328.50142
328.35837
328.2245
328.10144
327.99055
327.89192
327.79831
327.65928
327.20026
325.15136
316.58574
286.14096
201.10597
328.47729
328.38543
328.28103
328.1655
328.04043
327.9075
327.76851
327.62531
327.47978
327.33387
327.18946
327.04844
326.91264
326.78379
326.66354
326.5534
326.4546
326.36713
326.28357
326.15302
325.69925
323.64853
315.0726
284.59505
198.35319
326.77475
326.69155
326.59697
326.49229
326.37898
326.25858
326.13274
326.00317
325.87159
325.73979
325.60952
325.4825
325.36042
325.24489
325.13742
325.03939
324.95194
324.87495
324.80085
324.67822
324.22904
322.17321
313.56167
282.94358
196.39599
325.12632
325.05118
324.96573
324.87115
324.76879
324.66006
324.54647
324.42959
324.31102
324.19239
324.0753
323.96135
323.85209
323.74899
323.65346
323.56678
323.48995
323.42279
323.35757
323.24257
322.79855
320.74124
312.10823
281.41356
193.9816
323.53921
323.47155
323.39457
323.30938
323.21717
323.11928
323.01707
322.91198
322.8055
322.6991
322.59427
322.49248
322.39515
322.30364
322.21924
322.14312
322.07622
322.01824
321.96138
321.85378
321.416
319.36379
310.73883
280.08622
192.89471
322.02083
321.96009
321.89095
321.81442
321.73162
321.64375
321.55207
321.4579
321.3626
321.26753
321.17406
321.08354
320.99727
320.91651
320.84244
320.77615
320.71846
320.66903
320.61998
320.51953
320.08883
318.04712
309.45226
278.90966
192.06558
320.57869
320.52432
320.4624
320.39386
320.31972
320.24108
320.15909
320.07499
319.99
319.90538
319.82239
319.74227
319.66621
319.59538
319.53085
319.47363
319.42447
319.38295
319.34115
319.24737
318.82363
316.79425
308.2401
277.83986
191.34234
319.22031
319.17178
319.11648
319.05526
318.98905
318.91887
318.84578
318.7709
318.69537
318.62033
318.54696
318.47637
318.40969
318.34796
318.29221
318.24333
318.20202
318.16777
318.13262
318.04477
317.62643
315.60402
307.0683
276.69732
189.89139
317.95313
317.90992
317.86066
317.8061
317.74712
317.68464
317.61965
317.55317
317.48625
317.41995
317.35533
317.29344
317.23531
317.1819
317.13414
317.09288
317.05873
317.03114
317.00203
316.91947
316.50529
314.48556
305.95159
275.5779
188.10069
316.78429
316.74589
316.70208
316.65355
316.6011
316.54559
316.48792
316.42903
316.36989
316.31149
316.25479
316.20076
316.15035
316.10446
316.06395
316.02959
316.00194
315.98037
315.95673
315.8788
315.46773
313.44868
304.91917
274.60553
187.41499
315.71974
315.68566
315.64674
315.60361
315.55702
315.50774
315.45661
315.40452
315.35235
315.30101
315.25139
315.2044
315.16091
315.12175
315.08772
315.05954
315.03771
315.02154
315.00277
314.92881
314.51947
312.497
303.9597
273.67496
186.7247
314.75897
314.72875
314.69418
314.65586
314.61444
314.57066
314.52531
314.47922
314.43321
314.38811
314.34475
314.30395
314.26651
314.23325
314.20493
314.18221
314.16552
314.15413
314.1397
314.06938
313.66224
311.63935
303.10306
272.85831
186.12427
313.86406
313.83732
313.8067
313.77265
313.73575
313.69671
313.65628
313.61535
313.57471
313.53509
313.49713
313.46151
313.42903
313.40062
313.37714
313.3591
313.3468
313.33945
313.32878
313.26188
312.85766
310.83768
302.31053
272.1154
185.58894
312.80037
312.77717
312.75065
312.72067
312.68766
312.65229
312.61546
312.57864
312.54272
312.50816
312.47471
312.44242
312.41264
312.387
312.36715
312.35283
312.34383
312.33932
312.33156
312.26768
311.86619
309.84926
301.33269
271.20275
184.98035
310.43922
310.4211
310.40077
310.37583
310.34607
310.31213
310.27573
310.24119
310.21023
310.18249
310.15339
310.11933
310.08541
310.05666
310.03862
310.02679
310.01883
310.01419
310.00785
309.9477
309.54971
307.53911
299.05658
269.14215
183.92261
302.25286
302.245
302.23771
302.22156
302.19432
302.1564
302.11236
302.07675
302.0553
302.04638
302.02903
301.97947
301.92191
301.87418
301.85681
301.84702
301.83536
301.8236
301.81802
301.77215
301.39106
299.41813
291.1016
261.90535
179.47637
273.39529
273.40624
273.42317
273.42236
273.39721
273.34727
273.28341
273.24411
273.24808
273.29767
273.33308
273.24808
273.13208
273.03825
273.02746
273.0244
273.00362
272.97626
272.9828
273.00706
272.74164
270.94053
263.32339
236.77404
162.52636
186.74873
186.77539
186.81206
186.82562
186.80619
186.75212
186.67908
186.64582
186.68856
186.82947
186.98206
186.88534
186.72346
186.59422
186.60273
186.61438
186.59081
186.55866
186.60902
186.82918
187.17419
185.96706
180.62391
162.39572
113.6419
)
;

boundaryField
{
    Walls
    {
        Cmu             0.09;
        kappa           0.41;
        E               9.8;
        beta1           0.075;
        type            omegaWallFunction;
        value           nonuniform List<scalar> 
38
(
12058.153
12058.107
12058.121
12058.4
12061.3
12087.137
13479.003
13533.817
14919.795
15027.45
15124.306
15205.356
15271.977
15329.089
15371.811
15412.137
15441.831
15476.838
15501.388
15512.078
15527.486
15536.145
15539.724
15547.587
15548.889
15559.108
15569.352
15566.286
15568.26
15571.544
15570.798
15571.065
15573.362
15571.636
15572.592
15566.295
15555.85
15497.683
)
;
    }
    Inlet
    {
        type            turbulentMixingLengthDissipationRateInlet;
        mixingLength    0.03;
        phi             phi;
        k               k;
        value           nonuniform List<scalar> 3(0.0043873818 0.0050587512 0.00488589);
    }
    Outlet
    {
        type            inletOutlet;
        inletValue      uniform 1e-05;
        value           nonuniform List<scalar> 
86
(
1e-05
1e-05
1e-05
1e-05
1e-05
1e-05
1e-05
1e-05
1e-05
1e-05
1e-05
1e-05
1e-05
1e-05
1e-05
1e-05
1e-05
1e-05
1e-05
1e-05
1e-05
1e-05
1e-05
1e-05
1e-05
1e-05
1e-05
1e-05
1e-05
1e-05
393.97462
415.42415
349.85649
1e-05
1e-05
1e-05
1e-05
285.26893
312.21656
1e-05
1e-05
1e-05
1e-05
181.50439
194.44601
208.96842
217.25483
223.24429
222.90619
218.14595
214.34025
209.5601
206.60091
206.05039
205.65809
206.84972
207.05051
206.82578
206.5164
207.32642
204.03234
202.88303
201.10597
198.35319
196.39599
1e-05
1e-05
1e-05
1e-05
1e-05
1e-05
1e-05
1e-05
1e-05
1e-05
1e-05
1e-05
1e-05
1e-05
1e-05
245.65267
1e-05
1e-05
1e-05
347.47124
417.12355
)
;
    }
    Front
    {
        type            wedge;
    }
    Back
    {
        type            wedge;
    }
    defaultFaces
    {
        type            empty;
    }
}


// ************************************************************************* //
