/*--------------------------------*- C++ -*----------------------------------*\
| =========                 |                                                 |
| \\      /  F ield         | OpenFOAM: The Open Source CFD Toolbox           |
|  \\    /   O peration     | Version:  4.0                                   |
|   \\  /    A nd           | Web:      www.OpenFOAM.org                      |
|    \\/     M anipulation  |                                                 |
\*---------------------------------------------------------------------------*/
FoamFile
{
    version     2.0;
    format      ascii;
    class       volScalarField;
    location    "0.03";
    object      p;
}
// * * * * * * * * * * * * * * * * * * * * * * * * * * * * * * * * * * * * * //

dimensions      [0 2 -2 0 0 0 0];

internalField   nonuniform List<scalar> 
1740
(
491.48669
491.54093
491.67953
475.00086
475.1184
475.31025
458.81366
458.80788
458.61653
442.15535
442.13198
441.86609
425.03
425.149
425.54984
408.16351
408.24049
408.95553
392.05261
391.95707
392.33084
376.00516
375.96195
375.83786
359.58997
359.75588
359.29643
343.17328
343.07518
342.87498
326.63052
326.39732
326.42444
310.10412
310.09117
309.76021
293.52366
293.40383
293.11413
276.85422
276.67113
276.6715
260.3602
260.4549
260.33452
243.86037
244.01884
244.06483
226.98098
227.13619
227.48884
210.19995
210.3406
210.49656
193.86749
193.7445
193.74959
177.41967
177.38059
177.58101
160.89333
161.12425
161.09296
144.15202
144.24807
144.0971
127.40675
127.13894
127.05409
110.85926
110.46818
110.32584
94.127278
94.100626
94.094036
77.776696
78.025502
78.10045
61.745802
61.966176
61.934
45.868001
46.087151
45.776294
30.634255
30.644581
30.492999
16.25381
15.795179
15.722086
4.1240987
3.3761561
1.6965112
-0.66016626
-0.63688826
-0.38994934
-0.18505789
-0.17773618
-0.12774763
-0.069346956
-0.062771208
-0.042563543
-0.049867631
-0.043780639
-0.031083388
-0.041403586
-0.036860008
-0.027883362
-0.036473466
-0.033232492
-0.026930341
-0.032238021
-0.029934685
-0.025457335
-0.028350106
-0.026692759
-0.023440923
-0.024856915
-0.023651752
-0.021251402
-0.021930967
-0.021038613
-0.019235176
-0.019598291
-0.018924141
-0.017546176
-0.017777617
-0.017258931
-0.016188244
-0.016360886
-0.015955063
-0.015110277
-0.015233121
-0.01491055
-0.014234428
-0.014296534
-0.014036391
-0.013488008
-0.013485825
-0.01327318
-0.012822772
-0.012763399
-0.012587414
-0.012213102
-0.012107257
-0.011959918
-0.011645396
-0.011502386
-0.011377669
-0.011110622
-0.010937353
-0.010830762
-0.010601915
-0.010403384
-0.010311535
-0.010113862
-0.0098942027
-0.0098144399
-0.0096424327
-0.0094054361
-0.0093356312
-0.0091848603
-0.0089333947
-0.0088718939
-0.0087388673
-0.0084744594
-0.0084200012
-0.0083020203
-0.0080256217
-0.0079771935
-0.0078721394
-0.0075850275
-0.0075417889
-0.007447904
-0.0071519116
-0.0071131737
-0.0070289865
-0.0067262351
-0.0066914412
-0.0066157536
-0.0063084019
-0.006277097
-0.0062089447
-0.005899098
-0.0058709016
-0.0058094881
-0.0054991262
-0.0054737208
-0.0054183575
-0.0051092028
-0.0050863107
-0.0050363932
-0.0047298116
-0.0047091881
-0.0046641958
-0.0043611979
-0.0043426371
-0.0043021318
-0.0040034337
-0.0039867639
-0.0039503749
-0.0036564487
-0.0036415215
-0.0036089278
-0.0033200227
-0.0033067081
-0.0032776286
-0.0029937875
-0.0029819717
-0.0029561601
-0.0026772411
-0.0026668245
-0.0026440653
-0.0023697661
-0.0023606619
-0.0023407669
-0.0020706459
-0.0020627786
-0.0020455842
-0.0017790803
-0.001772385
-0.0017577505
-0.0014941989
-0.0014886208
-0.0014764273
-0.0012150666
-0.0012105606
-0.0012007101
-0.0009406787
-0.00093720939
-0.00092962419
-0.00066991869
-0.00066745943
-0.00066208156
-0.0004016901
-0.00040022252
-0.00039701049
-0.00013411722
-0.00013362987
-0.00013256136
-1.2760234
-0.90247687
-0.29480468
-0.22775882
-0.099703159
-0.081445308
-0.026602312
-0.015367614
-0.017845743
-0.0075193988
-0.018050018
-0.0095913912
-0.019729656
-0.013039139
-0.020114155
-0.014890455
-0.019421829
-0.015304646
-0.01818674
-0.014924558
-0.016872351
-0.014273555
-0.015702475
-0.013619238
-0.014730719
-0.013047929
-0.013943692
-0.012572142
-0.013289636
-0.012161717
-0.012714147
-0.011777906
-0.012181793
-0.011397429
-0.011676519
-0.011013439
-0.011191672
-0.010626191
-0.010723297
-0.010237012
-0.010268438
-0.0098470939
-0.0098246122
-0.0094570952
-0.0093898413
-0.0090673092
-0.0089628084
-0.008678085
-0.0085424347
-0.0082896942
-0.0081273806
-0.0079019633
-0.0077162876
-0.0075144833
-0.0073083535
-0.0071271509
-0.0069036465
-0.0067405358
-0.0065029113
-0.0063557941
-0.0061072125
-0.005974347
-0.0057177077
-0.0055976345
-0.0053355247
-0.0052269899
-0.0049616328
-0.0048635485
-0.0045967582
-0.0045081874
-0.0042413813
-0.0041615209
-0.0038957676
-0.0038239245
-0.0035599906
-0.0034955605
-0.0032339473
-0.0031763997
-0.0029173715
-0.0028662402
-0.0026098511
-0.0025647266
-0.0023108485
-0.0022713719
-0.0020197196
-0.0019855784
-0.0017357314
-0.0017066566
-0.0014580774
-0.001433841
-0.0011858838
-0.0011662969
-0.00091820584
-0.0009031183
-0.00065398448
-0.00064328312
-0.00039217264
-0.00038577669
-0.00013095098
-0.00012882073
0.0013993534
0.0019193865
0.0027450206
0.0036288435
0.004385758
0.0049311339
0.0052456978
0.0053463639
0.0052760357
0.0050730496
0.0047733751
0.0044083945
0.0040047821
0.0035845524
0.0031644774
0.0027556903
0.0023664563
0.0020015642
0.0016628734
0.0013501225
0.0010616957
0.00079510255
0.00054728047
0.00031501953
9.5997333e-05
0.0024371873
0.0030360621
0.0038711148
0.0047332516
0.0053948233
0.0057876203
0.0059202504
0.0058324616
0.0056059656
0.0052996577
0.0049301869
0.0045191097
0.0040865647
0.0036497169
0.0032213322
0.0028082337
0.0024167889
0.0020500459
0.0017086679
0.001391888
0.0010981121
0.00082502275
0.00056975189
0.00032975249
0.00010447776
0.0027036862
0.0033391116
0.0040012109
0.0046722664
0.0049818831
0.0049113448
0.0045561531
0.0040382803
0.0034312355
0.0028062594
0.0022440687
0.0017717111
0.0013812361
0.0010630152
0.00080780568
0.00060157183
0.00043734351
0.0003082126
0.00020863828
0.00013454648
8.1953644e-05
4.6482174e-05
2.3937952e-05
1.3012555e-05
1.381568e-05
-0.0055221603
-0.0048958411
-0.0050095576
-0.0058484869
-0.0071053311
-0.0081737703
-0.0089459536
-0.0093666663
-0.0094434964
-0.0092555511
-0.0088879269
-0.0084054423
-0.0078417137
-0.007225635
-0.0065740735
-0.0059214902
-0.0052695769
-0.0046207396
-0.0039740674
-0.0033304747
-0.0026932039
-0.0020659517
-0.0014512402
-0.00084591527
-0.0002506917
-0.053288539
-0.053796452
-0.053789997
-0.051924908
-0.049414153
-0.046215513
-0.042546684
-0.038645835
-0.034785294
-0.031091536
-0.027627008
-0.024420147
-0.021473998
-0.018781452
-0.016350375
-0.014209607
-0.01227253
-0.010496632
-0.0088138487
-0.0072376105
-0.0057596579
-0.0043652764
-0.0030448431
-0.0017810782
-0.0005743098
-0.22304426
-0.18209312
-0.16462944
-0.13504239
-0.11192752
-0.091576389
-0.074116793
-0.059738593
-0.048028215
-0.038515696
-0.030802452
-0.02459574
-0.01962766
-0.015630577
-0.012412706
-0.0097811399
-0.0076555891
-0.0059417323
-0.0045865806
-0.0034969914
-0.0026103269
-0.0018757206
-0.0012646689
-0.00073144127
-0.00028804752
-0.33453597
-0.14056459
-0.095547703
-0.062532061
-0.031660933
-0.0070260746
0.0089392308
0.017135353
0.020390625
0.02112453
0.020599359
0.019402387
0.017837773
0.016127321
0.014425786
0.01282666
0.011337238
0.0099454647
0.0086194987
0.0073279301
0.006036431
0.004735419
0.0033886102
0.0020330928
0.0005877338
-0.18809772
-0.16566145
-0.14372129
-0.1216387
-0.10100113
-0.082414289
-0.066571621
-0.053450816
-0.042812014
-0.03422764
-0.027270525
-0.021647657
-0.017167086
-0.01359526
-0.010728181
-0.0084227156
-0.0066053563
-0.0051312312
-0.0039416667
-0.0029824036
-0.002208117
-0.0015734024
-0.0010552074
-0.00060833252
-0.00025037251
-0.073065397
-0.068603406
-0.065095419
-0.061337295
-0.057048849
-0.052282843
-0.047346557
-0.042585906
-0.038101835
-0.033925051
-0.030071418
-0.026565755
-0.023377978
-0.020485937
-0.017883487
-0.015525289
-0.013319
-0.011308613
-0.0094646795
-0.0077590893
-0.0061688647
-0.004673006
-0.0032583506
-0.0019071349
-0.0006174773
-0.0105446
-0.010160764
-0.01156314
-0.013249206
-0.014582036
-0.015398851
-0.015719907
-0.015621233
-0.015222673
-0.014573905
-0.013751291
-0.012821123
-0.01181486
-0.01077003
-0.0097211215
-0.0086801378
-0.0076544884
-0.0066489569
-0.0056674007
-0.0047127366
-0.0037867419
-0.0028902364
-0.0020228221
-0.0011780582
-0.00035474483
-0.00067300288
0.003333719
0.0047636524
0.0046206901
0.003776298
0.0026169116
0.0013976106
0.00020857765
-0.00070231272
-0.001362496
-0.0018122768
-0.0020920712
-0.0022315704
-0.0022598759
-0.0022065886
-0.0020930936
-0.0019346656
-0.00174405
-0.0015308856
-0.0013027214
-0.0010656954
-0.00082473348
-0.00058332465
-0.00034070319
-9.5397816e-05
-0.0034222402
0.00057053338
0.0031242743
0.004423215
0.0047996536
0.0047131897
0.0044053036
0.0040199362
0.0035136371
0.0029803479
0.0024723611
0.0020189907
0.0016312467
0.0013083931
0.0010433378
0.00082603488
0.00064950694
0.00050687268
0.00039156801
0.0002979774
0.00022146264
0.00015797035
0.00010399941
5.7573107e-05
1.929665e-05
-0.0075639141
-0.0034665795
-0.0005535131
0.0013500791
0.0024309339
0.0029330566
0.0030537981
0.0030069247
0.0028487814
0.0026044175
0.0023149008
0.0020140632
0.0017227564
0.0014544636
0.0012181481
0.0010066519
0.00082283404
0.00066660058
0.00053357426
0.00041951059
0.00032077304
0.00023426147
0.00015720488
8.7225764e-05
2.4015922e-05
-0.01031396
-0.006586693
-0.0037149692
-0.0016173446
-0.00017745565
0.00076370122
0.0013397307
0.0016736236
0.0018324676
0.001856303
0.0017849523
0.0016473868
0.0014685964
0.0012682656
0.0010792558
0.00090999903
0.00075925167
0.00062789037
0.00051116674
0.0004070864
0.0003140764
0.00023064198
0.00015525178
8.6338773e-05
2.2683268e-05
-0.011522923
-0.0082753726
-0.0056301601
-0.0035645078
-0.0020082119
-0.00086395257
-4.2598832e-05
0.00053162674
0.00091422344
0.0011452911
0.001258063
0.0012823579
0.001243582
0.0011601043
0.0010549845
0.00093809928
0.00081581495
0.00069381893
0.00058100165
0.00047474264
0.00037448763
0.00028016277
0.00019142692
0.00010797428
2.9568309e-05
-0.011798284
-0.0090090456
-0.0066387434
-0.0046979092
-0.0031518764
-0.001943914
-0.0010175834
-0.00031941041
0.00019186066
0.00055206101
0.00079394308
0.00094294794
0.0010215666
0.0010515546
0.0010244557
0.00096046217
0.00087028617
0.00076945446
0.00066007568
0.00054999199
0.00044161391
0.00033591544
0.00023323224
0.00013419033
3.9500253e-05
-0.011693587
-0.0093068863
-0.0072080038
-0.0054258793
-0.0039502872
-0.0027512857
-0.0017927189
-0.0010376064
-0.00045324679
-1.1401783e-05
0.00031387639
0.00054481226
0.00069990866
0.00079356819
0.00083318266
0.00083112999
0.00079860697
0.00073873698
0.00065699107
0.00056278508
0.00046148415
0.00035646573
0.00025008606
0.00014434862
4.221226e-05
-0.011490258
-0.0094589575
-0.0076146777
-0.0059984475
-0.0046169264
-0.003458652
-0.002502517
-0.001724563
-0.0010996476
-0.00060490705
-0.00022030104
7.199968e-05
0.00028762153
0.00043842252
0.00053361383
0.00058285759
0.0005947029
0.00057515098
0.00053038544
0.00046728635
0.00039142088
0.00030696933
0.00021732789
0.0001257496
3.6303637e-05
-0.011285754
-0.0095599352
-0.0079487901
-0.0064962478
-0.0052190996
-0.0041177528
-0.0031853839
-0.0024068779
-0.001763131
-0.0012357113
-0.00080869665
-0.00046821946
-0.00020215029
-1.2414539e-07
0.00014656281
0.00024605705
0.00030579616
0.00033191274
0.00033029788
0.00030677986
0.00026661123
0.00021430531
0.00015373613
8.9015958e-05
2.4960311e-05
-0.011106809
-0.0096380315
-0.0082332816
-0.0069357765
-0.0057677402
-0.0047356429
-0.0038399328
-0.0030730159
-0.0024223871
-0.0018741283
-0.0014161225
-0.0010376183
-0.00072953255
-0.00048289653
-0.00028975917
-0.0001430246
-3.6163734e-05
3.6710237e-05
8.0999992e-05
0.00010173194
0.00010366266
9.1124215e-05
6.7735969e-05
3.8875254e-05
1.1030857e-05
-0.010935233
-0.0096816841
-0.0084577069
-0.0073025959
-0.0062409238
-0.0052843612
-0.0044320401
-0.0036826786
-0.0030319941
-0.0024714682
-0.0019919653
-0.0015850582
-0.0012433295
-0.00095927427
-0.00072596919
-0.00053711479
-0.00038699303
-0.00027025892
-0.00018202359
-0.00011766124
-7.2866722e-05
-4.3526349e-05
-2.5646524e-05
-1.4737978e-05
-7.1595371e-06
-0.010743464
-0.0096691664
-0.0086008703
-0.0075733251
-0.0066099994
-0.0057247919
-0.0049213969
-0.0041987483
-0.0035568876
-0.0029938132
-0.0025028951
-0.0020774682
-0.0017110801
-0.0013975977
-0.001131226
-0.00090657616
-0.00071867286
-0.00056289472
-0.00043483681
-0.00033025209
-0.00024516696
-0.0001758129
-0.00011855505
-6.9286311e-05
-2.4771765e-05
-0.010518819
-0.009592333
-0.0086563061
-0.0077407427
-0.006867094
-0.0060491786
-0.0052957067
-0.004608365
-0.0039862436
-0.0034295721
-0.0029358101
-0.0025001672
-0.0021173522
-0.0017823465
-0.0014904021
-0.0012369889
-0.0010178122
-0.00082878737
-0.00066600835
-0.00052573464
-0.00040438019
-0.00029853342
-0.00020494159
-0.00012024948
-4.1595521e-05
-0.010261789
-0.009458106
-0.0086344755
-0.0078168008
-0.0070246103
-0.0062715992
-0.0055670402
-0.0049163772
-0.0043201397
-0.0037772949
-0.00328754
-0.0028484073
-0.0024560578
-0.0021064568
-0.001795788
-0.0015202358
-0.0012761049
-0.0010598496
-0.00086804301
-0.00069740351
-0.00054477229
-0.0004071338
-0.00028163483
-0.00016550902
-5.6220435e-05
-0.0099784916
-0.0092776837
-0.0085502718
-0.0078185752
-0.0071001516
-0.0064081609
-0.0057519766
-0.0051376159
-0.0045681045
-0.0040434149
-0.0035630267
-0.0031258008
-0.0027292946
-0.0023707911
-0.0020470941
-0.0017550705
-0.0014916087
-0.0012536527
-0.0010382631
-0.00084259374
-0.00066390768
-0.00049959775
-0.00034721275
-0.00020430328
-6.8630704e-05
-0.0096750388
-0.0090608039
-0.0084161582
-0.0077601151
-0.0071083564
-0.0064731156
-0.0058634833
-0.0052856973
-0.0047435196
-0.0042385911
-0.0037708141
-0.0033394379
-0.002943081
-0.0025800742
-0.0022479552
-0.0019441783
-0.0016662109
-0.0014114586
-0.0011774431
-0.00096172227
-0.00076195064
-0.00057589801
-0.00040145139
-0.00023642201
-7.8885643e-05
-0.0093564042
-0.0088153538
-0.0082420129
-0.0076525554
-0.0070607669
-0.0064778103
-0.0059122725
-0.0053703651
-0.0048562072
-0.004372109
-0.0039188329
-0.0034962248
-0.0031036399
-0.0027397148
-0.002403001
-0.0020915313
-0.0018032292
-0.0015360712
-0.0012878996
-0.0010566403
-0.00084031289
-0.00063702578
-0.0004449644
-0.00026218568
-8.7078579e-05
-0.0090261676
-0.0085473112
-0.0080355527
-0.0075046597
-0.0069666438
-0.0064315257
-0.005907274
-0.0053998942
-0.0049136208
-0.0044511404
-0.0040138318
-0.0036021869
-0.0032160614
-0.002854575
-0.0025167311
-0.0022012224
-0.0019064007
-0.0016307032
-0.0013722973
-0.0011295048
-0.000900689
-0.00068424037
-0.00047861121
-0.00028209777
-9.3372558e-05
-0.0086868433
-0.0082611366
-0.007802736
-0.0073233641
-0.0068334547
-0.0063419244
-0.0058560664
-0.0053815741
-0.0049226544
-0.0044822049
-0.00406201
-0.0036630069
-0.0032854627
-0.0029291271
-0.002593265
-0.0022769784
-0.0019791482
-0.0016983591
-0.0014333013
-0.0011826324
-0.000944973
-0.0007189709
-0.00050335061
-0.00029673333
-9.7954654e-05
-0.0083404639
-0.007960404
-0.0075484007
-0.0071144301
-0.0066675506
-0.0062156616
-0.0057653815
-0.0053220361
-0.0048897097
-0.0044713784
-0.0040690711
-0.0036840322
-0.0033168877
-0.0029677777
-0.0026363908
-0.0023221108
-0.0020241678
-0.0017415062
-0.0014731606
-0.0012179869
-0.0009748224
-0.00074257285
-0.00052021941
-0.00030667341
-0.00010094916
-0.0079886544
-0.0076479773
-0.0072764666
-0.006882627
-0.0064743075
-0.0060584836
-0.0056411274
-0.0052271704
-0.004820528
-0.0044241477
-0.0040401931
-0.0036701207
-0.0033148254
-0.0029747394
-0.002649881
-0.0023399487
-0.0020444104
-0.0017626194
-0.0014937761
-0.0012369788
-0.00099132693
-0.0007559342
-0.00052994442
-0.00031236887
-0.00010252972
-0.007632396
-0.0073259085
-0.0069899242
-0.0066317063
-0.0062580648
-0.0058751377
-0.0054882879
-0.0051020431
-0.004720097
-0.004345357
-0.0039800163
-0.0036256789
-0.0032834254
-0.0029538974
-0.0026373629
-0.0023337856
-0.0020428911
-0.0017642595
-0.0014973072
-0.0012413973
-0.0009958559
-0.00075997115
-0.00053304452
-0.00031426327
-0.00010307013
-0.0072722688
-0.0069957164
-0.0066911192
-0.0063647102
-0.0060223971
-0.0056695911
-0.005311088
-0.0049510179
-0.0045928373
-0.0042393501
-0.0038927633
-0.0035547419
-0.0032264897
-0.0029087984
-0.0026021223
-0.0023066352
-0.0020222866
-0.0017488539
-0.0014859694
-0.0012331935
-0.00099002422
-0.00075593018
-0.00053039657
-0.00031282205
-0.0001026597
-0.00690894
-0.0066588399
-0.0063822075
-0.0060843984
-0.0057705569
-0.0054454497
-0.0051133705
-0.0047780767
-0.0044427752
-0.0041101452
-0.0037823352
-0.0034610437
-0.0031475439
-0.0028427398
-0.0025472255
-0.0022613372
-0.0019851992
-0.0017187607
-0.001461834
-0.0012141406
-0.00097533596
-0.00074504799
-0.0005229168
-0.0003084814
-0.00010124325
-0.0065435467
-0.0063170006
-0.0060654606
-0.0057935386
-0.0055057194
-0.005206208
-0.004898844
-0.0045870435
-0.0042737731
-0.0039615546
-0.0036524637
-0.003348178
-0.0030500092
-0.0027589396
-0.0024756697
-0.0022006583
-0.0019341588
-0.0016762599
-0.001426917
-0.0011859862
-0.00095325323
-0.00072846697
-0.00051139151
-0.0003017063
-9.8994008e-05
-0.0061776794
-0.0059722274
-0.0057433326
-0.0054949695
-0.005231048
-0.0049552852
-0.0046711146
-0.0043816315
-0.0040895683
-0.0037972824
-0.0035067614
-0.0032196338
-0.0029372187
-0.0026605425
-0.0023903776
-0.0021272707
-0.0018715774
-0.0016234953
-0.001383092
-0.0011503318
-0.00092510105
-0.00070723794
-0.00049658072
-0.00029296064
-9.6027788e-05
-0.005813127
-0.0056266692
-0.0054183108
-0.0051914851
-0.0049496032
-0.0046959514
-0.0044335968
-0.0041653392
-0.0038936821
-0.0036208189
-0.0033486302
-0.0030786886
-0.0028122891
-0.0025504739
-0.0022940551
-0.0020436413
-0.0017996653
-0.0015624091
-0.0013320285
-0.0011085752
-0.00089201404
-0.00068224573
-0.00047914901
-0.00028265764
-9.2473004e-05
-0.005451635
-0.0052823765
-0.0050927321
-0.0048856783
-0.0046641967
-0.0044311867
-0.0041893877
-0.003941327
-0.0036892892
-0.0034353013
-0.0031811283
-0.0029282789
-0.0026780004
-0.00243133
-0.0021890948
-0.0019519434
-0.0017203613
-0.0014946934
-0.0012751649
-0.001061899
-0.00085493231
-0.00065422791
-0.00045970905
-0.00027110375
-8.8381269e-05
-0.0050947753
-0.0049411708
-0.0047686577
-0.0045798243
-0.0043772815
-0.004163585
-0.0039411778
-0.0037123365
-0.0034791388
-0.0032434474
-0.0030069083
-0.0027709415
-0.002536754
-0.0023053513
-0.0020775614
-0.00185405
-0.0016353343
-0.001421802
-0.00121373
-0.0010112972
-0.00081460215
-0.00062366926
-0.00043848296
-0.00025845694
-8.3830465e-05
-0.0047438748
-0.0046045819
-0.0044478166
-0.0042758316
-0.0040909145
-0.0038953213
-0.003691225
-0.0034806701
-0.0032655395
-0.003047539
-0.0028281888
-0.0026088194
-0.0023905788
-0.0021744392
-0.001961209
-0.0017515549
-0.001546008
-0.0013449812
-0.0011487833
-0.00095763271
-0.00077166808
-0.00059095556
-0.00041550045
-0.00024492634
-7.9422058e-05
-0.0043999761
-0.0042738236
-0.0041315887
-0.0039752335
-0.0038067613
-0.0036281631
-0.00344137
-0.0032482102
-0.0030503857
-0.0028494516
-0.002646805
-0.0024436825
-0.0022411638
-0.002040175
-0.0018415024
-0.0016457941
-0.001453582
-0.0012652901
-0.0010812446
-0.00090168934
-0.00072678986
-0.00055664614
-0.00039130639
-0.00023075762
-7.5061529e-05
-0.0040638381
-0.0039498008
-0.0038210213
-0.0036792083
-0.0035261165
-0.0033634995
-0.0031930683
-0.0030164572
-0.0028351978
-0.0026507007
-0.0024642438
-0.0022769691
-0.0020898826
-0.0019038578
-0.0017196431
-0.0015378662
-0.0013590485
-0.0011836131
-0.0010118952
-0.00084415552
-0.00068058642
-0.00052132864
-0.00036650656
-0.00021619508
-7.0446708e-05
-0.0037359574
-0.0036331362
-0.0035168596
-0.0033886157
-0.0032499397
-0.0031023738
-0.0029474317
-0.0027865692
-0.0026211598
-0.0024524758
-0.0022816811
-0.0021098227
-0.0019378311
-0.0017665214
-0.0015965979
-0.0014286604
-0.0012632124
-0.0011006693
-0.0009413707
-0.00078558605
-0.00063353096
-0.00048538228
-0.00034131245
-0.00020137844
-6.5652734e-05
-0.0034165975
-0.0033241998
-0.0032195799
-0.0031040325
-0.002978899
-0.002845533
-0.0027052706
-0.0025594042
-0.0024091594
-0.0022556799
-0.0021000181
-0.0019431279
-0.0017858625
-0.0016289762
-0.0014731261
-0.0013188778
-0.0011667116
-0.0010170303
-0.00087016909
-0.0007264027
-0.00058595913
-0.00044903477
-0.00031582292
-0.00018637616
-6.0774288e-05
-0.003105814
-0.0030231381
-0.0029294216
-0.0028257883
-0.0027134079
-0.0025934656
-0.0024671366
-0.0023355626
-0.0021998332
-0.0020609707
-0.0019199206
-0.0017775456
-0.0016346222
-0.001491842
-0.0013498122
-0.0012090605
-0.0010700395
-0.00093313488
-0.00079867149
-0.00066692234
-0.00053811818
-0.00041245933
-0.00029014501
-0.00017125359
-5.5854797e-05
-0.0028034786
-0.002729903
-0.0026464189
-0.0025539996
-0.0024536611
-0.0023464374
-0.002233357
-0.0021154242
-0.0019936012
-0.0018687966
-0.0017418542
-0.001613548
-0.0014845791
-0.0013555752
-0.0012270922
-0.0010996166
-0.00097357064
-0.00084931756
-0.0007271679
-0.00060738671
-0.00049020085
-0.00037580793
-0.0002644038
-0.00015607461
-5.0909186e-05
-0.002509302
-0.0024442772
-0.0023704304
-0.0022886006
-0.0021996661
-0.0021045236
-0.0020040687
-0.0018991785
-0.0017906977
-0.0016794269
-0.0015661134
-0.0014514457
-0.0013360507
-0.001220493
-0.0011052752
-0.0009908414
-0.00087757974
-0.00076582778
-0.00065587748
-0.00054798149
-0.0004423591
-0.00033920315
-0.00023870135
-0.00014091416
-4.5941605e-05
-0.0022228566
-0.0021658991
-0.0021011641
-0.00202937
-0.0019512706
-0.0018676382
-0.0017792463
-0.0016868551
-0.0015911995
-0.0014929782
-0.0013928466
-0.001291411
-0.0011892259
-0.0010867931
-0.00098456224
-0.00088293259
-0.00078225628
-0.00068284201
-0.0005849596
-0.00048884524
-0.00039470628
-0.00030272631
-0.00021307805
-0.0001257989
-4.1001862e-05
-0.0019435994
-0.0018942866
-0.0018382026
-0.0017759568
-0.0017081902
-0.0016355608
-0.00155873
-0.0014783497
-0.0013950517
-0.0013094392
-0.0012220795
-0.0011334999
-0.0010441843
-0.00095457289
-0.00086506162
-0.00077600446
-0.00068771542
-0.0006004719
-0.00051451837
-0.0004300705
-0.0003473188
-0.0002664317
-0.00018756426
-0.00011074592
-3.6093757e-05
-0.0016708921
-0.0016288585
-0.001581026
-0.0015279047
-0.0014700321
-0.0014079615
-0.0013422501
-0.0012734488
-0.0012020928
-0.0011286945
-0.0010537375
-0.0009776727
-0.00090091546
-0.00082384488
-0.00074680377
-0.00067009984
-0.00059400764
-0.00051877109
-0.00044460646
-0.00037170541
-0.00030023761
-0.00023035268
-0.00016218787
-9.5769701e-05
-3.121122e-05
-0.0014040177
-0.0013689523
-0.0013290304
-0.0012846707
-0.0012363156
-0.0011844209
-0.0011294469
-0.0010718495
-0.0010120727
-0.00095054275
-0.0008876629
-0.00082381017
-0.00075933314
-0.00069455089
-0.00062975311
-0.00056520081
-0.00050112789
-0.00043774305
-0.000375232
-0.00031375973
-0.00025347252
-0.00019449936
-0.00013695918
-8.0877399e-05
-2.6356374e-05
-0.0011421883
-0.0011138325
-0.001081537
-0.0010456357
-0.0010064822
-0.00096444142
-0.00091988225
-0.00087317092
-0.00082466479
-0.00077470756
-0.00072362527
-0.00067172343
-0.00061928521
-0.00056657061
-0.00051381635
-0.00046123641
-0.00040902313
-0.0003573486
-0.00030636629
-0.00025621284
-0.00020700954
-0.00015886379
-0.00011187546
-6.6068022e-05
-2.1529442e-05
-0.00088454331
-0.00086268975
-0.00083779176
-0.00081010409
-0.00077989655
-0.00074744803
-0.00071304093
-0.00067695595
-0.00063946752
-0.00060083994
-0.00056132447
-0.00052115701
-0.00048055665
-0.00043972497
-0.00039884597
-0.00035808636
-0.00031759626
-0.00027751027
-0.00023794859
-0.00019901835
-0.00016081494
-0.00012342324
-8.6922889e-05
-5.1334004e-05
-1.6727559e-05
-0.00063010487
-0.00061459639
-0.00059692226
-0.00057726185
-0.00055580528
-0.00053274931
-0.0005082934
-0.00048263608
-0.00045597162
-0.00042848738
-0.00040036169
-0.00037176228
-0.00034284514
-0.00031375404
-0.00028462039
-0.00025556347
-0.00022669086
-0.00019809908
-0.00016987444
-0.00014209397
-0.0001148264
-8.8133116e-05
-6.2072126e-05
-3.6658469e-05
-1.1945158e-05
-0.00037789781
-0.00036862291
-0.00035804978
-0.00034628519
-0.00033344242
-0.00031963882
-0.00030499343
-0.00028962475
-0.0002736489
-0.00025717794
-0.00024031859
-0.00022317136
-0.00020582982
-0.0001883803
-0.00017090177
-0.00015346598
-0.0001361377
-0.00011897512
-0.00010203032
-8.5349769e-05
-6.8975009e-05
-5.2943218e-05
-3.7289543e-05
-2.2022958e-05
-7.174893e-06
-0.00012619528
-0.00012310339
-0.00011957758
-0.00011565346
-0.00011136885
-0.0001067629
-0.00010187536
-9.6745757e-05
-9.1412841e-05
-8.5914001e-05
-8.028489e-05
-7.4559078e-05
-6.8767849e-05
-6.2940063e-05
-5.7102121e-05
-5.1278009e-05
-4.548941e-05
-3.9755824e-05
-3.4094692e-05
-2.8521587e-05
-2.3050427e-05
-1.769366e-05
-1.246379e-05
-7.3612148e-06
-2.3957541e-06
)
;

boundaryField
{
    Walls
    {
        type            zeroGradient;
    }
    Inlet
    {
        type            fixedValue;
        value           uniform 500;
    }
    Outlet
    {
        type            fixedValue;
        value           uniform 0;
    }
    Front
    {
        type            wedge;
    }
    Back
    {
        type            wedge;
    }
    defaultFaces
    {
        type            empty;
    }
}


// ************************************************************************* //
