/*--------------------------------*- C++ -*----------------------------------*\
| =========                 |                                                 |
| \\      /  F ield         | OpenFOAM: The Open Source CFD Toolbox           |
|  \\    /   O peration     | Version:  4.0                                   |
|   \\  /    A nd           | Web:      www.OpenFOAM.org                      |
|    \\/     M anipulation  |                                                 |
\*---------------------------------------------------------------------------*/
FoamFile
{
    version     2.0;
    format      ascii;
    class       surfaceScalarField;
    location    "0.03";
    object      phi;
}
// * * * * * * * * * * * * * * * * * * * * * * * * * * * * * * * * * * * * * //

dimensions      [0 3 -1 0 0 0 0];

internalField   nonuniform List<scalar> 
3364
(
-1.7487348e-10
1.657247e-08
-1.0226091e-09
4.9972298e-08
8.7133951e-08
-4.2690148e-10
1.6999345e-08
-1.7241109e-09
5.126949e-08
8.5409826e-08
-1.1391419e-10
1.7113237e-08
2.0888696e-10
5.0946678e-08
8.5618711e-08
1.1235391e-10
1.7000847e-08
9.6416516e-10
5.0094857e-08
8.658288e-08
-1.4504397e-10
1.7145837e-08
-1.4096975e-09
5.135947e-08
8.517316e-08
-3.325916e-10
1.7478374e-08
-2.7929675e-09
5.3819811e-08
8.2380144e-08
8.0113938e-11
1.7398238e-08
-1.034854e-09
5.4934747e-08
8.1345229e-08
1.3002758e-10
1.7268207e-08
1.0674052e-09
5.3997325e-08
8.2412587e-08
-9.2513663e-11
1.7360681e-08
2.316976e-09
5.1587786e-08
8.4729532e-08
6.2330398e-10
1.6737311e-08
1.1943507e-09
5.1016682e-08
8.5923861e-08
5.4668993e-10
1.6190586e-08
-5.2876865e-10
5.2092086e-08
8.5395053e-08
-2.0103039e-10
1.63916e-08
5.457541e-10
5.1345291e-08
8.5940784e-08
8.222477e-11
1.6309328e-08
6.2893569e-10
5.0798567e-08
8.6569708e-08
2.1558675e-10
1.6093685e-08
-3.8390936e-10
5.1398052e-08
8.6185779e-08
-3.2093732e-10
1.6414605e-08
4.9213288e-10
5.0584954e-08
8.6677886e-08
-3.4636817e-10
1.6760947e-08
7.8707597e-11
5.0159827e-08
8.6756555e-08
-2.1809291e-10
1.6978995e-08
-9.9180964e-10
5.0933483e-08
8.5764696e-08
-1.3648663e-10
1.7115462e-08
-1.442959e-10
5.0941223e-08
8.5620332e-08
4.41539e-10
1.6673897e-08
1.9925629e-10
5.118344e-08
8.5819536e-08
2.4029951e-10
1.643355e-08
-9.2942821e-10
5.2353123e-08
8.4890076e-08
-7.8391731e-10
1.7217425e-08
-4.6731836e-10
5.2036507e-08
8.4422731e-08
-4.9888664e-10
1.7716265e-08
-3.0149663e-11
5.156774e-08
8.4392565e-08
4.4169445e-10
1.7274551e-08
4.461681e-11
5.1964806e-08
8.4437159e-08
5.8088479e-10
1.669366e-08
2.8569169e-10
5.2259992e-08
8.4722819e-08
2.0625773e-11
1.6673016e-08
1.5850825e-10
5.2122076e-08
8.4881282e-08
-3.7447524e-10
1.7047465e-08
8.1467808e-10
5.0932851e-08
8.5695905e-08
-2.3053381e-10
1.7277938e-08
5.6800848e-10
5.0134253e-08
8.6263881e-08
-5.9274527e-10
1.7870652e-08
8.1701029e-10
4.8724464e-08
8.708086e-08
3.1220742e-11
1.7839447e-08
-3.9696388e-11
4.8795452e-08
8.7041187e-08
2.0179116e-09
1.5821726e-08
3.6865006e-09
4.7126984e-08
9.0727662e-08
1.1494678e-08
4.3264218e-09
4.8182675e-08
1.0437106e-08
1.1064794e-08
1.2784294e-07
4.8646112e-09
-5.3866121e-10
1.6870932e-08
-1.5707092e-09
-1.4793371e-09
2.9413177e-08
-4.0598587e-10
-1.3264061e-10
-1.5785611e-09
-3.980618e-10
-4.6607918e-10
-2.5917184e-09
-1.1388555e-10
-1.8740167e-11
-4.5344168e-10
-5.847089e-11
-6.7889648e-11
-8.5159435e-10
-1.3815005e-11
-4.9240146e-12
-6.1767914e-11
-1.0514955e-11
-1.2151383e-13
-1.2953285e-10
4.5224515e-13
-5.3767553e-12
9.7468731e-13
-1.1038494e-11
-1.3982727e-12
2.2495902e-12
9.7811968e-14
-5.4750249e-12
2.8604992e-12
-1.3802457e-11
-1.1731119e-11
1.3190804e-11
7.4126207e-14
-5.5493974e-12
7.5801898e-13
-1.4487176e-11
-1.6632281e-11
5.6575176e-12
-5.2709389e-13
-5.0223938e-12
-1.6485079e-12
-1.3366103e-11
-1.6747049e-11
-1.5344161e-12
-1.0115661e-12
-4.0108284e-12
-3.4922463e-12
-1.0885546e-11
-1.4428775e-11
-5.8107698e-12
-1.0272089e-12
-2.9835967e-12
-3.6921538e-12
-8.2206337e-12
-1.1159902e-11
-6.9611086e-12
-8.3516661e-13
-2.1484072e-12
-3.1406217e-12
-5.9151903e-12
-7.9773593e-12
-6.3231944e-12
-5.651814e-13
-1.5832107e-12
-2.1443666e-12
-4.3360236e-12
-5.8715986e-12
-4.2501768e-12
-3.3340836e-13
-1.249796e-12
-1.223583e-12
-3.4458736e-12
-4.7208954e-12
-2.3743528e-12
-1.8965827e-13
-1.0601366e-12
-6.8451431e-13
-2.9510441e-12
-4.1367219e-12
-1.268754e-12
-1.1313348e-13
-9.4700443e-13
-3.9396282e-13
-2.6702391e-12
-3.8540575e-12
-6.7668452e-13
-7.9870756e-14
-8.6713573e-13
-2.7082979e-13
-2.4793003e-12
-3.6787212e-12
-4.4621174e-13
-6.6392025e-14
-8.0074597e-13
-2.2917183e-13
-2.3165372e-12
-3.5104414e-12
-3.9748727e-13
-5.9693597e-14
-7.4105469e-13
-2.1426281e-13
-2.1619823e-12
-3.3314632e-12
-3.9327012e-13
-5.295829e-14
-6.880989e-13
-1.9554315e-13
-2.0194106e-12
-3.1504777e-12
-3.7655411e-13
-4.3588015e-14
-6.4451371e-13
-1.6560598e-13
-1.8974057e-12
-2.9843744e-12
-3.3173327e-13
-3.284257e-14
-6.1167428e-13
-1.314996e-13
-1.7987618e-12
-2.8444827e-12
-2.7141481e-13
-2.4521759e-14
-5.8715598e-13
-9.9059298e-14
-1.7242376e-12
-2.7352512e-12
-2.0831409e-13
-2.3377005e-14
-5.6378274e-13
-8.1182842e-14
-1.6664454e-12
-2.672003e-12
-1.4445476e-13
-1.9179803e-14
-5.4460694e-13
-6.1972889e-14
-1.6236662e-12
-2.6166552e-12
-1.1734465e-13
-1.4033877e-14
-5.3057717e-13
-5.3163742e-14
-1.5845501e-12
-2.5736896e-12
-9.615295e-14
-1.0614057e-14
-5.1996727e-13
-4.2208437e-14
-1.5529692e-12
-2.5382369e-12
-7.7683964e-14
-8.5245948e-15
-5.1144677e-13
-3.2880402e-14
-1.5286265e-12
-2.5029979e-12
-6.8141331e-14
-8.2858711e-15
-5.0316483e-13
-3.084336e-14
-1.5060815e-12
-2.4643172e-12
-6.9544758e-14
-8.3967971e-15
-4.9477172e-13
-3.4134059e-14
-1.4803559e-12
-2.4185534e-12
-7.9917185e-14
-9.4452361e-15
-4.8532986e-13
-4.1606576e-14
-1.4482052e-12
-2.369967e-12
-9.0210668e-14
-1.2025534e-14
-4.7330739e-13
-4.6476091e-14
-1.4137642e-12
-2.320627e-12
-9.5832124e-14
-1.2377077e-14
-4.6093306e-13
-4.7453728e-14
-1.3786962e-12
-2.2664895e-12
-1.016056e-13
-1.2736686e-14
-4.481988e-13
-4.9985229e-14
-1.3414553e-12
-2.2075084e-12
-1.0897899e-13
-1.2993877e-14
-4.3520707e-13
-5.1784627e-14
-1.3026713e-12
-2.1457807e-12
-1.1352351e-13
-1.313569e-14
-4.2207326e-13
-5.1697944e-14
-1.2641149e-12
-2.0832472e-12
-1.1424122e-13
-1.3051332e-14
-4.0902357e-13
-5.1720402e-14
-1.225451e-12
-2.0204446e-12
-1.1453152e-13
-1.2780886e-14
-3.9624413e-13
-5.0851649e-14
-1.1873848e-12
-1.9586694e-12
-1.1263439e-13
-1.2283071e-14
-3.8396234e-13
-4.8963822e-14
-1.1507081e-12
-1.8990024e-12
-1.0863748e-13
-1.1612075e-14
-3.7235139e-13
-4.6293245e-14
-1.1160306e-12
-1.842471e-12
-1.0283061e-13
-1.0850368e-14
-3.6150204e-13
-4.32876e-14
-1.0835966e-12
-1.7894742e-12
-9.6289643e-14
-9.9955154e-15
-3.5150745e-13
-3.9908118e-14
-1.0536869e-12
-1.7405644e-12
-8.8822696e-14
-8.9595569e-15
-3.4254874e-13
-3.5747312e-14
-1.0269019e-12
-1.6967691e-12
-7.9547058e-14
-7.8096926e-15
-3.3473986e-13
-3.1079988e-14
-1.0036341e-12
-1.6586935e-12
-6.9159638e-14
-6.6589738e-15
-3.2808165e-13
-2.646375e-14
-9.838317e-13
-1.626287e-12
-5.887406e-14
-5.5050443e-15
-3.2257737e-13
-2.188747e-14
-9.6745158e-13
-1.5995186e-12
-4.8659597e-14
-4.284003e-15
-3.1829411e-13
-1.7011801e-14
-9.5472602e-13
-1.5787776e-12
-3.7756435e-14
-2.9523173e-15
-3.1534251e-13
-1.1723825e-14
-9.4595667e-13
-1.5644653e-12
-2.6039507e-14
-1.5113064e-15
-3.1383189e-13
-6.0956477e-15
-9.4137436e-13
-1.556845e-12
-1.3719223e-14
-2.3076102e-16
-9.993582e-16
-2.3675499e-15
1.3731879e-07
-9.4811595e-09
-8.7455968e-09
1.4605809e-07
2.147616e-08
-1.54535e-09
-1.3967285e-09
1.412675e-08
-3.6270146e-09
-5.0992322e-10
-5.5416248e-10
-4.4694311e-09
-1.2896133e-09
-7.1852434e-11
-8.1679282e-11
-1.7620345e-09
-2.2417501e-10
2.2794731e-11
4.8313172e-11
-3.5415678e-10
7.2147403e-12
1.7826441e-11
4.0983387e-11
1.4542796e-11
2.9463644e-11
1.5506623e-12
1.8206051e-11
5.2237932e-11
1.777707e-11
-1.0570905e-11
-1.176225e-12
3.7157195e-11
2.9416368e-12
-1.504796e-11
-9.5303334e-12
1.1294504e-11
-6.9308596e-12
-1.3928234e-11
-1.0279992e-11
-6.1816171e-12
-1.0432133e-11
-1.0457315e-11
-8.3753968e-12
-1.2336839e-11
-9.0360224e-12
-7.7445326e-12
-5.8665237e-12
-1.1544949e-11
-6.1916695e-12
-5.803109e-12
-4.4393203e-12
-7.6189578e-12
-3.4062517e-12
-4.7713119e-12
-3.645119e-12
-4.200575e-12
-1.6890335e-12
-4.3511386e-12
-3.5687442e-12
-1.7655431e-12
-7.4760264e-13
-4.2803142e-12
-3.8679098e-12
-4.4856537e-13
-4.4267233e-13
-4.2839287e-12
-4.2008879e-12
-1.0979889e-13
-4.524334e-13
-4.22904e-12
-4.3880541e-12
-2.6534718e-13
-5.0375465e-13
-4.1186011e-12
-4.4509632e-12
-4.4090827e-13
-5.2570935e-13
-3.9694845e-12
-4.4142545e-12
-5.6247018e-13
-4.8843587e-13
-3.8128174e-12
-4.3261326e-12
-5.7660451e-13
-4.0902527e-13
-3.675241e-12
-4.2365582e-12
-4.9864406e-13
-3.2320514e-13
-3.5603833e-12
-4.1680363e-12
-3.9177034e-13
-2.2185604e-13
-3.4830157e-12
-4.1193126e-12
-2.70623e-13
-1.4558087e-13
-3.4548133e-12
-4.1006465e-12
-1.6429028e-13
-1.1061439e-13
-3.4403852e-12
-4.1021056e-12
-1.091978e-13
-1.0476089e-13
-3.4133404e-12
-4.1106119e-12
-9.6295602e-14
-1.1012377e-13
-3.3713884e-12
-4.1108874e-12
-1.0988714e-13
-1.1582697e-13
-3.3251349e-12
-4.0939372e-12
-1.3281361e-13
-1.2497048e-13
-3.2801083e-12
-4.0614401e-12
-1.5750134e-13
-1.3902936e-13
-3.2313141e-12
-4.0163859e-12
-1.8411447e-13
-1.5286454e-13
-3.1743039e-12
-3.9569889e-12
-2.1228963e-13
-1.6918885e-13
-3.1067405e-12
-3.8829435e-12
-2.4325928e-13
-1.8515209e-13
-3.0305849e-12
-3.7954237e-12
-2.7269403e-13
-1.9473425e-13
-2.9493896e-12
-3.699451e-12
-2.9072633e-13
-1.9804219e-13
-2.8656021e-12
-3.5990977e-12
-2.9841239e-13
-1.9822652e-13
-2.7819188e-12
-3.4979904e-12
-2.9934864e-13
-1.9569882e-13
-2.6988648e-12
-3.3968333e-12
-2.9686898e-13
-1.8913872e-13
-2.6183727e-12
-3.2983451e-12
-2.8763847e-13
-1.7931672e-13
-2.5418947e-12
-3.2044471e-12
-2.7322489e-13
-1.6825588e-13
-2.4699357e-12
-3.1156286e-12
-2.5708349e-13
-1.552755e-13
-2.4034894e-12
-3.0336216e-12
-2.3729063e-13
-1.3907451e-13
-2.3439679e-12
-2.9600843e-12
-2.1261914e-13
-1.2102064e-13
-2.2921125e-12
-2.8958211e-12
-1.8529079e-13
-1.0306203e-13
-2.2479297e-12
-2.8410064e-12
-1.5788319e-13
-8.5125002e-14
-2.2114693e-12
-2.7958508e-12
-1.3028684e-13
-6.591986e-14
-2.1833107e-12
-2.7609227e-12
-1.0085389e-13
-4.5530245e-14
-2.1638246e-12
-2.7367223e-12
-6.9736419e-14
-2.4215301e-14
-2.1533329e-12
-2.7236226e-12
-3.7320228e-14
-4.3167076e-15
-6.7766234e-15
1.3147163e-11
-1.3146987e-11
2.990544e-11
-1.6758071e-11
4.9433643e-11
-1.9527976e-11
7.1167792e-11
-2.1733912e-11
9.3380846e-11
-2.2212809e-11
1.1423219e-10
-2.0851104e-11
1.3222762e-10
-1.7995188e-11
1.4632922e-10
-1.4101369e-11
1.5667232e-10
-1.0342872e-11
1.6430621e-10
-7.6336798e-12
1.6995485e-10
-5.6484361e-12
1.7420009e-10
-4.2450613e-12
1.7752397e-10
-3.3236953e-12
1.8032048e-10
-2.7963508e-12
1.8288887e-10
-2.5682292e-12
1.8538089e-10
-2.4918777e-12
1.8788207e-10
-2.5010406e-12
1.9040168e-10
-2.5196634e-12
1.9288654e-10
-2.4850045e-12
1.9524881e-10
-2.362394e-12
1.9739256e-10
-2.1438036e-12
1.9922308e-10
-1.8305007e-12
2.0064984e-10
-1.426682e-12
2.0161907e-10
-9.6913073e-13
-5.7870332e-13
-9.8667389e-12
-3.2804013e-12
-2.2169032e-11
-4.4557842e-12
-3.9487744e-11
-2.2091087e-12
-6.2397156e-11
1.1757094e-12
-9.3609833e-11
9.0000974e-12
-1.3564139e-10
2.1180648e-11
-1.8980743e-10
3.6170969e-11
-2.5566116e-10
5.1752392e-11
-3.3042422e-10
6.4420119e-11
-4.1135774e-10
7.3299749e-11
-4.9770619e-10
8.0699901e-11
-5.8777383e-10
8.5822416e-11
-6.7968276e-10
8.8585019e-11
-7.7154468e-10
8.9065315e-11
-8.6151392e-10
8.7400696e-11
-9.4802387e-10
8.4017711e-11
-1.0296359e-09
7.9110536e-11
-1.1050826e-09
7.2926595e-11
-1.1732327e-09
6.5664598e-11
-1.2330403e-09
5.744465e-11
-1.2835524e-09
4.8367689e-11
-1.3239258e-09
3.85423e-11
-1.3534107e-09
2.8057523e-11
-1.3712568e-09
1.6876351e-11
4.9914733e-12
-1.076817e-10
1.0440297e-10
-2.3572303e-10
1.2358768e-10
-3.9381312e-10
1.5588316e-10
-5.7404308e-10
1.8140725e-10
-7.8015464e-10
2.1511246e-10
-1.0102157e-09
2.5124154e-10
-1.2603323e-09
2.8628632e-10
-1.5276343e-09
3.1905206e-10
-1.8112007e-09
3.4798409e-10
-2.1175852e-09
3.7968188e-10
-2.4830109e-09
4.4612334e-10
-2.8508701e-09
4.5367912e-10
-3.2095367e-09
4.4724901e-10
-3.5529389e-09
4.3246486e-10
-3.8763215e-09
4.1078039e-10
-4.1770647e-09
3.8475792e-10
-4.4531154e-09
3.5515812e-10
-4.7026235e-09
3.2243139e-10
-4.923955e-09
2.8699278e-10
-5.1152077e-09
2.4869391e-10
-5.2746413e-09
2.0779778e-10
-5.4007496e-09
1.64647e-10
-5.4920991e-09
1.194033e-10
-5.5471409e-09
7.1914581e-11
2.2531786e-11
-4.1799187e-10
5.2240029e-10
-8.8447369e-10
5.9007717e-10
-1.4121093e-09
6.8352626e-10
-2.0874774e-09
8.5677987e-10
-2.9938738e-09
1.1215097e-09
-3.9097024e-09
1.167067e-09
-4.778255e-09
1.1548322e-09
-5.5660115e-09
1.1067986e-09
-6.2601965e-09
1.0421579e-09
-6.8487715e-09
9.6824586e-10
-7.2932052e-09
8.9054656e-10
-7.6506115e-09
8.1107554e-10
-7.9352697e-09
7.3189781e-10
-8.157717e-09
6.5490312e-10
-8.3299875e-09
5.8304219e-10
-8.4632002e-09
5.1796217e-10
-8.5653041e-09
4.5725378e-10
-8.642669e-09
3.997882e-10
-8.6982955e-09
3.4261145e-10
-8.7369564e-09
2.8734703e-10
-8.7631573e-09
2.3399107e-10
-8.7803658e-09
1.8184805e-10
-8.7915309e-09
1.3056101e-10
-8.7989347e-09
7.9311238e-11
2.8681142e-11
-2.3176482e-09
2.8400589e-09
-4.2343923e-09
2.5068303e-09
-6.0137033e-09
2.4628441e-09
-7.2280332e-09
2.0711084e-09
-7.8078533e-09
1.7013252e-09
-7.9454477e-09
1.3046547e-09
-7.7072637e-09
9.1664087e-10
-7.2070484e-09
6.0657606e-10
-6.5763775e-09
4.1148041e-10
-5.8560114e-09
2.4787384e-10
-5.0788703e-09
1.1340034e-10
-4.2744812e-09
6.6820201e-12
-3.4683243e-09
-7.4262547e-11
-2.679032e-09
-1.3439174e-10
-1.940364e-09
-1.5562767e-10
-1.2529831e-09
-1.6941987e-10
-6.1128264e-10
-1.8444711e-10
-6.4279003e-12
-2.0506629e-10
5.9533945e-10
-2.5915492e-10
1.1348242e-09
-2.521361e-10
1.5946477e-09
-2.2583022e-10
1.9637671e-09
-1.8726861e-10
2.2336753e-09
-1.3934427e-10
2.3976248e-09
-8.4635196e-11
-2.2529744e-11
1.0052302e-09
1.8349105e-09
4.1323458e-09
-6.2023685e-10
7.7846524e-09
-1.1893829e-09
1.1294554e-08
-1.4387281e-09
1.4892983e-08
-1.8970629e-09
1.848984e-08
-2.292164e-09
2.1924418e-08
-2.5178961e-09
2.5099238e-08
-2.5681995e-09
2.8005174e-08
-2.494407e-09
3.0609135e-08
-2.3560344e-09
3.2910528e-08
-2.1879373e-09
3.4918911e-08
-2.0016436e-09
3.6663399e-08
-1.8186911e-09
3.8174423e-08
-1.6453565e-09
3.949449e-08
-1.4756343e-09
4.063949e-08
-1.31436e-09
4.1619183e-08
-1.164079e-09
4.2437987e-08
-1.023811e-09
4.3071063e-08
-8.9217113e-10
4.3583581e-08
-7.6459448e-10
4.39948e-08
-6.3699118e-10
4.4314415e-08
-5.068265e-10
4.4545574e-08
-3.7044657e-10
4.4689e-08
-2.2800541e-10
-7.4101631e-11
1.5032964e-07
-2.4354199e-09
1.4933579e-07
3.7453942e-10
1.4731789e-07
8.2931228e-10
1.4472715e-07
1.152713e-09
1.4125014e-07
1.580573e-09
1.3694987e-07
2.0086492e-09
1.3216307e-07
2.2693638e-09
1.2724773e-07
2.3475467e-09
1.2246254e-07
2.2911425e-09
1.1793113e-07
2.1756898e-09
1.1370533e-07
2.0381519e-09
1.0982465e-07
1.8792878e-09
1.0629342e-07
1.7127632e-09
1.0309986e-07
1.5484217e-09
1.0023359e-07
1.3908296e-09
9.7676534e-08
1.2428717e-09
9.5406234e-08
1.1063876e-09
9.3405303e-08
9.772767e-10
9.1659902e-08
8.5337618e-10
9.0163242e-08
7.3220372e-10
8.8915826e-08
6.105547e-10
8.7923009e-08
4.8611481e-10
8.7197147e-08
3.5553305e-10
8.6750321e-08
2.189348e-10
7.1298279e-11
1.3423565e-08
-1.7321099e-09
1.5729662e-08
-1.9314432e-09
1.8345698e-08
-1.7866087e-09
2.1024477e-08
-1.5259537e-09
2.3803069e-08
-1.1979113e-09
2.6645932e-08
-8.3410881e-10
2.9423584e-08
-5.0818632e-10
3.2083622e-08
-3.1239231e-10
3.4520855e-08
-1.4599516e-10
3.6706846e-08
-1.0208803e-11
3.8645318e-08
9.9769521e-11
4.0348169e-08
1.7652474e-10
4.1854221e-08
2.0679726e-10
4.316801e-08
2.3471692e-10
4.429629e-08
2.6263263e-10
4.5216498e-08
3.2274372e-10
4.5932009e-08
3.9095516e-10
4.6516154e-08
3.9320774e-10
4.6994713e-08
3.7489128e-10
4.7385197e-08
3.4179197e-10
4.7699093e-08
2.9672836e-10
4.7943312e-08
2.4196396e-10
4.8120355e-08
1.785559e-10
4.8230549e-08
1.0880554e-10
3.1393037e-11
-5.4763265e-09
-7.2523115e-10
-6.4182646e-09
-9.8952236e-10
-7.093768e-09
-1.1111239e-09
-7.445259e-09
-1.1744818e-09
-7.4551776e-09
-1.1880111e-09
-7.1307372e-09
-1.158566e-09
-6.5404697e-09
-1.0984683e-09
-5.8273663e-09
-1.0255079e-09
-5.0300072e-09
-9.4336392e-10
-4.1819566e-09
-8.5826685e-10
-3.3088028e-09
-7.7338953e-10
-2.4406471e-09
-6.9163435e-10
-1.6189041e-09
-6.1494749e-10
-8.4039443e-10
-5.4379308e-10
-9.9059874e-11
-4.7870112e-10
6.4283423e-10
-4.1914848e-10
1.3951448e-09
-3.613525e-10
2.0971752e-09
-3.0881872e-10
2.7329442e-09
-2.6087284e-10
3.2913197e-09
-2.1657807e-10
3.7631276e-09
-1.7507342e-10
4.1404564e-09
-1.3535837e-10
4.4159973e-09
-9.6978249e-11
4.5840151e-09
-5.9205373e-11
-2.2590108e-11
-2.3624292e-09
-1.2484422e-10
-3.1790524e-09
-1.7290916e-10
-4.0683983e-09
-2.2179112e-10
-4.9669335e-09
-2.7596246e-10
-5.8284152e-09
-3.265476e-10
-6.6169472e-09
-3.7005416e-10
-7.3051962e-09
-4.1024091e-10
-7.8427819e-09
-4.8794316e-10
-8.2649123e-09
-5.2125375e-10
-8.5969545e-09
-5.2624407e-10
-8.85109e-09
-5.1927264e-10
-9.0382856e-09
-5.0445661e-10
-9.1699839e-09
-4.8326627e-10
-9.2561818e-09
-4.5761162e-10
-9.3060583e-09
-4.2884022e-10
-9.3279545e-09
-3.9726727e-10
-9.3256301e-09
-3.6369117e-10
-9.3068014e-09
-3.2766118e-10
-9.2782472e-09
-2.8944012e-10
-9.2455593e-09
-2.4927856e-10
-9.213312e-09
-2.0733278e-10
-9.1849695e-09
-1.6371251e-10
-9.1635185e-09
-1.1844047e-10
-9.1514693e-09
-7.1265272e-11
-2.254388e-11
-5.3385904e-10
5.485635e-11
-7.4812643e-10
4.1355847e-11
-9.9837816e-10
2.8457307e-11
-1.2783646e-09
4.0197235e-12
-1.5827083e-09
-2.2208995e-11
-1.9021801e-09
-5.0588109e-11
-2.235258e-09
-7.7168918e-11
-2.6311364e-09
-9.2071156e-11
-3.0465628e-09
-1.0583407e-10
-3.4567054e-09
-1.1610857e-10
-3.853327e-09
-1.2265856e-10
-4.2318264e-09
-1.2596505e-10
-4.5886998e-09
-1.2640084e-10
-4.9220037e-09
-1.2431608e-10
-5.2306392e-09
-1.2021314e-10
-5.5135968e-09
-1.1431821e-10
-5.7704546e-09
-1.0684194e-10
-6.0001309e-09
-9.7993508e-11
-6.2016766e-09
-8.7902952e-11
-6.3742894e-09
-7.6674407e-11
-6.5171953e-09
-6.4435345e-11
-6.6296197e-09
-5.1296427e-11
-6.7107489e-09
-3.7319423e-11
-6.7596471e-09
-2.2375085e-11
-6.4860931e-12
7.1060562e-12
6.2292922e-11
-2.513459e-11
7.3596184e-11
-7.5630543e-11
7.8952785e-11
-1.4783817e-10
7.6226705e-11
-2.3766871e-10
6.7620641e-11
-3.4335889e-10
5.5100948e-11
-4.6035041e-10
3.982134e-11
-5.8173103e-10
2.930805e-11
-7.0836007e-10
2.0793405e-11
-8.3711e-10
1.2639636e-11
-9.6544152e-10
5.6711161e-12
-1.091615e-09
2.064323e-13
-1.2143245e-09
-3.693417e-12
-1.3323977e-09
-6.2451167e-12
-1.4447287e-09
-7.8843963e-12
-1.550482e-09
-8.5672125e-12
-1.6487018e-09
-8.6245596e-12
-1.7383786e-09
-8.3192182e-12
-1.8185578e-09
-7.7262861e-12
-1.8883399e-09
-6.8947994e-12
-1.9469131e-09
-5.8647067e-12
-1.9935295e-09
-4.6824495e-12
-2.0274623e-09
-3.3891234e-12
-2.0478819e-09
-1.9579034e-12
-3.2277753e-13
8.0150606e-11
3.438061e-11
1.072662e-10
4.6480992e-11
1.280367e-10
5.8182697e-11
1.4043749e-10
6.382629e-11
1.4442952e-10
6.3628943e-11
1.4079001e-10
5.8740723e-11
1.295511e-10
5.1060457e-11
1.1512785e-10
4.3731433e-11
9.9493383e-11
3.6427968e-11
8.1915304e-11
3.0217777e-11
6.4050485e-11
2.3535975e-11
4.6424571e-11
1.7832368e-11
2.9506618e-11
1.3224541e-11
1.3538028e-11
9.7234657e-12
-8.8813829e-13
6.5417498e-12
-1.4069846e-11
4.6144647e-12
-2.5884804e-11
3.1903583e-12
-3.6242382e-11
2.0383127e-12
-4.5205911e-11
1.2371884e-12
-5.2820018e-11
7.1924863e-13
-5.9091414e-11
4.0662648e-13
-6.4004292e-11
2.3036278e-13
-6.752334e-11
1.2985675e-13
-6.9542492e-11
6.1183449e-14
9.1358951e-14
6.1265094e-11
1.0273003e-11
8.7029099e-11
2.0717337e-11
1.1556249e-10
2.9649695e-11
1.4384348e-10
3.5545698e-11
1.6948313e-10
3.7989704e-11
1.9043889e-10
3.7785383e-11
2.0627894e-10
3.5220814e-11
2.1852299e-10
3.1487808e-11
2.2730369e-10
2.7647682e-11
2.3477974e-10
2.2742146e-11
2.4079666e-10
1.7519483e-11
2.4647674e-10
1.2152706e-11
2.5230999e-10
7.3917214e-12
2.5750885e-10
4.5250327e-12
2.6297446e-10
1.0765678e-12
2.6894088e-10
-1.3515261e-12
2.7506795e-10
-2.9362835e-12
2.8141607e-10
-4.3093863e-12
2.8760617e-10
-4.9524854e-12
2.933709e-10
-5.0450643e-12
2.9847312e-10
-4.6951743e-12
3.0270206e-10
-3.9981784e-12
3.0585976e-10
-3.0274348e-12
3.0779174e-10
-1.8704142e-12
-6.1129395e-13
2.4141388e-11
-2.573771e-12
3.97453e-11
5.1135867e-12
5.7413956e-11
1.1981236e-11
7.5716019e-11
1.7243838e-11
9.3137132e-11
2.0568803e-11
1.0873503e-10
2.2187703e-11
1.2113919e-10
2.281688e-11
1.307818e-10
2.184543e-11
1.3807834e-10
2.0351367e-11
1.432445e-10
1.7576212e-11
1.4673812e-10
1.4026087e-11
1.485673e-10
1.0323746e-11
1.4913282e-10
6.8264187e-12
1.4904353e-10
4.6145371e-12
1.4877447e-10
1.3458447e-12
1.4851329e-10
-1.090136e-12
1.4831279e-10
-2.7355782e-12
1.4796465e-10
-3.9610501e-12
1.480058e-10
-4.9934359e-12
1.4826527e-10
-5.3043435e-12
1.4864334e-10
-5.0730563e-12
1.490849e-10
-4.4395435e-12
1.4953747e-10
-3.4798236e-12
1.4994188e-10
-2.2746458e-12
-8.8549667e-13
-3.5265036e-12
-5.2289087e-12
1.5916883e-12
-4.6144533e-15
8.0928203e-12
5.4801061e-12
1.5122307e-11
1.0214359e-11
2.1871859e-11
1.3819262e-11
2.7709671e-11
1.6349903e-11
3.2572965e-11
1.7953593e-11
3.5530626e-11
1.8887771e-11
3.7240444e-11
1.8641546e-11
3.7534572e-11
1.7282076e-11
3.5811301e-11
1.5749347e-11
3.2572973e-11
1.3562057e-11
2.8150473e-11
1.1248897e-11
2.3461883e-11
9.3031007e-12
1.7866772e-11
6.9409234e-12
1.2070243e-11
4.7063582e-12
6.3175989e-12
3.0170259e-12
7.7651571e-13
1.5799905e-12
-4.3664102e-12
1.4944508e-13
-8.9292287e-12
-7.4157154e-13
-1.2816105e-11
-1.1862276e-12
-1.5984641e-11
-1.2710553e-12
-1.8384166e-11
-1.0803474e-12
-1.9984379e-11
-6.7447693e-13
-1.8605263e-13
-1.3790011e-11
-3.7758261e-12
-1.4138003e-11
3.4328751e-13
-1.3518146e-11
4.8601546e-12
-1.249535e-11
9.1914615e-12
-1.152249e-11
1.2846296e-11
-1.0891161e-11
1.5718468e-11
-1.0748258e-11
1.7810581e-11
-1.1102561e-11
1.924196e-11
-1.2365801e-11
1.9904668e-11
-1.4920421e-11
1.9836573e-11
-1.8344168e-11
1.9172966e-11
-2.2759157e-11
1.7976916e-11
-2.8103063e-11
1.6592669e-11
-3.4042964e-11
1.5242866e-11
-4.0444795e-11
1.3342615e-11
-4.7713456e-11
1.1974879e-11
-5.4673178e-11
9.9766042e-12
-6.1267381e-11
8.1740485e-12
-6.7572133e-11
6.454051e-12
-7.3282487e-11
4.9686368e-12
-7.8177445e-11
3.7085851e-12
-8.213003e-11
2.6813863e-12
-8.506502e-11
1.8545024e-12
-8.6875501e-11
1.1358694e-12
4.0731557e-13
-1.3035711e-11
-2.2851709e-12
-1.4483914e-11
1.7913787e-12
-1.554197e-11
5.9180876e-12
-1.6209747e-11
9.859105e-12
-1.6759525e-11
1.3395939e-11
-1.7317921e-11
1.6276731e-11
-1.7921534e-11
1.8414059e-11
-1.8776125e-11
2.0096414e-11
-2.0071231e-11
2.1199633e-11
-2.1999695e-11
2.1764894e-11
-2.4638329e-11
2.1811455e-11
-2.8090553e-11
2.1428994e-11
-3.2173647e-11
2.0675615e-11
-3.6589235e-11
1.9658304e-11
-4.1636514e-11
1.8389744e-11
-4.6564664e-11
1.6902877e-11
-5.1821607e-11
1.5233395e-11
-5.7057483e-11
1.3409772e-11
-6.207472e-11
1.1471137e-11
-6.660856e-11
9.5023268e-12
-7.0583972e-11
7.6838485e-12
-7.384799e-11
5.9452584e-12
-7.622259e-11
4.2289598e-12
-7.7531115e-11
2.4442579e-12
8.2035482e-13
-8.6455722e-12
-1.2586671e-12
-9.1884524e-12
2.334146e-12
-9.3241988e-12
6.0537165e-12
-9.1798185e-12
9.7146061e-12
-8.9904361e-12
1.3206442e-11
-8.5694828e-12
1.5855666e-11
-7.9612955e-12
1.780576e-11
-7.5620168e-12
1.9697023e-11
-7.4513541e-12
2.1088856e-11
-7.687791e-12
2.2001216e-11
-8.3875339e-12
2.2511082e-11
-9.6154258e-12
2.2656769e-11
-1.1350527e-11
2.2410598e-11
-1.3470343e-11
2.1778003e-11
-1.586458e-11
2.0783864e-11
-1.8430478e-11
1.9468659e-11
-2.109506e-11
1.7897861e-11
-2.3865863e-11
1.618046e-11
-2.6683519e-11
1.428868e-11
-2.9434507e-11
1.2253203e-11
-3.1882416e-11
1.0131647e-11
-3.3888935e-11
7.9516699e-12
-3.5400964e-11
5.7408843e-12
-3.6417521e-11
3.4607164e-12
1.023722e-12
-4.106018e-12
-1.353335e-12
-3.5183896e-12
1.7464131e-12
-2.5660798e-12
5.1013067e-12
-1.1977179e-12
8.3461511e-12
6.4077123e-13
1.1367868e-11
2.7631056e-12
1.3733251e-11
4.6032726e-12
1.5965515e-11
6.5251268e-12
1.7775091e-11
8.3011043e-12
1.9312802e-11
9.6224598e-12
2.0679783e-11
1.068181e-11
2.1451655e-11
1.1487264e-11
2.1851239e-11
1.2048138e-11
2.1849648e-11
1.2347631e-11
2.1478436e-11
1.2374176e-11
2.0757245e-11
1.2127318e-11
1.9715444e-11
1.1642819e-11
1.8382288e-11
1.098451e-11
1.68387e-11
1.0145956e-11
1.5127164e-11
9.2192778e-12
1.3179814e-11
8.2939485e-12
1.1056911e-11
7.45404e-12
8.7915153e-12
6.8425096e-12
6.3523534e-12
6.5374082e-12
3.7657614e-12
1.2231417e-12
-9.4076479e-13
-2.1782178e-12
2.5636165e-13
5.4919361e-13
2.0604281e-12
3.297158e-12
4.2435129e-12
6.1629948e-12
6.7909684e-12
8.8203487e-12
9.512377e-12
1.1011785e-11
1.2454719e-11
1.3023119e-11
1.5321361e-11
1.4908399e-11
1.8089604e-11
1.654451e-11
2.0804298e-11
1.7965042e-11
2.3368386e-11
1.8887521e-11
2.563138e-11
1.95882e-11
2.76311e-11
1.9849885e-11
2.940595e-11
1.9703543e-11
3.094676e-11
1.9216394e-11
3.2240911e-11
1.8421253e-11
3.3289053e-11
1.7334108e-11
3.4116489e-11
1.6011227e-11
3.4771054e-11
1.4472564e-11
3.5245728e-11
1.2705106e-11
3.5583031e-11
1.0719575e-11
3.584292e-11
8.5315957e-12
3.5981933e-11
6.2133117e-12
3.5924494e-11
3.823175e-12
1.3252808e-12
2.1453666e-13
-2.841416e-12
1.7280848e-12
-9.6443841e-13
3.7451056e-12
1.2800669e-12
6.2412936e-12
3.6667468e-12
9.0124182e-12
6.0491723e-12
1.180003e-11
8.2241275e-12
1.4820094e-11
1.0003014e-11
1.802535e-11
1.1703106e-11
2.1207912e-11
1.3361914e-11
2.4462475e-11
1.4710448e-11
2.770303e-11
1.5646937e-11
3.069399e-11
1.6597213e-11
3.3518816e-11
1.7025035e-11
3.6152299e-11
1.7070037e-11
3.8580567e-11
1.6788103e-11
4.0788325e-11
1.6213475e-11
4.2747738e-11
1.5374676e-11
4.4458148e-11
1.4300799e-11
4.5943075e-11
1.2987621e-11
4.718424e-11
1.1463926e-11
4.8166145e-11
9.7376568e-12
4.8879088e-11
7.8186409e-12
4.9391326e-11
5.7010612e-12
4.975066e-11
3.4638341e-12
1.1501959e-12
5.0401976e-13
-3.4553223e-12
1.7319823e-12
-2.1924774e-12
3.5107862e-12
-4.9880244e-13
5.7379717e-12
1.439506e-12
8.343516e-12
3.4435811e-12
1.1147283e-11
5.4203204e-12
1.3933124e-11
7.2171381e-12
1.6841865e-11
8.7943341e-12
2.0001133e-11
1.0202619e-11
2.3069229e-11
1.1642327e-11
2.6241379e-11
1.2474766e-11
2.9454633e-11
1.3383939e-11
3.2538364e-11
1.3941286e-11
3.5487133e-11
1.4121252e-11
3.8232505e-11
1.4042717e-11
4.0766372e-11
1.3679595e-11
4.3131587e-11
1.3009449e-11
4.5253307e-11
1.2179069e-11
4.7095302e-11
1.1145617e-11
4.8664948e-11
9.8942719e-12
4.9964685e-11
8.4379136e-12
5.0973223e-11
6.8100974e-12
5.163386e-11
5.0404193e-12
5.2016953e-11
3.0807396e-12
9.5369261e-13
2.5532402e-13
-3.9760696e-12
1.1705005e-12
-3.1077236e-12
2.4803374e-12
-1.8087017e-12
4.2534622e-12
-3.3367284e-13
6.3890008e-12
1.3079962e-12
8.8129001e-12
2.9963814e-12
1.138788e-11
4.642124e-12
1.4025706e-11
6.1564782e-12
1.6687867e-11
7.5404319e-12
1.9573107e-11
8.7570645e-12
2.2311864e-11
9.735988e-12
2.5249606e-11
1.0446178e-11
2.8183942e-11
1.1006933e-11
3.0996939e-11
1.130824e-11
3.3686343e-11
1.13533e-11
3.6202888e-11
1.1163038e-11
3.8485382e-11
1.0726945e-11
4.0615627e-11
1.0048815e-11
4.2500833e-11
9.2604033e-12
4.4134653e-11
8.2604451e-12
4.5513972e-11
7.0585892e-12
4.6635462e-11
5.6886027e-12
4.7534381e-11
4.141496e-12
4.804592e-11
2.5691987e-12
9.1037427e-13
-1.0408573e-13
-4.3129609e-12
5.4439293e-13
-3.7562653e-12
1.4087006e-12
-2.6730665e-12
2.7370923e-12
-1.6621156e-12
4.360933e-12
-3.1588962e-13
6.2522259e-12
1.1050489e-12
8.366235e-12
2.52808e-12
1.0634389e-11
3.888294e-12
1.3026738e-11
5.1480557e-12
1.551239e-11
6.2713881e-12
1.7909892e-11
7.3384649e-12
2.0409686e-11
7.9463651e-12
2.2916287e-11
8.5003154e-12
2.5396126e-11
8.8283852e-12
2.7796479e-11
8.9529333e-12
3.0083855e-11
8.8756488e-12
3.2207975e-11
8.6028143e-12
3.4128587e-11
8.1281931e-12
3.5885923e-11
7.5030578e-12
3.7436832e-11
6.7095286e-12
3.8744146e-11
5.7512676e-12
3.9785173e-11
4.6475695e-12
4.0501084e-11
3.4255793e-12
4.0968613e-11
2.1016659e-12
6.9951514e-13
-4.1464793e-13
-4.4608476e-12
-4.6965838e-14
-4.1240067e-12
7.1578336e-13
-3.4358696e-12
1.6015847e-12
-2.5479656e-12
2.7949154e-12
-1.509264e-12
4.2358353e-12
-3.3591001e-13
5.890019e-12
8.7386156e-13
7.723752e-12
2.0545301e-12
9.7057102e-12
3.1660699e-12
1.1794524e-11
4.1825496e-12
1.4031121e-11
5.1018458e-12
1.6181914e-11
5.7955525e-12
1.8296159e-11
6.386053e-12
2.0438756e-11
6.6857715e-12
2.2558848e-11
6.8328265e-12
2.4547393e-11
6.8870905e-12
2.6414536e-11
6.7356598e-12
2.8124064e-11
6.4186535e-12
2.9684181e-11
5.942931e-12
3.1071675e-11
5.3220254e-12
3.2240867e-11
4.582067e-12
3.3170854e-11
3.7175753e-12
3.3839997e-11
2.7564277e-12
3.423773e-11
1.7039278e-12
5.6872781e-13
-5.2835178e-13
-4.5091611e-12
-2.9031882e-13
-4.3620958e-12
1.9646625e-13
-3.9227061e-12
8.9476955e-13
-3.2463155e-12
1.8021677e-12
-2.4167043e-12
2.9298322e-12
-1.4636125e-12
4.2586418e-12
-4.5498194e-13
5.7509198e-12
5.6222163e-13
7.3875742e-12
1.5293884e-12
9.1482922e-12
2.4218072e-12
1.1029583e-11
3.2205337e-12
1.291136e-11
3.9137552e-12
1.4832974e-11
4.4644217e-12
1.6708527e-11
4.8102028e-12
1.8530569e-11
5.0107708e-12
2.0276671e-11
5.1409753e-12
2.1961938e-11
5.0503814e-12
2.3506763e-11
4.8738171e-12
2.4903056e-11
4.5466285e-12
2.6158777e-11
4.0662948e-12
2.7211557e-11
3.5292789e-12
2.8059192e-11
2.8699324e-12
2.8699266e-11
2.116345e-12
2.9110302e-11
1.2928868e-12
4.3068553e-13
-4.8919667e-13
-4.5186658e-12
-3.307733e-13
-4.5205722e-12
-3.0635071e-16
-4.2532218e-12
5.4178473e-13
-3.788451e-12
1.267584e-12
-3.1425437e-12
2.1998572e-12
-2.3959219e-12
3.3049789e-12
-1.5601363e-12
4.5734837e-12
-7.0631238e-13
5.9648294e-12
1.3801662e-13
7.467363e-12
9.1925028e-13
9.0666973e-12
1.6211787e-12
1.0735762e-11
2.2446722e-12
1.2444475e-11
2.7556919e-12
1.4101554e-11
3.153109e-12
1.5697289e-11
3.4150228e-12
1.7336889e-11
3.5013641e-12
1.8860375e-11
3.526884e-12
2.0255002e-11
3.4791811e-12
2.1520212e-11
3.2814095e-12
2.2609964e-11
2.9765345e-12
2.3570037e-11
2.5691987e-12
2.4353764e-11
2.086198e-12
2.4925954e-11
1.5441485e-12
2.5267262e-11
9.5157421e-13
3.1994536e-13
-3.7717789e-13
-4.5333123e-12
-2.5497297e-13
-4.6428272e-12
1.5671573e-14
-4.5239124e-12
4.5698967e-13
-4.2298111e-12
1.0737302e-12