/*--------------------------------*- C++ -*----------------------------------*\
| =========                 |                                                 |
| \\      /  F ield         | OpenFOAM: The Open Source CFD Toolbox           |
|  \\    /   O peration     | Version:  4.0                                   |
|   \\  /    A nd           | Web:      www.OpenFOAM.org                      |
|    \\/     M anipulation  |                                                 |
\*---------------------------------------------------------------------------*/
FoamFile
{
    version     2.0;
    format      ascii;
    class       volVectorField;
    location    "0.03";
    object      U;
}
// * * * * * * * * * * * * * * * * * * * * * * * * * * * * * * * * * * * * * //

dimensions      [0 1 -1 0 0 0 0];

internalField   nonuniform List<vector> 
1740
(
(1.479402 -0.0031675392 5.8868201e-06)
(1.4793064 -0.016978988 9.6053305e-07)
(1.6037512 -0.01221655 7.7870899e-08)
(1.5633987 -0.0081750276 8.7736249e-06)
(1.5814356 -0.032504678 1.5638748e-06)
(1.6036608 -0.02101014 2.763678e-07)
(1.6126017 -0.00034620231 1.1076873e-05)
(1.6009799 -0.0014612134 2.4971301e-06)
(1.5273376 -0.0046803752 3.8721979e-07)
(1.5515985 0.0059377297 1.2835663e-05)
(1.5252279 0.015690994 3.0922859e-06)
(1.6170837 0.0013111896 6.1476381e-07)
(1.5400293 -0.0075468129 1.4316194e-05)
(1.5333409 -0.01987897 4.1466004e-06)
(1.6126589 -0.014566909 7.5683553e-07)
(1.5836743 -0.017404601 1.5722175e-05)
(1.6081885 -0.043120627 5.0109669e-06)
(1.5134311 -0.020111462 1.0055838e-06)
(1.6675074 -0.0076832846 1.7374002e-05)
(1.6976318 -0.008833852 5.9603103e-06)
(1.5031554 -0.0041527629 1.1796444e-06)
(1.5623758 -0.0016589156 1.81056e-05)
(1.6961583 0.021604292 6.8612508e-06)
(1.5042277 0.010777141 1.4055648e-06)
(1.5786639 0.003254575 1.8304695e-05)
(1.6067268 0.02884889 7.3907134e-06)
(1.4936324 0.020025746 1.5759784e-06)
(1.5887247 0.021596558 1.8940274e-05)
(1.5137153 0.029364709 8.1166439e-06)
(1.5958888 0.0056661735 1.6966137e-06)
(1.4852664 0.015906582 1.9758278e-05)
(1.6038913 0.0044917184 8.6931453e-06)
(1.6073095 -0.0088193953 2.0005483e-06)
(1.4854196 -0.0048248651 2.0014764e-05)
(1.601495 0.00096704797 9.2925831e-06)
(1.5021216 0.0016702176 2.1280191e-06)
(1.4974677 0.0044607382 2.011374e-05)
(1.5051283 0.0068300671 9.6603614e-06)
(1.607274 0.0028612588 2.2865636e-06)
(1.4938179 0.0065302912 2.049106e-05)
(1.5989181 -0.0055895075 1.0176594e-05)
(1.5944654 -0.0039368387 2.5321657e-06)
(1.4946425 -0.011160245 2.0911957e-05)
(1.5849735 0.0026354617 1.0643124e-05)
(1.5870492 0.0032270869 2.6907164e-06)
(1.5091387 -0.013842215 2.0967891e-05)
(1.4998963 -0.0035607533 1.0998373e-05)
(1.5955751 0.0011485814 2.8987056e-06)
(1.5096277 -0.01036406 2.1223922e-05)
(1.5197189 -0.016207916 1.1420549e-05)
(1.5542511 -0.0060480526 3.0967267e-06)
(1.5991532 -0.0081390812 2.1659143e-05)
(1.581089 -0.0034733828 1.1827315e-05)
(1.5654308 0.0041681737 3.2183476e-06)
(1.5905893 0.012389084 2.1737374e-05)
(1.5643043 0.011989271 1.2178268e-05)
(1.6026325 0.0014503244 3.4578131e-06)
(1.4891723 0.009055798 2.1648722e-05)
(1.588094 -0.0071092169 1.2561851e-05)
(1.5891378 -0.010161283 3.6199779e-06)
(1.4997686 -0.017947067 2.1699498e-05)
(1.611335 -0.025360474 1.2890462e-05)
(1.5177188 -0.0068649312 3.7798809e-06)
(1.6212294 -0.017790935 2.1985624e-05)
(1.539374 -0.0093143541 1.31808e-05)
(1.5447809 -0.004110567 3.9153161e-06)
(1.6564276 0.0055601357 2.2349533e-05)
(1.6042638 0.0074558508 1.353192e-05)
(1.534024 0.00076333412 4.104768e-06)
(1.528357 0.014073214 2.223719e-05)
(1.5796216 0.01120545 1.3856963e-05)
(1.5706399 0.0037620366 4.2133147e-06)
(1.482063 -0.0023366814 2.2215129e-05)
(1.5922381 -0.00088280603 1.4108683e-05)
(1.531111 0.0041603842 4.4179088e-06)
(1.5633606 -0.0098073962 2.2105542e-05)
(1.5858426 0.007951209 1.4399041e-05)
(1.5654445 0.009887739 4.5549514e-06)
(1.5653383 -0.0026490239 2.2140173e-05)
(1.526021 0.0056942804 1.4662629e-05)
(1.5778216 0.0038356037 4.6996764e-06)
(1.520926 -0.010119933 2.2622647e-05)
(1.4638113 0.0019205996 1.4943726e-05)
(1.5257656 0.0042913465 4.8400998e-06)
(1.5510394 0.010801279 2.2202747e-05)
(1.356856 -0.0032827732 1.5128459e-05)
(1.5827923 -0.0071265425 4.844229e-06)
(1.3257098 0.055967202 2.3590321e-05)
(1.2503184 0.085342616 1.5639507e-05)
(1.4007883 0.049733731 5.5751126e-06)
(0.82662533 0.36938336 1.2017629e-05)
(0.79749431 0.93005777 9.9073411e-06)
(0.7473619 1.2529322 5.3945777e-06)
(0.22156301 0.11235927 1.5380066e-06)
(0.1816081 0.36534275 3.0622287e-06)
(0.092389843 0.50155971 6.885667e-07)
(-0.030909821 -0.014133525 1.220501e-06)
(-0.030297809 -0.030042313 1.6281654e-06)
(-0.018300426 -0.034423162 5.2847078e-07)
(-0.0071510643 -0.0033681218 4.2315868e-07)
(-0.0071232133 -0.0088007354 6.3796862e-07)
(-0.0051296746 -0.011773701 2.773041e-07)
(-0.0015230935 -0.00038246675 9.577204e-08)
(-0.0014154423 -0.0010185297 1.751253e-07)
(-0.00080483471 -0.0015378416 8.5721577e-08)
(-0.00074201255 1.1646641e-05 1.3176785e-08)
(-0.00058917292 4.1204819e-05 3.3516838e-08)
(-0.00024164589 5.6298357e-05 1.6595622e-08)
(-0.00050807349 -5.7152334e-06 -1.1072878e-09)
(-0.0003883025 3.6475736e-05 3.232025e-09)
(-0.00014455709 0.0001405037 1.370441e-09)
(-0.0004470998 2.9826117e-06 -3.230128e-09)
(-0.0003626893 1.2700657e-05 -2.2978654e-09)
(-0.0001976467 4.9801412e-05 -1.5965279e-09)
(-0.00040378235 -1.7708017e-05 -2.4663919e-09)
(-0.00034562892 -2.8111739e-05 -2.5865629e-09)
(-0.0002333403 -2.8741881e-05 -1.7675274e-09)
(-0.00035006333 -3.0233529e-05 -1.1034396e-09)
(-0.00030981994 -6.1628566e-05 -1.5040818e-09)
(-0.00023157511 -8.1663051e-05 -1.088006e-09)
(-0.00028666887 -2.9767508e-05 -1.5474152e-10)
(-0.0002588784 -6.5960136e-05 -4.5865814e-10)
(-0.0002036674 -9.3866344e-05 -3.9230382e-10)
(-0.00022673838 -2.4052737e-05 2.2967556e-10)
(-0.00020725219 -5.4520954e-05 1.0748706e-10)
(-0.00016768282 -8.3588266e-05 2.7322161e-11)
(-0.00017718179 -1.6956613e-05 2.6243806e-10)
(-0.00016322088 -3.6924522e-05 2.8082968e-10)
(-0.0001344219 -5.5494897e-05 1.7783746e-10)
(-0.0001396654 -1.0255579e-05 1.3317579e-10)
(-0.00012948029 -2.1964652e-05 2.1798981e-10)
(-0.00010816077 -3.1679201e-05 1.6002745e-10)
(-0.00011357052 -6.0409037e-06 1.5197187e-12)
(-0.00010602507 -1.2296635e-05 9.3022944e-11)
(-9.0003159e-05 -1.7301507e-05 8.7748919e-11)
(-9.6228863e-05 -3.7559104e-06 -7.8038721e-11)
(-9.056119e-05 -7.1069968e-06 -1.1183995e-11)
(-7.8355757e-05 -9.550288e-06 1.7188386e-11)
(-8.4431142e-05 -2.7175622e-06 -1.0341843e-10)
(-8.0121153e-05 -4.9309909e-06 -6.8377921e-11)
(-7.0705085e-05 -6.4670852e-06 -2.6462684e-11)
(-7.5867162e-05 -2.2528851e-06 -9.4981914e-11)
(-7.2551976e-05 -4.1582738e-06 -8.4096842e-11)
(-6.519903e-05 -5.5893459e-06 -4.1598151e-11)
(-6.932501e-05 -1.9882795e-06 -6.9600302e-11)
(-6.6750807e-05 -3.8674517e-06 -7.2057674e-11)
(-6.0944712e-05 -5.4001241e-06 -3.6423565e-11)
(-6.4231558e-05 -1.7401287e-06 -4.8219712e-11)
(-6.2212939e-05 -3.4929802e-06 -5.6040309e-11)
(-5.7574329e-05 -5.0986825e-06 -2.6857783e-11)
(-6.0246656e-05 -1.4216872e-06 -3.2737338e-11)
(-5.8644497e-05 -2.9243052e-06 -4.1740288e-11)
(-5.4888166e-05 -4.425587e-06 -1.8605778e-11)
(-5.7090166e-05 -1.0711648e-06 -2.061532e-11)
(-5.5807505e-05 -2.2950295e-06 -3.0214139e-11)
(-5.2730023e-05 -3.5936968e-06 -1.2250487e-11)
(-5.4523885e-05 -8.0439206e-07 -1.2300639e-11)
(-5.3494436e-05 -1.7158201e-06 -2.1959739e-11)
(-5.0955254e-05 -2.7340593e-06 -8.3793632e-12)
(-5.2406468e-05 -7.6905093e-07 -7.6890276e-12)
(-5.1577215e-05 -1.4668445e-06 -1.7618766e-11)
(-4.9467376e-05 -2.0179538e-06 -7.6847326e-12)
(-5.0693699e-05 -6.4472658e-07 -5.8452717e-12)
(-5.0019153e-05 -1.148491e-06 -1.5461834e-11)
(-4.8245329e-05 -1.5966812e-06 -7.5128508e-12)
(-4.9346429e-05 -4.83522e-07 -5.7839253e-12)
(-4.8793035e-05 -9.5125708e-07 -1.3909992e-11)
(-4.7281244e-05 -1.3372768e-06 -6.7083721e-12)
(-4.8269395e-05 -3.5142464e-07 -7.888327e-12)
(-4.7815007e-05 -7.2698401e-07 -1.2991169e-11)
(-4.651431e-05 -1.0842927e-06 -6.0310995e-12)
(-4.7342464e-05 -3.0749297e-07 -1.0543126e-11)
(-4.6969846e-05 -5.5830417e-07 -1.4996564e-11)
(-4.5844994e-05 -9.0961595e-07 -6.8307798e-12)
(-4.6468287e-05 -3.014922e-07 -1.2435471e-11)
(-4.6162061e-05 -5.3454804e-07 -1.6447806e-11)
(-4.5182651e-05 -8.8715656e-07 -8.298388e-12)
(-4.5583846e-05 -3.01848e-07 -1.319914e-11)
(-4.5331095e-05 -5.8869492e-07 -1.6358285e-11)
(-4.4469625e-05 -1.0128832e-06 -8.550252e-12)
(-4.4649803e-05 -3.2851986e-07 -1.3514554e-11)
(-4.4440586e-05 -7.1242675e-07 -1.6297619e-11)
(-4.3675234e-05 -1.1793601e-06 -8.6086205e-12)
(-4.3644271e-05 -4.0461977e-07 -1.374018e-11)
(-4.3470688e-05 -8.2619443e-07 -1.5970254e-11)
(-4.2786374e-05 -1.2792905e-06 -8.4208224e-12)
(-4.2564946e-05 -4.1130607e-07 -1.39204e-11)
(-4.2420968e-05 -8.424788e-07 -1.53483e-11)
(-4.1807069e-05 -1.3378744e-06 -7.7778883e-12)
(-4.1427998e-05 -4.1809029e-07 -1.3446762e-11)
(-4.1309254e-05 -8.8431623e-07 -1.4173127e-11)
(-4.0756492e-05 -1.4220795e-06 -7.1268838e-12)
(-4.0257662e-05 -4.2185865e-07 -1.3394629e-11)
(-4.015998e-05 -9.1396883e-07 -1.3550506e-11)
(-3.9659266e-05 -1.4779972e-06 -6.9836171e-12)
(-3.9075171e-05 -4.2383184e-07 -1.3332972e-11)
(-3.8994457e-05 -9.1735394e-07 -1.3270249e-11)
(-3.8537608e-05 -1.4815443e-06 -7.0688684e-12)
(-3.7896811e-05 -4.1783974e-07 -1.3350565e-11)
(-3.7829845e-05 -9.1633956e-07 -1.2720183e-11)
(-3.7410451e-05 -1.4829487e-06 -6.8386519e-12)
(-3.6737655e-05 -4.0700893e-07 -1.3305506e-11)
(-3.6682128e-05 -9.0044308e-07 -1.218507e-11)
(-3.6295277e-05 -1.4605173e-06 -6.6142775e-12)
(-3.5613106e-05 -3.9091386e-07 -1.3457729e-11)
(-3.5567189e-05 -8.6767125e-07 -1.2077444e-11)
(-3.520878e-05 -1.4080327e-06 -6.7579465e-12)
(-3.4537768e-05 -3.6916686e-07 -1.3764568e-11)
(-3.4499914e-05 -8.2087778e-07 -1.2253554e-11)
(-3.4166357e-05 -1.3321904e-06 -7.125826e-12)
(-3.3524568e-05 -3.4441021e-07 -1.3864813e-11)
(-3.3493465e-05 -7.6771488e-07 -1.2076082e-11)
(-3.318159e-05 -1.2467362e-06 -7.1154501e-12)
(-3.2584621e-05 -3.1672509e-07 -1.3698201e-11)
(-3.2559174e-05 -7.0795172e-07 -1.1395838e-11)
(-3.2266153e-05 -1.1500593e-06 -6.600014e-12)
(-3.1727395e-05 -2.8381579e-07 -1.38948e-11)
(-3.1706663e-05 -6.3448027e-07 -1.1320044e-11)
(-3.1429917e-05 -1.0301167e-06 -6.5780127e-12)
(-3.0960857e-05 -2.4760035e-07 -1.4383439e-11)
(-3.0944002e-05 -5.5207235e-07 -1.1820039e-11)
(-3.0681119e-05 -8.9537673e-07 -7.0458254e-12)
(-3.0291995e-05 -2.111922e-07 -1.4645167e-11)
(-3.0278257e-05 -4.7026184e-07 -1.2014135e-11)
(-3.0026947e-05 -7.6218225e-07 -7.2424617e-12)
(-2.972778e-05 -1.7454029e-07 -1.4611171e-11)
(-2.9716472e-05 -3.8893828e-07 -1.1744472e-11)
(-2.9474519e-05 -6.3020602e-07 -7.0142749e-12)
(-2.9277715e-05 -1.3589457e-07 -1.4554307e-11)
(-2.9268227e-05 -3.0263198e-07 -1.1489939e-11)
(-2.9033497e-05 -4.8940127e-07 -6.8007241e-12)
(-2.8946478e-05 -9.3975946e-08 -1.4668991e-11)
(-2.8938291e-05 -2.0841917e-07 -1.1500606e-11)
(-2.8708864e-05 -3.3742508e-07 -6.7965646e-12)
(-2.8774608e-05 -4.887822e-08 -1.4775761e-11)
(-2.8767462e-05 -1.0724062e-07 -1.1340175e-11)
(-2.8541448e-05 -1.7691555e-07 -6.6551273e-12)
(-2.8713887e-05 -8.458568e-09 -1.3503283e-11)
(-2.8707425e-05 -1.6605737e-08 -9.1462739e-12)
(-2.8483388e-05 -2.9893049e-08 -5.1266799e-12)
(-0.045683096 1.9621015 -3.6569264e-07)
(-0.032911891 1.7057418 -3.4522321e-06)
(-0.060460744 0.34694245 -2.4726439e-07)
(-0.043002327 0.15577299 -9.7592765e-07)
(-0.014087313 -0.041582611 -1.3632055e-07)
(-0.011167446 -0.043862918 -4.5509388e-07)
(-0.0043356715 -0.014289934 -1.4973923e-08)
(-0.0039069829 -0.015726325 -1.5756939e-07)
(-0.00046818388 -0.0021861911 -2.8265538e-09)
(-0.000311482 -0.0028792366 -4.6600221e-08)
(8.5921216e-05 8.0407815e-05 -2.6554334e-09)
(0.00028430497 0.00013063258 -1.1663761e-08)
(9.8587783e-05 0.0002725083 -1.6809869e-09)
(0.00027396073 0.00040936112 -2.8945834e-09)
(-2.5501628e-05 0.0001458529 -1.5478061e-09)
(0.00011381357 0.0002737245 -1.4279827e-09)
(-0.00011015026 8.5936665e-06 -1.3346494e-09)
(-3.9947541e-06 6.882777e-05 -1.074802e-09)
(-0.00014207952 -8.2081463e-05 -8.0368555e-10)
(-5.9957267e-05 -6.7658586e-05 -6.3532812e-10)
(-0.00013772836 -0.00011211421 -2.9343384e-10)
(-7.4004847e-05 -0.00011593795 -2.2497536e-10)
(-0.00011880516 -9.9402964e-05 1.9249582e-11)
(-6.9316624e-05 -0.00010403638 2.6200495e-11)
(-9.7868313e-05 -6.7162422e-05 1.3359449e-10)
(-5.9428169e-05 -6.9844689e-05 1.1868821e-10)
(-8.0482724e-05 -3.636918e-05 1.2939778e-10)
(-5.0516986e-05 -3.800291e-05 1.1691271e-10)
(-6.880403e-05 -1.8208033e-05 8.0272941e-11)
(-4.5297513e-05 -1.6888067e-05 7.7020698e-11)
(-6.1955799e-05 -9.1406701e-06 2.7933173e-11)
(-4.3404383e-05 -5.0214534e-06 3.2869057e-11)
(-5.7895868e-05 -5.7300319e-06 -6.8877822e-12)
(-4.3145367e-05 -2.4252291e-06 2.8601936e-12)
(-5.508937e-05 -5.4812101e-06 -1.966049e-11)
(-4.3269009e-05 -3.4881935e-06 -9.1079748e-12)
(-5.2885568e-05 -5.7749114e-06 -1.7987737e-11)
(-4.3337048e-05 -4.7099087e-06 -9.5124515e-12)
(-5.108091e-05 -5.789415e-06 -1.1839442e-11)
(-4.3295424e-05 -5.3870707e-06 -5.4113666e-12)
(-4.9591832e-05 -5.2476092e-06 -6.2753321e-12)
(-4.3176277e-05 -5.2665271e-06 -1.2969708e-12)
(-4.8362113e-05 -4.3635102e-06 -2.211716e-12)
(-4.3024421e-05 -4.4978666e-06 1.6414843e-12)
(-4.7326533e-05 -3.4332965e-06 9.1782373e-14)
(-4.2853997e-05 -3.5834424e-06 3.5587391e-12)
(-4.6434655e-05 -2.3557439e-06 -7.231121e-13)
(-4.2664249e-05 -2.4732415e-06 3.0092856e-12)
(-4.5685123e-05 -1.6871743e-06 -1.633665e-12)
(-4.2481069e-05 -1.5498363e-06 1.8558732e-12)
(-4.5090552e-05 -1.3353628e-06 -1.6157864e-12)
(-4.2338904e-05 -1.0971243e-06 1.0410192e-12)
(-4.4620819e-05 -1.1754061e-06 -1.544323e-12)
(-4.2232722e-05 -1.009608e-06 5.9158174e-13)
(-4.4199101e-05 -1.1695001e-06 -1.9206094e-12)
(-4.2109718e-05 -1.1112354e-06 2.0532931e-13)
(-4.3742491e-05 -1.2042692e-06 -2.9719211e-12)
(-4.1902415e-05 -1.2736244e-06 -3.6233057e-13)
(-4.3197305e-05 -1.3217633e-06 -3.5388866e-12)
(-4.1564997e-05 -1.4342306e-06 -9.4902902e-13)
(-4.2540819e-05 -1.4848178e-06 -3.7671669e-12)
(-4.1081763e-05 -1.6356309e-06 -1.3937972e-12)
(-4.1769039e-05 -1.6113319e-06 -3.7840272e-12)
(-4.0456819e-05 -1.8444674e-06 -1.5701799e-12)
(-4.0891393e-05 -1.7554796e-06 -3.2235933e-12)
(-3.9705842e-05 -2.083074e-06 -1.1316376e-12)
(-3.992865e-05 -1.9038654e-06 -2.7900811e-12)
(-3.8852593e-05 -2.3173483e-06 -7.5166213e-13)
(-3.8906295e-05 -1.9929273e-06 -2.8552687e-12)
(-3.7924317e-05 -2.4544435e-06 -8.3977373e-13)
(-3.7848385e-05 -2.0169295e-06 -3.0709081e-12)
(-3.6947286e-05 -2.5051838e-06 -1.0810783e-12)
(-3.6776171e-05 -2.0194572e-06 -3.0657878e-12)
(-3.5945193e-05 -2.5133847e-06 -1.1815231e-12)
(-3.5708903e-05 -1.9931435e-06 -3.0261033e-12)
(-3.4939234e-05 -2.4900286e-06 -1.2205409e-12)
(-3.4664345e-05 -1.9250624e-06 -3.2455024e-12)
(-3.3948497e-05 -2.410105e-06 -1.4349205e-12)
(-3.3658665e-05 -1.8238615e-06 -3.6248992e-12)
(-3.2990084e-05 -2.2871859e-06 -1.7545953e-12)
(-3.270605e-05 -1.7099395e-06 -3.6930074e-12)
(-3.207892e-05 -2.1498759e-06 -1.8329346e-12)
(-3.1818637e-05 -1.5781126e-06 -3.3740766e-12)
(-3.1227699e-05 -1.9846466e-06 -1.6492959e-12)
(-3.1006635e-05 -1.4134793e-06 -3.4240032e-12)
(-3.0447033e-05 -1.7779937e-06 -1.7510357e-12)
(-3.027852e-05 -1.2292621e-06 -3.8204212e-12)
(-2.9745696e-05 -1.5481779e-06 -2.084483e-12)
(-2.9641652e-05 -1.046572e-06 -4.0006348e-12)
(-2.9131271e-05 -1.3187345e-06 -2.2406828e-12)
(-2.9103261e-05 -8.6480538e-07 -3.8427294e-12)
(-2.8611132e-05 -1.0887631e-06 -2.1323248e-12)
(-2.8673107e-05 -6.7025101e-07 -3.689296e-12)
(-2.8195164e-05 -8.4299414e-07 -2.0174513e-12)
(-2.8356467e-05 -4.6258296e-07 -3.7119297e-12)
(-2.7888966e-05 -5.8254054e-07 -2.0569164e-12)
(-2.8194095e-05 -2.4509782e-07 -3.6991694e-12)
(-2.7733081e-05 -3.1088027e-07 -2.1280073e-12)
(-2.8138809e-05 -4.3034862e-08 -2.8659249e-12)
(-2.7681158e-05 -5.586017e-08 -1.7014043e-12)
(-0.00018006024 5.8087916e-05 -8.4174527e-10)
(-0.00023085681 0.00014205155 -1.5547639e-09)
(-0.00032120284 0.00024383305 -1.6018839e-09)
(-0.00041642317 0.00031924275 -1.2680438e-09)
(-0.00049433749 0.00039709659 -8.2480658e-10)
(-0.00054665074 0.00045129443 -4.2023668e-10)
(-0.0005727143 0.00049119171 -1.180557e-10)
(-0.00057550864 0.00051065517 9.3546304e-11)
(-0.00056167899 0.00051451961 2.3782837e-10)
(-0.00053638421 0.00050768189 3.3104703e-10)
(-0.00050243592 0.0004940807 3.8767603e-10)
(-0.00046266359 0.00047782042 4.2015486e-10)
(-0.00041956925 0.00046072144 4.3213726e-10)
(-0.00037524883 0.00044328092 4.2928776e-10)
(-0.00033128524 0.00042695388 4.1813721e-10)
(-0.00028864265 0.00041178676 4.0251469e-10)
(-0.00024811062 0.00039778489 3.8483066e-10)
(-0.00021011613 0.0003851873 3.6659708e-10)
(-0.00017480209 0.00037365212 3.4863489e-10)
(-0.00014212148 0.00036283352 3.3128278e-10)
(-0.00011191045 0.00035272985 3.1453952e-10)
(-8.3919466e-05 0.0003432479 2.9780099e-10)
(-5.7838688e-05 0.0003332991 2.7712299e-10)
(-3.3367015e-05 0.0003222478 2.3782054e-10)
(-1.0477749e-05 0.00031029793 1.6788005e-10)
(-6.8364289e-05 -3.2286855e-06 -4.232976e-09)
(-7.4717112e-05 -0.00013229976 -8.0059574e-09)
(-6.6353621e-05 -0.00015095938 -8.7263367e-09)
(-5.5366556e-05 -0.00028012583 -7.5517704e-09)
(-3.1815341e-05 -0.00036645202 -5.6515239e-09)
(7.729813e-07 -0.00050189787 -3.8039582e-09)
(3.626791e-05 -0.00064676117 -2.3652919e-09)
(6.906818e-05 -0.00081482577 -1.3004841e-09)
(9.7566102e-05 -0.000991703 -5.1857672e-10)
(0.00011998271 -0.0011672218 3.1856618e-11)
(0.00013394268 -0.0013420953 4.1692086e-10)
(0.0001396744 -0.0015103123 6.9597758e-10)
(0.00013901074 -0.0016636704 8.5985478e-10)
(0.00013362851 -0.0018022943 9.3351273e-10)
(0.00012490692 -0.0019241826 9.524951e-10)
(0.00011418358 -0.0020280812 9.3510381e-10)
(0.00010226522 -0.0021133433 8.9524181e-10)
(8.9772869e-05 -0.0021796956 8.4419209e-10)
(7.7098622e-05 -0.0022272102 7.8993776e-10)
(6.4445381e-05 -0.0022562056 7.3675711e-10)
(5.1944834e-05 -0.0022668001 6.8624945e-10)
(3.9693684e-05 -0.002259888 6.3857053e-10)
(2.7749483e-05 -0.0022393285 5.8874967e-10)
(1.6012477e-05 -0.0021983371 5.0245023e-10)
(4.3538003e-06 -0.0021028504 2.7971731e-10)
(0.00042144174 -0.00024878174 -1.9762382e-08)
(0.00042017529 -0.0013565758 -3.7434918e-08)
(0.00046988434 -0.0018282322 -4.181696e-08)
(0.00055975121 -0.0026373437 -3.8007791e-08)
(0.00066137124 -0.0032426215 -3.0379476e-08)
(0.00073890812 -0.0039358456 -2.2592929e-08)
(0.00078702805 -0.0045474853 -1.6333489e-08)
(0.00080485043 -0.005126841 -1.1456059e-08)
(0.00079709408 -0.0056782124 -7.6542557e-09)
(0.00077104446 -0.0062138897 -4.8637088e-09)
(0.00073209545 -0.0068056565 -2.6943548e-09)
(0.0006848307 -0.007418242 -8.7891283e-10)
(0.00063209879 -0.0079479392 3.2256741e-10)
(0.00057634018 -0.0083896106 1.0565011e-09)
(0.0005191308 -0.008742788 1.4933712e-09)
(0.00046267183 -0.0090136255 1.6924126e-09)
(0.00040738711 -0.009209036 1.716788e-09)
(0.00035354189 -0.00933518 1.6347922e-09)
(0.00030118305 -0.0093963213 1.5063544e-09)
(0.0002503051 -0.0093983363 1.3637716e-09)
(0.00020095785 -0.0093444559 1.2250168e-09)
(0.00015323661 -0.0092401094 1.101582e-09)
(0.00010712358 -0.0090980914 9.9184114e-10)
(6.2287991e-05 -0.0088808899 8.4705383e-10)
(1.8800137e-05 -0.0085037169 5.0662817e-10)
(0.0029608728 -0.0011616918 -7.7070171e-08)
(0.0030256146 -0.0052523427 -1.4071409e-07)
(0.003057719 -0.0067640042 -1.5553245e-07)
(0.0029927967 -0.0096268419 -1.4409083e-07)
(0.0028762372 -0.012173222 -1.2039343e-07)
(0.0027040345 -0.015137896 -9.6073239e-08)
(0.0024918777 -0.017393074 -7.6214964e-08)
(0.0022587882 -0.019017067 -5.969705e-08)
(0.0020221538 -0.020135762 -4.5825783e-08)
(0.0017925758 -0.020761423 -3.562657e-08)
(0.001580641 -0.020930857 -2.6605448e-08)
(0.0013871532 -0.02076826 -1.778921e-08)
(0.0012106598 -0.020413642 -1.1655693e-08)
(0.0010513301 -0.019935353 -7.0267201e-09)
(0.00090909975 -0.019375891 -3.4849356e-09)
(0.00078481955 -0.0187713 -1.0782465e-09)
(0.00067351845 -0.01815013 2.999224e-10)
(0.00057259456 -0.017524263 9.033538e-10)
(0.0004781558 -0.016904346 1.0295606e-09)
(0.00039070386 -0.016298526 9.2216062e-10)
(0.00030959388 -0.015716723 7.3775778e-10)
(0.00023381684 -0.015161703 5.6102367e-10)
(0.00016264193 -0.014657195 4.3248906e-10)
(9.501326e-05 -0.014104952 3.4814271e-10)
(3.1116649e-05 -0.013457958 2.1543901e-10)
(0.011482127 -0.008817895 -2.5313535e-07)
(0.0093661652 -0.027067431 -4.059764e-07)
(0.0084119252 -0.030327243 -4.1931679e-07)
(0.0068040991 -0.036763761 -3.9189702e-07)
(0.0055295414 -0.036388105 -3.4790442e-07)
(0.0044008005 -0.034406162 -3.0349604e-07)
(0.0034399709 -0.031208231 -2.6232285e-07)
(0.0026598558 -0.027320863 -2.24684e-07)
(0.0020382848 -0.023346528 -1.9018621e-07)
(0.0015461296 -0.019611135 -1.5791281e-07)
(0.0011585226 -0.01615049 -1.2931004e-07)
(0.00085629489 -0.012962204 -1.0137859e-07)
(0.00062361298 -0.010100148 -8.0622567e-08)
(0.00044489163 -0.007593477 -6.1128673e-08)
(0.00030918618 -0.0054109959 -4.3281016e-08)
(0.00020444936 -0.0035493601 -2.8237732e-08)
(0.00012642377 -0.0019684736 -1.6835816e-08)
(7.0012645e-05 -0.0006080957 -9.3328655e-09)
(3.2474604e-05 0.00059600767 -5.1484406e-09)
(8.8393911e-06 0.0016475293 -3.2189831e-09)
(-4.3796548e-06 0.0024758368 -2.514111e-09)
(-1.0072007e-05 0.0031228814 -2.3195645e-09)
(-9.8812444e-06 0.0035002562 -2.2509577e-09)
(-6.0624805e-06 0.0038353336 -2.1598114e-09)
(1.9836989e-06 0.0037388454 -1.834119e-09)
(0.014834338 0.025022683 -6.8855988e-07)
(0.0045753702 -0.0034299247 -9.205834e-07)
(0.0021987176 0.048936991 -8.9694585e-07)
(0.00055807915 0.048983756 -8.1090916e-07)
(-0.00093085407 0.063007746 -7.4525394e-07)
(-0.0020614364 0.073697248 -6.6372459e-07)
(-0.0027094178 0.080653496 -5.9056319e-07)
(-0.0029368562 0.085930442 -5.2370925e-07)
(-0.0029064213 0.089889919 -4.6343596e-07)
(-0.0027519757 0.092441108 -4.0867661e-07)
(-0.0025431588 0.093796929 -3.5916225e-07)
(-0.0023007042 0.094011472 -3.0209335e-07)
(-0.0020630823 0.093652492 -2.6744465e-07)
(-0.0018419867 0.092572661 -2.2599463e-07)
(-0.0016268564 0.09110735 -1.8363585e-07)
(-0.0014299655 0.089437996 -1.4045561e-07)
(-0.0012493562 0.0875479 -9.7233609e-08)
(-0.0010821856 0.085514767 -5.9199145e-08)
(-0.00092321275 0.083301577 -3.1430895e-08)
(-0.00077153584 0.080998114 -1.4889978e-08)
(-0.00062494796 0.078597816 -6.8800006e-09)
(-0.00048220435 0.076396349 -3.7303536e-09)
(-0.00034090486 0.073840204 -2.6716115e-09)
(-0.00020207881 0.072097284 -2.5179047e-09)
(-6.1476656e-05 0.068365801 -1.4452361e-09)
(-0.0018203217 1.1799415 -2.5096802e-06)
(-0.00086128831 0.97055557 -1.982184e-06)
(-0.0010985739 0.87684752 -1.5907822e-06)
(-0.00070431338 0.78675377 -1.2871672e-06)
(-0.0005743129 0.69416094 -1.0601377e-06)
(-0.00048200109 0.60674241 -8.9003685e-07)
(-0.00039733414 0.53175997 -7.6471124e-07)
(-0.00033137037 0.47060424 -6.6429185e-07)
(-0.00027510907 0.42031548 -5.8361441e-07)
(-0.00022632533 0.37768843 -5.1573239e-07)
(-0.00018654842 0.34093983 -4.5826987e-07)
(-0.00015583325 0.30922668 -4.0608764e-07)
(-0.00013014862 0.28201355 -3.5840476e-07)
(-0.00010769524 0.25860512 -3.129731e-07)
(-8.9202827e-05 0.23836394 -2.7511898e-07)
(-7.1969407e-05 0.22081241 -2.4210047e-07)
(-5.5673684e-05 0.20548021 -2.004641e-07)
(-4.2987604e-05 0.192065 -1.4483468e-07)
(-3.4216024e-05 0.1802209 -8.6309352e-08)
(-2.7308564e-05 0.1699269 -3.9967252e-08)
(-2.1349069e-05 0.16062626 -1.2041967e-08)
(-1.6049162e-05 0.15298887 7.3900311e-10)
(-1.1120892e-05 0.14525908 4.9737951e-09)
(-6.5367164e-06 0.14063569 5.0781854e-09)
(-1.9937107e-06 0.13233654 5.4462597e-09)
(-0.01363806 0.093969253 -1.1351975e-06)
(-0.0037543349 0.099782041 -1.1413461e-06)
(-0.0015967572 0.10595771 -1.067113e-06)
(-6.1736499e-05 0.10701185 -9.6048442e-07)
(0.0013342684 0.10859725 -8.5063527e-07)
(0.002378666 0.11034418 -7.4803395e-07)
(0.0029596887 0.11157255 -6.5855318e-07)
(0.003142021 0.11245761 -5.5716021e-07)
(0.00306026 0.11280432 -4.9459859e-07)
(0.0028759729 0.1124737 -4.4644841e-07)
(0.0026645153 0.1112366 -3.8865511e-07)
(0.0024245089 0.10946839 -3.3378518e-07)
(0.002175332 0.10741881 -2.841744e-07)
(0.0019336793 0.10512705 -2.3782985e-07)
(0.0017074517 0.10260782 -1.9316316e-07)
(0.0014992156 0.099951369 -1.4772579e-07)
(0.0013044845 0.097059571 -1.020792e-07)
(0.0011249935 0.094057472 -6.1653341e-08)
(0.00095755369 0.091074353 -3.200927e-08)
(0.00079907147 0.088207937 -1.432316e-08)
(0.00064656724 0.0853304 -5.7884605e-09)
(0.00049846855 0.082739704 -2.5040457e-09)
(0.00035219183 0.079810838 -1.4965518e-09)
(0.00020875451 0.077857741 -1.5160359e-09)
(6.3739514e-05 0.07375958 -5.5553763e-10)
(-0.0093489056 -0.042380176 -5.8006312e-07)
(-0.0081876345 -0.041901676 -5.8870627e-07)
(-0.0069600939 -0.041201755 -5.4391024e-07)
(-0.0057101678 -0.039298143 -4.8455862e-07)
(-0.0045548303 -0.036015928 -4.2269947e-07)
(-0.0035340068 -0.031862745 -3.6397337e-07)
(-0.0026824976 -0.02727417 -3.0872731e-07)
(-0.0019967519 -0.022707255 -2.5654576e-07)
(-0.0014571098 -0.018448906 -2.1799798e-07)
(-0.0010386085 -0.014531854 -1.8424563e-07)
(-0.00071483721 -0.011030641 -1.5188459e-07)
(-0.00046695867 -0.0079554166 -1.2194035e-07)
(-0.00028332051 -0.0052886458 -9.4894969e-08)
(-0.0001496904 -0.0030093324 -7.096364e-08)
(-5.3467246e-05 -0.0010901983 -5.0311458e-08)
(1.3503194e-05 0.00062481426 -3.331001e-08)
(5.5461271e-05 0.002181883 -2.0338931e-08)
(8.0312943e-05 0.0035694408 -1.1629324e-08)
(9.135937e-05 0.0047242018 -6.6184585e-09)
(9.1624669e-05 0.0056578493 -4.1625128e-09)
(8.3603298e-05 0.0063566563 -3.120248e-09)
(6.9745157e-05 0.0068787019 -2.6972456e-09)
(5.1251693e-05 0.0071274787 -2.4581228e-09)
(3.0165349e-05 0.0073492119 -2.226247e-09)
(5.5351977e-06 0.0070838546 -1.772359e-09)
(-0.0038217736 -0.017043983 -2.1005707e-07)
(-0.0037977926 -0.019410452 -2.1088813e-07)
(-0.0036891774 -0.022202501 -1.8705917e-07)
(-0.0034844895 -0.024465113 -1.5850997e-07)
(-0.0032147681 -0.026135343 -1.3043999e-07)
(-0.0029005942 -0.027253595 -1.0534677e-07)
(-0.0025760474 -0.027796016 -8.7829932e-08)
(-0.0022640791 -0.027800854 -6.9091791e-08)
(-0.0019793604 -0.027359818 -5.3569651e-08)
(-0.0017239135 -0.026655486 -4.0909259e-08)
(-0.0014964935 -0.025796143 -3.0400037e-08)
(-0.0012963493 -0.02484376 -2.1516127e-08)
(-0.0011203288 -0.02384183 -1.4274287e-08)
(-0.00096574772 -0.02282349 -8.6588936e-09)
(-0.00083077266 -0.021818627 -4.5777722e-09)
(-0.00071188193 -0.02083041 -1.8649599e-09)
(-0.00060338729 -0.01987651 -2.6716783e-10)
(-0.00050695931 -0.018967486 5.0138187e-10)
(-0.00042053508 -0.018111972 7.492537e-10)
(-0.00034223042 -0.017312833 7.3534104e-10)
(-0.00027050564 -0.016575009 6.2916579e-10)
(-0.00020398871 -0.015897958 5.2138167e-10)
(-0.00014179808 -0.01530354 4.53302e-10)
(-8.2969869e-05 -0.014679893 4.0527169e-10)
(-2.7624715e-05 -0.013988254 2.4088871e-10)
(-0.00037754587 -0.003678923 -5.987446e-08)
(-0.00056685473 -0.0045067408 -5.7600733e-08)
(-0.0007760769 -0.0053569261 -4.801336e-08)
(-0.00093438338 -0.0061627245 -3.7745854e-08)
(-0.001025167 -0.0069207459 -2.8492733e-08)
(-0.0010642344 -0.0076166612 -2.0851036e-08)
(-0.0010653239 -0.008243959 -1.5246244e-08)
(-0.001040059 -0.0089188391 -1.0458336e-08)
(-0.00099240556 -0.0096448712 -6.5663067e-09)
(-0.00092998473 -0.010287725 -3.5918528e-09)
(-0.0008596212 -0.010819159 -1.4552069e-09)
(-0.00078640383 -0.011241803 1.1355267e-10)
(-0.00071259163 -0.011562354 1.2184618e-09)
(-0.0006401419 -0.011791926 1.9160153e-09)
(-0.00057052429 -0.011941596 2.2738502e-09)
(-0.0005038475 -0.012020136 2.3778967e-09)
(-0.0004401369 -0.012035563 2.318638e-09)
(-0.00037928499 -0.011996002 2.1668787e-09)
(-0.00032114996 -0.011905761 1.9781868e-09)
(-0.00026558967 -0.01176923 1.786687e-09)
(-0.00021245305 -0.011590442 1.6095962e-09)
(-0.00016156914 -0.011376267 1.4535354e-09)
(-0.00011273156 -0.011140035 1.3081416e-09)
(-6.5457154e-05 -0.010829367 1.0915606e-09)
(-1.9796281e-05 -0.010355331 6.0182282e-10)
(0.00036083847 0.00010436733 -1.3039751e-08)
(0.00035849338 -5.6937864e-05 -1.1286661e-08)
(0.00028111944 -0.00030939035 -8.4123257e-09)
(0.00017327009 -0.00060692072 -5.7568962e-09)
(7.1640518e-05 -0.00093399342 -3.5914068e-09)
(-1.6271651e-05 -0.0012678431 -1.9373395e-09)
(-8.7251852e-05 -0.0015951626 -7.5906754e-10)
(-0.00014787635 -0.0019050862 1.2993713e-10)
(-0.0001878836 -0.0021914576 7.9254114e-10)
(-0.0002100235 -0.0024464434 1.2542443e-09)
(-0.00021859514 -0.0026700966 1.5292528e-09)
(-0.00021753816 -0.0028627043 1.6789448e-09)
(-0.00020953364 -0.003025736 1.7383845e-09)
(-0.00019683892 -0.0031610287 1.7274072e-09)
(-0.00018150731 -0.0032700666 1.6646197e-09)
(-0.00016429291 -0.0033546531 1.5700643e-09)
(-0.00014615935 -0.0034163476 1.4608719e-09)
(-0.00012777692 -0.0034562006 1.3480306e-09)
(-0.00010943029 -0.0034751049 1.2385412e-09)
(-9.1293672e-05 -0.0034736072 1.1367345e-09)
(-7.3496539e-05 -0.0034525409 1.0411245e-09)
(-5.6137972e-05 -0.0034136539 9.5220733e-10)
(-3.925639e-05 -0.0033620506 8.5846177e-10)
(-2.2681699e-05 -0.0032854985 7.0483243e-10)
(-6.3242704e-06 -0.0031383867 3.6126763e-10)
(0.00036103689 0.00055233767 -2.5429087e-09)
(0.00037681342 0.00066285233 -1.7812617e-09)
(0.00036104895 0.00072132586 -1.0479928e-09)
(0.00031936232 0.00072664411 -4.6999816e-10)
(0.00026329179 0.00068891646 -4.1360747e-11)
(0.00020902729 0.00062312109 2.633764e-10)
(0.00016231921 0.00053981224 4.6925445e-10)
(0.000124319 0.00044805946 6.0890809e-10)
(8.9118465e-05 0.00036335599 6.9880927e-10)
(5.9618623e-05 0.00028671697 7.5026484e-10)
(3.6481196e-05 0.00021619953 7.6771055e-10)
(1.9737765e-05 0.00015386119 7.6220921e-10)
(8.6580028e-06 9.9403335e-05 7.4187891e-10)
(2.1655489e-06 5.3271537e-05 7.1151495e-10)
(-1.8666184e-06 1.4841153e-05 6.746759e-10)
(-4.4191068e-06 -1.6634159e-05 6.3473917e-10)
(-5.7927543e-06 -4.2651383e-05 5.9418853e-10)
(-6.3978117e-06 -6.361633e-05 5.5430665e-10)
(-6.3285847e-06 -7.9905166e-05 5.1572202e-10)
(-5.7769021e-06 -9.2197899e-05 4.7885317e-10)
(-4.905514e-06 -0.00010101089 4.4335874e-10)
(-3.8503536e-06 -0.00010649455 4.0834646e-10)
(-2.7162495e-06 -0.00011002336 3.6758829e-10)
(-1.5253543e-06 -0.00010907907 3.0033191e-10)