/*--------------------------------*- C++ -*----------------------------------*\
| =========                 |                                                 |
| \\      /  F ield         | OpenFOAM: The Open Source CFD Toolbox           |
|  \\    /   O peration     | Version:  4.0                                   |
|   \\  /    A nd           | Web:      www.OpenFOAM.org                      |
|    \\/     M anipulation  |                                                 |
\*---------------------------------------------------------------------------*/
FoamFile
{
    version     2.0;
    format      ascii;
    class       volScalarField;
    location    "0.67";
    object      k;
}
// * * * * * * * * * * * * * * * * * * * * * * * * * * * * * * * * * * * * * //

dimensions      [0 2 -2 0 0 0 0];

internalField   nonuniform List<scalar> 
1740
(
0.0087677514
0.0091209343
0.018429675
0.0090951514
0.0098535137
0.027338094
0.0095113924
0.010270697
0.034270708
0.0097441005
0.010553605
0.041351489
0.0099675462
0.010842178
0.047604159
0.010003278
0.011312376
0.051606336
0.010013457
0.011704632
0.055997058
0.010013141
0.01222654
0.059726455
0.0099881697
0.012397854
0.061651383
0.0099299722
0.012356802
0.06366801
0.0098949496
0.012716357
0.065992166
0.0098425392
0.013234567
0.067164379
0.0097687595
0.013151845
0.068297835
0.0097497752
0.013341161
0.06948889
0.0097125684
0.013734851
0.070217105
0.0096284584
0.014057992
0.070589568
0.0095733103
0.013983221
0.071230824
0.0094208639
0.013999574
0.071730423
0.0092517124
0.014129719
0.072235678
0.0090929844
0.014093426
0.072773148
0.0089425319
0.014272381
0.072273253
0.0088367275
0.014531513
0.072494908
0.0088081531
0.01458379
0.072973156
0.0086743025
0.014600775
0.072629087
0.0085629408
0.014584919
0.072667552
0.0084861025
0.014611479
0.072462062
0.0084391218
0.014751699
0.072381017
0.0084323809
0.015145881
0.072232033
0.0084489216
0.015277736
0.071291011
0.0090629302
0.016298329
0.066250142
0.012913868
0.018189949
0.047013556
0.024033307
0.031185432
0.039677903
0.010272438
0.012514155
0.013692047
0.0042603143
0.004588696
0.0046485377
0.0020702572
0.0021125274
0.0020876944
0.0011409287
0.0011417611
0.0011238699
0.00069146827
0.00068894265
0.00068101715
0.00045126271
0.00044998261
0.00044741091
0.0003119281
0.0003116505
0.00031142129
0.00022514558
0.00022533307
0.00022597744
0.00016758639
0.00016792887
0.00016879965
0.0001272661
0.00012762236
0.00012846141
9.7716116e-05
9.8031713e-05
9.8750788e-05
7.5295097e-05
7.5554522e-05
7.6135763e-05
5.7873045e-05
5.8076906e-05
5.8529571e-05
4.4154438e-05
4.4309387e-05
4.4651812e-05
3.3313921e-05
3.3428369e-05
3.3680555e-05
2.4791521e-05
2.4873732e-05
2.5054525e-05
1.8174028e-05
1.8231428e-05
1.8357488e-05
1.3127519e-05
1.3166455e-05
1.3251883e-05
9.362651e-06
9.3883126e-06
9.4445684e-06
6.621145e-06
6.6375799e-06
6.6735941e-06
4.6747666e-06
4.6850084e-06
4.7074592e-06
3.3296229e-06
3.3358741e-06
3.3495701e-06
2.4255088e-06
2.4292731e-06
2.4375086e-06
1.8346667e-06
1.8369207e-06
1.8418463e-06
1.4603364e-06
1.4616988e-06
1.4646737e-06
1.2320536e-06
1.232903e-06
1.2347568e-06
1.1000146e-06
1.1005748e-06
1.1017971e-06
1.029934e-06
1.0303328e-06
1.0312029e-06
9.9874914e-07
9.9905704e-07
9.997291e-07
9.912458e-07
9.9150058e-07
9.9205686e-07
9.9752923e-07
9.9775044e-07
9.9823351e-07
1.0111975e-06
1.0113951e-06
1.0118264e-06
1.0280602e-06
1.0282391e-06
1.0286296e-06
1.045259e-06
1.0454219e-06
1.0457773e-06
1.0606733e-06
1.0608219e-06
1.0611456e-06
1.0725214e-06
1.0726567e-06
1.0729513e-06
1.0790935e-06
1.0792164e-06
1.0794839e-06
1.0785748e-06
1.0786864e-06
1.0789287e-06
1.0689354e-06
1.0690364e-06
1.0692553e-06
1.0478758e-06
1.0479668e-06
1.048164e-06
1.0128374e-06
1.0129191e-06
1.0130959e-06
9.6108337e-07
9.6115619e-07
9.613135e-07
8.8989523e-07
8.899593e-07
8.9009743e-07
7.9689025e-07
7.9694512e-07
7.97063e-07
6.8044747e-07
6.8049162e-07
6.8058545e-07
5.4017786e-07
5.4020839e-07
5.402704e-07
3.7726949e-07
3.7728356e-07
3.7730557e-07
1.9660865e-07
1.9660941e-07
1.9660048e-07
0.055830051
0.060470373
0.045959002
0.046489654
0.012461924
0.011340587
0.0043496273
0.0041215228
0.001998344
0.0019405065
0.0010948113
0.0010801301
0.00067226288
0.00067060273
0.00044584048
0.00044809076
0.00031231261
0.000315428
0.00022755513
0.00023052261
0.000170402
0.00017292885
0.0001298638
0.00013191064
9.990017e-05
0.00010151235
7.7043214e-05
7.8288218e-05
5.9227038e-05
6.017178e-05
4.5175385e-05
4.5879195e-05
3.4064386e-05
3.4577923e-05
2.532891e-05
2.56949e-05
1.8548434e-05
1.8802581e-05
1.3381082e-05
1.3552758e-05
9.5295414e-06
9.6422919e-06
6.7279491e-06
6.7999827e-06
4.7413265e-06
4.7861561e-06
3.370211e-06
3.3974927e-06
2.4499005e-06
2.466249e-06
1.849247e-06
1.8589914e-06
1.4691373e-06
1.4750032e-06
1.2375351e-06
1.2411798e-06
1.1036275e-06
1.1060255e-06
1.0325054e-06
1.0342108e-06
1.0007353e-06
1.0020522e-06
9.928898e-07
9.9397984e-07
9.9895674e-07
9.9990276e-07
1.0124719e-06
1.0133154e-06
1.0292134e-06
1.0299753e-06
1.046308e-06
1.0469991e-06
1.0616283e-06
1.0622553e-06
1.0733897e-06
1.0739576e-06
1.0798812e-06
1.0803943e-06
1.0792879e-06
1.0797499e-06
1.069579e-06
1.0699938e-06
1.0484547e-06
1.0488256e-06
1.0133557e-06
1.0136856e-06
9.6154401e-07
9.6183518e-07
8.9029912e-07
8.905526e-07
7.9723417e-07
7.9744832e-07
6.8071968e-07
6.8088695e-07
5.4035336e-07
5.4045577e-07
3.7732054e-07
3.7733563e-07
1.9656505e-07
1.9651439e-07
3.7384121e-06
2.6986948e-05
0.0001344268
0.00030494568
0.00046212643
0.00057306798
0.00064336473
0.00068699951
0.0007157444
0.00073672844
0.00075399262
0.0007705608
0.00078609024
0.00080034151
0.00081300386
0.00082352769
0.00083092849
0.00083353832
0.0008286363
0.00081193771
0.00077688768
0.00071379605
0.00060914311
0.00044575707
0.00020249754
2.5141706e-06
5.4757354e-05
0.00025109555
0.00051594393
0.00072780215
0.00085927406
0.00093519392
0.00097970207
0.0010082224
0.0010287873
0.0010456462
0.0010613365
0.0010757303
0.0010885602
0.001099432
0.0011077237
0.0011123029
0.0011112531
0.0011013707
0.0010775257
0.0010317116
0.00095165824
0.00081907444
0.00060836044
0.00028810112
7.9273112e-06
0.00015994236
0.00061605106
0.0010799013
0.0013629132
0.0015056243
0.0015730497
0.0016045844
0.0016202135
0.001628408
0.0016335587
0.0016365906
0.0016387104
0.0016392715
0.0016377879
0.0016337881
0.0016262151
0.0016132736
0.0015915394
0.0015554071
0.0014958423
0.0013981179
0.0012375108
0.00097104183
0.00052298396
3.7505514e-05
0.00057898332
0.0016850923
0.0024360138
0.0027726975
0.00288655
0.0028959428
0.0028657605
0.0028257737
0.002780942
0.0027363417
0.0026938612
0.0026539931
0.0026135603
0.002572053
0.0025298846
0.0024865591
0.0024406544
0.002389419
0.002328069
0.0022486824
0.0021379607
0.0019715575
0.0016964815
0.0011556428
0.00028019137
0.0024448891
0.0049111735
0.006030969
0.0063767908
0.0063152923
0.0060865021
0.0058238983
0.0055747581
0.0053247168
0.0050850361
0.004861158
0.0046579958
0.0044611455
0.0042699002
0.0040890371
0.003919491
0.0037606973
0.0036108563
0.0034664761
0.0033218835
0.003168816
0.0029962354
0.0027957579
0.0025857196
0.0023475058
0.010497336
0.016547225
0.01849902
0.018044006
0.016492362
0.014680599
0.01299547
0.011516216
0.010241597
0.0091514499
0.0082233135
0.0074317863
0.0067530092
0.0061692776
0.0056673511
0.0052358994
0.0048646519
0.0045442489
0.0042658873
0.0040207244
0.0037997729
0.0035944143
0.0034039229
0.0032437219
0.044678168
0.033863698
0.026429575
0.021325775
0.017712092
0.015032901
0.012957317
0.011306076
0.0099759757
0.0088944346
0.0080047521
0.0072627535
0.0066348287
0.0060961881
0.0056288094
0.0052201439
0.0048615237
0.0045464747
0.0042695766
0.004025667
0.0038092033
0.003614219
0.0034349757
0.003272805
0.0031428632
0.0371796
0.030918644
0.027723614
0.025101146
0.02223851
0.019270329
0.016557547
0.014262778
0.012384513
0.010845781
0.0095771658
0.0085219879
0.0076368126
0.0068918383
0.0062633324
0.0057318273
0.0052810124
0.0048972193
0.0045687539
0.0042851114
0.0040362232
0.0038122839
0.0036041135
0.0034108523
0.00324837
0.010204003
0.0095333308
0.009194783
0.0088752435
0.0084139834
0.0078505082
0.0072944054
0.0067996666
0.0063502052
0.0059533677
0.0056059731
0.0053024281
0.0050173767
0.0047538639
0.0045133306
0.004295079
0.0040970192
0.0039162732
0.0037489375
0.003589955
0.0034325757
0.0032678237
0.0030842075
0.0028731629
0.0026532911
0.0039642686
0.0038915948
0.003869484
0.0038289624
0.0037349597
0.0036005407
0.003461552
0.0033327594
0.0032167286
0.0031155967
0.0030283803
0.0029519561
0.0028807473
0.0028141921
0.0027521013
0.0026936316
0.002637093
0.002579869
0.002518157
0.0024464345
0.0023563683
0.0022345299
0.0020565611
0.0017687475
0.001208634
0.0019242955
0.0019382857
0.0019637567
0.0019789248
0.0019728481
0.0019490873
0.0019186184
0.0018883944
0.0018614871
0.0018392103
0.0018213544
0.0018066577
0.0017934396
0.0017810407
0.0017690626
0.0017562689
0.0017407583
0.0017197142
0.0016890521
0.0016427864
0.0015718556
0.0014618755
0.0012886506
0.0010092551
0.00054625085
0.0010850538
0.0011039846
0.0011280131
0.0011484803
0.00116088
0.0011659897
0.0011673991
0.0011681022
0.0011698302
0.0011733265
0.0011785411
0.0011848889
0.0011915644
0.0011978648
0.0012030014
0.0012057316
0.0012042059
0.0011957722
0.00117669
0.0011416667
0.0010831077
0.0009899314
0.00084583317
0.0006273846
0.00030368663
0.00067827446
0.00069298028
0.00071067044
0.00072753912
0.00074148453
0.00075247569
0.00076174017
0.00077057567
0.00077987063
0.00079003749
0.00080106353
0.00081262487
0.00082421184
0.00083519887
0.00084475853
0.00085170688
0.00085439213
0.00085055583
0.00083715792
0.00081014735
0.00076418211
0.00069234362
0.00058595774
0.00043433307
0.00021984251
0.00045507468
0.00046583151
0.00047852084
0.00049137484
0.00050333164
0.00051420176
0.00052438222
0.00053442122
0.00054474495
0.00055556116
0.0005668434
0.00057836367
0.00058973353
0.00060041133
0.00060965668
0.00061645501
0.00061944491
0.00061684374
0.00060637921
0.00058525072
0.00055019839
0.00049788865
0.0004261876
0.00033802061
0.00025375347
0.00032114028
0.00032902034
0.00033822163
0.00034788129
0.00035743368
0.00036670086
0.00037578859
0.00038491334
0.00039425932
0.00040390567
0.00041379779
0.000423746
0.00043342952
0.00044238868
0.00044999689
0.00045542056
0.00045758239
0.00045513416
0.00044645739
0.00042972824
0.00040313363
0.00036543573
0.00031731759
0.00026437603
0.00022270473
0.00023503214
0.00024088118
0.00024765857
0.00025493163
0.000262388
0.00026989009
0.00027744193
0.00028511271
0.00029296451
0.00030100338
0.00030915338
0.00031724412
0.00032500347
0.00033204608
0.000337856
0.00034176603
0.00034294384
0.00034039117
0.00033297328
0.00031950558
0.000298951
0.00027082579
0.00023597992
0.00019797398
0.00016310694
0.00017643825
0.00018082777
0.00018588855
0.00019139297
0.00019716261
0.00020309825
0.0002091706
0.00021538464
0.00022174248
0.0002282124
0.00023470844
0.00024107694
0.00024708662
0.00025241865
0.00025665565
0.00025927241
0.00025963288
0.00025699948
0.00025056323
0.00023950549
0.00022310062
0.0002008429
0.00017244383
0.00013696665
8.7626114e-05
0.00013462026
0.00013793628
0.00014174727
0.00014592756
0.00015037069
0.00015500641
0.00015979729
0.00016472223
0.00016975629
0.0001748512
0.00017992051
0.00018482851
0.00018938087
0.00019331723
0.00019630449
0.00019793295
0.00019771777
0.00019510865
0.00018951035
0.00018031345
0.00016692401
0.00014874809
0.00012498667
9.382421e-05
5.006713e-05
0.00010359005
0.0001060992
0.00010897711
0.0001121511
0.00011555492
0.00011913815
0.00012286488
0.0001267053
0.00013062461
0.00013457045
0.00013846259
0.00014218421
0.00014557474
0.00014842451
0.00015047048
0.00015139501
0.00015082817
0.000148355
0.00014352711
0.00013587497
0.00012490956
0.00011008727
9.0684016e-05
6.5480189e-05
3.2306506e-05
7.9867932e-05
8.1760302e-05
8.3927998e-05
8.6327052e-05
8.8914513e-05
9.1653841e-05
9.4513816e-05
9.7464123e-05
0.00010046879
0.00010347823
0.00010642203
0.00010920249
0.00011168951
0.00011371653
0.00011507808
0.00011552939
0.00011478857
0.0001125415
0.00010844866
0.00010215123
9.3271512e-05
8.1402083e-05
6.6084479e-05
4.6813713e-05
2.3444059e-05
6.1359329e-05
6.2774876e-05
6.4395012e-05
6.6191959e-05
6.813706e-05
7.0203402e-05
7.236534e-05
7.4595792e-05
7.6861891e-05
7.9120164e-05
8.1311513e-05
8.3356594e-05
8.5152045e-05
8.6567759e-05
8.7445195e-05
8.7597457e-05
8.6810983e-05
8.4849163e-05
8.1457468e-05
7.6369285e-05
6.931253e-05
6.0020983e-05
4.8267494e-05
3.3974097e-05
1.7677988e-05
4.6758734e-05
4.7803829e-05
4.8999341e-05
5.0327016e-05
5.1767255e-05
5.3300318e-05
5.4905811e-05
5.6561047e-05
5.823835e-05
5.9901652e-05
6.1503206e-05
6.2980406e-05
6.4253029e-05
6.5221314e-05
6.5764859e-05
6.5742771e-05
6.4995072e-05
6.3345692e-05
6.0607101e-05
5.6587146e-05
5.1099946e-05
4.3985989e-05
3.5155032e-05
2.4684758e-05
1.3088492e-05
3.5217265e-05
3.597535e-05
3.6842154e-05
3.7805408e-05
3.8851483e-05
3.9965984e-05
4.1133219e-05
4.2335128e-05
4.3549507e-05
4.4747876e-05
4.5893058e-05
4.6937057e-05
4.7819186e-05
4.8464612e-05
4.8783646e-05
4.867189e-05
4.8011425e-05
4.6673373e-05
4.4522214e-05
4.1422834e-05
3.7252119e-05
3.1918363e-05
2.539453e-05
1.7779158e-05
9.4463617e-06
2.614939e-05
2.6687448e-05
2.7302314e-05
2.7985677e-05
2.8728043e-05
2.951898e-05
3.0346791e-05
3.1197664e-05
3.2054579e-05
3.2895866e-05
3.3693627e-05
3.441224e-05
3.5006991e-05
3.5423137e-05
3.5595366e-05
3.5447923e-05
3.4895595e-05
3.3845835e-05
3.2202547e-05
2.9872355e-05
2.6774655e-05
2.2856983e-05
1.8117712e-05
1.2641136e-05
6.7008598e-06
1.9117589e-05
1.9490021e-05
1.9915261e-05
2.0387687e-05
2.0900718e-05
2.1446919e-05
2.2017766e-05
2.2603095e-05
2.3190352e-05
2.3763661e-05
2.4302766e-05
2.478203e-05
2.5169475e-05
2.5426116e-05
2.5505565e-05
2.5354126e-05
2.4911561e-05
2.4112772e-05
2.2890845e-05
2.1182051e-05
1.8933567e-05
1.6114502e-05
1.2731062e-05
8.8496467e-06
4.6671103e-06
1.3765208e-05
1.4016052e-05
1.4302146e-05
1.4619683e-05
1.4964146e-05
1.533034e-05
1.571221e-05
1.6102501e-05
1.6492273e-05
1.6870281e-05
1.7222288e-05
1.7530378e-05
1.7772339e-05
1.7921133e-05
1.7944652e-05
1.7805751e-05
1.7462809e-05
1.6870979e-05
1.5984477e-05
1.4760284e-05
1.316366e-05
1.1175721e-05
8.803837e-06
6.0989961e-06
3.2054392e-06
9.7816108e-06
9.9458649e-06
1.0132945e-05
1.0340259e-05
1.0564765e-05
1.0802884e-05
1.1050423e-05
1.1302349e-05
1.1552477e-05
1.1793074e-05
1.2014418e-05
1.2204327e-05
1.2347754e-05
1.2426422e-05
1.2418623e-05
1.2299245e-05
1.2040136e-05
1.1610987e-05
1.0980972e-05
1.0121363e-05
9.0093111e-06
7.6329365e-06
5.9984541e-06
4.1431858e-06
2.1784986e-06
6.8888622e-06
6.9934856e-06
7.1124476e-06
7.2440127e-06
7.386136e-06
7.5364077e-06
7.6919792e-06
7.8494374e-06
8.0046028e-06
8.1522837e-06
8.285987e-06
8.3976124e-06
8.477167e-06
8.512528e-06
8.4893032e-06
8.3908371e-06
8.1984202e-06
7.8918722e-06
7.4506937e-06
6.8558695e-06
6.0924184e-06
5.1527902e-06
4.0417485e-06
2.7857197e-06
1.4619537e-06
4.841391e-06
4.906298e-06
4.9799503e-06
5.0612097e-06
5.1487173e-06
5.2408781e-06
5.3358e-06
5.4312141e-06
5.5243515e-06
5.6117876e-06
5.6892564e-06
5.7514431e-06
5.791772e-06
5.8022388e-06
5.7733603e-06
5.6942294e-06
5.5525706e-06
5.3350616e-06
5.0281432e-06
4.6192776e-06
4.0986549e-06
3.4614642e-06
2.7112141e-06
1.8660866e-06
9.7792228e-07
3.4310431e-06
3.4703807e-06
3.5148963e-06
3.5638474e-06
3.6163458e-06
3.6713431e-06
3.7276001e-06
3.7836271e-06
3.8376106e-06
3.8873153e-06
3.9299662e-06
3.9621173e-06
3.9795048e-06
3.9769019e-06
3.9479867e-06
3.8853664e-06
3.7809591e-06
3.6260149e-06
3.4115384e-06
3.1292266e-06
2.7726163e-06
2.338614e-06
1.8297102e-06
1.2579411e-06
6.5711911e-07
2.4863072e-06
2.5097577e-06
2.5362011e-06
2.565151e-06
2.5960267e-06
2.628138e-06
2.6606685e-06
2.6926349e-06
2.7228408e-06
2.7498113e-06
2.77172e-06
2.7863027e-06
2.7907662e-06
2.7816833e-06
2.7548636e-06
2.7052788e-06
2.6272606e-06
2.5149125e-06
2.3621767e-06
2.1634565e-06
1.9144093e-06
1.613006e-06
1.2610381e-06
8.6669671e-07
4.5492536e-07
1.8709168e-06
1.8848134e-06
1.9004191e-06
1.9174129e-06
1.9354102e-06
1.9539517e-06
1.9724881e-06
1.9903553e-06
2.0067413e-06
2.0206408e-06
2.0308043e-06
2.0356767e-06
2.0333334e-06
2.021413e-06
1.9970588e-06
1.9568602e-06
1.8967476e-06
1.8124536e-06
1.699714e-06
1.5546013e-06
1.3740756e-06
1.1567516e-06
9.0397984e-07
6.216125e-07
3.2733808e-07
1.482163e-06
1.4904771e-06
1.4997702e-06
1.5098267e-06
1.5203849e-06
1.5311291e-06
1.5416764e-06
1.5515585e-06
1.5601962e-06
1.5668673e-06
1.5706666e-06
1.570461e-06
1.5648402e-06
1.5520672e-06
1.5300353e-06
1.4962457e-06
1.4477531e-06
1.3812874e-06
1.2936327e-06
1.1818476e-06
1.0436632e-06
8.7806496e-07
6.8610467e-07
4.7213341e-07
2.4998411e-07
1.2456174e-06
1.2507525e-06
1.256464e-06
1.2626011e-06
1.2689781e-06
1.2753662e-06
1.281483e-06
1.2869767e-06
1.2914057e-06
1.2942121e-06
1.29469e-06
1.2919486e-06
1.2848727e-06
1.2720832e-06
1.2519027e-06
1.2223367e-06
1.1810777e-06
1.1255038e-06
1.0530092e-06
9.6121773e-07
8.4830004e-07
7.1344332e-07
5.574837e-07
3.8373551e-07
2.0200232e-07
1.1089393e-06
1.1123007e-06
1.1160219e-06
1.1199911e-06
1.1240678e-06
1.1280752e-06
1.1317893e-06
1.1349259e-06
1.1371212e-06
1.1379099e-06
1.1366965e-06
1.1327238e-06
1.125039e-06
1.1124595e-06
1.0935444e-06
1.0665782e-06
1.0295879e-06
9.8033818e-07
9.165733e-07
8.3623071e-07
7.3772351e-07
6.203451e-07
4.8479216e-07
3.3375821e-07
1.7532659e-07
1.0362802e-06
1.0386618e-06
1.0412875e-06
1.044069e-06
1.0468919e-06
1.0496091e-06
1.0520301e-06
1.0539078e-06
1.0549212e-06
1.0546541e-06
1.0525691e-06
1.0479788e-06
1.0400139e-06
1.0275934e-06
1.0093986e-06
9.8385972e-07
9.4917206e-07
9.0331081e-07
8.4420951e-07
7.6997161e-07
6.791381e-07
5.7105916e-07
4.4635282e-07
3.0732171e-07
1.6093355e-07
1.003649e-06
1.0054836e-06
1.0074993e-06
1.0096211e-06
1.0117499e-06
1.0137548e-06
1.0154635e-06
1.0166487e-06
1.0170112e-06
1.0161591e-06
1.0135829e-06
1.0086276e-06
1.0004631e-06
9.8805482e-07
9.7014037e-07
9.4521731e-07
9.1155927e-07
8.6724346e-07
8.1029643e-07
7.3890152e-07
6.5166139e-07
5.4795503e-07
4.283702e-07
2.9509306e-07
1.5490916e-07
9.9530058e-07
9.9681551e-07
9.984747e-07
1.0002106e-06
1.0019322e-06
1.0035178e-06
1.0048042e-06
1.0055737e-06
1.0055372e-06
1.004313e-06
1.0014026e-06
9.9616327e-07
9.8777809e-07
9.7522853e-07
9.5727138e-07
9.3242766e-07
8.9899904e-07
8.5510327e-07
7.9880431e-07
7.2831657e-07
6.4226721e-07
5.4004566e-07
4.2221765e-07
2.9088542e-07
1.5205874e-07
1.0010478e-06
1.0023585e-06
1.0037887e-06
1.005275e-06
1.0067309e-06
1.0080389e-06
1.0090405e-06
1.0095219e-06
1.0091974e-06
1.007688e-06
1.0044973e-06
9.9898286e-07
9.9032809e-07
9.7751364e-07
9.5929539e-07
9.3419412e-07
9.0051237e-07
8.5637533e-07
7.9985393e-07
7.2916767e-07
6.4294927e-07
5.4059054e-07
4.2263565e-07
2.9109211e-07
1.5064387e-07
1.0143347e-06
1.0154983e-06
1.0167619e-06
1.0180645e-06
1.0193218e-06
1.0204185e-06
1.0211977e-06
1.0214466e-06
1.0208795e-06
1.0191162e-06
1.0156571e-06
1.0098551e-06
1.0008864e-06
9.8772275e-07
9.6910896e-07
9.4355364e-07
9.0934675e-07
8.6460443e-07
8.0738947e-07
7.3591406e-07
6.4880822e-07
5.4546513e-07
4.2642262e-07
2.9368188e-07
1.5205455e-07
1.0308937e-06
1.0319382e-06
1.0330658e-06
1.0342165e-06
1.0353072e-06
1.0362235e-06
1.0368086e-06
1.0368493e-06
1.0360579e-06
1.0340511e-06
1.030324e-06
1.0242221e-06
1.0149116e-06
1.0013514e-06
9.8227125e-07
9.5616279e-07
9.2129808e-07
8.7577769e-07
8.1765066e-07
7.4511787e-07
6.5680464e-07
5.5210926e-07
4.3158558e-07
2.9728001e-07
1.540926e-07
1.0478297e-06
1.04877e-06
1.0497776e-06
1.0507931e-06
1.051734e-06
1.0524858e-06
1.0528915e-06
1.0527363e-06
1.0517304e-06
1.049486e-06
1.0454925e-06
1.039087e-06
1.0294249e-06
1.015452e-06
9.9588217e-07
9.6918986e-07
9.3362915e-07
8.8728477e-07
8.2819271e-07
7.5454425e-07
6.6496211e-07
5.5885349e-07
4.3679986e-07
3.0091689e-07
1.5550981e-07
1.0630062e-06
1.0638514e-06
1.0647489e-06
1.0656399e-06
1.0664417e-06
1.0670398e-06
1.0672764e-06
1.0669351e-06
1.0657234e-06
1.0632495e-06
1.0589969e-06
1.0522948e-06
1.0422889e-06
1.0279127e-06
1.0078667e-06
9.8061063e-07
9.4438431e-07
8.9726086e-07
8.3726852e-07
7.6259491e-07
6.7186488e-07
5.6449485e-07
4.4108631e-07
3.0382723e-07
1.5718902e-07
1.0746347e-06
1.0753918e-06
1.0761872e-06
1.076962e-06
1.0776338e-06
1.0780879e-06
1.0781653e-06
1.0776485e-06
1.0762423e-06
1.0735514e-06
1.0690542e-06
1.0620737e-06
1.0517476e-06
1.0370004e-06
1.0165228e-06
9.8876519e-07
9.5196e-07
9.0417648e-07
8.4344435e-07
7.6795742e-07
6.7635038e-07
5.6805046e-07
4.4366828e-07
3.0542811e-07
1.5781404e-07
1.0810029e-06
1.0816781e-06
1.0823784e-06
1.0830452e-06
1.0835961e-06
1.0839159e-06
1.0838454e-06
1.0831657e-06
1.0815798e-06
1.0786898e-06
1.0739708e-06
1.0667415e-06
1.056135e-06
1.0410711e-06
1.0202368e-06
9.9208083e-07
9.5483753e-07
9.0658381e-07
8.4536377e-07
7.6939127e-07
6.7732366e-07
5.6861139e-07
4.4389431e-07
3.0547661e-07
1.5796807e-07
1.080295e-06
1.0808943e-06
1.0815066e-06
1.0820734e-06
1.0825127e-06
1.0827092e-06
1.0825035e-06
1.0816762e-06
1.0799297e-06
1.0768649e-06
1.0719558e-06
1.0645204e-06
1.0536914e-06
1.0383901e-06
1.0173078e-06
9.8890144e-07
9.5142021e-07
9.0296331e-07
8.4160617e-07
7.6560031e-07
6.7364235e-07
5.6522069e-07
4.410216e-07
3.0346585e-07
1.5734621e-07
1.07048e-06
1.0710091e-06
1.0715403e-06
1.0720155e-06
1.072353e-06
1.0724381e-06
1.072112e-06
1.0711558e-06
1.0692728e-06
1.0660652e-06
1.0610091e-06
1.0534259e-06
1.0424544e-06
1.0270252e-06
1.0058438e-06
9.7738987e-07
9.3994169e-07
8.9163894e-07
8.3061037e-07
7.55166e-07
6.6406145e-07
5.5683785e-07
4.3423114e-07
2.9875904e-07
1.553394e-07
1.0492573e-06
1.0497216e-06
1.0501784e-06
1.0505703e-06
1.0508164e-06
1.0508035e-06
1.0503741e-06
1.0493118e-06
1.0473228e-06
1.0440141e-06
1.0388681e-06
1.0312157e-06
1.0202096e-06
1.0048e-06
9.837207e-07
9.5548827e-07
9.1842924e-07
8.7074793e-07
8.1064981e-07
7.365274e-07
6.4721705e-07
5.4232422e-07
4.2260639e-07
2.9050563e-07
1.5078099e-07
1.0140666e-06
1.0144713e-06
1.0148601e-06
1.015177e-06
1.0153428e-06
1.0152465e-06
1.0147339e-06
1.0135932e-06
1.0115371e-06
1.0081812e-06
1.0030204e-06
9.9540295e-07
9.8450527e-07
9.6931057e-07
9.4859601e-07
9.2093463e-07
8.8472624e-07
8.3826504e-07
7.7985895e-07
7.0800927e-07
6.2165602e-07
5.2048441e-07
4.0527717e-07
2.7839131e-07
1.4435365e-07
9.6216877e-07
9.6251815e-07
9.6284512e-07
9.6309539e-07
9.6319244e-07
9.6302917e-07
9.62457e-07
9.6127188e-07
9.5919717e-07
9.5586332e-07
9.5078508e-07
9.4333777e-07
9.3273446e-07
9.1800695e-07
8.9799546e-07
8.7135396e-07
8.3658157e-07
7.920899e-07
7.3631786e-07
6.679025e-07
5.8590902e-07
4.901141e-07
3.8132463e-07
2.617981e-07
1.3575324e-07
8.9084079e-07
8.9113837e-07
8.9140884e-07
8.9160057e-07
8.91641e-07
8.9142905e-07
8.9082473e-07
8.8963596e-07
8.8760263e-07
8.8437735e-07
8.795042e-07
8.7239774e-07
8.6232337e-07
8.483813e-07
8.2949822e-07
8.0443509e-07
7.7181911e-07
7.3020935e-07
6.782054e-07
6.1460576e-07
5.3861828e-07
4.5011502e-07
3.499144e-07
2.401562e-07
1.2470538e-07
7.9769098e-07
7.9793879e-07
7.9815758e-07
7.9829936e-07
7.9829671e-07
7.9805691e-07
7.9745243e-07
7.9630797e-07
7.9438736e-07
7.9137496e-07
7.8685556e-07
7.8029721e-07
7.710361e-07
7.5826446e-07
7.410222e-07
7.1820592e-07
6.8860134e-07
6.5094577e-07
6.0402882e-07
5.4683284e-07
4.787197e-07
3.9965171e-07
3.1042814e-07
2.1299169e-07
1.1071272e-07
6.8107987e-07
6.8127826e-07
6.8145096e-07
6.8155588e-07
6.815301e-07
6.8129018e-07
6.8072549e-07
6.7968142e-07
6.7795525e-07
6.7527578e-07
6.7128221e-07
6.6551197e-07
6.5739185e-07
6.4623342e-07
6.3121999e-07
6.1141348e-07
5.857877e-07
5.5328767e-07
5.1292299e-07
4.6387599e-07
4.0566514e-07
3.3832987e-07
2.6262047e-07
1.8023846e-07
9.3962162e-08
5.4058842e-07
5.4073575e-07
5.4086778e-07
5.4096416e-07
5.4095812e-07
5.4076901e-07
5.4030183e-07
5.3942634e-07
5.3798608e-07
5.357721e-07
5.3249567e-07
5.2778056e-07
5.2116115e-07
5.1209184e-07
4.9994133e-07
4.83962e-07
4.6334005e-07
4.3725355e-07
4.0497095e-07
3.658807e-07
3.1964569e-07
2.6635567e-07
2.0666711e-07
1.4197366e-07
7.4399357e-08
3.7739438e-07
3.77478e-07
3.7752441e-07
3.776552e-07
3.7776091e-07
3.7775991e-07
3.7747908e-07
3.7685634e-07
3.7580499e-07
3.7420024e-07
3.7184727e-07
3.6847604e-07
3.6376418e-07
3.5721684e-07
3.4855657e-07
3.3721357e-07
3.2259591e-07
3.0413128e-07
2.8140725e-07
2.540105e-07
2.2171426e-07
1.8462647e-07
1.432572e-07
9.8663025e-08
5.2557207e-08
1.9650549e-07
1.9647212e-07
1.961732e-07
1.9629782e-07
1.9659304e-07
1.9713084e-07
1.9712467e-07
1.9682523e-07
1.9626345e-07
1.9540471e-07
1.9416123e-07
1.924204e-07
1.9050883e-07
1.8663582e-07
1.819485e-07
1.7590919e-07
1.6813054e-07
1.5829206e-07
1.4631256e-07
1.319604e-07
1.146309e-07
9.5411851e-08
7.4066745e-08
5.1220093e-08
2.8171973e-08
)
;

boundaryField
{
    Walls
    {
        type            kqRWallFunction;
        value           nonuniform List<scalar> 
38
(
3.7384121e-06
2.5141706e-06
7.9273112e-06
3.7505514e-05
0.00028019137
0.0023475058
0.055830051
0.060470373
0.018429675
0.027338094
0.034270708
0.041351489
0.047604159
0.051606336
0.055997058
0.059726455
0.061651383
0.06366801
0.065992166
0.067164379
0.068297835
0.06948889
0.070217105
0.070589568
0.071230824
0.071730423
0.072235678
0.072773148
0.072273253
0.072494908
0.072973156
0.072629087
0.072667552
0.072462062
0.072381017
0.072232033
0.071291011
0.066250142
)
;
    }
    Inlet
    {
        type            turbulentIntensityKineticEnergyInlet;
        intensity       0.05;
        value           nonuniform List<scalar> 3(0.0097449219 0.0084159209 0.0096803781);
    }
    Outlet
    {
        type            inletOutlet;
        inletValue      uniform 0;
        value           nonuniform List<scalar> 
86
(
1.9660865e-07
1.9660941e-07
1.9660048e-07
1.9656505e-07
1.9651439e-07
1.9650549e-07
1.9647212e-07
1.961732e-07
1.9629782e-07
1.9659304e-07
1.9713084e-07
1.9712467e-07
1.9682523e-07
1.9626345e-07
1.9540471e-07
1.9416123e-07
1.924204e-07
1.9050883e-07
1.8663582e-07
1.819485e-07
1.7590919e-07
1.6813054e-07
1.5829206e-07
1.4631256e-07
1.319604e-07
1.146309e-07
9.5411851e-08
7.4066745e-08
5.1220093e-08
2.8171973e-08
0.0031428632
0.00324837
0.0026532911
0
0
0
0
0.00025375347
0.00022270473
0.00016310694
8.7626114e-05
0
3.2306506e-05
2.3444059e-05
1.7677988e-05
1.3088492e-05
9.4463617e-06
6.7008598e-06
4.6671103e-06
3.2054392e-06
2.1784986e-06
1.4619537e-06
9.7792228e-07
6.5711911e-07
4.5492536e-07
3.2733808e-07
2.4998411e-07
2.0200232e-07
1.7532659e-07
1.6093355e-07
1.5490916e-07
1.5205874e-07
1.5064387e-07
1.5205455e-07
1.540926e-07
0
0
0
0
0
0
0
0
0
0
0
0
0
0
2.8171973e-08
0
0
0
0
0.0025857196
0.0032437219
)
;
    }
    Front
    {
        type            wedge;
    }
    Back
    {
        type            wedge;
    }
    defaultFaces
    {
        type            empty;
    }
}


// ************************************************************************* //
