/*--------------------------------*- C++ -*----------------------------------*\
| =========                 |                                                 |
| \\      /  F ield         | OpenFOAM: The Open Source CFD Toolbox           |
|  \\    /   O peration     | Version:  4.0                                   |
|   \\  /    A nd           | Web:      www.OpenFOAM.org                      |
|    \\/     M anipulation  |                                                 |
\*---------------------------------------------------------------------------*/
FoamFile
{
    version     2.0;
    format      ascii;
    class       volScalarField;
    location    "0.67";
    object      omega;
}
// * * * * * * * * * * * * * * * * * * * * * * * * * * * * * * * * * * * * * //

dimensions      [0 0 -1 0 0 0 0];

internalField   nonuniform List<scalar> 
1740
(
59.213209
696.08997
14920.756
164.27623
1480.4288
15029.518
280.07423
1919.0459
15113.362
389.31777
2226.4618
15198.166
517.80659
2508.3932
15272.883
625.878
2820.9875
15320.382
737.15721
3069.31
15373.685
849.44068
3313.2367
15417.777
954.47642
3445.1296
15440.741
1043.6802
3507.0202
15464.559
1140.6341
3633.8175
15489.217
1234.1549
3781.1553
15505.413
1321.2703
3788.1079
15520.816
1418.8603
3848.1942
15535.709
1511.0714
3944.7164
15541.36
1576.8084
4022.5385
15546.144
1649.6096
4009.4161
15554.415
1676.0022
4010.2257
15555.883
1703.0098
4032.334
15563.936
1742.6902
4030.6751
15571.309
1777.691
4070.4219
15564.328
1814.4301
4122.0378
15566.3
1871.2109
4134.8364
15572.943
1896.433
4137.5729
15570.86
1912.179
4132.0018
15570.676
1938.0921
4135.7525
15567.62
1969.8392
4160.4179
15567.929
2006.0651
4231.5428
15566.654
2032.8835
4250.3622
15555.621
2153.1179
4316.8643
15496.367
3214.9295
4575.0574
10732.349
3343.3161
4236.2766
5935.5913
1573
1858.2976
2151.2299
823.40976
897.8519
955.6547
477.53913
495.53614
505.62157
300.38005
304.0192
304.06725
201.07207
201.33978
199.85047
141.59513
141.24686
139.9716
104.10462
103.76405
102.91144
79.443614
79.207371
78.681547
62.609747
62.46156
62.146818
50.74619
50.65683
50.470746
42.165184
42.112286
42.002942
35.83816
35.807112
35.743043
31.117955
31.09971
31.062032
27.582908
27.572011
27.549466
24.946982
24.940222
24.926148
23.006434
23.001947
22.992491
21.607739
21.604489
21.597515
20.628946
20.626401
20.620801
19.969675
19.9676
19.962862
19.545691
19.544009
19.539918
19.282073
19.280638
19.276988
19.102208
19.100704
19.097198
18.96375
18.962305
18.959024
18.850766
18.849427
18.846397
18.752764
18.751539
18.748756
18.662678
18.661571
18.659031
18.575705
18.574729
18.572439
18.488539
18.487709
18.485683
18.39895
18.398274
18.396519
18.305454
18.304924
18.303428
18.206749
18.20634
18.205072
18.100816
18.100494
18.099415
17.983918
17.983655
17.982724
17.849765
17.849538
17.848724
17.688909
17.688706
17.687985
17.488302
17.488116
17.48747
17.230892
17.230719
17.230137
16.895228
16.895066
16.89454
16.455126
16.454975
16.454498
15.879548
15.879404
15.878969
15.133151
15.132997
15.13259
14.187372
14.187232
14.186876
13.005584
13.005468
13.005173
11.554069
11.553976
11.553734
9.8086577
9.8085718
9.8083395
7.7601906
7.7600782
7.7597615
5.4178135
5.417643
5.4171438
2.8366316
2.8364534
2.8359126
13474.914
13529.628
5982.8422
5320.4553
2081.4605
1879.907
921.14694
853.57222
489.4255
462.78688
295.91929
284.06046
195.53175
189.80279
137.6007
134.66414
101.58165
100.00629
77.924336
77.049404
61.710537
61.212615
50.217262
49.929336
41.854985
41.68695
35.656433
35.557803
31.010975
30.952526
27.518719
27.483169
24.906711
24.883804
22.979151
22.962931
21.58738
21.574553
20.612377
20.601264
19.955453
19.945302
19.533239
19.523789
19.270894
19.262138
19.091541
19.083485
18.953797
18.946369
18.84157
18.83469
18.744296
18.737894
18.654915
18.648942
18.568658
18.563089
18.48224
18.47707
18.393418
18.388652
18.300664
18.296311
18.202626
18.198687
18.097259
18.093723
17.980824
17.977668
17.847047
17.844236
17.686498
17.683993
17.486145
17.483904
17.228949
17.226937
16.893472
16.891658
16.453538
16.451901
15.878108
15.876638
15.13182
15.130514
14.18621
14.185074
13.004615
13.003647
11.553263
11.552437
9.8078787
9.8071032
7.7591299
7.7581765
5.4161311
5.4147152
2.8347841
2.8332324
12058.169
2042.8201
696.32525
368.98184
281.19014
256.9828
249.86141
246.83497
244.50388
242.12408
239.61637
236.88343
234.06357
231.1683
228.16359
224.9851
221.51893
217.56816
212.79886
206.6556
198.2164
185.92871
167.09383
136.65551
82.689764
12058.132
2036.8684
697.5488
374.57702
283.13766
254.32078
242.80269
235.60301
229.51017
223.72879
218.06358
212.45254
206.95956
201.56621
196.25155
190.98733
185.71674
180.33537
174.65544
168.3539
160.87931
151.26521
137.71429
116.52112
78.227269
12058.179
2030.6438
718.64993
430.70146
359.32087
332.39317
315.03296
300.54439
287.31509
274.77357
262.80407
251.22514
240.258
229.8054
219.80635
210.24694
201.10608
192.33729
183.83941
175.43374
166.80663
157.3771
145.94095
129.54357
98.870426
12058.525
2032.0189
817.57518
608.74957
549.86733
512.66911
479.66452
449.16747
421.20336
394.9083
370.24972
347.2595
326.06744
306.21651
287.56593
270.12217
253.87259
238.78503
224.80419
211.83877
199.74821
188.30686
177.07615
164.87854
146.46578
12061.516
2150.796
1232.1371
1078.2068
989.44723
906.61406
828.1306
756.71121
692.83046
633.77146
579.47193
529.86246
485.79753
445.5445
408.58928
374.94215
344.46518
316.98599
292.32432
270.28722
250.67943
233.32728
218.11838
205.22684
195.72975
12087.104
3819.2734
2805.4836
2402.0413
2094.2837
1825.8435
1590.712
1387.5
1211.5509
1059.6795
928.848
816.24565
719.33672
635.68983
563.36636
500.85489
446.85521
400.23434
360.01573
325.36562
295.57774
270.08006
248.47075
230.84742
218.4467
10359.878
7894.4573
6087.7438
4780.623
3813.8659
3080.7579
2512.8584
2066.3557
1711.8327
1428.1841
1199.7027
1014.59
863.92096
740.77914
639.66507
556.20491
486.94436
429.17219
380.76646
340.06504
305.7649
276.86414
252.65134
233.00948
219.21978
4084.9554
3301.9096
2838.5929
2464.6209
2146.5639
1866.6912
1622.3087
1410.8115
1229.4141
1073.8913
940.47044
825.74741
726.74241
641.28935
567.54431
503.90974
449.00597
401.65453
360.85335
325.7526
295.63663
269.92833
248.21633
230.57806
218.20083
1593.3433
1399.0105
1269.0105
1160.848
1058.6642
961.40132
872.66685
793.66776
721.66924
656.45748
598.0739
546.47273
499.07836
455.76951
416.4239
380.84911
348.81534
320.09371
294.45285
271.67743
251.57091
233.96668
218.75562
206.0924
196.93561
770.9442
707.63533
661.37797
620.76312
580.38558
540.24132
502.6616
468.02122
435.90869
406.29771
379.22875
354.42881
331.21224
309.48263
289.23147
270.44671
253.09917
237.14856
222.54478
209.22466
197.09534
185.99232
175.55164
164.71811
148.68982
433.65955
409.9359
391.18783
373.92771
356.1524
337.83591
319.94579
302.90761
286.80298
271.68651
257.56956
244.32817
231.75562
219.81098
208.52301
197.88935
187.90382
178.54615
169.77215
161.491
153.51119
145.40679
136.15262
122.98053
96.797445
271.77163
261.36195
252.68766
244.50371
235.96081
226.99276
217.96319
209.1368
200.6367
192.52208
184.80271
177.43048
170.33411
163.49238
156.91814
150.61603
144.57785
138.77401
133.13827
127.53586
121.69564
115.06037
106.4337
93.052158
67.418098
184.00104
178.92278
174.50468
170.26143
165.82045
161.11677
156.28695
151.4723
146.76248
142.2037
137.80699
133.55427
129.41753
125.38261
121.44597
117.59887
113.81977
110.06422
106.24857
102.21997
97.700413
92.178435
84.687978
73.272222
52.812326
131.71589
129.06257
126.67566
124.35341
121.9252
119.34409
116.65833
113.93865
111.2402
108.59532
106.01423
103.49012
101.00876
98.55721
96.123207
93.688251
91.220779
88.667219
85.938574
82.889158
79.284425
74.759502
68.80039
60.937997
52.189063
98.426355
96.970059
95.627943
94.310354
92.935404
91.472927
89.938607
88.366328
86.786982
85.220454
83.673858
82.143566
80.619476
79.088297
77.533083
75.929379
74.240185
72.409077
70.350987
67.940307
64.999448
61.302835
56.651069
51.191359
46.394517
76.168878
75.341935
74.565228
73.798674
73.00155
72.154914
71.262424
70.33931
69.401608
68.460023
67.51792
66.571516
65.611339
64.623274
63.587868
62.477783
61.254212
59.862012
58.223804
56.233818
53.755279
50.633002
46.753951
42.236085
37.630552
60.70839
60.22785
59.770579
59.317956
58.849275
58.3528
57.827901
57.280496
56.717808
56.144383
55.560227
54.960279
54.33456
53.668183
52.940502
52.123263
51.177912
50.052078
48.67525
46.953853
44.765957
41.953622
38.293101
33.317805
25.225258
49.635797
49.35291
49.081492
48.812668
48.535482
48.242656
47.932036
47.604939
47.263526
46.908313
46.536705
46.142261
45.714251
45.237242
44.690177
44.04488
43.263918
42.297694
41.080495
39.524677
37.510425
34.862452
31.282229
26.115204
17.423956
41.514634
41.347174
41.185697
41.025906
40.861733
40.688404
40.50335
40.305563
40.094307
39.867552
39.62087
39.346641
39.033486
38.665651
38.222079
37.675126
36.988715
36.115726
34.994096
33.540416
31.637943
29.111164
25.665287
20.723475
12.94144
35.456121
35.356628
35.260283
35.164937
35.066996
34.963123
34.85068
34.727498
34.591176
34.438091
34.262567
34.056129
33.806925
33.49903
33.111594
32.617678
31.982627
31.161724
30.096607
28.70941
26.892431
24.488846
21.254804
16.779947
10.354775
30.891832
30.831941
30.773493
30.715287
30.655015
30.590096
30.517958
30.435878
30.340497
30.227208
30.089505
29.91834
29.70152
29.423078
29.062452
28.593473
27.982949
27.18869
26.156598
24.816184
23.073442
20.799427
17.812365
13.852173
8.5980738
27.445737
27.408169
27.370821
27.332859
27.292611
27.247941
27.196332
27.134763
27.059371
26.96495
26.844449
26.688428
26.484485
26.216662
25.864718
25.403253
24.800557
24.017091
23.003426
21.697377
20.02006
17.870543
15.119462
11.60472
7.1598435
24.859034
24.833343
24.806836
24.778807
24.74788
24.712159
24.66918
24.615771
24.547762
24.459601
24.343885
24.190895
23.988087
23.719534
23.365304
22.900731
22.295539
21.512801
20.507709
19.226164
17.603244
15.56157
13.009785
9.8426262
5.9637183
22.944651
22.924734
22.90307
22.878982
22.851228
22.818023
22.77694
22.724723
22.657021
22.568042
22.450144
22.293404
22.085147
21.809473
21.446716
20.972874
20.358984
19.570504
18.566792
17.300817
15.719247
13.762977
11.368069
8.4675255
5.0196316
21.55937
21.541908
21.521885
21.498601
21.47087
21.436954
21.394434
21.34
21.269174
21.175988
21.052597
20.888884
20.672041
20.386155
20.01178
19.525493
18.899481
18.101246
17.093629
15.835321
14.282027
12.388268
10.109996
7.4095227
4.286668
20.587489
20.570894
20.551061
20.527247
20.498274
20.462425
20.41727
20.359445
20.28437
20.185915
20.056036
19.884398
19.658017
19.360919
18.973829
18.473852
17.834187
17.024033
16.008976
14.752093
13.215885
11.364996
9.1703367
6.6178928
3.7436255
19.932234
19.915918
19.895833
19.871186
19.840791
19.802925
19.755137
19.694008
19.614854
19.511379
19.375318
19.196069
18.960398
18.652201
18.252346
17.738488
17.084817
16.261963
15.237586
13.977954
12.450506
10.62733
8.4904339
6.0433387
3.3595898
19.511269
19.495211
19.475015
19.449836
19.418458
19.379134
19.329375
19.265699
19.183312
19.075744
18.934472
18.748558
18.504395
18.185621
17.773228
17.245586
16.578075
15.742646
14.708465
13.443945
11.919925
10.113843
8.0159483
5.6426334
3.08491
19.250366
19.235033
19.21547
19.190762
19.159617
19.120214
19.069987
19.00536
18.921416
18.811502
18.666803
18.475933
18.224678
17.896119
17.471296
16.929701
16.248515
15.401144
14.357708
13.08782
11.564436
9.7686406
7.6965331
5.3730773
2.8985553
19.072668
19.058576
19.040527
19.017573
18.988386
18.951092
18.903065
18.840649
18.758813
18.650728
18.507259
18.316381
18.06268
17.727632
17.291645
16.735953
16.041166
15.182878
14.131514
12.856982
11.333327
9.5439514
7.4887543
5.1968187
2.7704674
18.936379
18.923323
18.906513
18.884995
18.857432
18.821942
18.775894
18.715633
18.636141
18.530617
18.389984
18.20233
17.952323
17.620731
17.184266
16.619249
15.912241
15.044929
13.987698
12.710065
11.186469
9.4017856
7.3585477
5.0890434
2.7107533
18.82539
18.813166
18.797324
18.776906
18.750576
18.716456
18.671926
18.613355
18.535762
18.432408
18.294311
18.109696
17.863409
17.536375
17.105195
16.542419
15.828668
14.955756
13.89542
12.616681
11.094111
9.3135876
7.2796557
5.0272589
2.6765127
18.729175
18.717625
18.702549
18.682988
18.657606
18.624541
18.58119
18.523958
18.447917
18.346412
18.210577
18.028795
17.78611
17.463647
17.038146
16.48183
15.76823
14.894107
13.833677
12.555876
11.035451
9.2590189
7.2324293
4.9916534
2.6644529
18.640726
18.629743
18.615293
18.596418
18.57179
18.539561
18.497157
18.441024
18.366299
18.26642
18.132656
17.953563
17.714398
17.396508
16.97683
16.427716
15.718679
14.847047
13.78909
12.513945
10.996644
9.2243534
7.2035024
4.9687569
2.6322693
18.555332
18.544851
18.530941
18.51265
18.48866
18.457146
18.415566
18.360415
18.286904
18.188573
18.056825
17.880396
17.644749
17.331455
16.917623
16.375593
15.673795
14.807176
13.753498
12.482239
10.96878
9.2007465
7.184844
4.9542045
2.6165392
18.469758
18.459757
18.44636
18.428624
18.40525
18.37444
18.333693
18.279559
18.207324
18.110626
17.980996
17.807326
17.575271
17.266614
16.858663
16.323849
15.630316
14.770153
13.721881
12.455298
10.946181
9.182618
7.1715419
4.9441688
2.6018873
18.381798
18.372298
18.35945
18.342325
18.319649
18.289656
18.24989
18.196955
18.126203
18.031357
17.90405
17.733298
17.504914
17.200876
16.798715
16.271065
15.586075
14.733132
13.690876
12.429428
10.924993
9.1660991
7.1600469
4.9382607
2.604562
18.289943
18.281
18.268789
18.252401
18.230589
18.201619
18.163073
18.111601
18.042605
17.949867
17.825089
17.65738
17.432675
17.133125
16.736497
16.215707
15.539118
14.693691
13.657721
12.401684
10.902231
9.1482676
7.1472063
4.9299455
2.5891683
18.192835
18.184515
18.173049
18.157547
18.136786
18.109058
18.071973
18.022208
17.955196
17.86475
17.742616
17.577963
17.356825
17.06151
16.670026
16.155626
15.487044
14.649113
13.619519
12.369131
10.875065
9.1265891
7.1310063
4.9178081
2.5573449
18.088402
18.080752
18.070114
18.055613
18.036043
18.009711
17.974241
17.926321
17.861396
17.773293
17.653778
17.492065
17.27427
16.982848
16.596054
16.087514
15.426439
14.595843
13.572703
12.328303
10.840248
9.0981941
7.1094524
4.9032161
2.5512102
17.972869
17.965901
17.956119
17.942663
17.924335
17.899448
17.865625
17.819555
17.75668
17.67083
17.553785
17.394794
17.18005
16.892156
16.509613
16.006447
15.352408
14.529034
13.512584
12.274783
10.793743
9.0595651
7.0798524
4.8841544
2.5445142
17.839926
17.83361
17.824659
17.812219
17.795094
17.771595
17.739342
17.695013
17.634045
17.550265
17.435466
17.278937
17.066951
16.782262
16.403629
15.905489
15.25818
14.442149
13.432968
12.202833
10.730389
9.0062157
7.0383395
4.8569528
2.5231366
17.680122
17.674403
17.666213
17.654704
17.638681
17.616448
17.585616
17.542854
17.483595
17.401666
17.288883
17.134579
16.925124
16.643435
16.268545
15.775322
15.13473
14.32658
13.325772
12.105024
10.643549
8.9323679
6.9797743
4.8165976
2.5054012
17.480419
17.475223
17.467706
17.45702
17.441969
17.420851
17.391269
17.349889
17.292143
17.211871
17.100922
16.948696
16.741678
16.462974
16.09192
15.603854
14.970418
14.171283
13.180668
11.971906
10.524836
8.8309062
6.8984741
4.7584224
2.4724077
17.223785
17.219042
17.212107
17.202136
17.18793
17.167785
17.139303
17.099152
17.042773
16.964039
16.85485
16.704701
16.500224
16.224756
15.857983
15.375797
14.750638
13.962434
12.984765
11.791721
10.363905
8.6933323
6.7887143
4.6816681
2.4348042
16.888795
16.884448
16.878023
16.868679
16.855221
16.835946
16.808463
16.769454
16.714391
16.637196
16.529853
16.38199
16.180432
15.908792
15.547172
15.072162
14.457501
13.683154
12.72236
11.550192
10.148207
8.5091599
6.6423613
4.5807417
2.3888481
16.449299
16.44531
16.439347
16.43058
16.417819
16.399372
16.372868
16.335019
16.281348
16.20586
16.100667
15.955581
15.757681
15.490881
15.135715
14.669509
14.069647
13.313388
12.374852
11.230464
9.8629827
8.266074
6.449677
4.4477655
2.3260699
15.874284
15.870639
15.865131
15.856938
15.844887
15.827309
15.801866
15.765326
15.713296
15.639904
15.537449
15.396004
15.202991
14.942567
14.595921
14.143529
13.562871
12.830129
11.920908
10.813273
9.4914268
7.9500575
6.1993024
4.2716625
2.2298008
15.128412
15.125128
15.120106
15.112543
15.10129
15.084719
15.060546
15.025628
14.975697
14.905065
14.806291
14.669831
14.483693
14.233146
13.90074
13.467006
12.910343
12.207924
11.337018
10.277509
9.0152471
7.5460979
5.8804581
4.0493627
2.1117825
14.183223
14.180291
14.175743
14.168806
14.158374
14.142882
14.120145
14.087153
14.039836
13.972775
13.878904
13.749189
13.572348
13.334632
13.019802
12.609416
12.083191
11.419856
10.598589
9.6012912
8.4156431
7.0387864
5.4813723
3.7728862
1.9677861
13.002044
12.99946
12.995389
12.989099
12.979546
12.96526
12.944196
12.913542
12.869502
12.807029
12.719548
12.598682
12.434021
12.212947
11.920596
11.540054
11.05281
10.439611
9.6818744
8.7637612
7.6749254
6.4137901
4.9911015
3.4346537
1.7940054
11.55107
11.548843
11.545286
11.53972
11.531181
11.518327
11.499306
11.47157
11.431696
11.375135
11.295944
11.186577
11.037706
10.838098
10.574556
10.232094
9.7943977
9.2446497
8.5668512
7.747653
6.7787727
5.6598127
4.401216
3.0280934
1.5833709
9.8059231
9.8040673
9.8011054
9.7964452
9.7891908
9.7781422
9.7616996
9.7376294
9.7030086
9.6539503
9.585323
9.4906022
9.3617766
9.1893238
8.9620761
8.667357
8.2914337
7.8202949
7.240885
6.5425071
5.7189334
4.7707569
3.7077534
2.551869
1.3382994
7.7570649
7.7555862
7.7533255
7.7499976
7.7446568
7.7361497
7.72311
7.7036643
7.675563
7.6358195
7.5803406
7.5038352
7.3998082
7.2607238
7.0779726
6.841514
6.540509
6.164052
5.7025155
5.1478941
4.4958261
3.7475384
2.9115823
2.0059426
1.0574455
5.4135188
5.4122833
5.4101359
5.4087969
5.4067184
5.402736
5.3943934
5.3807905
5.3606745
5.3322577
5.2927769
5.2384301
5.1647057
5.0647093
4.9346685
4.7670391
4.554003
4.2879194
3.9633744
3.5749197
3.1195869
2.5988263
2.0193059
1.3947618
0.74725699
2.8320696
2.8303578
2.824671
2.8248038
2.8271568
2.8327357
2.8303955
2.8236772
2.8130023
2.7978643
2.7770086
2.7488355
2.7179394
2.6590112
2.5879975
2.4980921
2.3842678
2.242023
2.0703026
1.8659896
1.6207118
1.3496206
1.0491803
0.7276288
0.4023535
)
;

boundaryField
{
    Walls
    {
        Cmu             0.09;
        kappa           0.41;
        E               9.8;
        beta1           0.075;
        type            omegaWallFunction;
        value           nonuniform List<scalar> 
38
(
12058.169
12058.132
12058.179
12058.525
12061.516
12087.104
13474.914
13529.628
14920.756
15029.518
15113.362
15198.166
15272.883
15320.382
15373.685
15417.777
15440.741
15464.559
15489.217
15505.413
15520.816
15535.709
15541.36
15546.144
15554.415
15555.883
15563.936
15571.309
15564.328
15566.3
15572.943
15570.86
15570.676
15567.62
15567.929
15566.654
15555.621
15496.367
)
;
    }
    Inlet
    {
        type            turbulentMixingLengthDissipationRateInlet;
        mixingLength    0.03;
        phi             phi;
        k               k;
        value           nonuniform List<scalar> 3(0.0037517887 0.0050315095 0.0049643846);
    }
    Outlet
    {
        type            inletOutlet;
        inletValue      uniform 1e-05;
        value           nonuniform List<scalar> 
86
(
2.8366316
2.8364534
2.8359126
2.8347841
2.8332324
2.8320696
2.8303578
2.824671
2.8248038
2.8271568
2.8327357
2.8303955
2.8236772
2.8130023
2.7978643
2.7770086
2.7488355
2.7179394
2.6590112
2.5879975
2.4980921
2.3842678
2.242023
2.0703026
1.8659896
1.6207118
1.3496206
1.0491803
0.7276288
0.4023535
219.21978
218.20083
196.93561
1e-05
1e-05
1e-05
1e-05
52.189063
46.394517
37.630552
25.225258
1e-05
12.94144
10.354775
8.5980738
7.1598435
5.9637183
5.0196316
4.286668
3.7436255
3.3595898
3.08491
2.8985553
2.7704674
2.7107533
2.6765127
2.6644529
2.6322693
2.6165392
2.6018873
2.604562
2.5891683
2.5573449
2.5512102
2.5445142
1e-05
1e-05
1e-05
1e-05
1e-05
1e-05
1e-05
1e-05
1e-05
1e-05
1e-05
1e-05
1e-05
1e-05
0.4023535
1e-05
1e-05
1e-05
1e-05
195.72975
218.4467
)
;
    }
    Front
    {
        type            wedge;
    }
    Back
    {
        type            wedge;
    }
    defaultFaces
    {
        type            empty;
    }
}


// ************************************************************************* //
