/*--------------------------------*- C++ -*----------------------------------*\
| =========                 |                                                 |
| \\      /  F ield         | OpenFOAM: The Open Source CFD Toolbox           |
|  \\    /   O peration     | Version:  4.0                                   |
|   \\  /    A nd           | Web:      www.OpenFOAM.org                      |
|    \\/     M anipulation  |                                                 |
\*---------------------------------------------------------------------------*/
FoamFile
{
    version     2.0;
    format      ascii;
    class       surfaceScalarField;
    location    "0.67";
    object      phi;
}
// * * * * * * * * * * * * * * * * * * * * * * * * * * * * * * * * * * * * * //

dimensions      [0 3 -1 0 0 0 0];

internalField   nonuniform List<scalar> 
3364
(
-4.9349822e-11
1.7631051e-08
-8.238403e-10
4.9791225e-08
8.6793187e-08
1.7009648e-10
1.7460934e-08
-1.5700234e-09
5.1531384e-08
8.5223183e-08
4.4407989e-10
1.701683e-08
-1.3972068e-10
5.2115243e-08
8.5083469e-08
1.1735942e-10
1.6899433e-08
9.8758519e-10
5.1244984e-08
8.6071009e-08
-4.0557551e-10
1.730498e-08
9.6761235e-11
5.0742564e-08
8.6167722e-08
-5.0737193e-12
1.7310036e-08
-5.7611967e-10
5.1313564e-08
8.5591565e-08
1.549574e-10
1.7155065e-08
-8.0617976e-10
5.2274672e-08
8.4785354e-08
-6.2400326e-11
1.7217427e-08
-3.528892e-10
5.2565121e-08
8.4432455e-08
2.0408771e-10
1.7013286e-08
1.1783782e-09
5.159081e-08
8.5610833e-08
1.5021439e-10
1.6863044e-08
1.2403712e-09
5.0500625e-08
8.6851183e-08
-3.1515152e-10
1.7178167e-08
-1.5159802e-09
5.1701391e-08
8.5335158e-08
-4.1199555e-10
1.7590108e-08
-2.6826211e-09
5.3971964e-08
8.2652506e-08
-1.676222e-10
1.7757676e-08
-1.1845804e-10
5.3922762e-08
8.2534011e-08
1.0576431e-12
1.7756577e-08
1.7083731e-09
5.2215393e-08
8.4242333e-08
5.629348e-11
1.7700258e-08
6.9275773e-10
5.1578881e-08
8.4935035e-08
1.2763169e-10
1.7572613e-08
3.4079726e-10
5.1365694e-08
8.52758e-08
-3.3922306e-10
1.7911833e-08
1.4360796e-09
4.9590378e-08
8.6711863e-08
-1.0621721e-10
1.8018026e-08
5.5550378e-10
4.8928644e-08
8.7267336e-08
7.0036826e-10
1.7317595e-08
-7.7131535e-10
5.0400283e-08
8.6495983e-08
5.0107262e-10
1.6816472e-08
-3.9869293e-10
5.1299982e-08
8.6097237e-08
2.6690808e-10
1.6549535e-08
-2.5169146e-10
5.1818529e-08
8.5845501e-08
-1.0048963e-11
1.6559545e-08
-1.0293441e-09
5.2837796e-08
8.4816134e-08
-9.3027836e-10
1.7489777e-08
-1.2232814e-09
5.313075e-08
8.359283e-08
-7.6406977e-10
1.8253815e-08
3.3242255e-10
5.2034215e-08
8.3925214e-08
4.4488343e-10
1.7808893e-08
3.314516e-10
5.2147619e-08
8.425663e-08
6.3068042e-10
1.7178162e-08
-1.0470123e-09
5.3825272e-08
8.3209572e-08
1.2844564e-10
1.7049685e-08
-7.2172819e-10
5.4675388e-08
8.2487784e-08
3.7297009e-12
1.7045935e-08
-2.7554968e-10
5.495465e-08
8.2212199e-08
1.6148098e-10
1.6884488e-08
4.8030654e-10
5.4635936e-08
8.2692516e-08
1.309507e-09
1.5575189e-08
6.1718077e-09
4.9773777e-08
8.8864298e-08
1.1151803e-08
4.4227356e-09
4.951278e-08
1.141093e-08
1.0833481e-08
1.2754104e-07
4.8637208e-09
-4.4145866e-10
1.7444456e-08
-1.1712918e-09
-1.3881021e-09
2.9664154e-08
-3.5004996e-10
-9.1376412e-11
-1.2764972e-09
-2.4477949e-10
-3.6305764e-10
-2.3014523e-09
-9.0390696e-11
-9.7149487e-13
-3.3228801e-10
-2.8482961e-12
-2.539613e-11
-6.6991241e-10
-8.5962783e-12
7.6264129e-12
-3.590736e-11
2.4467243e-11
3.0508352e-11
-9.1806591e-11
4.2071808e-13
7.2056711e-12
1.9100845e-12
2.2977952e-11
3.6319185e-11
-3.9001397e-12
1.7282221e-12
5.4774738e-12
7.4215664e-12
1.7284649e-11
2.8952313e-11
1.4788171e-11
1.9605197e-12
3.5168936e-12
8.0388943e-12
1.1206052e-11
1.9231936e-11
1.7758848e-11
1.2811314e-12
2.2357257e-12
5.5044124e-12
6.9826319e-12
1.2158415e-11
1.2577692e-11
6.3891735e-13
1.5968157e-12
2.6665145e-12
4.9550294e-12
8.5712358e-12
6.2536722e-12
2.0233264e-13
1.394513e-12
8.8256819e-13
4.2748567e-12
7.3070468e-12
2.1468531e-12
4.4712918e-14
1.3498313e-12
2.282427e-13
4.0913977e-12
6.89849e-12
6.3691172e-13
8.5105777e-14
1.2647465e-12
3.3610837e-13
3.8404415e-12
6.4606985e-12
7.7397484e-13
1.3054025e-13
1.1342169e-12
5.4208058e-13
3.4289215e-12
5.7147806e-12
1.2880308e-12
1.4307542e-13
9.9114542e-13
6.2369741e-13
2.9483027e-12
4.9134375e-12
1.4250444e-12
1.4758636e-13
8.4355992e-13
5.8467405e-13
2.5112113e-12
4.1561045e-12
1.3419996e-12
1.3290632e-13
7.1065357e-13
5.1761109e-13
2.1265016e-12
3.5186595e-12
1.1550467e-12
1.1104551e-13
5.9960758e-13
4.3926366e-13
1.7982781e-12
2.9774324e-12
9.804811e-13
9.2249132e-14
5.0735759e-13
3.6892402e-13
1.5215972e-12
2.521067e-12
8.2527911e-13
7.8527178e-14
4.2882916e-13
3.1446982e-13
1.285648e-12
2.1264509e-12
7.090747e-13
6.8761069e-14
3.6006648e-13
2.7459187e-13
1.07981e-12
1.7732002e-12
6.2783019e-13
6.2430507e-14
2.9763404e-13
2.5081593e-13
8.9141679e-13
1.4804141e-12
5.4358892e-13
5.2300065e-14
2.4533192e-13
2.068364e-13
7.368726e-13
1.2146097e-12
4.7262761e-13
4.4599104e-14
2.0073075e-13
1.8338267e-13
5.980814e-13
9.9475979e-13
4.0321976e-13
3.9498102e-14
1.6123067e-13
1.5311926e-13
4.8445304e-13
8.0319254e-13
3.4467441e-13
3.2314873e-14
1.2891394e-13
1.2876704e-13
3.8799422e-13
6.4053992e-13
2.9140848e-13
2.6858047e-14
1.0205421e-13
1.0830425e-13
3.0654198e-13
5.0537264e-13
2.4346136e-13
2.1947526e-14
8.0105168e-14
8.8254894e-14
2.4022923e-13
3.9639531e-13
1.9722312e-13
1.7562623e-14
6.2541221e-14
7.0305834e-14
1.8748128e-13
3.0936746e-13
1.5732568e-13
1.3601509e-14
4.8938574e-14
5.4480402e-14
1.4659831e-13
2.4128295e-13
1.2255801e-13
1.0092431e-14
3.8845193e-14
4.0426193e-14
1.1626109e-13
1.9003496e-13
9.1668338e-14
7.7413074e-15
3.1103113e-14
3.0886324e-14
9.3113212e-14
1.531138e-13
6.7802648e-14
5.2147964e-15
2.5887711e-14
2.0737999e-14
7.7587697e-14
1.2868904e-13
4.515886e-14
2.8599256e-15
2.302733e-14
1.1951364e-14
6.8494442e-14
1.1457737e-13
2.6059949e-14
1.0281861e-15
2.1998824e-14
3.7035173e-15
6.5817726e-14
1.0939262e-13
8.8859158e-15
-1.3699375e-16
2.2135615e-14
-5.4065958e-16
6.6220391e-14
1.0957547e-13
-7.2520363e-16
-1.0099915e-15
2.3145504e-14
-3.9627585e-15
6.9172475e-14
1.1436212e-13
-8.7505377e-15
-1.6695148e-15
2.4814996e-14
-6.6553409e-15
7.4157895e-14
1.2247291e-13
-1.4766766e-14
-2.0672037e-15
2.6882245e-14
-8.3724114e-15
8.0462926e-14
1.326116e-13
-1.8511321e-14
-2.1418805e-15
2.9024221e-14
-8.6662429e-15
8.6987308e-14
1.4395229e-13
-2.0006843e-14
-2.3182622e-15
3.1342618e-14
-9.4554691e-15
9.4124684e-14
1.5718869e-13
-2.2691507e-14
-2.4764958e-15
3.3819276e-14
-9.8529821e-15
1.0150146e-13
1.6838082e-13
-2.1044569e-14
-2.2815853e-15
3.6101044e-14
-9.13809e-15
1.0835833e-13
1.793646e-13
-2.0121198e-14
-2.0342382e-15
3.8135475e-14
-8.3163522e-15
1.1464087e-13
1.8962644e-13
-1.8577415e-14
-1.7792024e-15
3.991488e-14
-7.0745756e-15
1.1993671e-13
1.9845444e-13
-1.5901733e-14
-1.4658415e-15
4.1380927e-14
-5.7139859e-15
1.2418535e-13
2.0550806e-13
-1.2766718e-14
-1.0827697e-15
4.2463904e-14
-4.2170503e-15
1.2732013e-13
2.1066056e-13
-9.3686449e-15
-6.5572909e-16
4.3119836e-14
-2.516798e-15
1.2918171e-13
2.137201e-13
-5.5754226e-15
-1.5676997e-16
4.3276809e-14
-7.2167695e-16
1.2974714e-13
2.1468027e-13
-1.6809228e-15
2.1897555e-16
7.5062017e-16
1.6005027e-15
1.3712312e-07
-9.5873776e-09
-8.7190156e-09
1.4583584e-07
2.1566967e-08
-1.4913967e-09
-1.370564e-09
1.4217969e-08
-3.3314248e-09
-4.6130548e-10
-5.5411141e-10
-4.147735e-09
-1.0599964e-09
-7.1171864e-11
-1.1691071e-10
-1.497137e-09
-1.936699e-10
3.0701331e-11
2.1962121e-11
-3.3252741e-10
-2.0161105e-11
4.6963756e-11
5.2679251e-11
-5.0875311e-11
2.299544e-11
3.8756004e-11
4.66908e-11
2.8983429e-11
3.0232691e-11
2.6281474e-11
3.2343778e-11
4.4578782e-11
2.1773257e-11
1.7085536e-11
2.0961475e-11
3.3155034e-11
1.1218821e-11
1.2120324e-11
1.5176311e-11
1.7003877e-11
3.9308027e-12
1.0336488e-11
1.308762e-11
6.0196215e-12
1.2808077e-12
9.6927372e-12
1.2312255e-11
2.0563432e-12
1.3848096e-12
9.0820041e-12
1.1530622e-11
2.1665628e-12
2.2304707e-12
8.1396078e-12
1.036176e-11
3.3993842e-12
2.5988476e-12
6.9658088e-12
8.9527664e-12
4.0078445e-12
2.4439943e-12
5.8638021e-12
7.539087e-12
3.857657e-12
2.1028279e-12
4.9160056e-12
6.2765571e-12
3.3653365e-12
1.7647612e-12
4.1317105e-12
5.243792e-12
2.7975054e-12
1.4755581e-12
3.4814164e-12
4.4082979e-12
2.3110315e-12
1.2512651e-12
2.9392098e-12
3.7170698e-12
1.9424717e-12
1.1006302e-12
2.4663921e-12
3.1395005e-12
1.6781767e-12
9.5089134e-13
2.0590713e-12
2.6072407e-12
1.4831275e-12
8.3405558e-13
1.6976249e-12
2.1504341e-12
1.2908385e-12
7.1946747e-13
1.3813594e-12
1.7486148e-12
1.121264e-12
6.1448718e-13
1.1115298e-12
1.4052922e-12
9.5778832e-13
5.1822297e-13
8.8469974e-13
1.1181273e-12
8.0536818e-13
4.3037211e-13
6.9777488e-13
8.8307605e-13
6.6540549e-13
3.4818626e-13
5.4679908e-13
6.897822e-13
5.4146403e-13
2.7747302e-13
4.2664059e-13
5.3761627e-13
4.2962478e-13
2.1737716e-13
3.3181182e-13
4.1999012e-13
3.3499108e-13
1.6554893e-13
2.5792308e-13
3.290928e-13
2.5643593e-13
1.1524196e-13
2.1047705e-13
2.6749361e-13
1.7683267e-13
7.69317e-14
1.7869882e-13
2.2730303e-13
1.1711549e-13
4.4592199e-14
1.6016232e-13
2.0287268e-13
6.9017239e-14
1.6870343e-14
1.5217467e-13
1.9229667e-13
2.7442343e-14
-3.8253909e-16
1.5182972e-13
1.9224427e-13
-3.3295526e-16
-1.5299982e-14
1.5837769e-13
2.0085712e-13
-2.3914594e-14
-2.6035767e-14
1.6964591e-13
2.1518655e-13
-4.0366105e-14
-3.2837014e-14
1.8397138e-13
2.3418164e-13
-5.1832291e-14
-3.5847603e-14
1.9981237e-13
2.5711041e-13
-5.8775984e-14
-3.9353178e-14
2.1647462e-13
2.7535912e-13
-5.7601059e-14
-3.7613989e-14
2.3304488e-13
2.9548454e-13
-5.7738255e-14
-3.5793863e-14
2.4871857e-13
3.1535408e-13
-5.5662016e-14
-3.2365144e-14
2.6250746e-13
3.3257491e-13
-4.9584416e-14
-2.8038282e-14
2.7464526e-13
3.4779211e-13
-4.3253812e-14
-2.2576461e-14
2.8445631e-13
3.602171e-13
-3.4999718e-14
-1.6502941e-14
2.9159194e-13
3.6923058e-13
-2.5514665e-14
-9.7986466e-15
2.9581649e-13
3.7453986e-13
-1.5106167e-14
-3.0182716e-15
2.9715521e-13
3.7622013e-13
-4.696743e-15
2.7824805e-15
4.2766709e-15
1.4148718e-12
-1.4186916e-12
2.9557023e-12
-1.5496733e-12
3.6736327e-12
-7.2688463e-13
3.1646941e-12
5.0096503e-13
1.0369334e-12
2.1210144e-12
-3.288333e-12
4.3197551e-12
-1.0442853e-11
7.1502013e-12
-2.1253887e-11
1.0807798e-11
-3.6704566e-11
1.5448403e-11
-5.7399795e-11
2.0693762e-11
-8.29879e-11
2.5587278e-11
-1.1295021e-10
2.996196e-11
-1.4655824e-10
3.3607994e-11
-1.8294759e-10
3.6389523e-11
-2.2124094e-10
3.8293585e-11
-2.6054124e-10
3.9300539e-11
-2.9977356e-10
3.9232503e-11
-3.3769353e-10
3.7920056e-11
-3.7316498e-10
3.5471417e-11
-4.0510398e-10
3.1938877e-11
-4.325092e-10
2.7405021e-11
-4.5455481e-10
2.2045365e-11
-4.7061368e-10
1.6058607e-11
-4.801114e-10
9.4974705e-12
2.5877209e-12
-3.7031583e-11
3.561728e-11
-8.210112e-11
4.3526691e-11
-1.3650297e-10
5.3682943e-11
-2.0130991e-10
6.5316346e-11
-2.7774414e-10
7.8563823e-11
-3.6730801e-10
9.3892182e-11
-4.7155004e-10
1.1140063e-10
-5.9197511e-10
1.31241e-10
-7.2795001e-10
1.5143101e-10
-8.7774999e-10
1.7050092e-10
-1.039802e-09
1.8764587e-10
-1.2116389e-09
2.0180481e-10
-1.3907309e-09
2.1270519e-10
-1.5747888e-09
2.20452e-10
-1.7614555e-09
2.2496415e-10
-1.949813e-09
2.2766119e-10
-2.1487619e-09
2.3818391e-10
-2.3382565e-09
2.2741646e-10
-2.5110789e-09
2.0829492e-10
-2.662255e-09
1.8311557e-10
-2.7878972e-09
1.530472e-10
-2.8851762e-09
1.1932379e-10
-2.9518042e-09
8.2685729e-11
-2.9836285e-09
4.1320416e-11
1.056327e-11
-1.1279059e-10
1.4841716e-10
-2.4846648e-10
1.7921687e-10
-4.0922643e-10
2.1445947e-10
-5.9764727e-10
2.5375438e-10
-8.1767994e-10
2.9861354e-10
-1.0733122e-09
3.4954084e-10
-1.3726099e-09
4.1071367e-10
-1.7840483e-09
5.4269345e-10
-2.2370747e-09
6.0446988e-10
-2.7029049e-09
6.3634201e-10
-3.1657234e-09
6.5047373e-10
-3.6154828e-09
6.51572e-10
-4.0449474e-09
6.4217617e-10
-4.448675e-09
6.241846e-10
-4.820698e-09
5.9699081e-10
-5.1548426e-09
5.6180838e-10
-5.4363545e-09
5.1969722e-10
-5.6802698e-09
4.7133226e-10
-5.8898597e-09
4.1788435e-10
-6.0671687e-09
3.6042322e-10
-6.2139885e-09
2.9986497e-10
-6.3315803e-09
2.3691291e-10
-6.4201152e-09
1.7121735e-10
-6.4819264e-09
1.0312789e-10
3.4179342e-11
-3.6045714e-10
5.0889214e-10
-7.6427742e-10
5.830635e-10
-1.2269657e-09
6.7717656e-10
-1.9782755e-09
1.0050908e-09
-2.8088074e-09
1.1291688e-09
-3.6153216e-09
1.1560747e-09
-4.3409821e-09
1.1363904e-09
-4.8844112e-09
1.0861358e-09
-5.2950828e-09
1.0151523e-09
-5.5889092e-09
9.3017721e-10
-5.7781528e-09
8.397243e-10
-5.8735958e-09
7.4702051e-10
-5.8851708e-09
6.5375531e-10
-5.8155759e-09
5.5459285e-10
-5.680554e-09
4.6197106e-10
-5.4973281e-09
3.7858391e-10
-5.2830263e-09
3.0539619e-10
-5.0545813e-09
2.4288734e-10
-4.8277602e-09
1.9106299e-10
-4.6165511e-09
1.4921331e-10
-4.43438e-09
1.1769272e-10
-4.2898779e-09
9.2409373e-11
-4.1879072e-09
6.924481e-11
-4.1323607e-09
4.7579352e-11
2.5516586e-11
-2.1866086e-09
2.6955294e-09
-3.8842006e-09
2.2806871e-09
-5.3317464e-09
2.124753e-09
-5.9963749e-09
1.6697414e-09
-6.06068e-09
1.1934921e-09
-5.6079632e-09
7.0337261e-10
-4.8598654e-09
3.8830481e-10
-3.881523e-09
1.0780375e-10
-2.7355986e-09
-1.3076321e-10
-1.4922216e-09
-3.1319257e-10
-2.5411369e-10
-3.9837877e-10
9.8169167e-10
-4.8878549e-10
2.2689011e-09
-6.3345521e-10
3.6822564e-09
-8.5876238e-10
5.0662362e-09
-9.2200706e-10
6.3795681e-09
-9.347445e-10
7.5988052e-09
-9.1383562e-10
8.7087177e-09
-8.6701819e-10
9.6985584e-09
-7.9876899e-10
1.0559674e-08
-7.1189194e-10
1.1285802e-08
-6.0842363e-10
1.1868345e-08
-4.901196e-10
1.2296736e-08
-3.591312e-10
1.2562246e-08
-2.1791544e-10
-6.5243333e-11
1.146648e-09
1.5489687e-09
4.3925722e-09
-9.651864e-10
8.1261839e-09
-1.6087886e-09
1.1795221e-08
-1.9992664e-09
1.5479975e-08
-2.491237e-09
1.9109856e-08
-2.9264813e-09
2.2682106e-08
-3.183914e-09
2.6040043e-08
-3.2500967e-09
2.9092387e-08
-3.1830648e-09
3.1823908e-08
-3.0446687e-09
3.4291309e-08
-2.8657311e-09
3.6457545e-08
-2.6549691e-09
3.8262162e-08
-2.4380191e-09
3.9634261e-08
-2.2308063e-09
4.0727403e-08
-2.0150951e-09
4.1592437e-08
-1.7997225e-09
4.2269248e-08
-1.5905916e-09
4.2791124e-08
-1.3888391e-09
4.3187001e-08
-1.1945911e-09
4.3482218e-08
-1.0070543e-09
4.3698432e-08
-8.2458404e-10
4.3853096e-08
-6.4472864e-10
4.3958559e-08
-4.6454126e-10
4.4022107e-08
-2.8140966e-10
-8.9400573e-11
1.4964198e-07
-2.2559474e-09
1.4806396e-07
6.13746e-10
1.4533644e-07
1.1195259e-09
1.4178866e-07
1.5492063e-09
1.3721049e-07
2.0875445e-09
1.3172856e-07
2.5559628e-09
1.2569499e-07
2.8501071e-09
1.1949483e-07
2.9504447e-09
1.1339894e-07
2.9131565e-09
1.0755699e-07
2.7975735e-09
1.0203805e-07
2.6534533e-09
9.689562e-08
2.4876855e-09
9.2159097e-08
2.2987021e-09
8.7829762e-08
2.0987064e-09
8.3918462e-08
1.8963646e-09
8.0422765e-08
1.6961206e-09
7.733157e-08
1.5007361e-09
7.4631389e-08
1.3114647e-09
7.2308258e-08
1.1286528e-09
7.0349575e-08
9.5173473e-10
6.8745727e-08
7.793629e-10
6.7491476e-08
6.0961531e-10
6.6587373e-08
4.3964989e-10
6.6039242e-08
2.6680465e-10
8.5249946e-11
1.3513232e-08
-1.5510853e-09
1.5806524e-08
-1.6794318e-09
1.8379643e-08
-1.4534785e-09
2.1040624e-08
-1.1116633e-09
2.3797588e-08
-6.6931308e-10
2.6677719e-08
-3.2406719e-10
2.9574347e-08
-4.6428917e-11
3.2326923e-08
1.9795761e-10
3.4890458e-08
3.4970936e-10
3.7233834e-08
4.5428439e-10
3.9313005e-08
5.7436837e-10
4.09435e-08
8.5727524e-10
4.2234816e-08
1.0074692e-09
4.3260923e-08
1.0726802e-09
4.4064486e-08
1.0928812e-09
4.4681443e-08
1.0792402e-09
4.5144994e-08
1.0372596e-09
4.5485314e-08
9.7121658e-10
4.5728768e-08
8.8526884e-10
4.5898301e-08
7.822688e-10
4.6013367e-08
6.643627e-10
4.6089885e-08
5.3316027e-10
4.6139254e-08
3.9034223e-10
4.6168644e-08
2.3747374e-10
7.2031228e-11
-4.9340765e-09
-7.6475316e-10
-5.6101656e-09
-1.003351e-09
-5.9630698e-09
-1.1005834e-09
-5.9254973e-09
-1.1492446e-09
-5.4425938e-09
-1.1522239e-09
-4.6477556e-09
-1.1189106e-09
-3.6350111e-09
-1.0591761e-09
-2.4583978e-09
-9.7865565e-10
-1.2236995e-09
-8.8498637e-10
1.683448e-11
-7.8624469e-10
1.2794816e-09
-6.8827162e-10
2.719837e-09
-5.8307078e-10
4.2072463e-09
-4.7992834e-10
5.6641311e-09
-3.8419082e-10
7.0549016e-09
-2.9787369e-10
8.355825e-09
-2.2166596e-10
9.5668523e-09
-1.7374911e-10
1.0673648e-08
-1.355593e-10
1.1662919e-08
-1.0398197e-10
1.2524245e-08
-7.9036354e-11
1.324883e-08
-6.0200951e-11
1.3828466e-08
-4.6454202e-11
1.4255203e-08
-3.6372732e-11
1.4520339e-08
-2.7641222e-11
-1.7026951e-11
-2.082879e-09
-1.7901098e-10
-2.8496665e-09
-2.3656489e-10
-3.6564856e-09
-2.937683e-10
-4.4512391e-09
-3.5449753e-10
-5.174473e-09
-4.2899842e-10
-5.720718e-09
-5.7267528e-10
-6.1451114e-09
-6.347931e-10
-6.4527431e-09
-6.7103459e-10
-6.6474481e-09
-6.9029205e-10
-6.737491e-09
-6.9621226e-10
-6.7343029e-09
-6.9146978e-10
-6.6390654e-09
-6.7831783e-10
-6.4625919e-09
-6.5641077e-10
-6.2204914e-09
-6.2629945e-10
-5.9290623e-09
-5.8931006e-10
-5.6040558e-09
-5.4667908e-10
-5.2773088e-09
-5.0050188e-10
-4.9610813e-09
-4.5179201e-10
-4.6648702e-09
-4.001976e-10
-4.3981817e-09
-3.4572893e-10
-4.1699389e-09
-2.8844733e-10
-3.9880037e-09
-2.2839267e-10
-3.8587502e-09
-1.6562927e-10
-3.7860013e-09
-1.0039309e-10
-3.3955598e-11
-5.1521004e-10
3.67464e-12
-7.3345193e-10
-1.8320203e-11
-9.8401586e-10
-4.3202158e-11
-1.2725017e-09
-6.6010295e-11
-1.6104279e-09
-9.1071688e-11
-2.0647871e-09
-1.1831663e-10
-2.5529003e-09
-1.4668168e-10
-3.0495124e-09
-1.7442554e-10
-3.5400536e-09
-1.9975489e-10
-4.0144338e-09
-2.2183703e-10
-4.4654886e-09
-2.4042079e-10
-4.8876598e-09
-2.5615317e-10
-5.2696564e-09
-2.7442116e-10
-5.5948483e-09
-3.0111497e-10
-5.8827908e-09
-3.013753e-10
-6.136304e-09
-2.9317378e-10
-6.358771e-09
-2.7804298e-10
-6.5532093e-09
-2.5736183e-10
-6.7216468e-09
-2.3176833e-10
-6.8656352e-09
-2.017488e-10
-6.9863137e-09
-1.6777704e-10
-7.0842769e-09
-1.3043763e-10
-7.1593692e-09
-9.0545076e-11
-7.2114173e-09
-4.8353002e-11
-1.09308e-11
-1.0116198e-10
5.3962788e-11
-1.7239462e-10
5.2913961e-11
-2.6543562e-10
4.9840269e-11
-3.746488e-10
4.3204127e-11
-5.0382387e-10
3.8104368e-11
-6.5268528e-10
3.0545433e-11
-8.2009591e-10
2.0729223e-11
-1.0035058e-09
8.984159e-12
-1.1994816e-09
-3.7796518e-12
-1.4051365e-09
-1.6183096e-11
-1.6177588e-09
-2.7799918e-11
-1.8372308e-09
-3.6683038e-11
-2.068698e-09
-4.2956164e-11
-2.3225378e-09
-4.7277874e-11
-2.5738309e-09
-5.0085157e-11
-2.8157043e-09
-5.1303854e-11
-3.0429003e-09
-5.0850656e-11
-3.2514328e-09
-4.883341e-11
-3.4378748e-09
-4.5330472e-11
-3.5991512e-09
-4.0476834e-11
-3.7324906e-09
-3.4442243e-11
-3.8354937e-09
-2.7439106e-11
-3.9063375e-09
-1.9705929e-11
-3.9432507e-09
-1.1444444e-11
-3.0538876e-12
3.2018958e-11
5.0927251e-11
2.9419112e-11
5.5513726e-11
2.0791525e-11
5.8467711e-11
4.1713764e-12
5.9824074e-11
-1.8814299e-11
6.108979e-11
-4.9648265e-11
6.1379089e-11
-8.8696422e-11
5.9777012e-11
-1.3602482e-10
5.6312125e-11
-1.909707e-10
5.1165723e-11
-2.5195475e-10
4.4800388e-11
-3.1810808e-10
3.8352765e-11
-3.8676198e-10
3.1970126e-11
-4.5597501e-10
2.6256056e-11
-5.2626238e-10
2.3008593e-11
-5.9607881e-10
1.9730267e-11
-6.6408551e-10
1.6701749e-11
-7.2893705e-10
1.3999694e-11
-7.8935289e-10
1.1581165e-11
-8.4408049e-10
9.3958035e-12
-8.9195204e-10
7.3933424e-12
-9.3193207e-10
5.5363815e-12
-9.6318269e-10
3.8101086e-12
-9.8514051e-10
2.2505079e-12
-9.9758996e-10
1.0036783e-12
3.59175e-13
5.9583567e-11
3.592227e-11
7.6408126e-11
3.8688909e-11
9.253005e-11
4.2345503e-11
1.0713207e-10
4.5221774e-11
1.2137685e-10
4.6844751e-11
1.3426929e-10
4.8486405e-11
1.4497017e-10
4.9075928e-11
1.5250319e-10
4.8778919e-11
1.5645964e-10
4.7209104e-11
1.5691913e-10
4.4340763e-11
1.5486128e-10
4.041048e-11
1.5080966e-10
3.602164e-11
1.4553452e-10
3.1531093e-11
1.4084106e-10
2.770197e-11
1.3650923e-10
2.406203e-11
1.3264614e-10
2.0564781e-11
1.290283e-10
1.7617492e-11
1.257243e-10
1.4885137e-11
1.2280608e-10
1.2314011e-11
1.2022773e-10
9.971691e-12
1.1796442e-10
7.7996999e-12
1.160049e-10
5.7696571e-12
1.1440661e-10
3.8488411e-12
1.1333299e-10
2.0773494e-12
5.3166928e-13
4.533473e-11
2.3742524e-11
5.8358621e-11
2.5664937e-11
7.3275664e-11
2.7428366e-11
8.9553139e-11
2.8944208e-11
1.0654888e-10
2.9848934e-11
1.2415539e-10
3.0879848e-11
1.4093047e-10
3.2300824e-11
1.5735984e-10
3.2349572e-11
1.7251665e-10
3.2052338e-11
1.8590761e-10
3.0949877e-11
1.9730585e-10
2.9012347e-11
2.0666708e-10
2.6660541e-11
2.1408748e-10
2.4110854e-11
2.2037521e-10
2.1414416e-11
2.2561749e-10
1.8819947e-11
2.3042492e-10
1.575756e-11
2.349006e-10
1.3142038e-11
2.3866944e-10
1.111655e-11
2.4199749e-10
8.9862151e-12
2.4489601e-10
7.0734438e-12
2.472966e-10
5.3993768e-12
2.4909534e-10
3.9712051e-12
2.5021232e-10
2.7321442e-12
2.5068217e-10
1.6077711e-12
5.7079515e-13
2.3259108e-11
1.7487346e-11
2.9873431e-11
1.9050657e-11
3.7283396e-11
2.0018437e-11
4.5360304e-11
2.0867337e-11
5.3697514e-11
2.1511765e-11
6.2324445e-11
2.2252968e-11
7.1718897e-11
2.2906435e-11
8.1044794e-11
2.3023754e-11
8.9974407e-11
2.3122818e-11
9.7959385e-11
2.2965005e-11
1.0449015e-10
2.2481703e-11
1.0955071e-10
2.1600112e-11
1.1336241e-10
2.0299291e-11
1.1599368e-10
1.8783285e-11
1.1766074e-10
1.7153035e-11
1.1825772e-10
1.5160732e-11
1.1837186e-10
1.3028048e-11
1.1842678e-10
1.1061788e-11
1.1806967e-10
9.3434767e-12
1.1755583e-10
7.5874339e-12
1.1702457e-10
5.9307871e-12
1.1659509e-10
4.4008234e-12
1.1630363e-10
3.0237472e-12
1.1616453e-10
1.7470102e-12
4.6247983e-13
8.2300458e-12
1.5276994e-11
1.0355698e-11
1.6925076e-11
1.2280811e-11
1.8093392e-11
1.4583392e-11
1.8564823e-11
1.685745e-11
1.9237775e-11
1.959919e-11
1.9511297e-11
2.2183039e-11
2.0322657e-11
2.4843592e-11
2.036327e-11
2.7209228e-11
2.0757252e-11
2.9079641e-11
2.109466e-11
3.0676975e-11
2.0884436e-11
3.1620536e-11
2.0656615e-11
3.1843459e-11
2.0076426e-11
3.1398389e-11
1.9228409e-11
3.0395384e-11
1.8156088e-11
2.8723139e-11
1.6833018e-11
2.6410305e-11
1.5340917e-11
2.3759366e-11
1.3712754e-11
2.1173525e-11
1.1929339e-11
1.8578173e-11
1.0182801e-11
1.6205703e-11
8.3032666e-12
1.4132012e-11
6.4745188e-12
1.2497389e-11
4.6583696e-12
1.1306289e-11
2.9381046e-12
1.0599741e-12
2.8414383e-12
1.4491941e-11
3.5196875e-12
1.6246867e-11
4.0838293e-12
1.752929e-11
3.9256977e-12
1.8722992e-11
4.2605209e-12
1.8902987e-11
4.5308948e-12
1.9240955e-11
5.124684e-12
1.9728896e-11
5.4284161e-12
2.0059563e-11
5.4985157e-12
2.0687174e-11
5.6431968e-12
2.0949996e-11
5.5344306e-12
2.0993214e-11
4.9845584e-12
2.1206493e-11
4.2435914e-12
2.0817394e-11
3.2408217e-12
2.0231173e-11
1.9331998e-12
1.9463697e-11
3.1218972e-13
1.8454009e-11
-1.5517373e-12
1.7204818e-11
-3.5766336e-12
1.5737619e-11
-5.6844191e-12
1.4037087e-11
-7.6854229e-12
1.2183763e-11
-9.5585917e-12
1.0176389e-11
-1.114896e-11
8.0648381e-12
-1.2363578e-11
5.872936e-12
-1.3023843e-11
3.5983147e-12
1.207599e-12
3.0114002e-12
1.3647115e-11
3.8315139e-12
1.5426765e-11
4.5370216e-12
1.6823793e-11
5.3279874e-12
1.7932035e-11
5.6225161e-12
1.8608464e-11
6.0654139e-12
1.8798061e-11
6.5430127e-12
1.9251299e-11
7.0291423e-12
1.9573433e-11
7.512192e-12
2.0204121e-11
7.9090663e-12
2.0553115e-11
8.1468693e-12
2.0755401e-11
8.6531791e-12
2.070017e-11
8.8497097e-12
2.0620846e-11
8.8584312e-12
2.022243e-11
8.7418993e-12
1.9580204e-11
8.4921049e-12
1.8703775e-11
8.1478157e-12
1.7549075e-11
7.6108398e-12
1.6274558e-11
6.9680392e-12
1.4679849e-11
6.2952836e-12
1.2856476e-11
5.6405435e-12
1.0831085e-11
5.069843e-12
8.6354935e-12
4.650761e-12
6.2919714e-12
4.4605667e-12
3.7884617e-12
1.191537e-12
4.735438e-12
1.2311054e-11
6.1489297e-12
1.4013267e-11
7.6235279e-12
1.5349188e-11
9.1400288e-12
1.6415527e-11
1.052098e-11
1.7227506e-11
1.1605578e-11
1.7713456e-11
1.3040791e-11
1.7816077e-11
1.45218e-11
1.8092415e-11
1.5934419e-11
1.8791492e-11
1.7372851e-11
1.9114673e-11
1.8846266e-11
1.9281974e-11
2.0241878e-11
1.9304546e-11
2.168127e-11
1.9181441e-11
2.304564e-11
1.8858045e-11
2.4387965e-11
1.8237863e-11
2.5596342e-11
1.749538e-11
2.6522776e-11
1.6622622e-11
2.7355944e-11
1.544137e-11
2.8039347e-11
1.3996424e-11
2.8578079e-11
1.2317722e-11
2.8980008e-11
1.0429132e-11
2.9267373e-11
8.3481045e-12
2.94715e-11
6.0878194e-12
2.9538436e-11
3.7215014e-12
1.3152662e-12
5.6180359e-12
1.0700843e-11
7.4633913e-12
1.2167894e-11
9.4718434e-12
1.334072e-11
1.1502128e-11
1.4385227e-11
1.3506811e-11
1.5222808e-11
1.5415026e-11
1.5805228e-11
1.7126107e-11
1.6104983e-11
1.9025851e-11
1.6192659e-11
2.1292969e-11
1.6524363e-11
2.3476626e-11
1.6931006e-11
2.568251e-11
1.7076082e-11
2.7913472e-11
1.7073576e-11
3.0167086e-11
1.692782e-11
3.2388145e-11
1.6636979e-11
3.4446157e-11
1.6179845e-11
3.6387125e-11
1.5554407e-11
3.8260783e-11
1.4748957e-11
3.9976451e-11
1.3725695e-11
4.1495975e-11
1.2476894e-11
4.2822557e-11
1.0991132e-11
4.3889072e-11
9.36261e-12
4.4703098e-11
7.5340718e-12
4.5262236e-11
5.5286734e-12
4.5580995e-11
3.402735e-12
1.1639566e-12
5.528739e-12
9.0297345e-12
7.4820992e-12
1.021451e-11
9.4793201e-12
1.1343477e-11
1.1541785e-11
1.2322743e-11
1.3608382e-11
1.3156192e-11
1.5671492e-11
1.3742102e-11
1.7688142e-11
1.4088319e-11
1.9631793e-11
1.4248995e-11
2.188122e-11
1.4274926e-11
2.4327899e-11
1.4484317e-11
2.6770192e-11
1.4633781e-11
2.9239622e-11
1.4604141e-11
3.1717193e-11
1.4450243e-11
3.417616e-11
1.4178008e-11
3.6576142e-11
1.377986e-11
3.8889047e-11
1.3241499e-11
4.1097608e-11
1.2540394e-11
4.3153328e-11
1.1669974e-11
4.5005855e-11
1.0624366e-11
4.6596697e-11
9.4002901e-12
4.7947607e-11
8.0117001e-12
4.9022233e-11
6.4594456e-12
4.979452e-11
4.7563865e-12
5.0280647e-11
2.9166085e-12
9.5317587e-13
4.8864321e-12
7.5086072e-12
6.5704259e-12
8.5304871e-12
8.3013184e-12
9.6125584e-12
1.0116596e-11
1.0507442e-11
1.2029356e-11
1.1243411e-11
1.4011679e-11
1.1759759e-11
1.5974076e-11
1.2125905e-11
1.7894805e-11
1.2328251e-11
1.9784953e-11
1.2384764e-11
2.1932381e-11
1.2336877e-11
2.4314792e-11
1.225136e-11
2.6675118e-11
1.2243806e-11
2.9013219e-11
1.2112136e-11
3.134874e-11
1.184248e-11
3.3658502e-11
1.1470094e-11
3.5910098e-11
1.09899e-11
3.8068075e-11
1.0382415e-11
4.0092036e-11
9.6460107e-12
4.194289e-11
8.7735121e-12
4.3579248e-11
7.7639316e-12
4.4975391e-11
6.6155577e-12
4.6099506e-11
5.3353322e-12
4.6909302e-11
3.946591e-12
4.7377994e-11
2.447918e-12
7.4236147e-13
4.0502787e-12
6.2557988e-12
5.344481e-12
7.2362528e-12
6.8001473e-12
8.156863e-12
8.3903862e-12
8.9171765e-12
1.0103429e-11
9.5303442e-12
1.1803551e-11
1.0059615e-11
1.3559042e-11
1.0370394e-11
1.5342072e-11
1.0545203e-11
1.7119895e-11
1.0606925e-11
1.8904413e-11
1.0552345e-11
2.07385e-11
1.0417259e-11
2.2813791e-11
1.0168504e-11
2.4853789e-11
1.0072128e-11
2.692219e-11
9.7740718e-12
2.8964203e-11
9.4280737e-12
3.0963973e-11
8.9901237e-12
3.2889389e-11
8.4569952e-12
3.4705658e-11
7.8297375e-12
3.6379576e-11
7.0995919e-12
3.7878203e-11
6.2653029e-12
3.9167218e-11
5.3265406e-12
4.021825e-11
4.2843001e-12
4.1053717e-11
3.1111239e-12
4.162393e-11
1.8777055e-12
7.1563492e-13
3.2819188e-12
5.2848743e-12
4.3606818e-12
6.1574557e-12
5.6216742e-12
6.8958393e-12
6.9286937e-12
7.6101282e-12
8.3814299e-12
8.0775815e-12
9.9323125e-12
8.5087088e-12
1.1454653e-11
8.8480311e-12
1.2988031e-11
9.0118042e-12
1.4555272e-11
9.0396663e-12
1.6115563e-11
8.9920377e-12
1.7682918e-11
8.8498892e-12
1.9343901e-11
8.507508e-12
2.1054598e-11
8.3614188e-12
2.2773371e-11
8.0552892e-12
2.4481107e-11
7.7203286e-12
2.6173356e-11
7.2978672e-12
2.7809532e-11
6.8208125e-12
2.9360763e-11
6.2785014e-12
3.079978e-11
5.6605706e-12
3.2081704e-11
4.9833747e-12
3.3180697e-11
4.2275448e-12
3.4065852e-11
3.3991439e-12
3.4633878e-11
2.5430958e-12
3.496219e-11
1.549393e-12
4.2228813e-13
2.7425158e-12
4.4847924e-12
3.6977519e-12
5.2021847e-12
4.7474901e-12
5.8460688e-12
5.9492303e-12
6.4083583e-12
7.1606943e-12
6.8660901e-12
8.4629338e-12
7.2064443e-12
9.8335796e-12
7.4773624e-12
1.1218806e-11
7.6265572e-12
1.2584141e-11
7.6743124e-12
1.3973939e-11
7.6022226e-12
1.5364875e-11
7.458938e-12
1.6655325e-11
7.2170442e-12
1.806708e-11
6.9496515e-12
1.9490447e-11
6.631911e-12
2.091643e-11
6.2943364e-12
2.2356659e-11
5.8576294e-12
2.3689584e-11
5.4878807e-12
2.4968618e-11
4.9994616e-12
2.616812e-11
4.461064e-12
2.7240024e-11
3.9114667e-12
2.8179675e-11
3.2878905e-12
2.895068e-11
2.6281364e-12
2.9618378e-11
1.8753955e-12
3.0008733e-11
1.1590377e-12
4.3711319e-13
2.3900057e-12
3.7729263e-12
3.2288142e-12
4.3633418e-12
4.1567242e-12
4.9181272e-12
5.1996683e-12
5.365385e-12
6.2958345e-12
5.7698971e-12
7.4351547e-12
6.0670995e-12
8.6380575e-12
6.2744372e-12
9.8548113e-12
6.4097831e-12
1.1092471e-11
6.4366347e-12
1.2309808e-11
6.384869e-12
1.351106e-11
6.257671e-12
1.4683994e-11
6.0440971e-12
1.585655e-11
5.7770836e-12
1.7013515e-11
5.474936e-12
1.8198482e-11
5.1093611e-12
1.9339599e-11
4.7165044e-12
2.0446147e-11
4.3813259e-12
2.1501477e-11
3.9441258e-12
2.250102e-11
3.4615168e-12
2.337163e-11
3.0408533e-12
2.4109078e-11
2.5504399e-12
2.4715472e-11
2.0217407e-12
2.5119548e-11
1.4713177e-12
2.5383017e-11
8.9556892e-13
3.0038236e-13
2.1118107e-12
3.144208e-12
2.8477972e-12
3.6273226e-12
3.6929123e-12
4.072982e-12
4.5982449e-12
4.4600247e-12
5.5904772e-12
4.7776394e-12
6.5975284e-12
5.0600252e-12
7.6566705e-12
5.2152741e-12
8.7478933e-12
5.3185413e-12
9.8336687e-12
5.3508425e-12
1.0915345e-11
5.3031782e-12
1.1978367e-11
5.1946347e-12
1.3016429e-11
5.0060239e-12
1.4030849e-11
4.7626533e-12
1.5025583e-11
4.4801929e-12
1.5972595e-11
4.1623417e-12
1.686139e-11
3.8277028e-12
1.7754043e-11
3.4886666e-12
1.8655162e-11
3.0430025e-12
1.9418029e-11
2.6986469e-12
2.0107129e-11
2.3517508e-12
2.0700372e-11
1.9571946e-12
2.1180221e-11
1.5418902e-12
2.154204e-11
1.1094987e-12
2.1761691e-11
6.7591765e-13
2.2400329e-13
1.8570161e-12
2.577998e-12
2.5072854e-12
2.9770232e-12
3.2436068e-12
3.3366328e-12
4.0434924e-12
3.6601134e-12
4.8990754e-12
3.9220331e-12
5.8261272e-12
4.1329523e-12
6.7492049e-12
4.2921774e-12
7.7025841e-12
4.365145e-12
8.6637822e-12
4.3896292e-12
9.6141983e-12
4.3527487e-12
1.0554248e-11
4.2545733e-12
1.1461188e-11
4.0990737e-12
1.233381e-11
3.8900229e-12
1.3166702e-11
3.6472931e-12
1.3960302e-11
3.3687354e-12
1.4713173e-11
3.074826e-12
1.5445499e-11
2.7563361e-12
1.6064665e-11
2.4238333e-12
1.664972e-11
2.1135892e-12
1.7196309e-11
1.8051603e-12
1.766589e-11
1.4876118e-12
1.804545e-11
1.1623305e-12
1.8342029e-11
8.1291956e-13