/*--------------------------------*- C++ -*----------------------------------*\
| =========                 |                                                 |
| \\      /  F ield         | OpenFOAM: The Open Source CFD Toolbox           |
|  \\    /   O peration     | Version:  4.0                                   |
|   \\  /    A nd           | Web:      www.OpenFOAM.org                      |
|    \\/     M anipulation  |                                                 |
\*---------------------------------------------------------------------------*/
FoamFile
{
    version     2.0;
    format      ascii;
    class       volVectorField;
    location    "0.67";
    object      U;
}
// * * * * * * * * * * * * * * * * * * * * * * * * * * * * * * * * * * * * * //

dimensions      [0 1 -1 0 0 0 0];

internalField   nonuniform List<vector> 
1740
(
(1.5890462 -0.0012364161 4.1817508e-06)
(1.4817486 -0.014389025 7.2437004e-07)
(1.6029046 -0.0074178164 1.8591547e-08)
(1.6838857 0.0086512097 7.307168e-06)
(1.5869097 -0.025868876 1.4099192e-06)
(1.6064105 -0.022242767 3.0999817e-07)
(1.5791372 0.017849173 1.1211669e-05)
(1.6080414 0.0025016418 2.3679837e-06)
(1.5009092 -0.0052485808 4.5693557e-07)
(1.4987999 -0.006858254 1.3485568e-05)
(1.5749382 0.019147781 3.538592e-06)
(1.6124705 0.012668343 5.2871954e-07)
(1.5955704 -0.024775827 1.4707495e-05)
(1.5655094 0.0013953078 4.2242772e-06)
(1.6130824 0.0044532209 8.2495735e-07)
(1.6086536 -0.0054277303 1.6435978e-05)
(1.5340085 -0.0058970475 5.0198786e-06)
(1.5270018 -0.0068914756 9.7817746e-07)
(1.5187584 0.0046790987 1.6973496e-05)
(1.5544709 -0.0087765485 5.7505973e-06)
(1.5644749 -0.010050063 1.0889648e-06)
(1.6150434 0.0018155691 1.7480658e-05)
(1.6495598 -0.0078371075 6.032058e-06)
(1.5724568 -0.011004689 1.3413036e-06)
(1.6048277 0.0073657906 1.83121e-05)
(1.6275003 0.018148951 7.1905712e-06)
(1.5292105 0.0042050143 1.5330577e-06)
(1.487421 0.0031472921 1.8973701e-05)
(1.484969 0.020187312 7.8217911e-06)
(1.5614567 0.0097561101 1.7078827e-06)
(1.5427248 -0.0073070843 1.9133322e-05)
(1.5468416 -0.024349802 8.2678476e-06)
(1.6401749 -0.01854359 1.914846e-06)
(1.6217536 -0.0074784031 1.94126e-05)
(1.6480849 -0.045497449 8.9354247e-06)
(1.5310165 -0.031401888 2.1307594e-06)
(1.6581675 -0.0043923124 1.9994734e-05)
(1.6936374 -0.0045332969 9.4441037e-06)
(1.4882235 -0.0016071979 2.2877812e-06)
(1.613782 -0.0050112164 2.0580361e-05)
(1.630115 0.027720146 1.006817e-05)
(1.5370405 0.019687895 2.5025164e-06)
(1.6217823 0.0010581757 2.1003086e-05)
(1.5250889 0.012551165 1.0540618e-05)
(1.5657311 0.0068953235 2.69513e-06)
(1.6126989 0.0048295385 2.1334952e-05)
(1.5994824 0.0020160202 1.0878059e-05)
(1.5311508 0.0012141733 2.8476449e-06)
(1.5994223 -0.018856104 2.1619517e-05)
(1.5740717 0.016543593 1.145296e-05)
(1.5684881 0.016605724 3.027381e-06)
(1.7119778 -0.0095870547 2.1282184e-05)
(1.472416 0.0067408528 1.1747312e-05)
(1.649794 0.010411995 3.2603921e-06)
(1.617937 0.023994077 2.1052804e-05)
(1.5182634 0.0015767357 1.2049207e-05)
(1.5848198 -0.0073098852 3.3779606e-06)
(1.5351015 0.0142685 2.1530987e-05)
(1.5577684 0.0049570776 1.2487415e-05)
(1.5666702 -0.0026062419 3.6087878e-06)
(1.5166936 0.0085722131 2.1621378e-05)
(1.5370057 0.0021915897 1.279019e-05)
(1.5373812 -0.0025085425 3.7638834e-06)
(1.4855183 0.0047669049 2.1647132e-05)
(1.5918357 -0.016306565 1.3026168e-05)
(1.5902087 -0.017092081 3.8674454e-06)
(1.5573034 -0.025378395 2.1987258e-05)
(1.691591 -0.032354682 1.3445622e-05)
(1.5827557 -0.017205583 4.0653172e-06)
(1.6995255 -0.017907151 2.2227864e-05)
(1.5977922 -0.011420922 1.3733408e-05)
(1.5017621 0.00024499688 4.228706e-06)
(1.654001 0.018483183 2.2260912e-05)
(1.5428725 0.0077931021 1.4043996e-05)
(1.536189 -0.0029028279 4.367557e-06)
(1.5518023 0.018569635 2.2434293e-05)
(1.5920629 -0.0031680662 1.4294333e-05)
(1.5273892 -0.0053768637 4.5391382e-06)
(1.5545767 -0.00077120868 2.2563555e-05)
(1.6711369 -0.0063861803 1.4552491e-05)
(1.5011313 -0.00039831114 4.6747514e-06)
(1.5230917 -0.0036088177 2.2727997e-05)
(1.6232478 0.00024206821 1.4887699e-05)
(1.4849422 -0.00026934482 4.8367751e-06)
(1.4160712 0.00068994231 2.2311486e-05)
(1.5650854 0.0064418236 1.5090782e-05)
(1.4546572 0.0087101754 4.8421514e-06)
(1.2875007 0.031154143 2.3481899e-05)
(1.3864557 0.11075782 1.5801447e-05)
(1.3634802 0.07085411 5.5107394e-06)
(0.84433433 0.36333572 1.1715674e-05)
(0.82729519 0.94502077 9.9329024e-06)
(0.7570497 1.258511 5.3931338e-06)
(0.22877415 0.11324525 1.4463091e-06)
(0.20113798 0.37181148 3.0693482e-06)
(0.091124354 0.50942496 7.0802234e-07)
(-0.02452296 -0.01238185 1.2246444e-06)
(-0.022427913 -0.024964958 1.6707707e-06)
(-0.017276478 -0.028966282 5.6069593e-07)
(-0.0042463148 -0.0026403994 4.4401658e-07)
(-0.0043591667 -0.0067545173 7.1691833e-07)
(-0.0045303054 -0.0090963271 3.0955751e-07)
(0.00022477289 -0.00021729611 1.1827931e-07)
(0.00024890759 -0.00064931997 2.2903861e-07)
(4.6660882e-05 -0.0010395466 8.5021414e-08)
(0.00055883101 2.545229e-05 2.0838367e-08)
(0.00059630309 5.5604461e-05 3.9851804e-08)
(0.00057114748 1.7546512e-05 -2.9999044e-08)
(0.00051706525 5.1078371e-05 -8.7023066e-09)
(0.00054289841 0.0001340366 -2.6710803e-08)
(0.00053644387 0.00020341509 -7.445874e-08)
(0.00039817859 5.7444359e-05 -1.7496772e-08)
(0.00041639124 0.00014322987 -4.6815136e-08)
(0.0004272093 0.0002251846 -8.4969483e-08)
(0.00028868928 3.6802298e-05 -1.7915361e-08)
(0.00029890573 9.823965e-05 -4.7689795e-08)
(0.000307059 0.00015941878 -7.9369666e-08)
(0.00020292894 1.8449296e-05 -1.4959669e-08)
(0.00020867284 4.7782078e-05 -4.0978158e-08)
(0.00021385494 7.8245252e-05 -6.7334832e-08)
(0.00015566176 5.9119149e-06 -1.1587943e-08)
(0.00015914403 1.5794802e-05 -3.2859353e-08)
(0.00016248217 2.6491882e-05 -5.4404229e-08)
(0.00013419399 1.4330231e-06 -8.900712e-09)
(0.00013629827 4.2105012e-06 -2.5775915e-08)
(0.00013830423 7.8743999e-06 -4.2993281e-08)
(0.00012037381 2.6381064e-06 -7.0111704e-09)
(0.00012162499 6.357856e-06 -2.0218819e-08)
(0.00012256527 1.0213445e-05 -3.3682402e-08)
(0.00010820589 3.8967279e-06 -5.5791461e-09)
(0.00010892072 9.8777764e-06 -1.5852245e-08)
(0.00010913531 1.6471135e-05 -2.6213457e-08)
(9.6004312e-05 3.8770516e-06 -4.392463e-09)
(9.6412915e-05 1.0997344e-05 -1.2320666e-08)
(9.6253193e-05 1.8409071e-05 -2.0192454e-08)
(8.3252912e-05 4.3132699e-06 -3.3910261e-09)
(8.3514562e-05 1.0648578e-05 -9.405209e-09)
(8.3252939e-05 1.7226534e-05 -1.5309582e-08)
(7.0991242e-05 4.1281749e-06 -2.5374156e-09)
(7.1166699e-05 9.4552227e-06 -7.0119545e-09)
(7.0889969e-05 1.4887703e-05 -1.1376973e-08)
(6.0184023e-05 3.3284622e-06 -1.8444179e-09)
(6.029285e-05 7.9793618e-06 -5.1044453e-09)
(6.000042e-05 1.2691161e-05 -8.2722995e-09)
(5.0952751e-05 2.7181947e-06 -1.3095897e-09)
(5.1020617e-05 6.6845646e-06 -3.6323942e-09)
(5.0731519e-05 1.0729771e-05 -5.8845367e-09)
(4.3033915e-05 2.3085245e-06 -9.1304598e-10)
(4.3077914e-05 5.6820431e-06 -2.5327035e-09)
(4.2810071e-05 9.157153e-06 -4.0994763e-09)
(3.6180472e-05 2.0185944e-06 -6.2847421e-10)
(3.6205974e-05 4.9455957e-06 -1.7354604e-09)
(3.596206e-05 8.0755161e-06 -2.8015027e-09)
(3.0219581e-05 1.828098e-06 -4.3019254e-10)
(3.0232422e-05 4.5173527e-06 -1.1732554e-09)
(3.0016259e-05 7.1202718e-06 -1.8816694e-09)
(2.5037104e-05 1.5271536e-06 -2.9340067e-10)
(2.5042366e-05 3.7361837e-06 -7.8506092e-10)
(2.485278e-05 6.0699972e-06 -1.2447466e-09)
(2.054605e-05 1.294569e-06 -2.0038669e-10)
(2.0543849e-05 3.2793988e-06 -5.2127644e-10)
(2.0376173e-05 5.2455287e-06 -8.1246261e-10)
(1.6678449e-05 1.1450415e-06 -1.3782911e-10)
(1.66711e-05 2.7768768e-06 -3.4399825e-10)
(1.6527075e-05 4.4474992e-06 -5.2404925e-10)
(1.3394481e-05 9.2983485e-07 -9.6041428e-11)
(1.3386949e-05 2.3199287e-06 -2.2692026e-10)
(1.3269502e-05 3.751621e-06 -3.3493299e-10)
(1.0660501e-05 7.6739824e-07 -6.9078314e-11)
(1.0653741e-05 1.9445944e-06 -1.5148915e-10)
(1.0556333e-05 3.1300777e-06 -2.1367062e-10)
(8.4351554e-06 6.2172517e-07 -5.2190411e-11)
(8.428294e-06 1.590488e-06 -1.0368184e-10)
(8.3479399e-06 2.5536642e-06 -1.3741641e-10)
(6.6553526e-06 4.929646e-07 -4.1999838e-11)
(6.6489752e-06 1.2711996e-06 -7.3977493e-11)
(6.5863008e-06 2.034137e-06 -9.0357582e-11)
(5.253549e-06 3.7672601e-07 -3.569532e-11)
(5.2479194e-06 9.8685364e-07 -5.5832676e-11)
(5.1974618e-06 1.5791257e-06 -6.1876661e-11)
(4.1790999e-06 2.7545314e-07 -3.1418448e-11)
(4.1740183e-06 7.3420982e-07 -4.4161366e-11)
(4.1327517e-06 1.1774451e-06 -4.453869e-11)
(3.3822463e-06 2.0920869e-07 -2.9138266e-11)
(3.3783938e-06 5.6708534e-07 -3.7190768e-11)
(3.3452454e-06 8.8502118e-07 -3.4430512e-11)
(2.8204958e-06 1.3120642e-07 -2.7912862e-11)
(2.8180481e-06 3.8303713e-07 -3.3319749e-11)
(2.7927661e-06 5.9041569e-07 -2.8924174e-11)
(2.4579341e-06 6.0195757e-08 -2.6797542e-11)
(2.4561838e-06 2.2067702e-07 -3.0776161e-11)
(2.4366228e-06 3.3999585e-07 -2.5759471e-11)
(2.2596266e-06 7.5867646e-09 -2.6100788e-11)
(2.2586251e-06 7.6590411e-08 -2.9021178e-11)
(2.2419625e-06 1.1065028e-07 -2.3847172e-11)
(2.1906744e-06 -2.6103569e-08 -2.5546553e-11)
(2.1902965e-06 -2.3039833e-09 -2.7711549e-11)
(2.1746356e-06 -1.3914466e-08 -2.2631088e-11)
(2.2180585e-06 -4.9926179e-08 -2.4905523e-11)
(2.2182042e-06 -6.4281986e-08 -2.6533846e-11)
(2.2032996e-06 -1.1502834e-07 -2.1745396e-11)
(2.3142367e-06 -6.853896e-08 -2.4307378e-11)
(2.3151393e-06 -1.133478e-07 -2.562726e-11)
(2.3010176e-06 -1.9217832e-07 -2.120151e-11)
(2.4584837e-06 -7.888034e-08 -2.4001584e-11)
(2.4599853e-06 -1.4341672e-07 -2.5140173e-11)
(2.4456436e-06 -2.4059706e-07 -2.0955739e-11)
(2.6383952e-06 -7.9285822e-08 -2.3730129e-11)
(2.6398256e-06 -1.4850661e-07 -2.4786694e-11)
(2.6235541e-06 -2.5612764e-07 -2.0866469e-11)
(2.8417274e-06 -8.2879028e-08 -2.33572e-11)
(2.8430718e-06 -1.630613e-07 -2.4430332e-11)
(2.8248504e-06 -2.8652562e-07 -2.086857e-11)
(3.0519362e-06 -8.6490933e-08 -2.290671e-11)
(3.0534708e-06 -1.7280538e-07 -2.4176267e-11)
(3.033787e-06 -2.7617835e-07 -2.0979775e-11)
(3.2546411e-06 -7.897941e-08 -2.2769258e-11)
(3.2562218e-06 -1.6016953e-07 -2.407167e-11)
(3.2347898e-06 -2.6136269e-07 -2.1093873e-11)
(3.4418014e-06 -6.9976565e-08 -2.2688736e-11)
(3.4435914e-06 -1.449014e-07 -2.4008402e-11)
(3.4199894e-06 -2.4041794e-07 -2.1175495e-11)
(3.606403e-06 -6.1104605e-08 -2.2627523e-11)
(3.6074832e-06 -1.2444139e-07 -2.4062972e-11)
(3.582714e-06 -2.0515393e-07 -2.1302562e-11)
(3.7506581e-06 -5.04733e-08 -2.2711441e-11)
(3.7517127e-06 -1.0103318e-07 -2.4186433e-11)
(3.7260716e-06 -1.6491826e-07 -2.1399913e-11)
(3.8668377e-06 -3.7730436e-08 -2.2809222e-11)
(3.8685475e-06 -7.4635066e-08 -2.4199379e-11)
(3.8414594e-06 -1.2125786e-07 -2.1211258e-11)
(3.936511e-06 -2.3685338e-08 -2.2796301e-11)
(3.9379368e-06 -4.4402556e-08 -2.3660437e-11)
(3.9101213e-06 -7.2123413e-08 -2.0211646e-11)
(3.96069e-06 -7.4422715e-09 -2.22608e-11)
(3.9620522e-06 -1.1132298e-08 -2.1562763e-11)
(3.9339229e-06 -2.1359502e-08 -1.7459712e-11)
(3.9558465e-06 5.2391886e-09 -1.9595087e-11)
(3.9571636e-06 1.4984062e-08 -1.5678179e-11)
(3.9290693e-06 2.1075629e-08 -1.1493766e-11)
(-0.046307498 1.9615165 -3.790928e-07)
(-0.032866933 1.7038814 -3.437037e-06)
(-0.061467088 0.34867176 -2.4341781e-07)
(-0.043004164 0.15704145 -1.0173423e-06)
(-0.014498846 -0.037607248 -2.3211475e-07)
(-0.011192799 -0.040894832 -6.4853014e-07)
(-0.0043858573 -0.01158276 -1.3361893e-07)
(-0.0042475254 -0.013191809 -4.3319811e-07)
(-0.00031194679 -0.001762745 -1.350729e-07)
(-0.00066085785 -0.0026143011 -3.2134506e-07)
(0.00046873974 -0.00012169485 -1.4577828e-07)
(0.00034500541 -0.00032876063 -2.5908683e-07)
(0.00050420953 0.00025237685 -1.4416428e-07)
(0.00045068091 0.00026998836 -2.1613878e-07)
(0.00041615541 0.00030460784 -1.3218578e-07)
(0.00038716168 0.00037561547 -1.8093082e-07)
(0.00030346966 0.00021906063 -1.1419936e-07)
(0.00028742088 0.00027400742 -1.4923527e-07)
(0.00021261042 0.00011309759 -9.4378294e-08)
(0.00020341047 0.00014267661 -1.2076386e-07)
(0.00016252553 3.931321e-05 -7.5779759e-08)
(0.00015778155 5.0587303e-05 -9.6194377e-08)
(0.00013869695 1.3089515e-05 -5.9836692e-08)
(0.00013615642 1.765655e-05 -7.5738365e-08)
(0.00012256055 1.3617858e-05 -4.6784828e-08)
(0.00012080429 1.8499899e-05 -5.9105084e-08)
(0.00010869626 2.258024e-05 -3.6267467e-08)
(0.00010712653 2.8300959e-05 -4.5709482e-08)
(9.55936e-05 2.5966089e-05 -2.7803695e-08)
(9.4190115e-05 3.3256521e-05 -3.4949452e-08)
(8.258636e-05 2.448789e-05 -2.0997513e-08)
(8.1421138e-05 3.1717135e-05 -2.6334251e-08)
(7.0326468e-05 2.1076233e-05 -1.5567856e-08)
(6.9402295e-05 2.754623e-05 -1.9496749e-08)
(5.9498656e-05 1.7767274e-05 -1.1308221e-08)
(5.8746723e-05 2.2999097e-05 -1.4152633e-08)
(5.0256521e-05 1.4912903e-05 -8.0414962e-09)
(4.9595279e-05 1.9125676e-05 -1.0062061e-08)
(4.236867e-05 1.2745938e-05 -5.5999548e-09)
(4.1769744e-05 1.620067e-05 -7.0056481e-09)
(3.5568544e-05 1.1195092e-05 -3.8223951e-09)
(3.5036953e-05 1.4079396e-05 -4.7790371e-09)
(2.9671721e-05 9.6553275e-06 -2.5603791e-09)
(2.9208122e-05 1.227936e-05 -3.1969095e-09)
(2.4550448e-05 8.4400541e-06 -1.685317e-09)
(2.414877e-05 1.0716043e-05 -2.0990651e-09)
(2.0113882e-05 7.245171e-06 -1.0913395e-09)
(1.9770467e-05 9.2820952e-06 -1.3538492e-09)
(1.6306949e-05 6.1898488e-06 -6.9609053e-10)
(1.6020213e-05 7.9286123e-06 -8.5839761e-10)
(1.3090465e-05 5.224623e-06 -4.3799597e-10)
(1.2857844e-05 6.6747511e-06 -5.3553573e-10)
(1.0405608e-05 4.3356028e-06 -2.7281356e-10)
(1.0207101e-05 5.5244824e-06 -3.2926708e-10)
(8.2240357e-06 3.5173928e-06 -1.6929908e-10)
(8.0611975e-06 4.4846507e-06 -2.0017333e-10)
(6.4907391e-06 2.8067268e-06 -1.0572457e-10)
(6.3676966e-06 3.567127e-06 -1.2104887e-10)
(5.1214238e-06 2.195388e-06 -6.743014e-11)
(5.022306e-06 2.7914209e-06 -7.3541819e-11)
(4.0713526e-06 1.6724202e-06 -4.4675577e-11)
(3.9940895e-06 2.1459078e-06 -4.5576321e-11)
(3.2964942e-06 1.1862916e-06 -3.1565254e-11)
(3.2358202e-06 1.471959e-06 -2.9580398e-11)
(2.7555662e-06 7.9070062e-07 -2.4448909e-11)
(2.7074194e-06 9.7265499e-07 -2.0865868e-11)
(2.4072164e-06 4.5356742e-07 -2.0599979e-11)
(2.3686666e-06 5.6946726e-07 -1.6307587e-11)
(2.2168221e-06 1.633738e-07 -1.8538911e-11)
(2.1839162e-06 2.202478e-07 -1.399619e-11)
(2.1513559e-06 -8.4809267e-09 -1.7422968e-11)
(2.1216423e-06 -6.1931656e-09 -1.2898302e-11)
(2.1812048e-06 -1.5571914e-07 -1.6787998e-11)
(2.1530965e-06 -1.9970685e-07 -1.2440272e-11)
(2.2796875e-06 -2.6455398e-07 -1.6531281e-11)
(2.2516822e-06 -3.403317e-07 -1.239715e-11)
(2.4237821e-06 -3.3313208e-07 -1.6534426e-11)
(2.3945993e-06 -4.3180295e-07 -1.2608312e-11)
(2.5990555e-06 -3.6248449e-07 -1.669396e-11)
(2.5670466e-06 -4.8042448e-07 -1.2964622e-11)
(2.796433e-06 -4.0229335e-07 -1.6955454e-11)
(2.7598085e-06 -4.9202387e-07 -1.3393462e-11)
(3.0024121e-06 -3.7916559e-07 -1.7281912e-11)
(2.9611265e-06 -4.8347487e-07 -1.3846752e-11)
(3.2012132e-06 -3.6176479e-07 -1.7574151e-11)
(3.1561004e-06 -4.6421036e-07 -1.4256778e-11)
(3.3829058e-06 -3.3000484e-07 -1.7799093e-11)
(3.3331707e-06 -4.1586167e-07 -1.4594214e-11)
(3.5437927e-06 -2.8450225e-07 -1.7978928e-11)
(3.4918206e-06 -3.6154339e-07 -1.4828492e-11)
(3.685721e-06 -2.2865272e-07 -1.8042009e-11)
(3.6320158e-06 -2.9152683e-07 -1.4885359e-11)
(3.7986265e-06 -1.6727681e-07 -1.772089e-11)
(3.7417006e-06 -2.1254549e-07 -1.4532422e-11)
(3.8661539e-06 -9.9257431e-08 -1.6545895e-11)
(3.8075944e-06 -1.2591297e-07 -1.3389227e-11)
(3.8894236e-06 -3.0303836e-08 -1.3804091e-11)
(3.830098e-06 -3.8634556e-08 -1.0940842e-11)
(3.8845927e-06 2.8372902e-08 -8.623686e-12)
(3.8252814e-06 3.58482e-08 -6.6438819e-12)
(-0.0019227422 1.8792828e-05 -1.199394e-07)
(-0.001902128 3.8804541e-06 -2.8452853e-07)
(-0.0018530014 2.9014943e-05 -4.0292093e-07)
(-0.001790451 1.506463e-05 -4.7808214e-07)
(-0.0017192907 1.2524487e-05 -5.1922062e-07)
(-0.0016413142 -5.3980184e-06 -5.3680891e-07)
(-0.00155743 -2.6339602e-05 -5.3868017e-07)
(-0.001468143 -5.720587e-05 -5.3030906e-07)
(-0.0013736845 -9.789643e-05 -5.1551719e-07)
(-0.001274915 -0.0001479377 -4.969586e-07)
(-0.0011731551 -0.00020673804 -4.7648454e-07)
(-0.0010701772 -0.00027155421 -4.5522729e-07)
(-0.00096768198 -0.00033942699 -4.3375048e-07)
(-0.00086704678 -0.0004079407 -4.1218353e-07)
(-0.00076934608 -0.00047494922 -3.9040087e-07)
(-0.00067546739 -0.00053827081 -3.6813106e-07)
(-0.00058613374 -0.00059755174 -3.4497485e-07)
(-0.00050166861 -0.00065125923 -3.2035506e-07)
(-0.00042188045 -0.00069614852 -2.9362951e-07)
(-0.00034657338 -0.00073162267 -2.640588e-07)
(-0.00027549444 -0.00075707962 -2.3085133e-07)
(-0.00020831653 -0.00077208097 -1.9280085e-07)
(-0.0001446573 -0.00077707986 -1.4888162e-07)
(-8.4338395e-05 -0.00077585857 -9.848443e-08)
(-2.7258075e-05 -0.00073565312 -4.0871203e-08)
(0.00017767308 -9.3997457e-05 -1.3579787e-07)
(0.00018511771 -0.00044601851 -3.1798414e-07)
(0.00019679023 -0.00062699665 -4.4215835e-07)
(0.00021085455 -0.00091973333 -5.1439556e-07)
(0.00023123597 -0.0011508133 -5.4915124e-07)
(0.00025736029 -0.0014048397 -5.6039384e-07)
(0.00028807203 -0.0016594529 -5.5696553e-07)
(0.0003213161 -0.0019380172 -5.4454778e-07)
(0.00034923919 -0.0022394792 -5.2674512e-07)
(0.00036861473 -0.0025405735 -5.0592002e-07)
(0.00037809601 -0.0028391058 -4.8387466e-07)
(0.00037807729 -0.0031321709 -4.6160319e-07)
(0.00036984538 -0.003413682 -4.3954208e-07)
(0.00035476215 -0.0036796772 -4.1766356e-07)
(0.00033400083 -0.0039270141 -3.9575442e-07)
(0.00030874108 -0.0041559543 -3.7351114e-07)
(0.00028014073 -0.0043761156 -3.5058906e-07)
(0.00024912871 -0.004578234 -3.2627347e-07)
(0.00021617391 -0.0047381692 -2.9996898e-07)
(0.00018177752 -0.0048490488 -2.7085918e-07)
(0.00014655414 -0.004908306 -2.3849362e-07)
(0.00011130276 -0.0049183549 -2.0089836e-07)
(7.6632114e-05 -0.0048828049 -1.5675102e-07)
(4.3104216e-05 -0.0047872094 -1.0429141e-07)
(1.1875139e-05 -0.0045705538 -4.508378e-08)
(0.0009470242 -0.00027794574 -1.7400413e-07)
(0.00097270885 -0.001423784 -3.9290883e-07)
(0.0010126764 -0.0018997874 -5.2474492e-07)
(0.0010679792 -0.0027369735 -5.863971e-07)
(0.0011285095 -0.0034187282 -6.0671624e-07)
(0.0011786815 -0.0041416033 -6.0505521e-07)
(0.0012093809 -0.0048728502 -5.9123392e-07)
(0.0012157385 -0.0057834265 -5.7129198e-07)
(0.0012007579 -0.0068415658 -5.4806721e-07)
(0.0011673652 -0.0078311142 -5.2302129e-07)
(0.0011192905 -0.0087020364 -4.9817115e-07)
(0.001059168 -0.0094452372 -4.7415854e-07)
(0.0009901007 -0.010056073 -4.5123359e-07)
(0.00091427918 -0.010542774 -4.2898863e-07)
(0.00083350216 -0.010912875 -4.0703846e-07)
(0.00074953278 -0.011167948 -3.8500836e-07)
(0.00066416601 -0.011300534 -3.629647e-07)
(0.00057858916 -0.011330697 -3.3951218e-07)
(0.00049352899 -0.011287561 -3.1448878e-07)
(0.00040974156 -0.011185754 -2.8710312e-07)
(0.00032787708 -0.011034994 -2.5641342e-07)
(0.00024874704 -0.01084441 -2.2086642e-07)
(0.00017230206 -0.010621198 -1.7833952e-07)
(9.8986137e-05 -0.010336557 -1.2518407e-07)
(3.0405034e-05 -0.0099451899 -6.136179e-08)
(0.003363851 -0.00098904894 -2.5636649e-07)
(0.0033617774 -0.0045492046 -5.3208066e-07)
(0.0033410289 -0.0057598135 -6.6072094e-07)
(0.0032190275 -0.0088406235 -6.9548208e-07)
(0.0030637727 -0.01161648 -6.9029039e-07)
(0.0028681562 -0.014151591 -6.6854112e-07)
(0.002647993 -0.015996832 -6.3939286e-07)
(0.0024114547 -0.017002405 -6.0993194e-07)
(0.0021756215 -0.017329324 -5.8061606e-07)
(0.0019456089 -0.017235581 -5.4971159e-07)
(0.001728763 -0.016825318 -5.2138623e-07)
(0.0015261256 -0.016214967 -4.9519245e-07)
(0.0013371562 -0.015421816 -4.7157384e-07)
(0.0011534904 -0.014500957 -4.4916713e-07)
(0.00098725334 -0.013506085 -4.2742289e-07)
(0.00083872698 -0.012483447 -4.0606224e-07)
(0.00070667872 -0.011472475 -3.8474649e-07)
(0.00058956582 -0.010507104 -3.6292593e-07)
(0.00048596244 -0.0096108156 -3.4007907e-07)
(0.00039398199 -0.0088037441 -3.1551828e-07)
(0.00031160731 -0.0080997105 -2.8835698e-07)
(0.00023632931 -0.007505066 -2.5730224e-07)
(0.00016671231 -0.007020657 -2.2042226e-07)
(0.00010098151 -0.0066048838 -1.7448934e-07)
(3.7349263e-05 -0.006307756 -1.0935564e-07)
(0.011050921 -0.0085660244 -4.4429798e-07)
(0.0087582494 -0.025266685 -7.6768891e-07)
(0.0076220987 -0.027520546 -8.5653963e-07)
(0.0059848998 -0.031712597 -8.4572852e-07)
(0.0046456867 -0.029191699 -8.0713675e-07)
(0.003472297 -0.025492767 -7.5943045e-07)
(0.0024863786 -0.020902234 -7.1194438e-07)
(0.0016965052 -0.016029272 -6.6762107e-07)
(0.0010764315 -0.011137544 -6.2798531e-07)
(0.00059652491 -0.0066023574 -5.9154634e-07)
(0.00022929515 -0.0024955919 -5.5872499e-07)
(-4.0690487e-05 0.0010405183 -5.2824801e-07)
(-0.0002317221 0.0043180827 -5.0374126e-07)
(-0.00035507733 0.0074478668 -4.8055652e-07)
(-0.00043242658 0.010342207 -4.5820608e-07)
(-0.00047066751 0.012857905 -4.3682697e-07)
(-0.00047787648 0.014960521 -4.1607412e-07)
(-0.00046068514 0.016666372 -3.9550593e-07)
(-0.00042439956 0.018002658 -3.7463405e-07)
(-0.00037348565 0.018997891 -3.5289956e-07)
(-0.00031181958 0.019677788 -3.2960777e-07)
(-0.0002432937 0.020069722 -3.0378794e-07)
(-0.00017021111 0.020172009 -2.7388561e-07)
(-9.5822514e-05 0.020041696 -2.4458653e-07)
(-2.1639116e-05 0.019338121 -2.1538804e-07)
(0.013284536 0.024494748 -8.0134113e-07)
(0.0027600052 -7.9623162e-05 -1.1351708e-06)
(0.00035976509 0.049305866 -1.1395941e-06)
(-0.0012940892 0.051967685 -1.0679744e-06)
(-0.0027922662 0.066009213 -9.9167194e-07)
(-0.0039333392 0.076122902 -9.0557916e-07)
(-0.0045697393 0.083163149 -8.2828339e-07)
(-0.004760175 0.089057385 -7.6120663e-07)
(-0.0046734007 0.093401087 -7.0303758e-07)
(-0.0044470249 0.096101479 -6.5338749e-07)
(-0.0041537414 0.097637802 -6.1156995e-07)
(-0.0038018268 0.098099546 -5.6819588e-07)
(-0.0034452117 0.097830874 -5.4364147e-07)
(-0.0030992548 0.09654552 -5.1725198e-07)
(-0.0027509404 0.094384797 -4.9112414e-07)
(-0.0024115158 0.091959312 -4.6777851e-07)
(-0.002090895 0.089330309 -4.4607804e-07)
(-0.00178998 0.086582124 -4.2539332e-07)
(-0.0015080619 0.083791807 -4.0521282e-07)
(-0.001243368 0.081017299 -3.8502866e-07)
(-0.00099357677 0.078295441 -3.6428363e-07)
(-0.00075596695 0.075668799 -3.4229925e-07)
(-0.00052835193 0.073110067 -3.1837761e-07)
(-0.00030894015 0.070806619 -2.9345219e-07)
(-9.2481951e-05 0.067321426 -2.689471e-07)
(-0.0023936812 1.178161 -2.5042203e-06)
(-0.0012301177 0.96365661 -1.989646e-06)
(-0.0013125108 0.86693042 -1.6158086e-06)
(-0.00091516543 0.7738318 -1.3320035e-06)
(-0.00074718589 0.67768404 -1.1211997e-06)
(-0.00062060889 0.58638302 -9.6626642e-07)
(-0.00051224194 0.5080499 -8.5041709e-07)
(-0.00042367061 0.4443824 -7.6394849e-07)
(-0.00035014022 0.39186261 -6.9435443e-07)
(-0.00028897965 0.34702411 -6.414015e-07)
(-0.00023344273 0.30831745 -6.0074025e-07)
(-0.00018853712 0.27500117 -5.6536337e-07)
(-0.00015223052 0.24650823 -5.3615913e-07)
(-0.00012900079 0.22211264 -5.1085374e-07)
(-0.00010745974 0.2011585 -4.8810014e-07)
(-8.9376345e-05 0.18316622 -4.6717389e-07)
(-7.391954e-05 0.16770577 -4.4742737e-07)
(-6.0760596e-05 0.15441471 -4.2843164e-07)
(-4.9472429e-05 0.14299085 -4.0985931e-07)
(-3.9701631e-05 0.133185 -3.91366e-07)
(-3.1093633e-05 0.12478102 -3.7254076e-07)
(-2.321545e-05 0.11763679 -3.5282161e-07)
(-1.5875541e-05 0.11151101 -3.3185854e-07)
(-9.025459e-06 0.10668558 -3.0939824e-07)
(-2.5097358e-06 0.10067011 -2.849438e-07)
(-0.012767708 0.094271655 -1.2391527e-06)
(-0.0023241065 0.10112492 -1.2797067e-06)
(-1.7909829e-05 0.10619189 -1.2349031e-06)
(0.0015968199 0.10735833 -1.1447696e-06)
(0.003044277 0.10896653 -1.042231e-06)
(0.0041360012 0.11031706 -9.4223281e-07)
(0.0047355036 0.11175011 -8.5273968e-07)
(0.0048947056 0.11312209 -7.758456e-07)
(0.0047752296 0.11382352 -6.9482713e-07)
(0.0045108698 0.11380768 -6.5066912e-07)
(0.0042091383 0.11307033 -6.1047782e-07)
(0.0038732583 0.11138064 -5.6787202e-07)
(0.0035037644 0.10885049 -5.3237506e-07)
(0.0031336411 0.10581941 -5.021668e-07)
(0.0027749311 0.10253623 -4.7575635e-07)
(0.0024329643 0.099125683 -4.5211552e-07)
(0.0021100148 0.095670677 -4.3049368e-07)
(0.0018058593 0.09223961 -4.1029415e-07)
(0.0015204979 0.088884252 -3.9097993e-07)
(0.0012525911 0.085642524 -3.7200795e-07)
(0.0010001253 0.08253598 -3.5275839e-07)
(0.0007608372 0.079594147 -3.3242615e-07)
(0.0005320855 0.076779727 -3.1131877e-07)
(0.00031171409 0.074283963 -2.8818438e-07)
(9.3911123e-05 0.070585836 -2.6480323e-07)
(-0.008918221 -0.039069188 -8.751721e-07)
(-0.0075282169 -0.037040395 -9.3986098e-07)
(-0.0061686578 -0.035468859 -9.2681363e-07)
(-0.0048382914 -0.032212913 -8.8040852e-07)
(-0.0036147209 -0.027505402 -8.21741e-07)
(-0.0025550724 -0.022135514 -7.6016317e-07)
(-0.00168036 -0.016570834 -7.0289947e-07)
(-0.00098870314 -0.011104197 -6.5064553e-07)
(-0.00045714475 -0.0061899303 -6.0214571e-07)
(-5.6626206e-05 -0.0018150196 -5.6578865e-07)
(0.00023549203 0.001945554 -5.3252111e-07)
(0.00044052248 0.0056146517 -5.0154325e-07)
(0.00057470628 0.0091340344 -4.7377683e-07)
(0.00065449509 0.012290353 -4.4886253e-07)
(0.00069069683 0.01500825 -4.2619879e-07)
(0.00069216816 0.017285489 -4.0525089e-07)
(0.00066642649 0.019157675 -3.8558201e-07)
(0.00062066589 0.020665638 -3.6669731e-07)
(0.00055886835 0.021829045 -3.4807436e-07)
(0.00048460195 0.022667954 -3.29107e-07)
(0.00040101089 0.023203141 -3.0895388e-07)
(0.00031089435 0.023455295 -2.8616665e-07)
(0.00021710716 0.023433891 -2.6360861e-07)
(0.00012286362 0.023183206 -2.3619939e-07)
(2.9859632e-05 0.022328832 -2.0922186e-07)
(-0.0042278966 -0.014791397 -6.0757791e-07)
(-0.0040807965 -0.017256553 -6.8415616e-07)
(-0.0038524597 -0.020008954 -6.9938193e-07)
(-0.0035816001 -0.02203776 -6.8264663e-07)
(-0.0032800672 -0.023355414 -6.5276589e-07)
(-0.0029661719 -0.023859891 -6.2029488e-07)
(-0.0026611102 -0.023709984 -5.805041e-07)
(-0.0023650715 -0.023122542 -5.4337389e-07)
(-0.0020856808 -0.022254053 -5.0960472e-07)
(-0.0018295213 -0.021169008 -4.8070036e-07)
(-0.0015992845 -0.019954036 -4.5441988e-07)
(-0.0013803941 -0.01859466 -4.301833e-07)
(-0.0011806676 -0.017158716 -4.0794742e-07)
(-0.0010028678 -0.015701183 -3.875156e-07)
(-0.00084647603 -0.014260184 -3.6834947e-07)
(-0.00070996288 -0.012870944 -3.5002817e-07)
(-0.00059146333 -0.011573417 -3.3240126e-07)
(-0.00048771236 -0.010399712 -3.148832e-07)
(-0.00039743702 -0.0093557741 -2.9691571e-07)
(-0.00031893668 -0.0084428264 -2.7782466e-07)
(-0.00025033895 -0.0076616486 -2.5668338e-07)
(-0.00018962892 -0.0070121464 -2.322292e-07)
(-0.00013476626 -0.0064911753 -2.0315721e-07)
(-8.3401466e-05 -0.0060587275 -1.6383401e-07)
(-3.2694631e-05 -0.0057668328 -1.0493853e-07)
(-0.00093398204 -0.0035065142 -4.4867678e-07)
(-0.0011251942 -0.004379346 -5.1972185e-07)
(-0.0012630936 -0.0052706981 -5.479278e-07)
(-0.0013629244 -0.006095271 -5.4927288e-07)
(-0.0014243313 -0.0069480639 -5.3562964e-07)
(-0.001449018 -0.0080129414 -5.1425037e-07)
(-0.0014436776 -0.009216496 -4.8792506e-07)
(-0.0014114503 -0.010291824 -4.6115006e-07)
(-0.001357253 -0.011212103 -4.3578915e-07)
(-0.0012878621 -0.011965448 -4.1257184e-07)
(-0.0012086296 -0.012566391 -3.9108062e-07)
(-0.0011225787 -0.013016595 -3.7103094e-07)
(-0.0010318921 -0.013322885 -3.5226045e-07)
(-0.00093904422 -0.013474083 -3.3497111e-07)
(-0.00084577668 -0.013502191 -3.181812e-07)
(-0.0007529982 -0.013444513 -3.0202204e-07)
(-0.00066205337 -0.013323416 -2.8579801e-07)
(-0.00057419508 -0.013153493 -2.6918299e-07)
(-0.00048884885 -0.012945015 -2.5165071e-07)
(-0.00040582295 -0.012705604 -2.3253394e-07)
(-0.00032506739 -0.012441252 -2.1081482e-07)
(-0.00024664438 -0.012157689 -1.8501218e-07)
(-0.00017079403 -0.011858514 -1.5294403e-07)
(-9.803865e-05 -0.011506289 -1.1009125e-07)
(-3.0333554e-05 -0.011060857 -5.5735033e-08)
(0.0002089453 -0.00060700629 -3.4713797e-07)
(9.6228134e-05 -0.00094855212 -4.0450627e-07)
(-3.6486683e-06 -0.0013419784 -4.345257e-07)
(-9.3506928e-05 -0.0017234868 -4.4443136e-07)
(-0.00017914605 -0.0021054555 -4.4102905e-07)
(-0.00026130708 -0.0025115584 -4.293917e-07)
(-0.0003301388 -0.0029346433 -4.1283688e-07)
(-0.00038267148 -0.0033460893 -3.9424757e-07)
(-0.00041818538 -0.0037439761 -3.7537195e-07)
(-0.0004378462 -0.0041210293 -3.5707874e-07)
(-0.00044455128 -0.0044741885 -3.3957934e-07)
(-0.00044097446 -0.0048029721 -3.2288848e-07)
(-0.00042966512 -0.0051203444 -3.0696483e-07)
(-0.00041088653 -0.0054454609 -2.9175782e-07)
(-0.00038615662 -0.0057618834 -2.7693065e-07)
(-0.0003565109 -0.0060340392 -2.6226679e-07)
(-0.0003228791 -0.0062543156 -2.4737298e-07)
(-0.00028645059 -0.0064206645 -2.3185813e-07)
(-0.00024796972 -0.0065331396 -2.15216e-07)
(-0.00020812916 -0.0065917382 -1.9701446e-07)
(-0.00016754829 -0.006598154 -1.7629091e-07)
(-0.00012688319 -0.0065555196 -1.5166825e-07)
(-8.6903145e-05 -0.0064688473 -1.2169136e-07)
(-4.8418595e-05 -0.0063206454 -8.3861619e-08)
(-1.3168838e-05 -0.0060381956 -3.8645407e-08)
(0.00038687426 0.00026135503 -2.7692259e-07)
(0.00033276934 0.00022359974 -3.2093516e-07)
(0.00028920982 0.00015931855 -3.4794608e-07)
(0.00025207606 7.1998963e-05 -3.6077787e-07)
(0.00021430645 -3.4273127e-05 -3.630203e-07)
(0.00017604719 -0.0001485954 -3.5792594e-07)
(0.00013758147 -0.00027550485 -3.4808045e-07)
(9.9559444e-05 -0.00041186442 -3.3557427e-07)
(6.3777892e-05 -0.00055483681 -3.2185863e-07)
(3.2528765e-05 -0.00069943176 -3.0780499e-07)
(6.7874884e-06 -0.00084208976 -2.9384119e-07)
(-1.3685078e-05 -0.00097775995 -2.8015266e-07)
(-2.874778e-05 -0.0011017252 -2.6679348e-07)
(-4.0373376e-05 -0.0012161864 -2.5372383e-07)
(-4.7944948e-05 -0.0013208681 -2.4077949e-07)
(-5.1748769e-05 -0.0014117885 -2.2775495e-07)
(-5.2302973e-05 -0.0014886651 -2.1436899e-07)
(-5.0239895e-05 -0.0015509867 -2.0029473e-07)
(-4.6150057e-05 -0.0015982395 -1.8514148e-07)
(-4.0545147e-05 -0.0016298977 -1.6847322e-07)
(-3.3867888e-05 -0.0016457594 -1.4976189e-07)
(-2.6507382e-05 -0.0016462909 -1.282161e-07)
(-1.8766746e-05 -0.0016340419 -1.0298572e-07)
(-1.0771759e-05 -0.001608286 -7.3114199e-08)
(-2.6917343e-06 -0.0015281084 -3.6808599e-08)
(0.00034813329 0.0004330415 -2.2387116e-07)
(0.00031105991 0.00047977213 -2.5710243e-07)
(0.00027863614 0.00051762209 -2.7977586e-07)
(0.00024969222 0.00053989431 -2.9269037e-07)