/*--------------------------------*- C++ -*----------------------------------*\
| =========                 |                                                 |
| \\      /  F ield         | OpenFOAM: The Open Source CFD Toolbox           |
|  \\    /   O peration     | Version:  4.0                                   |
|   \\  /    A nd           | Web:      www.OpenFOAM.org                      |
|    \\/     M anipulation  |                                                 |
\*---------------------------------------------------------------------------*/
FoamFile
{
    version     2.0;
    format      ascii;
    class       volScalarField;
    location    "0.35";
    object      omega;
}
// * * * * * * * * * * * * * * * * * * * * * * * * * * * * * * * * * * * * * //

dimensions      [0 0 -1 0 0 0 0];

internalField   nonuniform List<scalar> 
1740
(
66.011138
714.67525
14919.373
173.57414
1507.7459
15028.973
289.35468
1956.7225
15113.28
396.6253
2215.1921
15198.004
502.1505
2495.2206
15271.45
613.33629
2766.2478
15325.309
712.64809
3000.2885
15377.581
825.72063
3268.8434
15418.139
940.0973
3439.8675
15444.296
1035.8115
3517.5415
15467.421
1143.7569
3621.6991
15495.401
1254.6305
3778.4096
15517.385
1353.0959
3897.2903
15527.312
1442.4017
3911.8561
15536.395
1502.1839
3928.9945
15543.461
1547.7789
4007.0422
15550.292
1603.7157
4056.0844
15554.821
1661.0513
4118.5737
15555.397
1707.7079
4125.865
15558.282
1744.8787
4127.9213
15559.664
1782.4052
4126.8388
15564.496
1838.0335
4108.8956
15566.806
1860.8169
4087.3265
15566.988
1880.7148
4088.6931
15569.414
1894.5268
4125.5202
15569.194
1910.1204
4117.3382
15573.606
1935.693
4204.3724
15573.889
1988.4425
4305.7022
15566.943
2015.3126
4253.0882
15555.208
2131.9482
4300.715
15495.265
3201.2327
4555.957
10690.172
3319.3219
4217.4293
5890.8442
1569.8914
1856.6654
2149.6697
825.69128
900.58586
958.66003
478.16575
496.20196
506.34193
300.6776
304.35655
304.50274
201.67069
201.97217
200.54047
142.58921
142.25735
141.00534
105.55996
105.22791
104.38749
81.498001
81.26695
80.749256
65.464365
65.319058
65.008632
54.646158
54.557706
54.372147
47.374098
47.320652
47.208934
42.596428
42.56421
42.496497
39.58989
39.570787
39.529997
37.814019
37.803405
37.779729
36.849848
36.844964
36.832267
36.352348
36.349126
36.340342
36.011592
36.008534
36.001159
35.740206
35.737762
35.731823
35.501535
35.499849
35.495317
35.276414
35.275603
35.272483
35.058282
35.058307
35.056478
34.850427
34.85102
34.850141
34.66096
34.661769
34.661424
34.496724
34.497495
34.497365
34.360135
34.360754
34.360666
34.249524
34.249972
34.249859
34.160954
34.161253
34.161101
34.089855
34.09004
34.089855
34.031944
34.032046
34.031839
33.983516
33.98356
33.983341
33.941327
33.941331
33.94111
33.902217
33.902196
33.901977
33.86252
33.862482
33.862272
33.817199
33.817152
33.816953
33.75861
33.758559
33.758376
33.674723
33.674674
33.674508
33.546648
33.546603
33.54646
33.345303
33.345266
33.345152
33.027206
33.027181
33.027101
32.529538
32.52953
32.529494
31.765057
31.765073
31.765094
30.618036
30.618084
30.61818
28.943439
28.943528
28.943727
26.574661
26.574822
26.575187
23.339043
23.339365
23.340061
19.090869
19.091613
19.093102
13.747106
13.748748
13.751824
7.2444484
7.2466733
7.2506937
13479.022
13533.934
5976.203
5318.9239
2078.0589
1877.092
922.07314
853.13745
490.03918
463.28917
296.40808
284.55234
196.24588
190.51803
138.64819
135.71388
103.0687
101.49747
79.999428
79.128566
64.575295
64.076949
54.116472
53.821841
47.054733
46.874744
42.401834
42.288814
39.471569
39.399444
37.744166
37.698
36.811127
36.781477
36.325194
36.303169
35.988813
35.970761
35.721676
35.706489
35.487026
35.474069
35.265866
35.254817
35.051361
35.04206
34.846269
34.838597
34.658499
34.65231
34.495125
34.490227
34.358918
34.355087
34.248467
34.245481
34.159971
34.157632
34.088918
34.087064
34.031048
34.029555
33.982662
33.981438
33.940519
33.939498
33.901458
33.900594
33.861813
33.861073
33.816547
33.81591
33.758018
33.757469
33.674198
33.673729
33.546198
33.545806
33.344942
33.34463
33.026953
33.02673
32.52942
32.529301
31.765113
31.765124
30.61832
30.6185
28.944034
28.944447
26.57574
26.576488
23.341006
23.342232
19.0947
19.096522
13.754352
13.756655
7.253435
7.2554017
12058.192
2043.3159
696.51618
369.14583
281.35367
257.13112
249.98666
246.93297
244.5706
242.15441
239.60442
236.82756
233.95523
230.99999
227.92827
224.67686
221.13393
217.1056
212.2617
206.05075
197.55357
185.21771
166.3412
135.87494
82.132882
12058.133
2037.5065
697.79415
374.75116
283.29528
254.45576
242.91447
235.69445
229.58034
223.77581
218.08603
212.44845
206.92498
201.49755
196.14477
190.83887
185.52428
180.09828
174.37511
168.03358
160.52297
150.8756
137.29134
116.06892
77.803132
12058.18
2030.5261
718.6397
430.74134
359.38643
332.4645
315.10238
300.60838
287.3736
274.82546
262.84716
251.26221
240.28389
229.81755
219.80172
210.22263
201.05966
192.26705
183.74494
175.31547
166.6651
157.21129
145.74568
129.30716
98.581876
12058.527
2031.7664
817.50329
608.71441
549.8707
512.70308
479.71695
449.22823
421.27121
394.9816
370.32467
347.33248
326.13708
306.28485
287.63154
270.18323
253.92744
238.83124
224.84022
211.86323
199.75945
188.30167
177.04652
164.80263
146.27238
12061.527
2150.6004
1231.5671
1077.5676
988.89392
906.18881
827.8314
756.52412
692.71464
633.7085
579.4432
529.88355
485.83479
445.59419
408.65491
375.02117
344.55569
317.08539
292.43113
270.39889
250.79284
233.43784
218.21948
205.30932
195.78535
12087.182
3814.8643
2803.9001
2400.1267
2092.3391
1823.9067
1588.9909
1386.0575
1210.4238
1058.8443
928.2639
815.85959
719.09854
635.55889
563.31858
500.8699
446.91807
400.33471
360.14653
325.52117
295.75224
270.26667
248.66094
231.03191
218.61881
10354.299
7894.2625
6089.615
4781.1119
3812.7313
3078.6627
2510.3176
2063.7525
1709.4751
1426.2693
1198.2944
1013.6472
863.34919
740.47518
639.54387
556.20566
487.02681
429.31095
380.94585
340.27481
305.99665
277.10901
252.89883
233.2483
219.44254
4081.3345
3301.9219
2839.1629
2464.1535
2145.2017
1864.9842
1620.5965
1409.3507
1228.2703
1073.0543
939.90069
825.393
726.56014
641.24328
567.60328
504.04931
449.20846
401.90614
361.14197
326.06675
295.96402
270.25517
248.52713
230.8581
218.44428
1591.8326
1397.9784
1268.1353
1160.1458
1058.124
961.02199
872.48852
793.56385
721.64631
656.46914
598.1988
546.63521
499.29003
456.02986
416.72812
381.19302
349.19364
320.49425
294.86509
272.08889
251.96673
234.32931
219.06424
206.3238
197.07666
770.63958
707.48201
661.3202
620.80484
580.50411
540.41334
502.87275
468.27037
436.19199
406.6099
379.57363
354.80573
331.62333
309.92535
289.69979
270.93344
253.59572
237.64358
223.02531
209.67566
197.49876
186.32482
175.7785
164.77588
148.418
433.97282
410.16182
391.42949
374.202
356.45973
338.17631
320.31686
303.31239
287.24322
272.16252
258.08114
244.87452
232.33461
220.41475
209.14379
198.5171
188.52651
179.14999
170.34157
162.00782
153.95243
145.73972
136.32476
122.90167
96.322992
272.25388
261.84
253.17206
244.99613
236.46999
227.5256
218.52629
209.73573
201.27347
193.19699
185.51478
178.17732
171.11095
164.29097
157.72851
151.42625
145.37414
139.54075
133.8576
128.18635
122.24904
115.47448
106.63737
92.916538
66.725939
184.70815
179.62638
175.22353
171.00332
166.5912
161.91854
157.12073
152.33867
147.66146
143.13457
138.76807
134.54267
130.42801
126.40757
122.47551
118.6211
114.8204
111.02631
107.15172
103.03877
98.400794
92.709925
84.964978
73.124132
51.833149
132.76582
130.11635
127.74086
125.43744
123.03227
120.47564
117.81518
115.1212
112.44791
109.82651
107.26642
104.7597
102.29054
99.844091
97.405945
94.955058
92.456507
89.852354
87.047823
83.889456
80.13196
75.394943
69.140315
60.852739
50.597809
99.920405
98.470748
97.136837
95.830211
94.468251
93.018877
91.497601
89.937526
88.369222
86.812024
85.272493
83.746357
82.222399
80.685606
79.116496
77.486985
75.754795
73.856155
71.696187
69.136809
65.98552
62.000635
56.969545
51.045928
45.784692
78.249778
77.424164
76.648041
75.881244
75.083173
74.234131
73.337806
72.409246
71.464589
70.514729
69.562961
68.605355
67.631731
66.626277
65.566369
64.419409
63.13841
61.6565
59.880571
57.685274
54.911567
51.382324
46.970101
41.798588
35.791364
63.568402
63.079854
62.611205
62.144027
61.657784
61.140978
60.593241
60.020932
59.431923
58.831478
58.220286
57.593701
56.941382
56.246641
55.484746
54.620027
53.60205
52.361121
50.803447
48.80665
46.216451
42.843245
38.442163
32.57673
23.613638
53.515951
53.214606
52.919
52.620752
52.309547
51.978764
51.62705
51.256708
50.8711
50.472096
50.058511
49.624884
49.160464
48.647787
48.060553
47.360653
46.494465
45.388601
43.945365
42.037857
39.50326
36.127051
31.590237
25.271588
15.488413
46.683389
46.489094
46.293234
46.092194
45.880905
45.655687
45.415289
45.160297
44.891724
44.609596
44.311519
43.991438
43.638224
43.23378
42.750537
42.148205
41.369898
40.337816
38.948702
37.069076
34.529027
31.109334
26.50525
20.2157
11.208694
42.164849
42.034303
41.898227
41.755154
41.602777
41.439211
41.263597
41.075889
40.876067
40.663144
40.434076
40.182457
39.896889
39.558774
39.139465
38.596667
37.870348
36.878367
35.512235
33.633539
31.071519
27.621117
23.03773
17.021463
9.1358771
39.317038
39.226334
39.127899
39.021176
38.905225
38.77923
38.642751
38.495584
38.337252
38.166306
37.979345
37.76975
37.52594
37.228964
36.849323
36.343013
35.647327
34.676677
33.318949
31.4335
28.853046
25.392544
20.868874
15.144527
8.1575354
37.642283
37.577461
37.503611
37.420517
37.327879
37.225474
37.113162
36.99072
36.857478
36.711734
36.549861
36.36508
36.145639
35.872354
35.515198
35.028823
34.348528
33.386636
32.029472
30.13642
27.544445
24.083987
19.612367
14.083949
7.6157636
36.743046
36.695223
36.63769
36.570289
36.492972
36.40576
36.308643
36.201374
36.083138
35.952016
35.804163
35.632572
35.425228
35.162519
34.814405
34.334402
33.656556
32.692674
31.329492
29.428263
26.828677
23.368452
18.921231
13.468587
7.2254225
36.273666
36.236009
36.189763
36.134636
36.070428
35.996959
35.913956
35.82085
35.716437
35.598355
35.462272
35.30063
35.100745
34.841879
34.494335
34.011086
33.325963
32.351388
30.975473
29.064795
26.459545
22.998199
18.557489
13.119806
6.8760351
35.946272
35.914665
35.875405
35.82809
35.772408
35.708065
35.634655
35.55146
35.45712
35.349136
35.223113
35.071611
34.882394
34.635778
34.30111
33.833585
33.163934
32.192606
30.803243
28.884041
26.275992
22.815129
18.378065
12.948827
6.7443571
35.685446
35.657802
35.622955
35.580444
35.529898
35.470963
35.403179
35.32579
35.237462
35.135838
35.016829
34.873455
34.693995
34.459167
34.138126
33.686466
33.035054
32.086674
30.711273
28.790863
26.184972
22.728156
18.297044
12.876944
6.6626263
35.455565
35.43069
35.398804
35.359428
35.312201
35.256803
35.192851
35.119752
35.036437
34.94093
34.829575
34.695762
34.527938
34.306739
34.001227
33.564515
32.929871
32.000995
30.651381
28.736426
26.137779
22.688566
18.265706
12.857867
6.7030833
35.238418
35.215772
35.186246
35.149423
35.105047
35.052962
34.993014
34.924907
34.847918
34.760393
34.658888
34.536792
34.382292
34.175547
33.88502
33.462972
32.843033
31.929725
30.598733
28.698326
26.110889
22.671904
18.260293
12.868982
6.7370963
35.027672
35.007269
34.98029
34.946459
34.905707
34.858107
34.803761
34.742618
34.674147
34.596766
34.506929
34.397735
34.256923
34.06414
33.787374
33.378542
32.770996
31.870237
30.553117
28.66876
26.09323
22.66487
18.264065
12.884257
6.7600817
34.826302
34.808497
34.784743
34.75492
34.719134
34.677627
34.630642
34.578202
34.519752
34.453561
34.375807
34.279213
34.151103
33.970748
33.705914
33.308676
32.710904
31.820221
30.514374
28.64402
26.07932
22.660639
18.269999
12.903617
6.7968733
34.642157
34.627267
34.607321
34.58231
34.552429
34.51797
34.479169
34.435971
34.387659
34.332259
34.265648
34.180219
34.062984
33.89297
33.637818
33.249607
32.660124
31.777536
30.480813
28.622051
26.066493
22.655733
18.272916
12.918889
6.8889471
34.482107
34.47014
34.454101
34.434029
34.410122
34.382624
34.351672
34.317055
34.277853
34.231851
34.17467
34.098455
33.990009
33.828215
33.580666
33.19953
32.616922
31.740543
30.451114
28.601826
26.053884
22.649651
18.272423
12.920476
6.9033413
34.348741
34.3394
34.326901
34.311286
34.292708
34.271318
34.24712
34.219741
34.188067
34.149687
34.100025
34.031052
33.929435
33.773974
33.532252
33.156515
32.579072
31.707855
30.424355
28.582884
26.04152
22.643589
18.273509
12.928043
6.8936912
34.24058
34.233404
34.223832
34.21189
34.197668
34.181221
34.162427
34.140769
34.114981
34.082497
34.038601
33.975145
33.878704
33.728031
33.490716
33.119086
32.545628
31.678601
30.399936
28.565009
26.029533
22.638128
18.277454
12.945338
6.9128071
34.15385
34.148359
34.141066
34.131975
34.121119
34.10847
34.093803
34.076488
34.055143
34.027092
33.987516
33.928183
33.83561
33.688522
33.454525
33.086029
32.515706
31.652198
30.377446
28.548102
26.017976
22.633033
18.282759
12.968946
6.9557023
34.084123
34.079899
34.074316
34.067361
34.05902
34.0492
34.037601
34.023508
34.005454
33.980683
33.944304
33.888026
33.798325
33.653912
33.422412
33.056312
32.488445
31.627731
30.356483
28.532091
26.006869
22.627577
18.285076
12.985943
7.0230075
34.027236
34.023947
34.019624
34.014239
34.007746
34.000004
33.990657
33.978929
33.963293
33.940934
33.906911
33.852891
33.765322
33.622905
33.393292
33.029042
32.463144
31.604787
30.336714
28.516878
25.99643
22.622616
18.286513
12.993868
7.0362026
33.979579
33.976977
33.973577
33.969341
33.964199
33.957977
33.950278
33.940284
33.926424
33.905843
33.873559
33.821212
33.735227
33.594306
33.366125
33.003321
32.439038
31.582742
30.317647
28.502043
25.986372
22.618138
18.287869
12.998023
7.0607016
33.937981
33.935886
33.933165
33.929774
33.925624
33.920519
33.914032
33.905316
33.892768
33.873502
33.84251
33.791406
33.706605
33.566808
33.339721
32.978057
32.415109
31.560607
30.29817
28.486608
25.975647
22.61303
18.288773
13.002592
7.0533231
33.899336
33.897621
33.895407
33.892643
33.889229
33.884952
33.879367
33.871602
33.860032
33.841749
33.811723
33.761551
33.677637
33.538687
33.312439
32.951675
32.389836
31.536896
30.27685
28.469014
25.962536
22.605474
18.287824
13.0082
7.0614701
33.860017
33.858592
33.856762
33.854471
33.851614
33.847962
33.843056
33.836008
33.825178
33.807636
33.778339
33.728869
33.645624
33.507314
33.281706
32.921657
32.36074
31.509158
30.25125
28.44679
25.94451
22.592926
18.282532
13.011781
7.0716779
33.815014
33.813818
33.812287
33.810363
33.807933
33.804762
33.800379
33.793883
33.78362
33.766647
33.737907
33.68897
33.606229
33.468402
33.243284
32.883803
32.323661
31.473279
30.217312
28.415963
25.917723
22.571796
18.269966
13.012199
7.0856199
33.756706
33.755697
33.754406
33.752775
33.750685
33.747895
33.743924
33.737863
33.728044
33.711516
33.683207
33.634679
33.552321
33.414858
33.190119
32.831103
32.271648
31.422392
30.168317
28.370076
25.876115
22.536513
18.244417
13.000031
7.0548761
33.673083
33.672233
33.671144
33.669757
33.667949
33.665472
33.661838
33.656131
33.646672
33.6305
33.602533
33.554325
33.472263
33.335085
33.110658
32.752066
32.193302
31.34526
30.093306
28.298637
25.80993
22.478342
18.198605
12.97157
7.0428771
33.54527
33.544564
33.543656
33.542484
33.540922
33.538715
33.535373
33.529967
33.520814
33.50494
33.477256
33.429311
33.347494
33.210565
32.986446
32.628336
32.070435
31.223978
29.974849
28.184994
25.703661
22.383265
18.119918
12.913728
6.9885144
33.344204
33.343639
33.342905
33.341935
33.340602
33.338646
33.335569
33.330439
33.321561
33.305955
33.278526
33.230822
33.149246
33.012597
32.788889
32.431492
31.874914
31.030892
29.786081
28.003527
25.533591
22.230461
17.992431
12.822894
6.9502636
33.026421
33.026005
33.025449
33.024685
33.02358
33.021873
33.019059
33.014197
33.00559
32.99025
32.963082
32.915646
32.834377
32.698152
32.475137
32.118984
31.564682
30.724743
29.487006
27.7162
25.264608
21.989022
17.790605
12.675283
6.8714473
32.529129
32.52888
32.528519
32.527977
32.527117
32.525671
32.523131
32.518554
32.510235
32.495192
32.468341
32.421272
32.340492
32.205023
31.983294
31.62942
31.079157
30.24623
29.020291
27.268662
24.846656
21.614821
17.478099
12.445161
6.7433025
31.765116
31.765067
31.764934
31.764644
31.764056
31.762898
31.760658
31.756395
31.74841
31.733736
31.707322
31.660834
31.580917
31.446848
31.227508
30.877768
30.334598
29.513593
28.307109
26.586591
24.211699
21.048462
17.006895
12.098662
6.5499265
30.618706
30.618907
30.619054
30.619064
30.618789
30.617954
30.61605
30.612146
30.604567
30.590387
30.564634
30.519117
30.440736
30.309209
30.094165
29.751687
29.220641
28.419461
27.244552
25.573363
23.271844
20.21384
16.316282
11.595411
6.2969449
28.944945
28.945479
28.945985
28.946368
28.946467
28.946002
28.944475
28.940986
28.933917
28.920431
28.895706
28.851813
28.776092
28.648995
28.441353
28.111142
27.600119
26.830986
25.706295
24.110968
21.920631
19.019946
15.335448
10.8873
5.9097468
26.577394
26.578372
26.579329
26.580158
26.58068
26.580609
26.579468
26.576425
26.569971
26.557428
26.534239
26.492928
26.421562
26.301769
26.106264
25.795898
25.316648
24.597282
23.548688
22.066484
20.039317
17.366034
13.985496
9.9220675
5.3895134
23.343684
23.345211
23.346702
23.348019
23.348985
23.349307
23.348546
23.345982
23.340285
23.329017
23.308034
23.270619
23.205967
23.09751
22.920834
22.640981
22.209797
21.564459
20.627223
19.307853
17.511621
15.154962
12.191668
8.6515076
4.7265031
19.098573
19.100679
19.102758
19.104507
19.105832
19.106509
19.106105
19.104086
19.099414
19.089833
19.071747
19.039872
18.984997
18.893141
18.744205
18.509129
18.147149
17.60672
16.825361
15.730619
14.247713
12.313221
9.8966928
7.0308187
3.8720424
13.759062
13.761632
13.764445
13.766476
13.767956
13.770024
13.769961
13.768698
13.767027
13.759501
13.743118
13.718647
13.678636
13.610009
13.500057
13.32777
13.060346
12.660728
12.086734
11.287138
10.209654
8.8121154
7.0784655
5.0396644
2.8076406
7.2573384
7.2597518
7.2628947
7.2648031
7.2672084
7.2950058
7.2963112
7.2975271
7.3197887
7.3146737
7.2872167
7.2724966
7.2757544
7.2395158
7.1811036
7.0908869
6.9459632
6.7258292
6.4145159
5.9842107
5.4071529
4.6622987
3.7441136
2.6740508
1.518855
)
;

boundaryField
{
    Walls
    {
        Cmu             0.09;
        kappa           0.41;
        E               9.8;
        beta1           0.075;
        type            omegaWallFunction;
        value           nonuniform List<scalar> 
38
(
12058.192
12058.133
12058.18
12058.527
12061.527
12087.182
13479.022
13533.934
14919.373
15028.973
15113.28
15198.004
15271.45
15325.309
15377.581
15418.139
15444.296
15467.421
15495.401
15517.385
15527.312
15536.395
15543.461
15550.292
15554.821
15555.397
15558.282
15559.664
15564.496
15566.806
15566.988
15569.414
15569.194
15573.606
15573.889
15566.943
15555.208
15495.265
)
;
    }
    Inlet
    {
        type            turbulentMixingLengthDissipationRateInlet;
        mixingLength    0.03;
        phi             phi;
        k               k;
        value           nonuniform List<scalar> 3(0.0036111891 0.0045920485 0.0047174019);
    }
    Outlet
    {
        type            inletOutlet;
        inletValue      uniform 1e-05;
        value           nonuniform List<scalar> 
86
(
1e-05
1e-05
1e-05
1e-05
1e-05
1e-05
1e-05
1e-05
1e-05
1e-05
1e-05
1e-05
1e-05
1e-05
1e-05
1e-05
1e-05
1e-05
1e-05
1e-05
1e-05
1e-05
1e-05
1e-05
1e-05
1e-05
1e-05
1e-05
1e-05
1e-05
219.44254
218.44428
197.07666
1e-05
1e-05
1e-05
1e-05
1e-05
45.784692
1e-05
1e-05
1e-05
1e-05
1e-05
1e-05
1e-05
7.2254225
6.8760351
6.7443571
6.6626263
6.7030833
6.7370963
6.7600817
6.7968733
6.8889471
6.9033413
6.8936912
6.9128071
6.9557023
7.0230075
7.0362026
7.0607016
7.0533231
7.0614701
7.0716779
7.0856199
1e-05
1e-05
1e-05
1e-05
1e-05
1e-05
1e-05
1e-05
1e-05
1e-05
1e-05
1e-05
1e-05
1e-05
1e-05
1e-05
1e-05
1e-05
195.78535
218.61881
)
;
    }
    Front
    {
        type            wedge;
    }
    Back
    {
        type            wedge;
    }
    defaultFaces
    {
        type            empty;
    }
}


// ************************************************************************* //
