/*--------------------------------*- C++ -*----------------------------------*\
| =========                 |                                                 |
| \\      /  F ield         | OpenFOAM: The Open Source CFD Toolbox           |
|  \\    /   O peration     | Version:  4.0                                   |
|   \\  /    A nd           | Web:      www.OpenFOAM.org                      |
|    \\/     M anipulation  |                                                 |
\*---------------------------------------------------------------------------*/
FoamFile
{
    version     2.0;
    format      ascii;
    class       volScalarField;
    location    "0.35";
    object      p;
}
// * * * * * * * * * * * * * * * * * * * * * * * * * * * * * * * * * * * * * //

dimensions      [0 2 -2 0 0 0 0];

internalField   nonuniform List<scalar> 
1740
(
491.74252
491.69408
491.81402
475.54284
475.48138
475.53544
459.28022
459.41426
459.34611
442.63622
442.84178
442.73929
425.91095
425.8642
425.66974
409.11768
408.9218
408.70822
392.35576
392.2155
392.1291
375.70356
375.62682
375.70248
358.86444
358.92528
358.98553
341.98909
342.17563
342.24697
325.38765
325.39373
325.38978
308.90381
308.71579
308.58363
292.55046
292.43478
292.35857
276.25908
276.30229
276.26463
259.81042
259.96006
260.06893
243.15387
243.22371
243.3083
226.85617
226.74806
226.71577
210.8908
210.9097
210.84603
194.2332
194.3927
194.45372
177.30018
177.40333
177.58098
160.86561
160.74529
160.7738
144.35657
144.1975
143.92618
127.79912
127.62321
127.42342
111.16442
110.96168
111.14498
94.319145
94.285154
94.613284
77.703595
77.758508
77.823136
61.360401
61.289364
61.086931
45.366274
45.499697
45.157765
30.128813
30.338793
30.167681
15.775114
15.546287
15.326397
3.7702314
3.1339937
1.4481105
-0.80638383
-0.73358309
-0.48169521
-0.25092693
-0.22592572
-0.17256742
-0.10007893
-0.08826597
-0.064314697
-0.062967314
-0.055389752
-0.041382171
-0.044111306
-0.039637464
-0.031511998
-0.03354766
-0.030943079
-0.026043943
-0.026726472
-0.025153094
-0.022126856
-0.021832847
-0.020833226
-0.018858242
-0.018010761
-0.01734521
-0.015999925
-0.014984806
-0.014526514
-0.013584069
-0.012698843
-0.012372947
-0.011694712
-0.011027081
-0.010786194
-0.010280053
-0.0097926421
-0.0096095099
-0.0092211848
-0.0088592611
-0.0087171322
-0.0084139668
-0.0081345034
-0.0080219933
-0.007781383
-0.0075599295
-0.007469383
-0.0072753832
-0.0070975694
-0.0070236678
-0.0068648709
-0.0067190308
-0.0066578227
-0.0065259295
-0.0064020748
-0.006350686
-0.0062396789
-0.0061292007
-0.0060855281
-0.005990995
-0.0058867562
-0.0058492235
-0.0057678366
-0.0056642672
-0.0056316653
-0.0055608576
-0.0054538706
-0.0054252653
-0.0053630465
-0.0052498093
-0.0052244738
-0.0051692922
-0.0050479956
-0.0050253608
-0.0049760017
-0.0048456591
-0.0048252806
-0.0047807941
-0.0046410729
-0.0046226029
-0.0045822452
-0.004433306
-0.004416472
-0.0043796589
-0.0042220341
-0.004206622
-0.0041728942
-0.0040073942
-0.0039932359
-0.0039622327
-0.00378986
-0.0037768241
-0.0037482638
-0.0035701338
-0.0035581173
-0.0035317792
-0.0033490646
-0.0033379864
-0.0033136962
-0.0031275303
-0.0031173267
-0.0030949464
-0.0029063618
-0.0028969816
-0.0028764022
-0.0026863808
-0.0026777826
-0.0026589158
-0.0024683444
-0.0024604949
-0.0024432667
-0.0022528439
-0.0022457111
-0.0022300547
-0.0020404132
-0.0020339761
-0.0020198459
-0.0018314159
-0.0018256537
-0.0018130035
-0.0016260296
-0.0016209236
-0.0016097134
-0.0014243039
-0.0014198381
-0.0014100327
-0.0012261637
-0.0012223231
-0.0012138901
-0.0010314205
-0.0010281914
-0.0010211014
-0.00083978319
-0.00083715486
-0.00083138398
-0.00065085135
-0.00064881502
-0.00064434339
-0.00046405557
-0.00046260414
-0.00045941616
-0.00027862855
-0.00027775751
-0.0002758433
-9.3284059e-05
-9.2993264e-05
-9.2352351e-05
-1.3784487
-0.96614323
-0.37469094
-0.29127749
-0.14037983
-0.12575343
-0.04965309
-0.043921183
-0.029353175
-0.021471267
-0.02358832
-0.016942225
-0.020647371
-0.015702136
-0.018509742
-0.014913047
-0.016374851
-0.013754772
-0.014251428
-0.012324754
-0.012320787
-0.010882644
-0.010760522
-0.0096667885
-0.009570596
-0.0087231993
-0.0086703408
-0.0080026947
-0.0079796933
-0.0074456664
-0.0074343719
-0.0070026991
-0.0069941116
-0.006641036
-0.0066334112
-0.006340508
-0.0063327463
-0.00608675
-0.0060764223
-0.0058675036
-0.0058514908
-0.0056721672
-0.0056473653
-0.0054918616
-0.0054557595
-0.0053195842
-0.0052704671
-0.0051500957
-0.0050870013
-0.004979665
-0.0049022462
-0.0048057827
-0.0047142043
-0.0046269092
-0.0045217442
-0.0044422655
-0.0043243985
-0.0042516707
-0.0041222066
-0.0040553909
-0.0039155938
-0.0038540319
-0.0037052637
-0.0036484402
-0.0034920969
-0.0034396077
-0.0032770779
-0.0032286021
-0.0030611906
-0.0030164746
-0.0028453506
-0.0028041954
-0.0026304393
-0.0025926817
-0.0024172564
-0.0023827571
-0.0022064107
-0.0021750362
-0.0019985028
-0.0019701753
-0.0017938934
-0.0017685257
-0.0015927773
-0.0015702929
-0.0013952173
-0.001375547
-0.0012011472
-0.0011842276
-0.0010103888
-0.00099616262
-0.00082266413
-0.00081108432
-0.00063758583
-0.00062861114
-0.0004545979
-0.00044819853
-0.00027294996
-0.00026910719
-9.138325e-05
-9.0096093e-05
-0.0042833555
-0.0040086196
-0.0035518527
-0.0030145334
-0.0025116096
-0.0020846858
-0.0017314997
-0.0015195024
-0.0014660204
-0.0015180755
-0.0016667687
-0.0017920467
-0.0018601748
-0.0019260478
-0.001977744
-0.0019619809
-0.0018751617
-0.0017314031
-0.0015472874
-0.0013360366
-0.0011067751
-0.00086772328
-0.00062412433
-0.00037736848
-0.00012437102
-0.0052730682
-0.0049378479
-0.0044499703
-0.0039235989
-0.0034431096
-0.003076379
-0.0028912989
-0.0028416845
-0.0028687223
-0.0029384424
-0.0029801247
-0.003017796
-0.0030422942
-0.0030013081
-0.002894362
-0.0027554648
-0.0025827049
-0.0023694968
-0.0021192027
-0.0018353555
-0.0015233302
-0.0011939989
-0.00085467876
-0.0005083682
-0.00015723424
-0.011362081
-0.01103273
-0.01064546
-0.010342853
-0.010287712
-0.010457022
-0.010739618
-0.010987069
-0.011067033
-0.010991009
-0.010761463
-0.010415281
-0.0099737571
-0.009436557
-0.0088070301
-0.0081026882
-0.0073388849
-0.0065277084
-0.0056740581
-0.0047866155
-0.0038782394
-0.0029692643
-0.0020697396
-0.0011896667
-0.00034741122
-0.030481886
-0.030340788
-0.030628972
-0.031384594
-0.032009188
-0.0322215
-0.031897978
-0.031094943
-0.029962984
-0.028576865
-0.026991089
-0.025290669
-0.023510678
-0.021641736
-0.019709717
-0.017740865
-0.015754217
-0.013763352
-0.011778177
-0.0098127095
-0.0078788455
-0.0060044339
-0.0041810707
-0.0024181474
-0.00074395919
-0.087351953
-0.087250538
-0.086490121
-0.083090205
-0.078838427
-0.073620813
-0.068027598
-0.062393249
-0.056818586
-0.051396697
-0.046282345
-0.041541859
-0.037100871
-0.032676435
-0.028566732
-0.02478659
-0.021317827
-0.018134217
-0.015205584
-0.012495044
-0.0099682745
-0.0075761498
-0.0053099917
-0.0031453353
-0.0010653922
-0.26035568
-0.21564296
-0.19409003
-0.16012281
-0.13196673
-0.10723792
-0.086161625
-0.068753086
-0.05457537
-0.043088222
-0.033772351
-0.026242341
-0.020222518
-0.015614059
-0.011925725
-0.0090253638
-0.0067588017
-0.0050019716
-0.0036558945
-0.0026385221
-0.001879932
-0.0013115647
-0.00088616493
-0.00055641403
-0.00032103057
-0.38113921
-0.17182255
-0.11418443
-0.070908213
-0.03292178
-0.0031122099
0.016276486
0.026582261
0.031190455
0.032777434
0.032614379
0.031335255
0.029353726
0.026954729
0.024352986
0.021689169
0.019048179
0.01647811
0.014000402
0.011618781
0.0093266798
0.0071150022
0.0049630322
0.0028633069
0.00073164994
-0.24047036
-0.2094533
-0.178982
-0.1493114
-0.1218578
-0.098104733
-0.078096571
-0.061776209
-0.048629918
-0.038031511
-0.029567881
-0.022836586
-0.017524577
-0.013311615
-0.0099892091
-0.0073914319
-0.0053812454
-0.003844574
-0.0026901843
-0.0018434307
-0.001241056
-0.00082625701
-0.00055018753
-0.00036387748
-0.00026676899
-0.11842746
-0.11209787
-0.10555163
-0.098456449
-0.090790826
-0.082786991
-0.075173787
-0.067967142
-0.061165213
-0.054908806
-0.049092922
-0.043575454
-0.038413027
-0.033678169
-0.029354467
-0.025404518
-0.021787544
-0.018466479
-0.015417346
-0.012610429
-0.010013934
-0.0075948555
-0.0053226571
-0.0031619182
-0.0010821962
-0.043186314
-0.043569229
-0.044248639
-0.04458366
-0.044280253
-0.043288297
-0.041790758
-0.039896065
-0.037721659
-0.035381469
-0.03294345
-0.03045709
-0.027934545
-0.025396821
-0.02286997
-0.02037924
-0.017944746
-0.015578215
-0.013274099
-0.011030548
-0.0088477548
-0.0067277441
-0.0046751816
-0.0026987006
-0.00083032684
-0.016494332
-0.014112973
-0.013875801
-0.014728001
-0.015807615
-0.016651333
-0.01710967
-0.017214568
-0.017005973
-0.016542293
-0.015881316
-0.015069088
-0.014136949
-0.013109695
-0.01201515
-0.010870737
-0.0096915283
-0.0084936913
-0.0072885524
-0.0060852453
-0.0048923891
-0.0037191106
-0.0025753942
-0.0014710864
-0.00042892377
-0.011922578
-0.0084840695
-0.0062838131
-0.0050777978
-0.0046201802
-0.0046661307
-0.0050215007
-0.0054273609
-0.0057211617
-0.0058827175
-0.0059143364
-0.0058228384
-0.0056269228
-0.0053458141
-0.0049915031
-0.0045818925
-0.0041319729
-0.0036549095
-0.0031616533
-0.0026605418
-0.0021580543
-0.0016594165
-0.0011682834
-0.00068467793
-0.00020781567
-0.011596376
-0.0085487761
-0.0062133886
-0.0044983596
-0.0033813927
-0.0027467747
-0.0024174456
-0.0022794538
-0.002280601
-0.0023467746
-0.00241737
-0.0024557471
-0.0024402265
-0.0023660442
-0.0022434153
-0.0020842933
-0.0018989998
-0.0016953277
-0.0014800184
-0.0012581929
-0.0010333164
-0.00080736104
-0.00058091333
-0.00035232036
-0.00011615677
-0.011690806
-0.0090039489
-0.0068117838
-0.0050935919
-0.0038508041
-0.0030071719
-0.0024065347
-0.0020081203
-0.0018051703
-0.0017172478
-0.0016980946
-0.0016762897
-0.0016449101
-0.0015991737
-0.0015345729
-0.0014488708
-0.0013425554
-0.0012181225
-0.0010786181
-0.00092729046
-0.00076725033
-0.00060124204
-0.00043159185
-0.00026023853
-8.7181768e-05
-0.011261969
-0.0090342949
-0.0071158501
-0.0055260712
-0.004263074
-0.0032954402
-0.0025721984
-0.0020659498
-0.0017082486
-0.0014565855
-0.0012668018
-0.0011438322
-0.001063982
-0.001006258
-0.00095744699
-0.00090719449
-0.00084899372
-0.00077993338
-0.00069938989
-0.00060813241
-0.0005078116
-0.00040055968
-0.00028869195
-0.00017440272
-5.9332267e-05
-0.01039957
-0.0086020721
-0.0069782574
-0.0055618657
-0.0043746732
-0.0034046009
-0.0026267711
-0.0020206555
-0.0015612382
-0.0012218861
-0.00096286456
-0.00078053445
-0.00065808843
-0.00057252241
-0.00051690415
-0.00047549073
-0.00043965364
-0.00040366749
-0.00036417804
-0.00031958752
-0.00026957783
-0.00021474225
-0.00015626145
-9.5266724e-05
-3.3216782e-05
-0.0093947352
-0.00794793
-0.0065985
-0.0053790386
-0.0043097132
-0.0033918305
-0.0026242
-0.0019936557
-0.0014824547
-0.0010761387
-0.00077584619
-0.00056078791
-0.00040283747
-0.00028803139
-0.0002135597
-0.00016642798
-0.00013675364
-0.00011719846
-0.00010279751
-9.0133354e-05
-7.7158541e-05
-6.2930676e-05
-4.7250917e-05
-3.0191193e-05
-1.1917824e-05
-0.0085031456
-0.0073366968
-0.0062176094
-0.0051774149
-0.0042345249
-0.0033970473
-0.0026705711
-0.0020521851
-0.0015354909
-0.0011112463
-0.00077220688
-0.00050519389
-0.00030844528
-0.00017166839
-7.6393571e-05
-1.434378e-05
2.2241818e-05
4.1552725e-05
4.82204e-05
4.6735651e-05
4.0318906e-05
3.1118973e-05
2.0587833e-05
9.9820587e-06
7.5799851e-07
-0.0077989495
-0.0068506935
-0.0059205915
-0.0050334497
-0.0042090743
-0.0034580293
-0.0027866728
-0.0021975021
-0.0016906017
-0.0012622356
-0.00090693802
-0.00061871736
-0.00039290488
-0.0002228726
-9.8476007e-05
-1.1555262e-05
4.5218205e-05
7.7264419e-05
9.1408323e-05
9.217739e-05
8.329592e-05
6.7790398e-05
4.8157305e-05
2.6844505e-05
6.0557059e-06
-0.0072613843
-0.0064853403
-0.0057071527
-0.0049498049
-0.004230585
-0.0035620588
-0.0029503986
-0.0024003054
-0.0019136667
-0.0014912953
-0.0011294243
-0.0008265644
-0.00057983375
-0.00038382436
-0.0002320912
-0.00011837215
-3.7148797e-05
1.6729635e-05
4.8635293e-05
6.3199307e-05
6.4427566e-05
5.5879479e-05
4.0833835e-05
2.3093727e-05
5.2096713e-06
-0.0068448485
-0.0062051185
-0.005551456
-0.0049034231
-0.0042767669
-0.0036827124
-0.0031287714
-0.0026207523
-0.0021611741
-0.001751643
-0.0013926023
-0.0010831133
-0.00082193663
-0.00060567899
-0.00043064618
-0.00029210887
-0.00018601793
-0.0001079201
-5.3478519e-05
-1.8491321e-05
9.8251957e-07
8.5380005e-06
7.5127498e-06
4.1451068e-06
3.6858712e-07
-0.0065100331
-0.0059780869
-0.0054260866
-0.0048704328
-0.0043243642
-0.0037980736
-0.0032989694
-0.002832579
-0.0024025288
-0.0020117149
-0.0016611081
-0.0013515163
-0.0010822969
-0.00085190702
-0.0006581368
-0.00049836324
-0.00036935257
-0.00026736585
-0.00018894174
-0.00013046991
-8.8465304e-05
-5.984422e-05
-4.3259649e-05
-2.4591924e-05
-4.6619907e-06
-0.0062326227
-0.0057862475
-0.0053172115
-0.0048388542
-0.0043622317
-0.0038962312
-0.0034477738
-0.0030220417
-0.0026228386
-0.0022532773
-0.001915213
-0.0016102077
-0.0013383308
-0.0010991963
-0.00089170934
-0.00071439245
-0.0005649676
-0.00044067051
-0.00033863859
-0.00025591863
-0.00018954695
-0.00013648854
-9.3638565e-05
-5.4497687e-05
-1.7587577e-05
-0.005998424
-0.0056207462
-0.0052193909
-0.0048053236
-0.0043877964
-0.0039744287
-0.0035714049
-0.0031835656
-0.0028146108
-0.0024675918
-0.0021446565
-0.0018475286
-0.0015770007
-0.0013333556
-0.0011164478
-0.00092534059
-0.00075862367
-0.00061442616
-0.00049058017
-0.00038475167
-0.00029443201
-0.00021690145
-0.00014922908
-8.710856e-05
-2.8559396e-05
-0.0057973828
-0.0054749937
-0.0051290871
-0.0047684023
-0.0044008253
-0.0040328681
-0.0036699072
-0.0033163346
-0.0029757021
-0.0026508154
-0.0023439494
-0.0020567428
-0.0017904482
-0.0015457405
-0.0013228545
-0.0011214302
-0.00094070402
-0.00077949187
-0.00063631623
-0.00050938463
-0.00039666875
-0.00029592036
-0.00020470177
-0.00011976657
-3.910306e-05
-0.0056202785
-0.0053425787
-0.0050420894
-0.0047259142
-0.004400453
-0.0040714016
-0.0037434356
-0.003420431
-0.0031056258
-0.0028016732
-0.0025106919
-0.0022343792
-0.0019740303
-0.0017305823
-0.0015045049
-0.0012958614
-0.0011043297
-0.00092923518
-0.00076960598
-0.00062415966
-0.00049137073
-0.0003694735
-0.00025657331
-0.00015044441
-4.9522369e-05
-0.0054587606
-0.0052173712
-0.0049541947
-0.0046750585
-0.0043852295
-0.0040894122
-0.0037917872
-0.0034957819
-0.0032042673
-0.0029196577
-0.0026439518
-0.0023787783
-0.0021254114
-0.001884847
-0.0016577712
-0.0014445005
-0.001245029
-0.0010590599
-0.00088600632
-0.00072502814
-0.00057505743
-0.00043483985
-0.00030299462
-0.00017799959
-5.8681885e-05
-0.0053058223
-0.005094097
-0.0048617128
-0.0046134262
-0.0043536512
-0.0040863297
-0.0038149485
-0.0035426388
-0.0032719424
-0.0030050324
-0.0027437266
-0.0024895555
-0.0022437607
-0.0020073415
-0.0017810423
-0.0015653526
-0.0013605147
-0.0011664964
-0.00098303557
-0.00080965544
-0.000645686
-0.00049031935
-0.00034269542
-0.00020170187
-6.6467711e-05
-0.0051558959
-0.0049685713
-0.0047617298
-0.0045392574
-0.0043048457
-0.0040618821
-0.0038133075
-0.0035617853
-0.0033096352
-0.0030588175
-0.0028109675
-0.0025674934
-0.0023295857
-0.0020982215
-0.0018741678
-0.0016580087
-0.0014501244
-0.0012507028
-0.0010597353
-0.00087704033
-0.00070228759
-0.00053503993
-0.00037481923
-0.00022086721
-7.2620456e-05
-0.0050047995
-0.0048377199
-0.0046521912
-0.0044514452
-0.0042385748
-0.0040164435
-0.0037876688
-0.0035544741
-0.0033189072
-0.0030827034
-0.0028473983
-0.0026142713
-0.0023844282
-0.0021588093
-0.0019382022
-0.0017232358
-0.0015143869
-0.0013119907
-0.001116232
-0.00092716554
-0.00074473741
-0.00056879111
-0.00039915274
-0.00023536935
-7.7157477e-05
-0.0048496289
-0.0046994579
-0.0045318547
-0.0043495252
-0.0041550749
-0.003950945
-0.0037393856
-0.0035223854
-0.0033016951
-0.0030788777
-0.0028553002
-0.0026321616
-0.0024105004
-0.0021912092
-0.0019750593
-0.001762716
-0.0015547248
-0.0013515233
-0.0011534424
-0.00096071899
-0.00077350078
-0.00059187074
-0.00041587006
-0.00024534976
-8.0265339e-05
-0.0046885294
-0.004552596
-0.0044002048
-0.0042336249
-0.0040550616
-0.0038666037
-0.0036701865
-0.0034675697
-0.0032603146
-0.0030498095
-0.002837287
-0.0026238473
-0.0024104599
-0.0021979815
-0.0019871727
-0.0017787075
-0.0015731739
-0.0013710841
-0.0011728825
-0.00097894191
-0.00078957562
-0.00060503473
-0.00042554751
-0.00025115086
-8.2014062e-05
-0.0045204783
-0.004396661
-0.0042573099
-0.0041043374
-0.0039396138
-0.0037649337
-0.0035819792
-0.0033922983
-0.00319729
-0.0029982093
-0.0027961805
-0.0025922069
-0.0023871981
-0.002181973
-0.0019772772
-0.0017737827
-0.0015721129
-0.0013728308
-0.001176455
-0.00098346349
-0.00079428854
-0.00060932539
-0.00042894753
-0.00025326801
-8.2659978e-05
-0.0043451092
-0.0042317311
-0.0041036888
-0.0039626067
-0.0038100792
-0.0036476593
-0.0034768165
-0.003298919
-0.0031152223
-0.0029268658
-0.0027348818
-0.0025402074
-0.0023436936
-0.0021461216
-0.0019482185
-0.0017506592
-0.0015540774
-0.0013590755
-0.0011662226
-0.000976061
-0.00078911139
-0.00060586708
-0.00042679498
-0.00025205966
-8.2186288e-05
-0.0041625642
-0.0040583001
-0.0039401933
-0.003809634
-0.0036679966
-0.0035166294
-0.0033568257
-0.0031898017
-0.0030166872
-0.002838522
-0.0026562606
-0.0024707797
-0.002282886
-0.0020933333
-0.0019028268
-0.0017120349
-0.0015215985
-0.0013321374
-0.0011442514
-0.00095852205
-0.00077551627
-0.00059578423
-0.00041985541
-0.0002479777
-8.0758363e-05
-0.003973367
-0.0038771691
-0.0037679209
-0.0036468063
-0.0035150251
-0.0033737582
-0.0032241489
-0.0030672856
-0.0029041909
-0.0027358183
-0.0025630533
-0.0023867204
-0.0022075898
-0.0020263866
-0.001843798
-0.0016604836
-0.0014770843
-0.0012942231
-0.0011125102
-0.00093254491
-0.00075491156
-0.00058018311
-0.00040893184
-0.00024149536
-7.8521097e-05
-0.0037783314
-0.0036893768
-0.0035881329
-0.0034756177
-0.0033528829
-0.0032209685
-0.0030808929
-0.0029336366
-0.0027801311
-0.0026212545
-0.0024578316
-0.0022906404
-0.0021204158
-0.001947856
-0.0017736301
-0.0015983856
-0.0014227546
-0.0012473557
-0.0010727979
-0.00089968067
-0.00072859166
-0.00056010456
-0.00039480118
-0.00023309667
-7.5625051e-05
-0.0035784674
-0.0034961068
-0.0034021932
-0.0032976134
-0.0031832882
-0.0030601413
-0.0029290855
-0.0027910079
-0.0026467625
-0.0024971614
-0.0023429741
-0.0021849366
-0.0020237491
-0.0018600828
-0.0016945858
-0.0015278892
-0.0013606109
-0.0011933581
-0.0010267307
-0.00086131959
-0.00069770659
-0.0005364617
-0.00037818431
-0.00022325313
-7.2343313e-05
-0.0033748946
-0.0032986184
-0.0032115054
-0.0031143311
-0.003007913
-0.0028930752
-0.0027706379
-0.0026414069
-0.002506167
-0.0023656736
-0.0022206456
-0.0020717789
-0.0019197381
-0.0017651658
-0.0016086869
-0.0014509118
-0.0012924401
-0.0011338626
-0.0009757622
-0.00081871662
-0.00066329682
-0.00051006952
-0.00035961363
-0.00021232401
-6.8844213e-05
-0.0031687772
-0.0030981797
-0.0030174466
-0.0029272639
-0.0028283552
-0.0027214608
-0.0026073214
-0.0024866717
-0.0023602316
-0.0022287056
-0.0020927823
-0.0019531018
-0.0018102899
-0.0016649606
-0.0015177157
-0.0013691429
-0.0012198191
-0.0010703133
-0.00092118845
-0.00077300334
-0.00062631312
-0.00048167096
-0.0003396371
-0.00020051667
-6.4971886e-05
-0.0029612445
-0.0028960064
-0.0028213218
-0.0027377993
-0.0026460845
-0.0025468429
-0.0024407486
-0.002328473
-0.0022106773
-0.0020880142
-0.0019611286
-0.0018306191
-0.0016970739
-0.0015610814
-0.0014232176
-0.0012840431
-0.0011441089
-0.0010039583
-0.00086412941
-0.00072515635
-0.00058756996
-0.00045189593
-0.0003186594
-0.00018810148
-6.0886742e-05
-0.00275333
-0.0026932012
-0.0026243045
-0.0025471757
-0.0024623957
-0.0023705714
-0.0022723162
-0.0021682443
-0.0020589647
-0.0019450749
-0.0018271501
-0.0017057776
-0.0015814985
-0.0014548885
-0.0013264921
-0.001196838
-0.0010664476
-0.00093583499
-0.00080550847
-0.00067597193
-0.00054772519
-0.00042125759
-0.00029705462
-0.00017531748
-5.6702084e-05
-0.0025459922
-0.0024907685
-0.0024274486
-0.0023564866
-0.0022784178
-0.0021938031
-0.0021031973
-0.0020071582
-0.0019062436
-0.0018010059
-0.0016919864
-0.001579749
-0.0014647086
-0.0013474871
-0.0012285949
-0.0011085196
-0.00098775099
-0.00086676978
-0.00074605294
-0.00062607143
-0.00050728622
-0.00039015204
-0.00027510867
-0.00016233296
-5.2446395e-05
-0.0023400813
-0.0022895902
-0.0022316941
-0.0021666858
-0.0020951182
-0.0020175345
-0.0019344028
-0.0018462332
-0.0017535311
-0.0016568004
-0.0015565456
-0.0014532469
-0.0013475155
-0.0012397289
-0.0011303593
-0.0010198822
-0.00090875541
-0.00079743173
-0.00068635444
-0.0005759589
-0.00046666988
-0.00035889872
-0.00025306323
-0.00014930326
-4.8209513e-05
-0.0021362004
-0.002090207
-0.0020373927
-0.0019782809
-0.0019132002
-0.0018425311
-0.0017667564
-0.0016863375
-0.0016017442
-0.0015134446
-0.0014219057
-0.0013275893
-0.0012309737
-0.0011324833
-0.0010325486
-0.00093160116
-0.00083006341
-0.00072835103
-0.00062687124
-0.00052602197
-0.00042619192
-0.00032775973
-0.00023109923
-0.00013633082
-4.3999714e-05
-0.0019351036
-0.0018935635
-0.0018458724
-0.0017924062
-0.0017335141
-0.0016695672
-0.0016009741
-0.0015281549
-0.001451533
-0.0013715348
-0.0012885862
-0.0012031097
-0.0011155256
-0.0010262372
-0.00093564136
-0.0008441309
-0.00075209183
-0.00065990213
-0.00056793185
-0.00047654224
-0.00038608592
-0.00029690535
-0.00020933878
-0.00012347694
-3.9822102e-05
-0.0017371137
-0.0016999019
-0.0016571694
-0.0016092293
-0.0015564042
-0.0014990351
-0.0014374854
-0.0013721251
-0.001303337
-0.0012315054
-0.001157014
-0.0010802442
-0.0010015731
-0.00092136879
-0.00083999273
-0.00075780008
-0.00067513939
-0.00059235151
-0.00050976948
-0.00042771828
-0.00034651461
-0.00026646423
-0.00018787191
-0.00011079962
-3.5711509e-05
-0.0015424467
-0.001509453
-0.0014715541
-0.0014290206
-0.00138214
-0.0013312175
-0.0012765716
-0.0012185344
-0.0011574434
-0.0010936407
-0.0010274689
-0.00095926874
-0.00088937667
-0.00081812275
-0.00074583074
-0.00067281818
-0.00059939615
-0.00052586864
-0.00045253217
-0.00037967572
-0.00030758056
-0.00023651755
-0.00016675556
-9.8334926e-05
-3.1675638e-05
-0.001351183
-0.00132231
-0.0012891383
-0.0012518997
-0.0012108453
-0.0011662433
-0.0011183731
-0.0010675247
-0.0010139957
-0.00095808573
-0.00090009569
-0.00084032543
-0.00077907193
-0.00071662623
-0.00065327324
-0.00058929298
-0.00052495953
-0.00046054024
-0.00039629552
-0.00033247872
-0.00026933611
-0.00020710403
-0.00014601664
-8.6098437e-05
-2.7717884e-05
-0.0011632693
-0.0011384296
-0.0011098884
-0.001077842
-0.0010425051
-0.0010041064
-0.00096288883
-0.00091910467
-0.00087300991
-0.0008248624
-0.00077492142
-0.00072344506
-0.00067068945
-0.00061690688
-0.00056234475
-0.00050724632
-0.00045184894
-0.00039638344
-0.00034107428
-0.00028613956
-0.00023179088
-0.00017823101
-0.00012566141
-7.4090066e-05
-2.3838526e-05
-0.00097854037
-0.00095765213
-0.00093364937
-0.00090669648
-0.00087697358
-0.00084467331
-0.00080999949
-0.00077316463
-0.00073438432
-0.00069387693
-0.0006518592
-0.00060854699
-0.00056415461
-0.00051889607
-0.00047298348
-0.00042662327
-0.00038001593
-0.00033335594
-0.000286832
-0.00024062727
-0.00019491943
-0.00014987852
-0.00010567455
-6.2299634e-05
-2.0034166e-05
-0.00079673645
-0.00077972831
-0.00076018172
-0.00073823229
-0.00071402951
-0.00068773028
-0.00065949932
-0.00062950575
-0.00059792488
-0.00056493612
-0.00053071619
-0.0004954423
-0.00045928993
-0.00042243399
-0.00038504718
-0.00034729788
-0.00030934925
-0.00027135985
-0.00023348347
-0.00019586917
-0.00015866164
-0.00012199922
-8.6020484e-05
-5.0707993e-05
-1.6298734e-05
-0.00061749025
-0.00060430722
-0.00058915449
-0.00057213925
-0.00055337739
-0.000532991
-0.00051110646
-0.0004878537
-0.00046336878
-0.00043778794
-0.00041125321
-0.00038390505
-0.00035588241
-0.00032732002
-0.00029834857
-0.00026909639
-0.00023968962
-0.00021025152
-0.00018090161
-0.00015175591
-0.00012292662
-9.4521297e-05
-6.6647778e-05
-3.9286004e-05
-1.2621058e-05
-0.00044026937
-0.00043086976
-0.00042006617
-0.00040793335
-0.0003945524
-0.00038001194
-0.00036439993
-0.00034781204
-0.00033034543
-0.00031209718
-0.00029316878
-0.00027366254
-0.00025367897
-0.00023331351
-0.00021265813
-0.00019180359
-0.00017083951
-0.00014985373
-0.0001289317
-0.0001081563
-8.7607466e-05
-6.7362065e-05
-4.7496999e-05
-2.7996428e-05
-8.9924507e-06
-0.00026434614
-0.00025870231
-0.00025221593
-0.00024493117
-0.00023689484
-0.00022816045
-0.00021878141
-0.00020881632
-0.00019832404
-0.000187365
-0.00017599868
-0.00016428528
-0.00015228369
-0.00014005186
-0.00012764721
-0.00011512474
-0.00010253799
-8.993934e-05
-7.7379909e-05
-6.4909345e-05
-5.2575531e-05
-4.0424184e-05
-2.8500149e-05
-1.6799381e-05
-5.3988531e-06
-8.8501414e-05
-8.6611148e-05
-8.4438895e-05
-8.1999627e-05
-7.9308826e-05
-7.6381861e-05
-7.3239589e-05
-6.9901655e-05
-6.6386871e-05
-6.2716649e-05
-5.891186e-05
-5.4990738e-05
-5.0971372e-05
-4.6874455e-05
-4.2720245e-05
-3.852743e-05
-3.4313826e-05
-3.0096745e-05
-2.5893173e-05
-2.1719676e-05
-1.7592229e-05
-1.3525889e-05
-9.5351841e-06
-5.6210915e-06
-1.8075699e-06
)
;

boundaryField
{
    Walls
    {
        type            zeroGradient;
    }
    Inlet
    {
        type            fixedValue;
        value           uniform 500;
    }
    Outlet
    {
        type            fixedValue;
        value           uniform 0;
    }
    Front
    {
        type            wedge;
    }
    Back
    {
        type            wedge;
    }
    defaultFaces
    {
        type            empty;
    }
}


// ************************************************************************* //
