/*--------------------------------*- C++ -*----------------------------------*\
| =========                 |                                                 |
| \\      /  F ield         | OpenFOAM: The Open Source CFD Toolbox           |
|  \\    /   O peration     | Version:  4.0                                   |
|   \\  /    A nd           | Web:      www.OpenFOAM.org                      |
|    \\/     M anipulation  |                                                 |
\*---------------------------------------------------------------------------*/
FoamFile
{
    version     2.0;
    format      ascii;
    class       volScalarField;
    location    "0.19";
    object      omega;
}
// * * * * * * * * * * * * * * * * * * * * * * * * * * * * * * * * * * * * * //

dimensions      [0 0 -1 0 0 0 0];

internalField   nonuniform List<scalar> 
1740
(
63.242268
716.22042
14921.71
178.11058
1524.5146
15029.871
293.9053
2006.0944
15113.608
387.50459
2244.899
15196.707
485.99886
2483.1587
15270.447
598.35306
2795.4972
15321.622
702.87342
3030.68
15373.506
828.8431
3200.047
15416.753
954.98538
3364.9148
15440.622
1058.8506
3499.8883
15468.831
1146.9073
3602.6127
15496.586
1245.4762
3725.9695
15513.597
1349.392
3834.0446
15526.541
1411.5657
3928.5558
15536.744
1469.8258
3927.9277
15540.532
1527.1927
3958.409
15552.588
1598.4756
4113.3584
15564.483
1665.2746
4171.0321
15558.771
1714.185
4103.1872
15561.613
1742.356
4057.9211
15566.64
1773.923
4057.224
15564.446
1808.3361
4092.4452
15569.436
1859.272
4167.8357
15577.095
1895.4671
4188.344
15577.661
1911.7769
4138.9673
15574.822
1925.1735
4119.7383
15572.276
1960.6533
4130.3126
15571.762
1993.7871
4230.1764
15567.925
2017.7374
4254.3456
15560.548
2138.2633
4307.4454
15502.393
3205.1961
4566.3884
10746.361
3336.9101
4235.4998
5939.8179
1571.3052
1857.7077
2152.0381
823.14092
897.75496
956.5733
479.19002
497.33849
507.6475
302.79103
306.52659
306.667
204.55829
204.87681
203.42519
146.62599
146.30036
145.04114
111.39778
111.07161
110.23625
90.003976
89.784825
89.287265
77.510837
77.385696
77.113147
70.769636
70.709015
70.576507
67.538559
67.518318
67.468188
66.231169
66.232665
66.221608
65.494658
65.493687
65.485101
64.878512
64.880602
64.877418
64.305365
64.311398
64.313463
63.773132
63.780937
63.78568
63.313687
63.320638
63.325182
62.946426
62.951406
62.954411
62.666117
62.669218
62.670616
62.454417
62.456127
62.456319
62.291618
62.292408
62.29182
62.161855
62.162069
62.161018
62.053897
62.053762
62.05246
61.96027
61.959931
61.958512
61.876147
61.875693
61.874241
61.798445
61.797934
61.796498
61.725212
61.724679
61.72329
61.655224
61.654691
61.653367
61.587731
61.587212
61.585963
61.522294
61.521797
61.520628
61.458669
61.458199
61.457111
61.396709
61.396269
61.395263
61.336236
61.335827
61.334901
61.276805
61.276428
61.275578
61.217202
61.216856
61.216079
61.154373
61.154057
61.153351
61.081222
61.080935
61.080297
60.982304
60.982046
60.981474
60.825932
60.825704
60.825198
60.550656
60.550459
60.550025
60.043876
60.043718
60.043372
59.111158
59.111054
59.110828
57.437798
57.437772
57.437723
54.551204
54.551292
54.551497
49.805566
49.805796
49.806325
42.429187
42.429553
42.430396
31.688508
31.688926
31.689892
17.176423
17.176724
17.177415
13481.324
13535.272
5991.4843
5327.1639
2081.6264
1879.9214
921.74409
853.67168
491.08209
464.01213
298.38161
286.33141
199.03601
193.2084
142.64033
139.65964
108.90697
107.32293
88.555055
87.696703
76.722897
76.262363
70.384394
70.149787
67.387679
67.279321
66.190522
66.136658
65.462751
65.422472
64.862245
64.830902
64.303908
64.279182
63.779742
63.760395
63.320945
63.305955
62.95077
62.939137
62.667159
62.657975
62.452958
62.445498
62.288562
62.282307
62.157891
62.152494
62.049483
62.044721
61.955697
61.951429
61.871594
61.867727
61.79402
61.790494
61.720979
61.717751
61.651218
61.648259
61.583972
61.581256
61.518788
61.516296
61.455417
61.453133
61.393705
61.391616
61.333474
61.331566
61.274275
61.272537
61.214894
61.213314
61.152276
61.150846
61.079327
61.078038
60.980605
60.979454
60.824432
60.823419
60.54937
60.548508
60.042852
60.042174
59.110493
59.110069
57.437661
57.437611
54.551831
54.552331
49.807172
49.808395
42.431749
42.433708
31.691457
31.693741
17.178541
17.180195
12058.18
2043.6284
696.78205
368.84764
280.38766
255.59432
247.88017
244.17683
241.04201
237.69333
234.03606
230.09972
225.83365
221.26239
216.36169
211.09519
205.4086
199.20386
192.29012
184.29316
174.50183
161.61251
143.30411
115.38856
68.522705
12058.132
2037.4335
697.87216
374.58445
282.79809
253.7378
241.94374
234.38563
227.85435
221.54046
215.27715
209.03495
202.79578
196.54021
190.23742
183.87297
177.42238
170.83036
163.98088
156.63584
148.33165
138.18518
124.50566
103.83284
67.667719
12058.179
2030.5
718.59292
430.67181
359.29036
332.27967
314.85529
300.25771
286.87328
274.12225
261.9062
250.23175
239.01672
228.23727
217.83858
207.81176
198.14681
188.81291
179.7402
170.77894
161.63732
151.72931
139.78912
122.72111
91.146962
12058.525
2031.8213
817.48785
608.77782
549.98303
512.84867
479.88493
449.39942
421.45782
395.19082
370.54843
347.57291
326.37907
306.5393
287.87133
270.37354
254.03107
238.80627
224.64232
211.44825
199.07667
187.27154
175.49631
162.27423
141.28221
12061.513
2151.1338
1232.0589
1078.1149
989.43715
906.71665
828.3266
756.95544
693.20425
634.29214
580.12521
530.60827
486.62568
446.59736
409.84384
376.38823
346.09235
318.77005
294.2253
272.24939
252.62628
235.15291
219.67083
206.30153
196.13835
12087.211
3825.7884
2807.9071
2402.6277
2094.1207
1825.4288
1590.3464
1387.3264
1211.5914
1059.9531
929.34133
816.94265
720.25199
636.85491
564.77619
502.51582
448.78043
402.43552
362.49291
328.0976
298.51335
273.13172
251.50596
233.70504
220.99046
10369.877
7903.7211
6093.7405
4783.31
3814.4358
3080.3637
2512.1671
2065.6665
1711.2983
1427.9036
1199.7187
1014.9065
864.52882
741.66476
640.81669
557.62058
488.63596
431.16076
383.07007
342.68385
308.66688
279.97454
255.84371
236.11635
222.08753
4086.9648
3304.4988
2840.2527
2465.1407
2146.4329
1866.3535
1622.0841
1410.7929
1229.6363
1074.3697
941.21033
826.75915
728.04546
642.89186
569.4563
506.14598
451.58185
404.577
364.11045
329.30315
299.40005
273.7782
251.97451
234.04228
221.22826
1593.1427
1399.0425
1269.0669
1160.9833
1058.9278
961.78856
873.15215
794.36427
722.56014
657.54248
599.37492
548.01601
500.94913
457.9909
419.00913
383.79539
352.10203
323.67763
298.26302
275.6049
255.46196
237.61643
221.89805
208.41343
198.2061
771.07165
707.96382
661.85444
621.38938
581.16128
541.1564
503.70634
469.25694
437.34791
407.95068
381.10745
356.56399
333.63738
312.20421
292.23548
273.69724
256.53749
240.6885
226.06683
212.56881
200.0503
188.27202
176.73003
164.01638
144.04351
434.73025
411.01776
392.36794
375.23403
357.60344
339.44082
321.71271
304.86252
288.95885
274.05078
260.14798
247.12963
234.78234
223.03603
211.90498
201.37062
191.4025
181.9514
172.93738
164.22308
155.55067
146.38893
135.53086
119.89848
90.072673
273.91292
263.47495
254.85412
246.75986
238.33186
229.4937
220.60716
211.93608
203.59583
195.64045
188.07735
180.85531
173.8946
167.15527
160.63392
154.32058
148.18703
142.1768
136.18658
130.02827
123.35045
115.47005
104.99046
88.862419
59.518278
187.34523
182.25965
177.88344
173.71168
169.35741
164.74643
160.01069
155.28903
150.66712
146.18785
141.8592
137.65989
133.55497
129.52032
125.54212
121.6014
117.66173
113.65535
109.4612
104.86764
99.506772
92.732796
83.373845
69.118089
44.164321
136.68279
134.02556
131.65969
129.37492
126.99048
124.45107
121.80089
119.10818
116.42602
113.78455
111.1924
108.64138
106.11441
103.59493
101.06697
98.507365
95.874644
93.0942
90.036709
86.488124
82.11255
76.418604
68.777735
58.72255
47.704793
105.73344
104.27193
102.92681
101.60739
100.22818
98.754908
97.201555
95.600381
93.981996
92.366339
90.761506
89.165547
87.570207
85.964199
84.332443
82.65015
80.872233
78.917734
76.648562
73.845214
70.190612
65.293192
58.832014
51.049605
44.105428
86.821137
85.986354
85.18966
84.39215
83.554875
82.659904
81.711915
80.72732
79.724107
78.716018
77.710668
76.709644
75.709488
74.702316
73.673832
72.597214
71.421909
70.056303
68.344304
66.039506
62.78911
58.156626
51.747564
43.57955
34.575645
75.777856
75.294072
74.810983
74.313697
73.786392
73.222058
72.624092
72.002406
71.368859
70.733974
70.105231
69.486261
68.875919
68.267336
67.645114
66.978533
66.209089
65.230888
63.863321
61.8184
58.670283
53.841988
46.621431
36.129652
20.566046
69.889152
69.610666
69.314307
68.995379
68.649389
68.275627
67.87804
67.464042
67.042712
66.62318
66.213287
65.818464
65.438696
65.066549
64.684336
64.25688
63.718043
62.949216
61.748793
59.793928
56.599558
51.489304
43.597864
31.892269
15.119104
67.145093
66.984194
66.79545
66.578022
66.332288
66.060445
65.766674
65.456974
65.13885
64.820846
64.511696
64.220005
63.94815
63.688028
63.419873
63.104882
62.671138
61.991317
60.851397
58.910649
55.657239
50.387083
42.231639
30.307053
14.109161
66.057555
65.95081
65.815659
65.652134
65.461094
65.244338
65.004693
64.746093
64.473595
64.193249
63.912239
63.64154
63.394208
63.162544
62.926967
62.647805
62.251235
61.606581
60.493441
58.558379
55.280762
49.982672
41.845429
30.147629
14.81705
65.360828
65.274928
65.163035
65.024427
64.859259
64.668525
64.454297
64.220348
63.972961
63.721118
63.475057
63.242422
63.034436
62.841572
62.642645
62.397059
62.0305
61.41202
60.321398
58.408768
55.155562
49.898094
41.876534
30.464583
15.779306
64.779753
64.705439
64.606011
64.480777
64.330231
64.15623
63.962416
63.754645
63.540893
63.330198
63.130664
62.947198
62.780204
62.624798
62.458476
62.240445
61.896945
61.298219
60.226347
58.336454
55.121256
49.915753
41.996284
30.76933
16.396369
64.235912
64.17051
64.081494
63.969082
63.83507
63.682882
63.517593
63.345661
63.174198
63.009817
62.857326
62.718528
62.591023
62.465801
62.325047
62.127961
61.801669
61.217864
60.160917
58.289773
55.103871
49.938799
42.07281
30.894474
16.416016
63.724851
63.669831
63.594654
63.50051
63.390108
63.267418
63.137345
63.005213
62.876095
62.754079
62.641574
62.538575
62.441512
62.340739
62.219219
62.037581
61.723969
61.151303
60.105671
58.24848
55.082241
49.943694
42.09912
30.906974
16.332921
63.278136
63.234934
63.176223
63.103496
63.019403
62.927367
62.831195
62.734651
62.641016
62.552677
62.470721
62.394355
62.319792
62.237915
62.129929
61.959461
61.655132
61.090704
60.053454
58.206465
55.054326
49.934754
42.103241
30.892696
16.243422
62.918082
62.885825
62.84245
62.789242
62.728262
62.662017
62.593149
62.524143
62.457062
62.393298
62.333268
62.275861
62.217282
62.148625
62.051079
61.888817
61.591326
61.033035
60.002098
58.162932
55.022146
49.919779
42.106365
30.896122
16.101277
62.642131
62.618458
62.587075
62.548909
62.50539
62.458208
62.409102
62.359679
62.311237
62.264596
62.219815
62.175638
62.128309
62.069107
61.979595
61.823121
61.530695
60.97708
59.951106
58.118376
54.987615
49.902419
42.115108
30.945736
16.189798
62.433353
62.41578
62.392875
62.365261
62.333882
62.299839
62.264262
62.228188
62.192445
62.157505
62.123217
62.08824
62.048831
61.996364
61.912528
61.760668
61.472162
60.92224
59.900353
58.073161
54.95136
49.882213
42.121972
31.002245
16.309363
62.272695
62.259258
62.242071
62.221547
62.198301
62.173052
62.146539
62.119441
62.092291
62.065342
62.038305
62.009774
61.976001
61.928404
61.848752
61.700494
61.415054
60.868131
59.849713
58.027335
54.913224
49.857581
42.120933
31.051628
16.557852
62.144612
62.133955
62.120585
62.104779
62.086948
62.067569
62.047138
62.026108
62.004825
61.983398
61.961442
61.937498
61.907804
61.8638
61.787326
61.642006
61.358895
60.814444
59.799035
57.980899
54.873363
49.828647
42.110976
31.088979
16.71031
62.03805
62.029293
62.018504
62.00588
61.991703
61.976303
61.960021
61.943169
61.925969
61.908437
61.890115
61.869502
61.842821
61.801513
61.727455
61.584339
61.303262
60.760916
59.748163
57.933848
54.832143
49.796586
42.093344
31.102703
16.785012
61.945638
61.938223
61.929233
61.918814
61.90717
61.894538
61.881162
61.867262
61.852981
61.838265
61.822608
61.804475
61.780067
61.740826
61.668647
61.527282
61.24797
60.707358
59.696951
57.886139
54.789845
49.762569
42.070726
31.098456
16.867219
61.862607
61.856179
61.84849
61.839656
61.829829
61.819188
61.807914
61.796166
61.784033
61.771415
61.757767
61.741527
61.718878
61.681255
61.610562
61.47059
61.192672
60.653605
59.645272
57.837647
54.746439
49.727305
42.048636
31.104447
16.921487
61.785909
61.780239
61.773533
61.765882
61.757409
61.748253
61.738553
61.728429
61.717929
61.70692
61.694831
61.680075
61.65882
61.622489
61.552991
61.414145
61.137361
60.599601
59.593033
57.788193
54.701515
49.689473
42.020309
31.088925
16.922753
61.71361
61.708549
61.702614
61.695884
61.68846
61.680452
61.671974
61.663115
61.653896
61.644162
61.633317
61.619756
61.59963
61.564353
61.49583
61.357899
61.082035
60.545365
59.540201
57.737664
54.654851
49.649073
41.988504
31.067454
16.911445
61.644498
61.639943
61.634637
61.628651
61.622068
61.614981
61.607483
61.599643
61.591462
61.582765
61.57294
61.560364
61.541174
61.50677
61.43905
61.301859
61.026715
60.490857
59.486802
57.686084
54.606463
49.606246
41.954225
31.044562
16.898366
61.57783
61.573709
61.568934
61.563567
61.557682
61.551357
61.54467
61.537675
61.530358
61.522529
61.51356
61.501815
61.483415
61.449745
61.382688
61.24609
60.971492
60.43622
59.432981
57.633675
54.556821
49.562273
41.921407
31.032151
16.913173
61.513171
61.509431
61.505115
61.50028
61.494989
61.489312
61.483314
61.477038
61.470458
61.46337
61.455136
61.444106
61.426384
61.393338
61.326833
61.190702
60.916499
60.38162
59.378965
57.580759
54.50644
49.517905
41.891119
31.036937
17.056487
61.450281
61.446881
61.442971
61.438601
61.433829
61.428715
61.423316
61.417665
61.411726
61.405285
61.397694
61.387287
61.370156
61.337646
61.2716
61.13583
60.861891
60.327239
59.324953
57.527665
54.455734
49.473214
41.860844
31.037486
17.03118
61.389014
61.385923
61.382377
61.378422
61.37411
61.369495
61.364625
61.359526
61.354154
61.348287
61.341265
61.331412
61.314801
61.282757
61.217094
61.081597
60.807815
60.273257
59.271196
57.474704
54.405026
49.427961
41.827203
31.025128
17.041744
61.329196
61.326387
61.323171
61.319591
61.315692
61.311524
61.307129
61.302525
61.297662
61.292309
61.285797
61.276439
61.260292
61.228656
61.163315
61.028021
60.754309
60.219741
59.217789
57.421983
54.354402
49.382287
41.791472
31.006895
17.044805
61.270382
61.267832
61.264919
61.26168
61.258157
61.254394
61.250428
61.246273
61.24187
61.236982
61.230933
61.222023
61.206292
61.175018
61.10995
60.974803
60.701093
60.166427
59.164467
57.369167
54.303313
49.335427
41.754909
30.999244
17.095744
61.211359
61.20905
61.206416
61.20349
61.200312
61.196919
61.193346
61.1896
61.185617
61.181154
61.175526
61.167023
61.151669
61.120717
61.055883
60.92084
60.64708
60.112244
59.11016
57.315145
54.250474
49.285382
41.711294
30.974105
17.110447
61.149079
61.146994
61.144618
61.141983
61.139123
61.136074
61.132863
61.129494
61.125898
61.121826
61.116585
61.108455
61.093444
61.062782
60.998148
60.863176
60.589328
60.054271
59.051987
57.257128
54.193463
49.230897
41.662754
30.944672
17.140145
61.076448
61.074576
61.072444
61.070083
61.067524
61.064797
61.061927
61.058912
61.055679
61.051971
61.04709
61.039305
61.024608
60.994205
60.929745
60.794819
60.520861
59.985568
58.98309
57.188482
54.126238
49.167512
41.607956
30.906752
17.127031
60.978036
60.976368
60.974475
60.972381
60.970116
60.967705
60.965168
60.962497
60.959615
60.956258
60.95172
60.944259
60.929853
60.899686
60.835375
60.700476
60.426405
59.890911
58.888371
57.094397
54.034577
49.082004
41.535374
30.856786
17.104978
60.822175
60.820718
60.81907
60.817254
60.815296
60.813217
60.811029
60.808719
60.8062
60.803203
60.799009
60.791867
60.77774
60.74779
60.683607
60.548727
60.274571
59.739001
58.736749
56.94427
53.888797
48.946163
41.41842
30.76925
17.054763
60.547456
60.546234
60.544864
60.543368
60.541766
60.540074
60.538295
60.536405
60.534306
60.531715
60.527901
60.5211
60.507258
60.477522
60.413465
60.278626
60.004492
59.469164
58.468
56.678818
53.631464
48.705984
41.209217
30.606181
16.951699
60.041359
60.040431
60.039413
60.038327
60.037187
60.036001
60.034759
60.033419
60.031864
60.02979
60.026448
60.020056
60.006547
59.977058
59.913174
59.778489
59.504688
58.970381
57.972089
56.19001
53.158354
48.264062
40.82207
30.301031
16.756421
59.109582
59.109061
59.108534
59.10802
59.107529
59.107055
59.106571
59.106008
59.105215
59.103857
59.101156
59.095313
59.082256
59.053135
58.989597
58.85542
58.582757
58.05128
57.059743
55.292672
52.291992
47.456997
40.118745
29.759326
16.436939
57.437609
57.437691
57.437882
57.438194
57.438632
57.439181
57.439783
57.440335
57.440637
57.440297
57.438498
57.433437
57.421066
57.392601
57.329867
57.19709
56.927433
56.40272
55.425949
53.689518
50.748987
46.025467
38.880715
28.833769
15.963465
54.553044
54.554011
54.555239
54.55672
54.558469
54.560475
54.562625
54.564797
54.566699
54.567814
54.567277
54.563329
54.552039
54.524793
54.463834
54.334387
54.071671
53.561659
52.615192
50.938582
48.110719
43.58873
36.784095
27.273236
15.15976
49.810065
49.812215
49.814815
49.81785
49.821415
49.825564
49.830031
49.834759
49.839238
49.842503
49.843723
49.84134
49.831803
49.806674
49.749135
49.626665
49.378394
48.897876
48.009801
46.444096
43.817487
39.643422
33.407083
24.756546
13.798759
42.436371
42.439766
42.44384
42.448662
42.454463
42.461944
42.470189
42.479425
42.488438
42.494465
42.498011
42.49798
42.492105
42.470281
42.418121
42.308547
42.087651
41.661877
40.87893
39.50653
37.219379
33.61304
28.273445
20.937415
11.717974
31.696867
31.700875
31.705759
31.711455
31.716261
31.727648
31.741059
31.756829
31.77141
31.776014
31.781147
31.785835
31.794297
31.778283
31.733183
31.644968
31.471368
31.139081
30.531446
29.472874
27.72132
24.983785
20.973588
15.526016
8.729779
17.182476
17.185429
17.188906
17.189994
17.21492
17.223368
17.237215
17.253779
17.264866
17.250842
17.252172
17.267361
17.334889
17.333488
17.301421
17.2475
17.147937
16.959788
16.617531
16.024215
15.048676
13.536473
11.345331
8.4114804
4.8061513
)
;

boundaryField
{
    Walls
    {
        Cmu             0.09;
        kappa           0.41;
        E               9.8;
        beta1           0.075;
        type            omegaWallFunction;
        value           nonuniform List<scalar> 
38
(
12058.18
12058.132
12058.179
12058.525
12061.513
12087.211
13481.324
13535.272
14921.71
15029.871
15113.608
15196.707
15270.447
15321.622
15373.506
15416.753
15440.622
15468.831
15496.586
15513.597
15526.541
15536.744
15540.532
15552.588
15564.483
15558.771
15561.613
15566.64
15564.446
15569.436
15577.095
15577.661
15574.822
15572.276
15571.762
15567.925
15560.548
15502.393
)
;
    }
    Inlet
    {
        type            turbulentMixingLengthDissipationRateInlet;
        mixingLength    0.03;
        phi             phi;
        k               k;
        value           nonuniform List<scalar> 3(0.0051687594 0.0044480209 0.0049506312);
    }
    Outlet
    {
        type            inletOutlet;
        inletValue      uniform 1e-05;
        value           nonuniform List<scalar> 
86
(
17.176423
17.176724
17.177415
17.178541
17.180195
17.182476
17.185429
17.188906
17.189994
17.21492
17.223368
17.237215
17.253779
17.264866
17.250842
17.252172
17.267361
17.334889
17.333488
17.301421
17.2475
17.147937
16.959788
16.617531
16.024215
15.048676
13.536473
11.345331
8.4114804
4.8061513
222.08753
221.22826
198.2061
1e-05
1e-05
1e-05
1e-05
47.704793
44.105428
34.575645
1e-05
1e-05
1e-05
1e-05
1e-05
16.396369
1e-05
1e-05
1e-05
1e-05
1e-05
1e-05
1e-05
1e-05
1e-05
1e-05
1e-05
1e-05
1e-05
1e-05
1e-05
1e-05
1e-05
1e-05
1e-05
1e-05
1e-05
1e-05
1e-05
1e-05
1e-05
1e-05
1e-05
1e-05
1e-05
1e-05
1e-05
1e-05
1e-05
1e-05
1e-05
1e-05
1e-05
1e-05
196.13835
220.99046
)
;
    }
    Front
    {
        type            wedge;
    }
    Back
    {
        type            wedge;
    }
    defaultFaces
    {
        type            empty;
    }
}


// ************************************************************************* //
