/*--------------------------------*- C++ -*----------------------------------*\
| =========                 |                                                 |
| \\      /  F ield         | OpenFOAM: The Open Source CFD Toolbox           |
|  \\    /   O peration     | Version:  4.0                                   |
|   \\  /    A nd           | Web:      www.OpenFOAM.org                      |
|    \\/     M anipulation  |                                                 |
\*---------------------------------------------------------------------------*/
FoamFile
{
    version     2.0;
    format      ascii;
    class       volScalarField;
    location    "0.19";
    object      p;
}
// * * * * * * * * * * * * * * * * * * * * * * * * * * * * * * * * * * * * * //

dimensions      [0 2 -2 0 0 0 0];

internalField   nonuniform List<scalar> 
1740
(
491.5995
491.72291
491.72937
474.9935
475.05929
475.20768
458.49449
458.51554
458.68291
442.17813
442.36257
442.33723
426.12048
426.04651
425.99823
409.71395
409.4176
409.39698
393.09742
392.9962
392.94602
376.67262
376.7681
376.75389
360.08234
360.18817
360.16493
343.375
343.44198
343.44057
326.62588
326.75416
326.84051
309.76511
309.77956
309.89152
292.96016
292.92377
292.95537
276.03165
276.04953
276.0494
259.1062
259.04949
259.03871
242.48512
242.42166
242.44142
226.08812
226.10757
226.11077
209.59149
209.67997
209.52499
192.82068
192.88543
192.56519
176.27058
176.12465
175.86746
159.93179
159.67055
159.6865
143.49173
143.31542
143.57255
126.88653
127.06901
127.47446
110.23524
110.72314
111.10912
93.919341
94.278646
94.449666
77.937653
78.086172
77.957904
61.763979
61.733262
61.630619
45.680903
45.500568
45.747429
30.588651
30.33731
30.422705
16.354104
16.044314
15.412332
4.2870592
3.6409394
1.5080163
-0.54396188
-0.513731
-0.43955832
-0.12778794
-0.13102094
-0.14117526
-0.00093255235
-0.0086517407
-0.026107278
0.014652898
0.0099527316
0.00042426712
0.015012111
0.011856824
0.0059650623
0.013006891
0.010782539
0.0066455351
0.010588119
0.0090058573
0.0060408525
0.0087801124
0.0076346595
0.0054501442
0.007640533
0.0067986077
0.0051650887
0.0069179644
0.0062854475
0.005039231
0.0063716997
0.0058857114
0.0049161072
0.0058930161
0.0055137968
0.0047491746
0.0054525338
0.0051530927
0.0045435251
0.0050530614
0.0048136945
0.0043224444
0.0047004702
0.0045068342
0.0041066
0.0043946969
0.0042362468
0.0039066464
0.0041312208
0.0040001758
0.0037260799
0.0039039248
0.0037945082
0.0035645858
0.0037068396
0.0036146908
0.0034202768
0.0035349292
0.0034567159
0.0032911332
0.003384163
0.0033173125
0.0031753443
0.0032512011
0.0031936932
0.0030712318
0.0031330644
0.0030832971
0.0029770698
0.0030269654
0.002983655
0.0028910139
0.0029302498
0.002892357
0.0028111476
0.0028403955
0.0028070722
0.002735531
0.0027550476
0.002725597
0.0026622713
0.0026720508
0.0026458992
0.002589587
0.0025894831
0.0025661584
0.0025158665
0.0025056876
0.0024848002
0.0024397079
0.0024192861
0.0024005144
0.0023599435
0.002329175
0.0023122541
0.0022756448
0.0022345133
0.0022192258
0.0021861171
0.0021347067
0.0021208733
0.0020908875
0.0020293831
0.0020168578
0.0019896853
0.0019183674
0.0019070313
0.0018824199
0.0018016545
0.0017914105
0.0017691555
0.0016793799
0.0016701498
0.0016500857
0.001551793
0.001543514
0.0015255079
0.001419231
0.0014118527
0.0013957977
0.001282094
0.0012755757
0.0012613864
0.0011408239
0.0011351333
0.0011227414
0.00099589065
0.00099100221
0.00098035385
0.00084778717
0.00084368078
0.00083473368
0.00069703329
0.00069369316
0.00068641416
0.0005441875
0.0005416012
0.00053596417
0.00038980517
0.00038796313
0.0003839481
0.00023463367
0.00023352974
0.00023112165
7.850412e-05
7.8135449e-05
7.7330137e-05
-1.3893071
-0.97073973
-0.37083365
-0.28651263
-0.12894885
-0.12128442
-0.035663837
-0.04159425
-0.0070684357
-0.012296585
0.00039242537
-0.0036905893
0.0022525645
-0.0014360991
0.0026927065
-0.00037918015
0.0028658143
0.00037324676
0.0031651714
0.0011534022
0.0034719561
0.0018419923
0.0036703899
0.0023402379
0.0037484849
0.0026541035
0.0037323835
0.0028261953
0.0036592246
0.0029038023
0.0035592514
0.002925295
0.0034509409
0.0029154632
0.0033436121
0.0028884546
0.0032411288
0.0028519088
0.0031448133
0.0028101121
0.0030550447
0.0027657568
0.0029718305
0.0027206014
0.0028948508
0.0026756875
0.0028234193
0.0026313952
0.0027565156
0.0025875398
0.0026928512
0.0025435363
0.002631001
0.0024985021
0.002569487
0.0024514187
0.0025068699
0.0024012364
0.0024418214
0.0023469539
0.0023731771
0.0022876821
0.002299967
0.0022226839
0.0022214287
0.0021513933
0.0021370065
0.0020734215
0.0020463435
0.001988552
0.0019492669
0.0018967305
0.0018457676
0.0017980472
0.0017359776
0.0016927171
0.0016201464
0.001581058
0.0014986174
0.0014634695
0.0013718039
0.001340411
0.0012401675
0.0012123814
0.0011042007
0.0010799038
0.00096441478
0.00094351436
0.00082133621
0.00080375957
0.00067551123
0.00066120145
0.00052751881
0.00051643103
0.00037793195
0.00037003151
0.00022751252
0.00022277258
7.6123048e-05
7.4537951e-05
-0.0070444826
-0.0072268426
-0.0073790283
-0.0073466219
-0.0070942325
-0.0066448461
-0.0060799437
-0.0054641343
-0.0048467063
-0.0042593493
-0.0037217232
-0.0032461587
-0.0028312122
-0.0024702689
-0.0021548884
-0.0018763563
-0.0016265487
-0.0013985097
-0.0011875935
-0.00098997099
-0.00080205257
-0.00061984733
-0.00044125448
-0.0002644594
-8.6575032e-05
-0.0077603861
-0.007967132
-0.0080685797
-0.007946337
-0.0076043065
-0.0070731684
-0.0064665411
-0.0058464342
-0.0052584009
-0.0047247411
-0.0042486727
-0.0038258774
-0.003451699
-0.0031154154
-0.0028077034
-0.0025208966
-0.002247981
-0.0019776599
-0.0017102036
-0.0014445211
-0.0011798544
-0.00091431451
-0.00064920634
-0.00038351298
-0.00011721889
-0.01343977
-0.013709779
-0.013729774
-0.013371318
-0.012824961
-0.012272059
-0.011798144
-0.011434645
-0.011079103
-0.010689705
-0.010241336
-0.0097314752
-0.0091636613
-0.0085445889
-0.0078797627
-0.0071745673
-0.0064356754
-0.0056763462
-0.0049007071
-0.0041147649
-0.0033257105
-0.0025388656
-0.0017640346
-0.0010089075
-0.00029098034
-0.032308392
-0.032370415
-0.032093241
-0.031639255
-0.031097831
-0.030417436
-0.029598776
-0.028568862
-0.027367616
-0.026018144
-0.024526378
-0.022932314
-0.021262373
-0.019535737
-0.017764746
-0.015965374
-0.014153563
-0.012343305
-0.010546816
-0.008777504
-0.0070510503
-0.0053650416
-0.0037288625
-0.0021490378
-0.00065789329
-0.089217634
-0.086543509
-0.083480808
-0.078391234
-0.073055567
-0.067422729
-0.062007254
-0.056761588
-0.05169225
-0.046844386
-0.042229724
-0.037882981
-0.033759355
-0.029746754
-0.026014146
-0.022572229
-0.019405301
-0.016492081
-0.013806843
-0.011319657
-0.008997135
-0.0068241215
-0.0047754566
-0.0028280045
-0.000959392
-0.25836156
-0.2080348
-0.182585
-0.14824336
-0.1202585
-0.096435899
-0.076420026
-0.060191893
-0.047166768
-0.036708427
-0.028378318
-0.021796742
-0.016650167
-0.012674666
-0.0095216276
-0.007068027
-0.0051757315
-0.0037296535
-0.0026397126
-0.0018334283
-0.0012500554
-0.00084057167
-0.00056006818
-0.00036384805
-0.00025328946
-0.36549344
-0.14859435
-0.093176109
-0.054694001
-0.020104203
0.0071725348
0.024667663
0.033501908
0.036892429
0.037458322
0.036421979
0.034405486
0.031797528
0.028884208
0.025859767
0.022845269
0.019914052
0.017111131
0.014451038
0.011930584
0.0095359847
0.0072482253
0.0050411931
0.0029053006
0.00075056385
-0.22805269
-0.19291621
-0.16106501
-0.13198782
-0.10656634
-0.084776573
-0.06667695
-0.052049207
-0.040402085
-0.031086785
-0.023742695
-0.017970572
-0.013477741
-0.0099588736
-0.0072287759
-0.0051410099
-0.003575313
-0.0024040485
-0.0015510542
-0.0009539436
-0.00055982205
-0.00032219295
-0.0002020822
-0.00015672412
-0.00019287388
-0.11417565
-0.10470083
-0.095194167
-0.08650898
-0.078705671
-0.07153258
-0.064918187
-0.058744628
-0.052924596
-0.047605151
-0.042666419
-0.03794106
-0.033503837
-0.029420078
-0.025678861
-0.022262354
-0.019167768
-0.016275858
-0.01360256
-0.011131451
-0.0088394855
-0.0067019194
-0.0046938214
-0.0027856947
-0.00095385128
-0.043373494
-0.042516037
-0.040883703
-0.039216912
-0.03765361
-0.036086764
-0.034505229
-0.032849289
-0.031092096
-0.029275389
-0.027402556
-0.025476887
-0.023508225
-0.021507301
-0.019485146
-0.017445857
-0.015378971
-0.013387936
-0.011438644
-0.009527144
-0.0076556886
-0.0058289865
-0.0040538987
-0.0023398401
-0.00071901302
-0.014873714
-0.015499256
-0.015242214
-0.014722218
-0.014163255
-0.013788142
-0.013486082
-0.013194415
-0.01285838
-0.012459639
-0.011983633
-0.011432073
-0.010814281
-0.010124977
-0.0093691571
-0.0085440324
-0.007657436
-0.0067474413
-0.0058209922
-0.0048839389
-0.0039434626
-0.0030082532
-0.0020880912
-0.0011923088
-0.00034365213
-0.0061590977
-0.0072239252
-0.0072512031
-0.0067668062
-0.006234145
-0.0056982275
-0.005202959
-0.0048020959
-0.0044995829
-0.0042758638
-0.0040941228
-0.0039322328
-0.0037976213
-0.0036348198
-0.0034210664
-0.0031574069
-0.0028559431
-0.0025385895
-0.0022098046
-0.0018721388
-0.0015285324
-0.001182331
-0.00083646953
-0.00049116139
-0.00014660587
-0.004137006
-0.0054661159
-0.0059339464
-0.005825811
-0.0054372678
-0.0049599978
-0.0044557581
-0.0039645547
-0.0035180418
-0.0031355485
-0.0028330831
-0.0025746803
-0.0023145871
-0.0020780253
-0.0018668991
-0.0016710815
-0.0014851271
-0.0013032766
-0.0011245685
-0.00094845019
-0.00077434542
-0.00060203108
-0.00043102092
-0.0002595394
-8.3715592e-05
-0.002879265
-0.0045397515
-0.0053165837
-0.0055657402
-0.0054712013
-0.0051463904
-0.0047385068
-0.0043041677
-0.0038818241
-0.0034911591
-0.0031213191
-0.0027818108
-0.0024665398
-0.0021812207
-0.0019269622
-0.0017025252
-0.0014972623
-0.0013038037
-0.0011186221
-0.00093861924
-0.00076149015
-0.0005870574
-0.00041533233
-0.00024640279
-8.0058095e-05
-0.0017310699
-0.0032701756
-0.0042228486
-0.0047198236
-0.0048816423
-0.0048069942
-0.0045805984
-0.0042707968
-0.0039229046
-0.0035606903
-0.0031966697
-0.002846514
-0.0025187903
-0.0022201973
-0.0019472593
-0.0017045939
-0.0014835194
-0.0012795124
-0.0010867326
-0.00090288306
-0.000726768
-0.00055645782
-0.00039094303
-0.00022994347
-7.3898842e-05
-0.00062322956
-0.0020210799
-0.0029966812
-0.0036148692
-0.0039443909
-0.0040495562
-0.0039915156
-0.0038190505
-0.0035724861
-0.0032845143
-0.0029818241
-0.0026764404
-0.002377096
-0.0020934432
-0.0018345358
-0.0015978735
-0.001381573
-0.0011812731
-0.00099529219
-0.00082116736
-0.00065670913
-0.00049983025
-0.00034919871
-0.00020403043
-6.4870217e-05
0.00034374133
-0.00090206749
-0.0018502118
-0.002511701
-0.0029351477
-0.0031649534
-0.0032430151
-0.0032036265
-0.003077739
-0.0028922791
-0.0026701994
-0.0024284098
-0.0021801879
-0.0019350754
-0.0016993273
-0.0014783689
-0.0012741176
-0.0010846678
-0.00090953834
-0.00074625492
-0.00059315291
-0.00044884019
-0.00031182725
-0.00018070087
-5.6135107e-05
0.00107645
-2.2302673e-05
-0.00090869138
-0.0015778353
-0.0020514069
-0.0023601914
-0.0025331736
-0.0025967249
-0.0025732399
-0.0024830933
-0.0023443647
-0.0021724834
-0.0019806041
-0.0017789758
-0.0015753072
-0.0013767997
-0.001190387
-0.0010158662
-0.00085216096
-0.00069883282
-0.00055504607
-0.00041983511
-0.00029198989
-0.00017085585
-5.3855116e-05
0.0015847825
0.00062189606
-0.00019033937
-0.0008391847
-0.001331907
-0.0016859655
-0.0019212642
-0.0020567966
-0.0021097091
-0.0020953258
-0.0020280477
-0.0019208375
-0.0017855396
-0.0016323443
-0.0014695852
-0.0013044032
-0.0011410282
-0.00098274796
-0.00083050595
-0.00068520693
-0.00054683139
-0.00041503995
-0.00028966092
-0.00016870638
-5.113503e-05
0.0019178328
0.0010751548
0.0003390089
-0.00027335867
-0.0007619554
-0.0011354627
-0.0014068909
-0.0015899257
-0.0016973352
-0.0017411547
-0.0017324476
-0.0016817307
-0.0015988848
-0.0014928455
-0.0013711117
-0.001238618
-0.0010976695
-0.00095520114
-0.00081443483
-0.00067597955
-0.00054224601
-0.00041297287
-0.00028883454
-0.00016795599
-5.1483289e-05
0.0021290552
0.0013916685
0.00072873762
0.00015926002
-0.00031163785
-0.00068794202
-0.00097738639
-0.0011893435
-0.0013334879
-0.0014190425
-0.0014546122
-0.001448616
-0.0014087772
-0.0013422606
-0.0012552374
-0.0011528763
-0.0010388454
-0.00091635674
-0.00078929326
-0.00066129507
-0.00053379323
-0.00040843626
-0.00028739042
-0.00016767991
-5.091743e-05
0.0022621008
0.0016166434
0.0010218926
0.00049708049
5.0230766e-05
-0.00031861246
-0.00061368208
-0.00084137617
-0.0010088248
-0.0011230916
-0.001190952
-0.0012188513
-0.001212872
-0.001178612
-0.0011215283
-0.0010457463
-0.00095520538
-0.00085340847
-0.00074379961
-0.00062959492
-0.00051301292
-0.00039632436
-0.00028045424
-0.00016411351
-4.9779346e-05
0.0023455125
0.001779843
0.0012473555
0.00076660144
0.0003471165
-8.328589e-06
-0.00030128757
-0.00053577426
-0.00071692362
-0.00085016731
-0.00094078166
-0.00099381707
-0.001014114
-0.0010062517
-0.00097441253
-0.00092240095
-0.00085373977
-0.00077184164
-0.00067991604
-0.00058087619
-0.00047722263
-0.00037102802
-0.00026412284
-0.00015491714
-4.6631914e-05
0.0023965556
0.0018999099
0.0014235778
0.0009849346
0.00059415868
0.00025568175
-3.0085133e-05
-0.00026525315
-0.0004533716
-0.00059848151
-0.00070473532
-0.00077616783
-0.00081663365
-0.00082984025
-0.00081921008
-0.00078802094
-0.00073940483
-0.00067639315
-0.00060191322
-0.00051874759
-0.00042935649
-0.00033592054
-0.00024168461
-0.000141869
-4.2008355e-05
0.0024256161
0.0019886462
0.001562623
0.0011634647
0.00080141764
0.00048190279
0.00020668551
-2.4943084e-05
-0.00021519406
-0.00036700154
-0.00048359773
-0.00056823344
-0.00062404429
-0.00065402565
-0.00066105536
-0.00064792041
-0.00061734116
-0.00057197264
-0.00051443701
-0.00044726482
-0.0003728208
-0.00029321173
-0.00021544665
-0.0001256503
-3.4966009e-05
0.0024392267
0.0020539395
0.0016728422
0.0013102772
0.00097617248
0.00067645116
0.00041379785
0.00018854843
-4.4607738e-07
-0.00015522345
-0.00027824651
-0.000372123
-0.0004394391
-0.00048270027
-0.00050434061
-0.0005067211
-0.0004921757
-0.0004630397
-0.00042162605
-0.00037022238
-0.00031108655
-0.00024650191
-0.00017981876
-0.00010595319
-2.9694228e-05
0.0024418725
0.0021014349
0.0017603476
0.0014313943
0.0011239344
0.00084404368
0.00059499725
0.00037792968
0.00019248415
3.7362609e-05
-8.9253021e-05
-0.00018942669
-0.00026530494
-0.00031902131
-0.00035266137
-0.00036826587
-0.00036785733
-0.00035346534
-0.00032711303
-0.00029083763
-0.00024667529
-0.00019661539
-0.00014301723
-8.4411088e-05
-2.4055279e-05
0.0024367564
0.0021352772
0.0018297291
0.0015314161
0.0012489929
0.00098845219
0.00075340956
0.00054555775
0.00036515969
0.00021151379
8.3326203e-05
-2.1016877e-05
-0.00010328127
-0.00016527592
-0.00020880885
-0.0002356733
-0.00024764346
-0.00024649636
-0.00023401743
-0.00021199982
-0.00018222739
-0.00014642073
-0.00010654635
-6.282306e-05
-1.7919859e-05
0.0024260591
0.0021584402
0.0018843873
0.0016138344
0.0013546749
0.0011126619
0.0008915567
0.00069341946
0.00051898814
0.00036803642
0.00023970135
0.00013273985
4.5713857e-05
-2.2906806e-05
-7.4687016e-05
-0.00011120015
-0.00013401899
-0.00014472071
-0.00014488349
-0.00013609349
-0.00011992674
-9.7933047e-05
-7.1829572e-05
-4.2243407e-05
-1.1441254e-05
0.0024110907
0.0021729138
0.0019267182
0.0016811866
0.0014434481
0.0012189184
0.0010113575
0.00082305232
0.00065508061
0.0005075945
0.00038009388
0.00027165629
0.00018111738
0.00010717966
4.8489276e-05
3.6677508e-06
-2.868042e-05
-4.9950767e-05
-6.1543787e-05
-6.4862088e-05
-6.1313383e-05
-5.229963e-05
-3.9358682e-05
-2.3001888e-05
-5.214545e-06
0.0023924326
0.0021798722
0.001958271
0.0017351967
0.0015170374
0.0013088192
0.0011142004
0.00093557873
0.00077426302
0.00063070124
0.00050469763
0.00039561304
0.00030252235
0.00022433376
0.000159872
0.00010791907
6.7245477e-05
3.6616866e-05
1.4794654e-05
5.3680287e-07
-7.3973057e-06
-1.0241742e-05
-9.3421991e-06
-5.185039e-06
4.1650747e-07
0.0023701007
0.002179856
0.001979939
0.0017769528
0.0015765888
0.0013834619
0.0012010624
0.0010318018
0.00087714959
0.00073777074
0.00061371894
0.00050459687
0.00040969863
0.00032812441
0.00025886161
0.00020084022
0.00015297266
0.00011416201
8.3308769e-05
5.9322278e-05
4.1125483e-05
2.7660461e-05
1.7774296e-05
1.0927762e-05
5.4874145e-06
0.0023437716
0.0021729498
0.0019921569
0.0018071
0.0016228455
0.0014435955
0.0012726321
0.001112327
0.00096423082
0.00082917204
0.00070740099
0.00059872449
0.00050263317
0.00041840561
0.00034518752
0.00028205245
0.00022803878
0.0001821725
0.00014348066
0.00011100573
8.380738e-05
6.0960632e-05
4.1473993e-05
2.4976294e-05
1.003599e-05
0.0023128641
0.0021590022
0.0019950584
0.0018260034
0.001656304
0.0014897723
0.0013294634
0.0011776706
0.0010359653
0.00090529273
0.00078605895
0.00067824217
0.00058150605
0.00049529201
0.00041889684
0.00035152957
0.00029235213
0.00024050839
0.00019514442
0.00015541815
0.00012050595
8.9600953e-05
6.1868903e-05
3.7070362e-05
1.3901992e-05
0.0022767148
0.0021376903
0.0019886346
0.0018338636
0.0016773231
0.0015224428
0.0013720473
0.0012283214
0.0010928325
0.0009665892
0.00085011233
0.00074353404
0.00064666609
0.00055909958
0.00048027207
0.00040951905
0.00034612274
0.00028934255
0.0002384342
0.00019266254
0.00015130989
0.00011367713
7.9050042e-05
4.7235594e-05
1.7090355e-05
0.002234659
0.0021086615
0.0019727984
0.0018308161
0.001686195
0.0015420126
0.0014008591
0.0012647955
0.0011353551
0.001013583
0.00090009031
0.00079511741
0.00069861678
0.00061031397
0.0005297768
0.0004564597
0.0003897601
0.0003290462
0.00027367658
0.00022301456
0.00017644175
0.00013335872
9.3133544e-05
5.5542766e-05
1.9622164e-05
0.0021860958
0.0020715911
0.0019474675
0.0018169819
0.0016832011
0.00154888
0.0014163808
0.0012876292
0.001164107
0.0010468713
0.0009365932
0.00083360789
0.00073797949
0.00064955396
0.00056801215
0.00049293068
0.00042381218
0.00036012545
0.00030132269
0.0002468575
0.0001962017
0.0001488467
0.00010424828
6.2103361e-05
2.1571358e-05
0.002130534
0.002026229
0.0019126116
0.0017925175
0.0016686478
0.0015434647
0.0014191155
0.0012973892
0.0011797008
0.001067099
0.00096029176
0.00085968714
0.00076544023
0.00067750137
0.00059565968
0.00051959625
0.00044891513
0.00038317247
0.00032190666
0.00026465509
0.00021096414
0.00016039654
0.00011248467
6.6983488e-05
2.3145956e-05
0.0020676189
0.0019724295
0.0018682801
0.0017576422
0.0016428957
0.0015262384
0.0014096182
0.0012946888
0.00118279
0.0010749468
0.00097188629
0.00087406788
0.00078171932
0.00069487914
0.00061343073
0.00053714789
0.00046572479
0.0003988017
0.00033599414
0.00027691057
0.0002211625
0.000168372
0.00011813867
7.0322531e-05
2.4230507e-05
0.001997142
0.0019101654
0.0018146166
0.0017126524
0.0016063703
0.0014977311
0.0013884973
0.0012801915
0.0011740733
0.0010711339
0.00097210552
0.00087748193
0.00078754774
0.00070240799
0.00062202929
0.00054626472
0.00047488797
0.00040761582
0.00034413413
0.00028411397
0.00022722438
0.00017313827
0.00012151162
7.2286634e-05
2.4812744e-05
0.0019190404
0.00183953
0.0017518635
0.0016579251
0.0015595644
0.0014585292
0.0013564112
0.0012546067
0.0011542929
0.0010564192
0.00096171063
0.00087068186
0.00078365832
0.0007008018
0.00062214176
0.00054760052
0.00047701852
0.00041018152
0.00034683783
0.00028671505
0.00022953313
0.00017501072
0.00012285321
7.304263e-05
2.4968688e-05
0.0018333902
0.0017607327
0.0016803584
0.0015939151
0.0015030338
0.0014092713
0.0013140621
0.0012186817
0.0011242242
0.0010315907
0.00094148896
0.00085444197
0.00077080364
0.0006907793
0.00061444944
0.00054179273
0.00047270838
0.00040703918
0.0003445876
0.00028513103
0.00022843441
0.00017425784
0.00012234919
7.2710939e-05
2.4780357e-05
0.0017403917
0.001674087
0.0016005244
0.0015211458
0.0014373893
0.0013506397
0.0012621867
0.0011731913
0.0010846643
0.00099745377
0.00091224171
0.0008295488
0.00074974583
0.00067306941
0.0005996404
0.00052948362
0.0004625472
0.00039872126
0.000337854
0.00027976568
0.00022426089
0.00017113689
0.00012017778
7.1396661e-05
2.427606e-05
0.0016403518
0.0015799949
0.0015128562
0.0014401972
0.0013632847
0.0012833484
0.0012015442
0.0011189249
0.0010364188
0.00095481736
0.00087476985
0.0007967859
0.00072124267
0.0006483968
0.000578399
0.00051131016
0.00044711759
0.00038575091
0.00032709695
0.00027101277
0.00021733758
0.00016590098
0.00011651769
6.9203254e-05
2.3483979e-05
0.0015336647
0.0014789295
0.0014179041
0.0013516906
0.0012814027
0.0012081295
0.0011329035
0.0010566744
0.00098028949
0.00090448127
0.00082986116
0.00075691971
0.00068603121
0.0006174623
0.00055138342
0.00048788186
0.00042697541
0.00036862609
0.00031275319
0.00025924517
0.00020797094
0.00015878749
0.00011153521
6.6228709e-05
2.2438024e-05
0.0014207921
0.0013714177
0.001316258
0.0012562737
0.001192441
0.0011257207
0.0010570305
0.0009872222
0.00091706368
0.00084722669
0.00077828031
0.00071068944
0.00064481741
0.00058093209
0.00051921473
0.00045977045
0.00040263976
0.0003478102
0.00029522768
0.00024480698
0.00019644207
0.00015001305
0.00010538182
6.2561928e-05
2.1165956e-05
0.0013022447
0.0012580225
0.0012085323
0.001154608
0.001097101
0.0010368545
0.00097467914
0.00091133313
0.00084750625
0.00078380831
0.00072076237
0.00065880214
0.00059827315
0.000539437
0.00048247805
0.00042751187
0.00037459466
0.00032373312
0.00027489418
0.00022801421
0.0001830081
0.00013977553
9.8197514e-05
5.8285981e-05
1.9695353e-05
0.0011785634
0.001139328
0.0010953527
0.0010473567
0.00099607779
0.00094224997
0.00088658341
0.00082974677
0.00077235303
0.00071494907
0.00065800883
0.00060193031
0.00054703551
0.0004935734
0.00044172485
0.00039160936
0.00034329263
0.00029679483
0.0002520989
0.00020915843
0.00016790563
0.00012825697
9.0110408e-05
5.3476859e-05
1.8051654e-05
0.0010503049
0.0010159264
0.00097734532
0.00093517624
0.00089005221
0.00084260581
0.00079345212
0.00074317357
0.00069230767
0.00064133762
0.00059068588
0.0005407109
0.00049170649
0.00044390353
0.00039747378
0.00035253493
0.00030915683
0.00026736817
0.00022716347
0.0001885098
0.00015135358
0.00011562574
8.1239399e-05
4.8204988e-05
1.6257331e-05
0.00091803331
0.00088840982
0.00085512917
0.00081870962
0.00077968667
0.00073859754
0.00069596681
0.00065229365
0.00060804126
0.00056362869
0.00051942512
0.00047574642
0.00043285423
0.00039095695
0.00035021229
0.00031073132
0.00027258333
0.00023580133
0.00020038766
0.00016631966
0.00013355542
0.0001020383
7.1695184e-05
4.2535582e-05
1.433234e-05
0.00078231696
0.0007573692
0.00072931654
0.00069858745
0.00066562584
0.00063087862
0.00059478352
0.00055775899
0.00052019502
0.00048244628
0.00044482723
0.00040760876
0.00037101717
0.00033523453
0.0003004006
0.00026661574
0.00023394479
0.00020242141
0.00017205266
0.0001428235
0.00011470159
8.7640985e-05
6.1580988e-05
3.6529799e-05
1.2296651e-05
0.00064373518
0.00062340109
0.00060051983
0.00057543546
0.00054850498
0.00052008892
0.00049054149
0.00046020232
0.00042938934
0.00039839278
0.00036747105
0.0003368482
0.00030671261
0.00027721705
0.00024848
0.00022058783
0.00019359772
0.00016754105
0.00014242695
0.00011824589
9.4973429e-05
7.2573053e-05
5.0994681e-05
3.024595e-05
1.0170416e-05
0.00050289206
0.00048712246
0.00046936763
0.0004498913
0.00042896733
0.00040687307
0.00038388184
0.00036025633
0.00033624286
0.00031206735
0.00028793149
0.00026401076
0.00024045354
0.00021738096
0.00019488769
0.00017304347
0.00015189528
0.00013146983
0.00011177628
9.2808908e-05
7.4549901e-05
5.6971325e-05
4.0033179e-05
2.3741171e-05
7.973123e-06
0.00036038194
0.00034913883
0.0003364756
0.00032257804
0.0003076405
0.0002918595
0.00027542937
0.00025853682
0.00024135774
0.00022405333
0.00020676793
0.00018962756
0.00017273906
0.00015619005
0.00014004944
0.00012436835
0.00010918162
9.4509555e-05
8.0359758e-05
6.6729043e-05
5.360531e-05
4.096868e-05
2.8789827e-05
1.7070735e-05
5.7246811e-06
0.0002169824
0.00021023488
0.00020263315
0.0001942883
0.00018531618
0.00017583464
0.00016596003
0.00015580456
0.00014547354
0.00013506368
0.00012466175
0.00011434363
0.00010417377
9.4205134e-05
8.4479503e-05
7.5028093e-05
6.5872338e-05
5.7024921e-05
4.8490867e-05
4.0268671e-05
3.2351374e-05
2.4727154e-05
1.7377068e-05
1.0302286e-05
3.4500452e-06
7.2601803e-05
7.0345553e-05
6.7803525e-05
6.5013482e-05
6.2012477e-05
5.884128e-05
5.5538713e-05
5.214225e-05
4.868697e-05
4.5205136e-05
4.1725726e-05
3.8274119e-05
3.4871773e-05
3.1536416e-05
2.8282e-05
2.5118981e-05
2.2054587e-05
1.9093122e-05
1.6236338e-05
1.3483806e-05
1.0833289e-05
8.2808998e-06
5.8195494e-06
3.4497774e-06
1.154099e-06
)
;

boundaryField
{
    Walls
    {
        type            zeroGradient;
    }
    Inlet
    {
        type            fixedValue;
        value           uniform 500;
    }
    Outlet
    {
        type            fixedValue;
        value           uniform 0;
    }
    Front
    {
        type            wedge;
    }
    Back
    {
        type            wedge;
    }
    defaultFaces
    {
        type            empty;
    }
}


// ************************************************************************* //
