/*--------------------------------*- C++ -*----------------------------------*\
| =========                 |                                                 |
| \\      /  F ield         | OpenFOAM: The Open Source CFD Toolbox           |
|  \\    /   O peration     | Version:  4.0                                   |
|   \\  /    A nd           | Web:      www.OpenFOAM.org                      |
|    \\/     M anipulation  |                                                 |
\*---------------------------------------------------------------------------*/
FoamFile
{
    version     2.0;
    format      ascii;
    class       surfaceScalarField;
    location    "0.19";
    object      phi;
}
// * * * * * * * * * * * * * * * * * * * * * * * * * * * * * * * * * * * * * //

dimensions      [0 3 -1 0 0 0 0];

internalField   nonuniform List<scalar> 
3364
(
-3.4029048e-10
1.6518805e-08
-5.814087e-10
4.8984768e-08
8.7599693e-08
-3.659635e-10
1.6884743e-08
-1.8052869e-09
5.0424137e-08
8.5794442e-08
-5.5769335e-11
1.6940494e-08
-1.2075812e-09
5.1576016e-08
8.4586858e-08
3.6172213e-11
1.6904285e-08
1.20254e-09
5.0409618e-08
8.5789351e-08
2.1318688e-10
1.669106e-08
5.7647877e-10
5.0046236e-08
8.6365779e-08
4.7786307e-10
1.621317e-08
-4.498788e-10
5.0973925e-08
8.5915868e-08
1.8514005e-10
1.6027987e-08
-3.3462806e-10
5.1493684e-08
8.5581237e-08
-2.0439367e-10
1.623233e-08
5.568888e-11
5.1233565e-08
8.5636908e-08
-2.6531676e-10
1.649762e-08
3.385133e-10
5.0629689e-08
8.5975381e-08
8.2717609e-12
1.6489325e-08
3.18719e-10
5.0319184e-08
8.6294044e-08
-7.2115926e-11
1.6561386e-08
-2.5623642e-10
5.0503217e-08
8.603775e-08
-1.4654095e-10
1.6707872e-08
-6.2865689e-10
5.0985268e-08
8.5409046e-08
-1.135947e-10
1.682144e-08
-2.5742251e-10
5.1129067e-08
8.5151593e-08
4.0738336e-11
1.678067e-08
-1.3979571e-10
5.1309592e-08
8.5011775e-08
3.2187751e-10
1.6458743e-08
6.5719199e-10
5.0974244e-08
8.5668931e-08
2.9212227e-10
1.6166583e-08
5.6848284e-10
5.0697821e-08
8.6237352e-08
-4.4307019e-11
1.6210847e-08
-6.25487e-10
5.1278933e-08
8.5611827e-08
-3.8435115e-10
1.6595147e-08
-5.198664e-10
5.1414459e-08
8.5091953e-08
-4.7404659e-10
1.7069147e-08
8.0584423e-10
5.0134568e-08
8.5897784e-08
-1.3835478e-10
1.720747e-08
7.827567e-10
4.9213406e-08
8.6680495e-08
3.9188846e-10
1.6815555e-08
-5.3062753e-11
4.9658315e-08
8.6627388e-08
4.555552e-10
1.6359979e-08
-7.6288863e-10
5.0876725e-08
8.5864465e-08
-3.9908101e-10
1.6759025e-08
-1.7142933e-09
5.2191905e-08
8.4150141e-08
-9.8356306e-10
1.7742523e-08
-1.4278318e-09
5.263614e-08
8.2722281e-08
-6.8710271e-10
1.8429561e-08
-2.4123326e-10
5.2190217e-08
8.2481002e-08
-3.8765155e-10
1.8817169e-08
5.5291402e-10
5.1249599e-08
8.3033859e-08
-2.0431962e-12
1.8819178e-08
7.3586869e-10
5.051162e-08
8.3769679e-08
4.7503758e-10
1.8344131e-08
-6.0911598e-10
5.1595734e-08
8.3160518e-08
4.5337949e-10
1.7890832e-08
-5.6324871e-10
5.2612442e-08
8.2597285e-08
1.9649259e-09
1.5926127e-08
5.6157023e-09
4.8961781e-08
8.8213005e-08
1.1464292e-08
4.4611786e-09
4.9199152e-08
1.1225081e-08
1.0348801e-08
1.2706081e-07
4.9325039e-09
-4.7180577e-10
1.7457226e-08
-1.3011348e-09
-1.6931029e-09
2.9497232e-08
-3.6663146e-10
-1.0514267e-10
-1.3598918e-09
-3.078104e-10
-5.4024709e-10
-2.5126578e-09
-9.9938265e-11
-5.189903e-12
-3.7984436e-10
-2.7869306e-11
-1.055461e-10
-8.1450577e-10
-1.0528502e-11
5.3402606e-12
-4.8458843e-11
1.0065694e-11
-1.0164224e-11
-1.4383471e-10
-2.7509419e-13
5.6154986e-12
-3.0374919e-12
1.282848e-11
8.7712507e-12
-2.1972158e-11
1.6525427e-12
3.9629215e-12
4.9568573e-12
9.5240789e-12
8.8364092e-12
4.8921014e-12
1.7408937e-12
2.2220213e-12
6.3682722e-12
4.897172e-12
2.7743044e-12
1.2430224e-11
1.220926e-12
1.001085e-12
4.3525302e-12
1.7654944e-12
-6.0502923e-13
7.7317507e-12
4.4704397e-13
5.5407798e-13
1.4046181e-12
8.079574e-13
-1.0566345e-12
1.8562788e-12
-2.2939337e-17
5.5415197e-13
-2.8490634e-13
1.0929334e-12
1.337745e-13
-1.4751731e-12
-8.3329537e-14
6.375255e-13
-4.9860364e-13
1.5082946e-12
1.2442028e-12
-1.608902e-12
-1.2462865e-14
6.5002006e-13
-1.6959188e-13
1.6654783e-12
1.7705906e-12
-6.9589677e-13
6.258209e-14
5.8745988e-13
1.7384669e-13
1.5542447e-12
1.8398027e-12
1.046777e-13
9.1154146e-14
4.9632135e-13
3.2371256e-13
1.3217067e-12
1.6322411e-12
5.3129561e-13
8.7780822e-14
4.0855202e-13
3.1520169e-13
1.0943022e-12
1.3671063e-12
5.8035109e-13
6.7236815e-14
3.4132423e-13
2.4070854e-13
9.2084501e-13
1.1758698e-12
4.3195937e-13
5.0714721e-14
2.9061658e-13
1.7270022e-13
7.9887187e-13
1.068938e-12
2.7964581e-13
3.5094486e-14
2.5552762e-13
1.2637209e-13
7.0760427e-13
9.7443204e-13
2.2088969e-13
3.024765e-14
2.2528402e-13
1.0839474e-13
6.2946461e-13
8.84148e-13
1.9868764e-13
2.5261515e-14
2.0002542e-13
9.2901673e-14
5.6182965e-13
7.9079115e-13
1.8626474e-13
2.3006775e-14
1.7702082e-13
8.5304404e-14
4.9953554e-13
7.1145871e-13
1.6464099e-13
1.9811634e-14
1.5721082e-13
7.4054659e-14
4.4529504e-13
6.4336542e-13
1.4215076e-13
1.6475808e-14
1.4073628e-13
6.0470212e-14
4.0130248e-13
5.8363531e-13
1.2020231e-13
1.3228476e-14
1.2750881e-13
4.8840917e-14
3.6569142e-13
5.3581721e-13
9.6660496e-14
9.4974592e-15
1.1801223e-13
3.6384859e-14
3.3880522e-13
5.017587e-13
7.0444706e-14
6.6551334e-15
1.1135787e-13
2.5446358e-14
3.2001511e-13
4.8139132e-13
4.5815071e-14
4.2648983e-15
1.0709369e-13
1.4995416e-14
3.0928572e-13
4.7198969e-13
2.4398528e-14
1.626269e-15
1.0546813e-13
4.4439802e-15
3.0646925e-13
4.7387572e-13
2.5596918e-15
-5.7730538e-16
1.0604615e-13
-3.892816e-15
3.0978615e-13
4.8459347e-13
-1.460854e-14
-2.2734187e-15
1.0832031e-13
-1.0289222e-14
3.178035e-13
5.0205011e-13
-2.7743566e-14
-3.6901781e-15
1.1201126e-13
-1.5645867e-14
3.2976088e-13
5.2486556e-13
-3.845872e-14
-4.7719838e-15
1.1678405e-13
-2.0124609e-14
3.4511535e-13
5.5258006e-13
-4.7836219e-14
-5.4833292e-15
1.2226822e-13
-2.2652834e-14
3.6228685e-13
5.8430034e-13
-5.4369937e-14
-6.0252723e-15
1.2829436e-13
-2.4681709e-14
3.8094542e-13
6.1748172e-13
-5.7859632e-14
-6.3504109e-15
1.3464568e-13
-2.5824216e-14
4.0042148e-13
6.5143883e-13
-5.9777564e-14
-6.3876631e-15
1.4103426e-13
-2.5928574e-14
4.1996476e-13
6.8564415e-13
-6.0129885e-14
-6.2809952e-15
1.473162e-13
-2.5592708e-14
4.3927893e-13
7.190967e-13
-5.9041062e-14
-6.1052849e-15
1.5342242e-13
-2.4807238e-14
4.5798342e-13
7.5087575e-13
-5.6581965e-14
-5.7419703e-15
1.5916533e-13
-2.3268343e-14
4.7551236e-13
7.8056725e-13
-5.2955462e-14
-5.2416048e-15
1.6440787e-13
-2.121267e-14
4.91486e-13
8.0781343e-13
-4.8454474e-14
-4.7503424e-15
1.6915912e-13
-1.9221155e-14
5.0595938e-13
8.3244908e-13
-4.385244e-14
-4.2284158e-15
1.7338843e-13
-1.7099775e-14
5.1883328e-13
8.5427996e-13
-3.8926364e-14
-3.6657013e-15
1.7705499e-13
-1.4813647e-14
5.299837e-13
8.7315022e-13
-3.367969e-14
-3.065794e-15
1.8012162e-13
-1.237651e-14
5.3929684e-13
8.8891439e-13
-2.8136578e-14
-2.442915e-15
1.8256534e-13
-9.8611276e-15
5.4671742e-13
9.0148391e-13
-2.2426647e-14
-1.8303796e-15
1.8439651e-13
-7.3984024e-15
5.5228776e-13
9.1095843e-13
-1.6868998e-14
-1.154833e-15
1.8555213e-13
-4.7937541e-15
5.5592901e-13
9.1715799e-13
-1.0989374e-14
-4.3725471e-16
1.8599019e-13
-1.6330247e-15
5.5712715e-13
9.1895085e-13
-3.421864e-15
1.358016e-16
5.5456071e-16
1.174374e-15
1.369221e-07
-9.8665949e-09
-8.8959526e-09
1.4581173e-07
2.1295246e-08
-1.665823e-09
-1.5433479e-09
1.3942089e-08
-3.5597342e-09
-6.1862756e-10
-7.0416139e-10
-4.3987808e-09
-1.256141e-09
-1.769443e-10
-2.4749323e-10
-1.7127502e-09
-2.8307737e-10
-3.769325e-11
-6.913037e-11
-4.6142622e-10
-5.7940411e-11
-1.7233036e-12
-1.1921272e-11
-1.1514698e-10
1.6008405e-12
1.5679275e-12
-4.98524e-12
-5.3353725e-12
1.7277735e-11
-3.2799853e-12
-9.5932521e-12
2.1885133e-11
1.042993e-11
-5.9783085e-12
-1.2497648e-11
1.333408e-11
9.6506979e-13
-5.0869996e-12
-1.0477417e-11
-1.0550238e-12
-4.0931311e-12
-2.4688415e-12
-6.5376041e-12
-8.0326761e-12
-3.8504807e-12
-2.2709555e-13
-3.0860575e-12
-7.3018199e-12
-1.8358137e-12
9.1292594e-13
-1.1051972e-12
-3.8165528e-12
-1.9740225e-13
1.2150594e-12
-2.0701245e-13
-1.0955272e-12
6.1747798e-13
1.1289001e-12
2.6243995e-13
1.4805235e-13
6.1099187e-13
1.0982729e-12
4.4250719e-13
4.3093889e-13
4.6824134e-13
1.0620038e-12
5.6391722e-13
3.468423e-13
3.2104071e-13
1.020622e-12
6.0352418e-13
2.8144372e-13
2.7568106e-13
9.6584149e-13
6.3188538e-13
2.4732806e-13
2.653933e-13
8.9914383e-13
6.6067175e-13
2.3661314e-13
2.539584e-13
8.3145568e-13
6.6398387e-13
2.5065042e-13
2.3374403e-13
7.6235636e-13
6.379994e-13
2.5973081e-13
2.0568382e-13
6.9882563e-13
6.0560919e-13
2.3807524e-13
1.6211755e-13
6.5691195e-13
5.7155596e-13
1.9617151e-13
1.3869656e-13
6.1487698e-13
5.7926773e-13
1.3098529e-13
9.9287087e-14
5.8603571e-13
5.737731e-13
1.0478224e-13
5.8507174e-14
5.7334492e-13
5.7982814e-13
5.2453129e-14
2.2098536e-14
5.7564654e-13
6.0452842e-13
-2.6001438e-15
-1.1884151e-14
5.9009246e-13
6.4160626e-13
-4.8959725e-14
-3.9405099e-14
6.1489154e-13
6.8880258e-13
-8.659852e-14
-6.0502303e-14
6.4765325e-13
7.4349564e-13
-1.1519182e-13
-7.7671707e-14
6.8686967e-13
8.0433841e-13
-1.385103e-13
-9.2633989e-14
7.3167133e-13
8.6976809e-13
-1.5805883e-13
-1.0186562e-13
7.7917139e-13
9.3933275e-13
-1.7142475e-13
-1.0776064e-13
8.2907725e-13
1.0099197e-12
-1.7834139e-13
-1.1105138e-13
8.803564e-13
1.079772e-12
-1.8089677e-13
-1.1067579e-13
9.3090802e-13
1.148278e-12
-1.7917449e-13
-1.0768925e-13
9.7956216e-13
1.2144304e-12
-1.7383398e-13
-1.0259201e-13
1.0255783e-12
1.2764035e-12
-1.6455727e-13
-9.54487e-14
1.0680777e-12
1.3335622e-12
-1.5259952e-13
-8.7979221e-14
1.1076087e-12
1.3854342e-12
-1.3984329e-13
-7.9303185e-14
1.1430655e-12
1.4321344e-12
-1.2599547e-13
-7.0143215e-14
1.1742884e-12
1.4733381e-12
-1.1133925e-13
-6.0623255e-14
1.2012379e-12
1.5087894e-12
-9.6066952e-14
-5.0680624e-14
1.2237877e-12
1.5384262e-12
-8.031005e-14
-4.044825e-14
1.2418149e-12
1.5618344e-12
-6.3849315e-14
-3.0097103e-14
1.2550486e-12
1.5782421e-12
-4.649779e-14
-1.8711642e-14
1.2627763e-12
1.5887565e-12
-2.9219e-14
-6.7534006e-15
1.2661135e-12
1.5936854e-12
-1.1675002e-14
1.5953329e-15
1.7446243e-15
-9.1509354e-12
9.1538143e-12
-2.0377772e-11
1.1230118e-11
-3.246458e-11
1.2087943e-11
-4.4389218e-11
1.1924056e-11
-5.5727574e-11
1.133683e-11
-6.6241253e-11
1.0511681e-11
-7.6620707e-11
1.0377301e-11
-8.7760698e-11
1.1137891e-11
-1.0070144e-10
1.2938863e-11
-1.1640084e-10
1.5697828e-11
-1.353928e-10
1.8990765e-11
-1.5763069e-10
2.2237066e-11
-1.8287337e-10
2.524223e-11
-2.1061845e-10
2.7744924e-11
-2.4021074e-10
2.9592399e-11
-2.7092644e-10
3.0715956e-11
-3.0198585e-10
3.1059762e-11
-3.3227816e-10
3.0292652e-11
-3.6082806e-10
2.8550202e-11
-3.867163e-10
2.5888441e-11
-4.0911388e-10
2.2397682e-11
-4.2725859e-10
1.8144694e-11
-4.4055864e-10
1.3299962e-11
-4.4845199e-10
7.8932173e-12
2.1038142e-12
-4.913359e-11
5.8290581e-11
-1.08349e-10
7.0450268e-11
-1.7717004e-10
8.091442e-11
-2.5448608e-10
8.9245766e-11
-3.4089059e-10
9.774704e-11
-4.3692926e-10
1.0655595e-10
-5.4432263e-10
1.177761e-10
-6.6478541e-10
1.3160584e-10
-7.9838057e-10
1.4653884e-10
-9.4402754e-10
1.6134918e-10
-1.0999084e-09
1.7487554e-10
-1.2641588e-09
1.8649086e-10
-1.434374e-09
1.9546039e-10
-1.608249e-09
2.0162235e-10
-1.7836705e-09
2.0501585e-10
-1.9589263e-09
2.0597323e-10
-2.1363176e-09
2.0845212e-10
-2.3150018e-09
2.0897745e-10
-2.478938e-09
1.9248656e-10
-2.6228479e-09
1.6979811e-10
-2.7428561e-09
1.424053e-10
-2.8360263e-09
1.1131403e-10
-2.9000861e-09
7.7358724e-11
-2.9309666e-09
3.8772389e-11
9.8954884e-12
-1.3423596e-10
1.9253381e-10
-2.9185042e-10
2.2807573e-10
-4.7161513e-10
2.6069165e-10
-6.7521459e-10
2.9285789e-10
-9.0505834e-10
3.27603e-10
-1.1650233e-09
3.665323e-10
-1.463648e-09
4.1641122e-10
-1.8686896e-09
5.3665664e-10
-2.3161634e-09
5.940204e-10
-2.7766418e-09
6.2183402e-10
-3.2345099e-09
6.3274879e-10
-3.6797385e-09
6.3172339e-10
-4.1053305e-09
6.2105521e-10
-4.5062226e-09
6.0251623e-10
-4.8766891e-09
5.7548321e-10
-5.2116832e-09
5.4096736e-10
-5.5033378e-09
5.0010597e-10
-5.7476929e-09
4.533311e-10
-5.9568824e-09
4.0167398e-10
-6.1332637e-09
3.4617684e-10
-6.2787521e-09
2.8789075e-10
-6.3945146e-09
2.2707307e-10
-6.4809798e-09
1.638202e-10
-6.5406081e-09
9.8396784e-11
3.2514138e-11
-3.9187636e-10
5.8442497e-10
-8.2693188e-10
6.6315318e-10
-1.3118549e-09
7.4563817e-10
-2.0714524e-09
1.0524763e-09
-2.9004928e-09
1.1566607e-09
-3.7016083e-09
1.1676617e-09
-4.4229283e-09
1.1377418e-09
-4.9670502e-09
1.0807865e-09
-5.3789336e-09
1.0059098e-09
-5.6767946e-09
9.1969924e-10
-5.8718051e-09
8.2776216e-10
-5.9747205e-09
7.3464052e-10
-5.9949064e-09
6.41242e-10
-5.9366218e-09
5.4423176e-10
-5.8145937e-09
4.5345472e-10
-5.645342e-09
3.7171481e-10
-5.4451993e-09
2.9996202e-10
-5.2303874e-09
2.3851773e-10
-5.016017e-09
1.8730178e-10
-4.8153576e-09
1.4551549e-10
-4.6420264e-09
1.1455749e-10
-4.5042019e-09
8.9246249e-11
-4.4067884e-09
6.6404291e-11
-4.3531718e-09
4.4777608e-11
2.4073076e-11
-2.2592166e-09
2.8436657e-09
-3.9774879e-09
2.381451e-09
-5.4176814e-09
2.1858568e-09
-6.0651298e-09
1.6999418e-09
-6.1081413e-09
1.1996857e-09
-5.6455371e-09
7.0506822e-10
-4.8913887e-09
3.8360223e-10
-3.9098853e-09
9.9290612e-11
-2.7627579e-09
-1.4121093e-10
-1.5261667e-09
-3.1688617e-10
-2.9325297e-10
-4.0514706e-10
9.3560355e-10
-4.9421604e-10
2.1974678e-09
-6.2062261e-10
3.5967643e-09
-8.5506381e-10
4.9671852e-09
-9.1696363e-10
6.2665532e-09
-9.276489e-10
7.4711416e-09
-9.0462043e-10
8.5656217e-09
-8.559547e-10
9.5393375e-09
-7.864048e-10
1.038382e-08
-6.9895659e-10
1.1094067e-08
-5.9567692e-10
1.1662179e-08
-4.7885308e-10
1.2078839e-08
-3.5024072e-10
1.2335964e-08
-2.1233207e-10
-6.3421802e-11
1.056952e-09
1.7867996e-09
4.3324654e-09
-8.9401302e-10
8.1029454e-09
-1.5845551e-09
1.1804391e-08
-2.0014753e-09
1.5505157e-08
-2.5010543e-09
1.9148582e-08
-2.938328e-09
2.2725767e-08
-3.19355e-09
2.6082341e-08
-3.257245e-09
2.9129018e-08
-3.1878445e-09
3.1858863e-08
-3.0466838e-09
3.4320512e-08
-2.8667455e-09
3.6481759e-08
-2.6554098e-09
3.8299827e-08
-2.4386362e-09
3.9674102e-08
-2.2292821e-09
4.076909e-08
-2.0118959e-09
4.1636577e-08
-1.7950787e-09
4.2316529e-08
-1.5845164e-09
4.2842132e-08
-1.3815016e-09
4.3242044e-08
-1.1862606e-09
4.3541222e-08
-9.980787e-10
4.3761033e-08
-8.1543278e-10
4.391841e-08
-6.3617616e-10
4.4025614e-08
-4.573897e-10
4.4089926e-08
-2.765908e-10
-8.7674378e-11
1.4984794e-07
-2.2481834e-09
1.4829117e-07
6.6367341e-10
1.4553062e-07
1.1767893e-09
1.419223e-07
1.6075361e-09
1.3729889e-07
2.1229661e-09
1.3178608e-07
2.5750079e-09
1.257359e-07
2.8570731e-09
1.1953014e-07
2.9489034e-09
1.1344339e-07
2.8992361e-09
1.0761599e-07
2.7809953e-09
1.0210996e-07
2.6395388e-09
9.6985123e-08
2.469651e-09
9.2268346e-08
2.2783392e-09
8.7961963e-08
2.0772787e-09
8.4075954e-08
1.8742742e-09
8.0607231e-08
1.673791e-09
7.7544147e-08
1.478701e-09
7.4872933e-08
1.2898356e-09
7.2579079e-08
1.1077078e-09
7.0649172e-08
9.319345e-10
6.9072542e-08
7.6129604e-10
6.7842519e-08
5.9394073e-10
6.6958041e-08
4.2717726e-10
6.6422979e-08
2.5855618e-10
8.2261428e-11
1.3339602e-08
-1.6455718e-09
1.5720892e-08
-1.717502e-09
1.8355809e-08
-1.4580128e-09
2.1062559e-08
-1.0991027e-09
2.3837418e-08
-6.5178607e-10
2.6734192e-08
-3.2166493e-10
2.9638318e-08
-4.6960802e-11
3.2394053e-08
1.9325726e-10
3.4952261e-08
3.4111645e-10
3.729173e-08
4.4161478e-10
3.9374485e-08
5.5687002e-10
4.1015188e-08
8.2903297e-10
4.2313117e-08
9.8049326e-10
4.3346725e-08
1.0437527e-09
4.4158936e-08
1.0621424e-09
4.4785619e-08
1.0471852e-09
4.5258464e-08
1.00593e-09
4.5608096e-08
9.4027688e-10
4.5860432e-08
8.5544199e-10
4.6037955e-08
7.544792e-10
4.6159715e-08
6.3960191e-10
4.6241552e-08
5.1216784e-10
4.6294405e-08
3.7438494e-10
4.6325521e-08
2.275005e-10
6.8643503e-11
-5.151056e-09
-8.9330739e-10
-5.7825319e-09
-1.0860358e-09
-6.0887736e-09
-1.1517813e-09
-6.0092132e-09
-1.1786727e-09
-5.490682e-09
-1.1703254e-09
-4.6801456e-09
-1.1322072e-09
-3.6566507e-09
-1.0704589e-09
-2.4738039e-09
-9.8959005e-10
-1.2367212e-09
-8.9596412e-10
4.1697665e-12
-7.992716e-10
1.2619195e-09
-7.0087293e-10
2.6888289e-09
-5.9786729e-10
4.1658167e-09
-4.9648309e-10
5.6119934e-09
-4.0241044e-10
6.9918726e-09
-3.177214e-10
8.2829364e-09
-2.4386166e-10
9.4770766e-09
-1.8819194e-10
1.0567481e-08
-1.501082e-10
1.1540403e-08
-1.1745991e-10
1.2385681e-08
-9.0778256e-11
1.3095016e-08
-6.9711687e-11
1.3660593e-08
-5.3387655e-11
1.4075603e-08
-4.0604876e-11
1.4332459e-08
-2.9334575e-11
-1.7205463e-11
-2.3061853e-09
-2.998742e-10
-3.0552941e-09
-3.3693008e-10
-3.8364604e-09
-3.7062073e-10
-4.604506e-09
-4.1063505e-10
-5.3042076e-09
-4.7063364e-10
-5.8355005e-09
-6.0092534e-10
-6.2505495e-09
-6.5542156e-10
-6.5540162e-09
-6.8613527e-10
-6.7487216e-09
-7.0127059e-10
-6.8434323e-09
-7.0457246e-10
-6.8461578e-09
-6.9815862e-10
-6.7605825e-09
-6.8345316e-10
-6.5968324e-09
-6.60243e-10
-6.3696656e-09
-6.2958632e-10
-6.0950457e-09
-5.9234953e-10
-5.7892628e-09
-5.4965205e-10
-5.4754592e-09
-5.020022e-10
-5.1728018e-09
-4.5277169e-10
-4.8896091e-09
-4.0065797e-10
-4.6347684e-09
-3.4562378e-10
-4.4166649e-09
-2.8781963e-10
-4.2426691e-09
-2.273875e-10
-4.1187922e-09
-1.6448553e-10
-4.048718e-09
-9.9412431e-11
-3.3452288e-11
-6.6911945e-10
-9.2179338e-11
-8.9743203e-10
-1.0861604e-10
-1.1486452e-09
-1.1940673e-10
-1.4286477e-09
-1.3063245e-10
-1.7548146e-09
-1.4446741e-10
-2.1945381e-09
-1.6120367e-10
-2.6697836e-09
-1.8017911e-10
-3.1559685e-09
-1.9995452e-10
-3.6384548e-09
-2.1878949e-10
-4.107648e-09
-2.3538529e-10
-4.5567057e-09
-2.4910778e-10
-4.9799786e-09
-2.6018768e-10
-5.3703653e-09
-2.6986423e-10
-5.7043627e-09
-2.9559723e-10
-5.998569e-09
-2.9815188e-10
-6.258009e-09
-2.9022077e-10
-6.4851224e-09
-2.7489762e-10
-6.6835775e-09
-2.5432555e-10
-6.8551691e-09
-2.2907523e-10
-7.0011704e-09
-1.9963136e-10
-7.1225517e-09
-1.6644714e-10
-7.219897e-09
-1.3005088e-10
-7.2932301e-09
-9.1161014e-11
-7.3422971e-09
-5.0353983e-11
-1.1498181e-11
-1.8365275e-10
-2.3672747e-11
-2.6574829e-10
-2.6519649e-11
-3.6214831e-10
-2.3005977e-11
-4.7411104e-10
-1.8669181e-11
-6.0084283e-10
-1.7735345e-11
-7.4387594e-10
-1.8170596e-11
-9.0395595e-10
-2.0099522e-11
-1.0794875e-09
-2.442377e-11
-1.2674281e-09
-3.0850169e-11
-1.464367e-09
-3.8447963e-11
-1.6680528e-09
-4.5424011e-11
-1.8761968e-09
-5.2045966e-11
-2.0918078e-09
-5.4255972e-11
-2.3307654e-09
-5.6642644e-11
-2.5710219e-09
-5.7898811e-11
-2.803447e-09
-5.7799309e-11
-3.0224535e-09
-5.5895039e-11
-3.2241662e-09
-5.2617047e-11
-3.4050531e-09
-4.8192661e-11
-3.5619836e-09
-4.2705431e-11
-3.6921804e-09
-3.6254874e-11
-3.7932677e-09
-2.8968267e-11
-3.8634398e-09
-2.0993548e-11
-3.9013743e-09
-1.2424075e-11
-3.478003e-12
-1.9430152e-11
-9.5777861e-12
-3.2027224e-11
-1.3922481e-11
-4.4253171e-11
-1.0780025e-11
-5.7728255e-11
-5.1941716e-12
-7.6278886e-11
8.1513771e-13
-1.0219961e-10
7.7499071e-12
-1.3402475e-10
1.1725335e-11
-1.7217705e-10
1.3728179e-11
-2.1675883e-10
1.3731195e-11
-2.6720262e-10
1.1995338e-11
-3.2303487e-10
1.0407676e-11
-3.8304818e-10
7.9667033e-12
-4.4350569e-10
6.2008309e-12
-5.0459282e-10
4.4436911e-12
-5.6520397e-10
2.7114785e-12
-6.2448747e-10
1.4832495e-12
-6.8097425e-10
5.9074239e-13
-7.3360496e-10
1.2597772e-14
-7.8146017e-10
-3.3855293e-13
-8.2359472e-10
-5.7202047e-13
-8.5907832e-10
-7.7243196e-13
-8.8711691e-10
-9.308191e-13
-9.0710249e-10
-1.0091006e-12
-9.1865378e-10
-8.7386583e-13
-2.5178286e-13
2.7740422e-11
-1.5432855e-11
3.3468241e-11
-1.9650124e-11
4.1957071e-11
-1.9268724e-11
5.3503773e-11
-1.6740774e-11
6.6508216e-11
-1.2189217e-11
8.2648201e-11
-8.3899879e-12
9.7287578e-11
-2.913943e-12
1.0988392e-10
1.1319467e-12
1.1963582e-10
3.9794186e-12
1.2653094e-10
5.1003553e-12
1.3157921e-10
5.3595428e-12
1.3478405e-10
4.7620117e-12
1.3709148e-10
3.8935633e-12
1.385441e-10
2.991222e-12
1.3961331e-10
1.6424382e-12
1.4084902e-10
2.4771291e-13
1.4213066e-10
-6.9071703e-13
1.4341742e-10
-1.2739771e-12
1.4471499e-10
-1.6359258e-12
1.4589687e-10
-1.7536943e-12
1.4688127e-10
-1.7566197e-12
1.4755219e-10
-1.6015204e-12
1.4786245e-10
-1.3191397e-12
1.4790435e-10
-9.1553408e-13
-3.8107497e-13
1.6343133e-11
-1.8441667e-11
1.9057085e-11
-2.2363841e-11
2.5574188e-11
-2.5785604e-11
3.5300865e-11
-2.6467237e-11
4.8165548e-11
-2.5053686e-11
6.2221959e-11
-2.244618e-11
7.8221472e-11
-1.8913227e-11
9.4700529e-11
-1.5346866e-11
1.1072886e-10
-1.2048657e-11
1.2524212e-10
-9.4126334e-12
1.3843912e-10
-7.8371675e-12
1.4980885e-10
-6.6074175e-12
1.5953761e-10
-5.8348948e-12
1.6811428e-10
-5.5851329e-12
1.756929e-10
-5.9358649e-12
1.8217606e-10
-6.2351198e-12
1.8783372e-10
-6.3480476e-12
1.9303762e-10
-6.4775524e-12
1.976983e-10
-6.2962785e-12
2.017723e-10
-5.827362e-12
2.0514856e-10
-5.1325507e-12
2.0778562e-10
-4.2382635e-12
2.0965152e-10
-3.1847336e-12
2.1073287e-10
-1.9965862e-12
-7.006718e-13
-3.6624985e-12
-1.583404e-11
-5.6275198e-12
-2.0398666e-11
-8.3834938e-12
-2.3029484e-11
-8.9354272e-12
-2.5915166e-11
-7.2507287e-12
-2.6738255e-11
-3.7322388e-12
-2.5964543e-11
1.4391185e-12
-2.4084457e-11
7.6116316e-12
-2.151925e-11
1.4216549e-11
-1.8653443e-11
2.0626966e-11
-1.5822917e-11
2.6141949e-11
-1.3352015e-11
3.078233e-11
-1.1247664e-11
3.437985e-11
-9.432281e-12
3.6811991e-11
-8.0171427e-12
3.819501e-11
-7.3187563e-12
3.8827561e-11
-6.8675488e-12
3.8969115e-11
-6.4894858e-12
3.8581957e-11
-6.0902847e-12
3.7883623e-11
-5.5978415e-12
3.7130113e-11
-5.0737557e-12
3.6485791e-11
-4.4881394e-12
3.5979159e-11
-3.7315483e-12
3.5616629e-11
-2.8221286e-12
3.5414514e-11
-1.7944004e-12
-6.6905508e-13
-1.2882953e-11
-1.0983712e-11
-1.8628244e-11
-1.4653326e-11
-2.3745877e-11
-1.7911806e-11
-2.9517412e-11
-2.0143594e-11
-3.4488061e-11
-2.1767581e-11
-3.8423563e-11
-2.2029025e-11
-4.1027772e-11
-2.1480241e-11
-4.2587879e-11
-1.9959144e-11
-4.3364251e-11
-1.7877076e-11
-4.3704214e-11
-1.5482964e-11
-4.3985964e-11
-1.307028e-11
-4.4415646e-11
-1.0818001e-11
-4.5035415e-11
-8.8125349e-12
-4.5919237e-11
-7.1333486e-12
-4.7353407e-11
-5.8846197e-12
-4.9231991e-11
-4.9890035e-12
-5.1534098e-11
-4.1874228e-12
-5.4316113e-11
-3.3083198e-12
-5.7020834e-11
-2.8931759e-12
-5.9599503e-11
-2.4951459e-12
-6.2008263e-11
-2.0794432e-12
-6.4131998e-11
-1.6078799e-12
-6.5850828e-11
-1.1033685e-12
-6.6997022e-11
-6.4827392e-13
-1.5649163e-13
-1.1953055e-11
-6.3324838e-12
-1.7103677e-11
-9.5027155e-12
-2.2722245e-11
-1.2293255e-11
-2.8324166e-11
-1.4541697e-11
-3.4015354e-11
-1.6076424e-11
-3.9255262e-11
-1.6789157e-11
-4.4288935e-11
-1.6446615e-11
-4.8175165e-11
-1.6072967e-11
-5.1298086e-11
-1.4754215e-11
-5.3723072e-11
-1.3058043e-11
-5.5659728e-11
-1.1133691e-11
-5.729706e-11
-9.1807415e-12
-5.8771423e-11
-7.3382461e-12
-6.0205321e-11
-5.6995277e-12
-6.1718876e-11
-4.3711455e-12
-6.3233599e-11
-3.4743631e-12
-6.4935138e-11
-2.4859702e-12
-6.6496634e-11
-1.7469114e-12
-6.8195962e-11
-1.1939374e-12
-6.9907347e-11
-7.8385193e-13
-7.1494628e-11
-4.9225309e-13
-7.2803945e-11
-2.9865452e-13
-7.3756668e-11
-1.5073658e-13
-7.4261234e-11
-1.4379419e-13
-2.4194948e-13
-6.8823421e-12
-3.2667099e-12
-1.058077e-11
-5.8043108e-12
-1.4650522e-11
-8.2235324e-12
-1.8768685e-11
-1.0423569e-11
-2.2980078e-11
-1.1865072e-11
-2.7139711e-11
-1.2629567e-11
-3.0660731e-11
-1.2925644e-11
-3.399466e-11
-1.273909e-11
-3.6623337e-11
-1.2125592e-11
-3.8653354e-11
-1.1028083e-11
-4.008291e-11
-9.7041938e-12
-4.107454e-11
-8.1891708e-12
-4.1762757e-11
-6.6500895e-12
-4.2245699e-11
-5.2166459e-12
-4.257575e-11
-4.0411565e-12
-4.2895408e-11
-3.1547674e-12
-4.319725e-11
-2.1841905e-12
-4.3488367e-11
-1.4558573e-12
-4.3791659e-11
-8.9070874e-13
-4.420039e-11
-3.7518311e-13
-4.4626091e-11
-6.6615083e-14
-4.4987986e-11
6.3178827e-14
-4.52281e-11
8.9315373e-14
-4.5366705e-11
-5.2449245e-15
5.3020828e-14
-2.6112244e-12
-1.7510212e-12
-4.6644492e-12
-3.7511005e-12
-7.0997283e-12
-5.7882729e-12
-9.8943149e-12
-7.6290067e-12
-1.2322347e-11
-9.437067e-12
-1.4777274e-11
-1.0174669e-11
-1.7118874e-11
-1.0584075e-11
-1.9116342e-11
-1.0741655e-11
-2.07309e-11
-1.0511067e-11
-2.1834111e-11
-9.9249056e-12
-2.2450772e-11
-9.0875677e-12
-2.2649511e-11
-7.990465e-12
-2.25035e-11
-6.7961349e-12
-2.2103823e-11
-5.6163561e-12
-2.1613524e-11
-4.5314885e-12
-2.1177871e-11
-3.5904528e-12
-2.0583407e-11
-2.7786862e-12
-1.999221e-11
-2.047087e-12
-1.9495855e-11
-1.3870955e-12
-1.9023414e-11
-8.4765547e-13
-1.8702483e-11
-3.8757689e-13
-1.8502994e-11
-1.3634117e-13
-1.8451956e-11
3.8246964e-14
-1.8523556e-11
6.6330212e-14
-2.1328487e-14
-5.2716151e-13
-1.075812e-12
-1.5510422e-12
-2.7272284e-12
-2.9016813e-12
-4.4376455e-12
-4.4746348e-12
-6.0560675e-12
-6.3689361e-12
-7.5427826e-12
-7.9928857e-12
-8.5507376e-12
-9.3516061e-12
-9.2253744e-12
-1.0475974e-11
-9.617307e-12
-1.1328655e-11
-9.6584063e-12
-1.185965e-11
-9.393931e-12
-1.2104313e-11
-8.8429239e-12
-1.1984825e-11
-8.109972e-12
-1.1539723e-11
-7.2412554e-12
-1.0797672e-11
-6.3584254e-12
-9.9678435e-12
-5.3613333e-12
-9.071542e-12
-4.4867703e-12
-8.1820706e-12
-3.6681729e-12
-7.3280526e-12
-2.9011196e-12
-6.5026386e-12
-2.2125236e-12
-5.7109166e-12
-1.6393913e-12
-4.9511995e-12
-1.147307e-12
-4.3343172e-12
-7.5323625e-13
-3.8475644e-12
-4.485189e-13
-3.5421016e-12
-2.3913998e-13
-8.8842218e-14
6.2400703e-14
-7.072796e-13
-5.6872231e-13
-2.0961136e-12
-1.4399176e-12
-3.5664606e-12
-2.5138973e-12
-4.9821002e-12
-3.8113973e-12
-6.2452967e-12
-5.0321189e-12
-7.3300316e-12
-6.1527457e-12
-8.1047642e-12
-6.972857e-12
-8.7972129e-12
-7.5961339e-12
-9.0351464e-12
-8.0376344e-12
-8.9524471e-12
-8.19451e-12
-8.6860644e-12
-8.0552373e-12
-8.2492597e-12
-7.6231316e-12
-7.6733751e-12
-7.0826469e-12
-6.8989231e-12
-6.2984042e-12
-6.1455879e-12
-5.4274119e-12
-5.3577734e-12
-4.497238e-12
-4.5983565e-12
-3.5435362e-12
-3.8548303e-12
-2.6119411e-12
-3.1441269e-12
-1.7486411e-12
-2.5026986e-12
-9.7418283e-13
-1.9217717e-12
-3.1818975e-13
-1.4092352e-12
1.7255413e-13
-9.3926885e-13
4.8103727e-13
-5.4762399e-13
-2.1656043e-13
5.7881273e-14
-4.183252e-13
-4.4655092e-13
-1.5916916e-12
-1.1517662e-12
-2.8612577e-12
-2.0206876e-12
-4.1131926e-12
-2.9832347e-12
-5.2827647e-12
-3.9928479e-12
-6.3204347e-12
-4.8925525e-12
-7.2050766e-12
-5.7085816e-12
-7.9812012e-12
-6.5025488e-12
-8.2411966e-12
-7.0531827e-12
-8.4018304e-12
-7.3777187e-12
-8.361545e-12
-7.5037497e-12
-8.1232444e-12
-7.3861173e-12
-7.7910222e-12
-7.0020146e-12
-7.2830392e-12
-6.4443445e-12
-6.7032702e-12
-5.7441058e-12
-6.058023e-12
-4.9768234e-12
-5.3656485e-12
-4.1695352e-12
-4.662127e-12
-3.342452e-12
-3.9712174e-12
-2.574241e-12
-3.2709161e-12
-1.8694426e-12
-2.6265752e-12
-1.2688919e-12
-2.0097905e-12
-8.5779052e-13
-1.3503748e-12
-5.9628998e-13
-8.0912414e-13
-2.7570171e-13
8.3749124e-15
-1.4526296e-13
-4.3379588e-13
-1.1495306e-12
-1.0432962e-12
-2.2517698e-12
-1.7832139e-12
-3.3732893e-12
-2.6212626e-12
-4.4447321e-12
-3.5121771e-12
-5.4295375e-12
-4.3242459e-12
-6.3930258e-12
-5.2814065e-12
-7.0240591e-12
-6.0677914e-12
-7.4548302e-12
-6.7130067e-12
-7.7566333e-12
-7.181572e-12
-7.8929973e-12
-7.4423977e-12
-7.8624354e-12
-7.5874214e-12
-7.6460141e-12
-7.5052551e-12
-7.36522e-12
-7.2511525e-12
-6.9573859e-12
-6.8602056e-12
-6.4489816e-12
-6.3577153e-12
-5.8681491e-12
-5.7860969e-12
-5.2337544e-12
-5.1962266e-12
-4.5610956e-12
-4.6036094e-12
-3.8635399e-12
-4.0644329e-12
-3.1657571e-12
-3.5870255e-12
-2.4872024e-12
-3.3685338e-12
-1.5688711e-12
-3.1747588e-12
-1.002899e-12
-4.5687744e-13
2.2688185e-14
7.9370151e-14
-3.3828002e-13
-7.885719e-13
-8.5154892e-13
-1.7385128e-12
-1.4895649e-12
-2.7352872e-12
-2.218268e-12
-3.7160444e-12
-3.004675e-12
-4.643147e-12
-3.8079692e-12
-5.5897489e-12
-4.6844471e-12
-6.1475991e-12
-5.4611592e-12
-6.6781359e-12
-6.1507006e-12
-7.0671097e-12
-6.692148e-12
-7.351567e-12
-7.1160627e-12
-7.438537e-12
-7.3646941e-12
-7.3973979e-12
-7.4889103e-12
-7.2410178e-12
-7.5114548e-12
-6.9348542e-12
-7.4236048e-12
-6.536843e-12
-7.2014974e-12
-6.0902667e-12
-6.9079456e-12
-5.527315e-12
-6.5687239e-12
-4.9003249e-12
-6.2059614e-12
-4.2263089e-12
-5.860882e-12
-3.5108417e-12
-5.591421e-12
-2.7566678e-12
-4.9671242e-12
-2.1931722e-12
-4.723398e-12
-1.2466251e-12
-3.3125675e-13
1.1145192e-13
2.0452476e-13
-1.7553298e-13
-5.0159585e-13
-5.9085639e-13
-1.3232003e-12
-1.12076e-12
-2.2053962e-12
-1.7395437e-12
-3.0972746e-12
-2.3936374e-12
-3.9890682e-12
-3.1691465e-12
-4.8142555e-12
-3.9271849e-12
-5.3895767e-12
-4.6592509e-12
-5.9460861e-12
-5.3445339e-12
-6.3818427e-12
-5.8870177e-12
-6.8090988e-12
-6.4140616e-12
-6.9115079e-12
-6.7975941e-12
-7.0138793e-12
-7.0980899e-12
-6.9405349e-12
-7.271769e-12
-6.7611868e-12
-7.331906e-12
-6.4767163e-12
-7.3313612e-12
-6.0908205e-12
-7.2747322e-12
-5.5839519e-12
-7.153288e-12
-5.0217759e-12
-6.976882e-12
-4.4027206e-12
-6.7953528e-12
-3.6923753e-12
-6.5785976e-12
-2.9734266e-12
-6.4801237e-12
-2.2916497e-12
-6.3408357e-12
-1.3859127e-12
-3.68383e-13
1.7892324e-13
2.7624583e-13
-3.30814e-14
-2.8959911e-13
-3.5432439e-13
-1.0019669e-12
-7.8024789e-13
-1.7794837e-12
-1.2911047e-12
-2.5864299e-12
-1.8314008e-12
-3.4487851e-12
-2.4988453e-12
-4.1468245e-12
-3.1523948e-12
-4.736041e-12
-3.8087307e-12
-5.2897641e-12
-4.4341376e-12
-5.7564495e-12
-5.1037092e-12
-6.1395406e-12
-5.64539e-12
-6.3698399e-12
-6.0729144e-12
-6.5863669e-12
-6.5004835e-12
-6.5129768e-12
-6.789194e-12
-6.4724863e-12
-7.0171734e-12
-6.2487457e-12
-7.1803641e-12
-5.9276375e-12
-7.2581988e-12
-5.5061238e-12
-7.2816767e-12
-4.9983035e-12
-7.2772417e-12
-4.4071602e-12
-7.2339252e-12
-3.7356952e-12
-7.200337e-12
-3.0070174e-12
-7.2925864e-12
-2.1994031e-12
-7.2829797e-12
-1.3955184e-12
-4.8575542e-13
2.117548e-13
3.2421649e-13
5.8609405e-14
-1.3646055e-13
-1.8864283e-13
-7.547229e-13
-5.3219155e-13
-1.4359443e-12
-9.5848725e-13
-2.1601445e-12
-1.4170785e-12
-2.9902048e-12
-1.9733007e-12
-3.5906137e-12
-2.544741e-12
-4.1646123e-12
-3.1342399e-12
-4.7002769e-12
-3.732664e-12
-5.1580368e-12
-4.3429613e-12
-5.5292545e-12
-4.9022266e-12
-5.8105852e-12
-5.487778e-12
-6.0008255e-12
-5.9512473e-12
-6.0495166e-12
-6.3077335e-12
-6.1160083e-12
-6.6796226e-12
-5.8768639e-12
-6.9787955e-12
-5.6284708e-12
-7.1851231e-12
-5.2998015e-12
-7.3443313e-12
-4.8390996e-12
-7.4641955e-12
-4.2872995e-12
-7.5378196e-12
-3.6620735e-12
-7.5772118e-12
-2.9676271e-12