/*--------------------------------*- C++ -*----------------------------------*\
| =========                 |                                                 |
| \\      /  F ield         | OpenFOAM: The Open Source CFD Toolbox           |
|  \\    /   O peration     | Version:  4.0                                   |
|   \\  /    A nd           | Web:      www.OpenFOAM.org                      |
|    \\/     M anipulation  |                                                 |
\*---------------------------------------------------------------------------*/
FoamFile
{
    version     2.0;
    format      ascii;
    class       volVectorField;
    location    "0.19";
    object      U;
}
// * * * * * * * * * * * * * * * * * * * * * * * * * * * * * * * * * * * * * //

dimensions      [0 1 -1 0 0 0 0];

internalField   nonuniform List<vector> 
1740
(
(1.4748827 -0.0064375574 4.6712277e-06)
(1.4949767 -0.016131299 7.9292701e-07)
(1.6160199 -0.0063884366 2.521398e-08)
(1.5780949 -0.0051491351 7.9259451e-06)
(1.514578 -0.037803866 1.4837435e-06)
(1.6245789 -0.028245838 3.1261356e-07)
(1.5604777 0.0036456286 1.1500778e-05)
(1.5987021 -0.020377021 2.4795609e-06)
(1.5009828 -0.014549664 4.5806567e-07)
(1.5519146 -0.00072736823 1.3577737e-05)
(1.586576 0.020970708 3.5533316e-06)
(1.6029725 0.012432499 5.4652221e-07)
(1.5545383 0.0014709468 1.5592466e-05)
(1.4996662 0.016975058 4.4704659e-06)
(1.6152248 0.0058025717 8.2548583e-07)
(1.4764827 0.010772549 1.6335906e-05)
(1.5041194 0.003257697 5.1512522e-06)
(1.5040778 -0.0074731778 9.9053184e-07)
(1.481467 0.0082770954 1.7203483e-05)
(1.6006337 -0.0010086904 5.8134238e-06)
(1.6003922 -0.0098245178 1.1115525e-06)
(1.482825 -0.0067646838 1.7799847e-05)
(1.6074112 -0.0011790052 6.6730503e-06)
(1.6077743 -0.0025764209 1.369946e-06)
(1.4969907 -0.012724709 1.8671836e-05)
(1.5141635 0.0048444693 7.2497395e-06)
(1.5164239 0.003112214 1.5581589e-06)
(1.5050479 -0.00031504907 1.8937656e-05)
(1.5377077 0.0048980614 7.8020819e-06)
(1.5964815 0.0027429902 1.6692339e-06)
(1.5227699 0.00055766847 1.9216453e-05)
(1.5539245 -0.0035764549 8.2920001e-06)
(1.6113609 -0.0048867398 1.9262986e-06)
(1.5291264 -0.0050404636 1.9626415e-05)
(1.5550111 -0.0096436532 8.9336288e-06)
(1.5588153 -0.0052223667 2.100615e-06)
(1.5325056 -0.0074600275 2.0139836e-05)
(1.5516017 -0.0031390701 9.3871818e-06)
(1.5547467 -0.001752156 2.3042605e-06)
(1.540933 0.0041405952 2.0280894e-05)
(1.5561399 -0.0024965389 9.8493315e-06)
(1.5559287 -0.0016181201 2.4605797e-06)
(1.5279525 0.0071048228 2.0566101e-05)
(1.5777458 0.017421686 1.032648e-05)
(1.5404314 0.0081905581 2.7134465e-06)
(1.4980907 0.0062980737 2.0811758e-05)
(1.5393949 0.015238363 1.0798781e-05)
(1.6130637 0.009673324 2.848417e-06)
(1.4873436 0.0045196006 2.0740117e-05)
(1.5743764 -0.008157233 1.1127842e-05)
(1.6104154 -0.013035591 3.0998477e-06)
(1.5048772 -0.0039904409 2.0872449e-05)
(1.5958956 -0.020599953 1.1745746e-05)
(1.5296109 -0.010271793 3.2367559e-06)
(1.5053248 -0.013769558 2.1392763e-05)
(1.523974 -3.084676e-05 1.2134549e-05)
(1.5368606 0.0062843033 3.4030908e-06)
(1.5984771 -0.0087226364 2.1743752e-05)
(1.5085688 0.0070617444 1.2523431e-05)
(1.6126219 0.0074651384 3.6236318e-06)
(1.5923832 0.0062275715 2.1979783e-05)
(1.5165552 0.0061395103 1.2839394e-05)
(1.581968 0.0034007809 3.8231456e-06)
(1.4805552 0.0094537658 2.2013043e-05)
(1.5017476 0.00013480688 1.3237478e-05)
(1.574682 -0.0051561414 3.9525004e-06)
(1.4873664 -0.014194835 2.2042511e-05)
(1.5933243 -0.027363998 1.3505717e-05)
(1.5855011 -0.016467101 4.1228782e-06)
(1.5782128 -0.024729798 2.1767717e-05)
(1.6070402 -0.035110211 1.3930969e-05)
(1.5002803 -0.015613295 4.2546681e-06)
(1.684505 -0.015935274 2.1862361e-05)
(1.5995748 -0.014047054 1.4169168e-05)
(1.5123968 -0.0016058192 4.4182813e-06)
(1.6986922 -0.0098312857 2.2274909e-05)
(1.5956182 0.0004933903 1.4414578e-05)
(1.5142378 0.0066496097 4.5954198e-06)
(1.7046466 -0.0030838016 2.2819366e-05)
(1.4903076 0.01215701 1.4647628e-05)
(1.481396 0.0071400411 4.7339643e-06)
(1.6468234 0.008874714 2.3327731e-05)
(1.507162 0.00047157051 1.4953162e-05)
(1.5273832 -0.0027381614 4.9020231e-06)
(1.5486306 0.0088494736 2.262697e-05)
(1.5285402 0.0051478445 1.5091045e-05)
(1.4875575 -0.0096293497 4.8595276e-06)
(1.3252484 0.053385681 2.3627415e-05)
(1.3333281 0.11486092 1.5677737e-05)
(1.3280587 0.055020386 5.5417559e-06)
(0.83467696 0.37653455 1.1779302e-05)
(0.80948879 0.93977114 9.990639e-06)
(0.74345046 1.2538467 5.4391222e-06)
(0.22952334 0.11575346 1.5052024e-06)
(0.19539079 0.37270176 3.1273567e-06)
(0.083741909 0.50882683 7.4393749e-07)
(-0.028399089 -0.012851752 1.2379196e-06)
(-0.026614998 -0.026354694 1.717562e-06)
(-0.021926421 -0.031634572 6.3876371e-07)
(-0.0074795892 -0.0029288146 4.6500329e-07)
(-0.007454956 -0.0076039726 7.7469321e-07)
(-0.0075246376 -0.010809774 3.9873793e-07)
(-0.00080367163 -0.00025699623 1.3708378e-07)
(-0.0010584196 -0.00076754008 2.8581831e-07)
(-0.0016923886 -0.0015257124 1.7290229e-07)
(0.00011899002 -3.3867467e-06 3.8766551e-08)
(-1.7867067e-05 -2.1552996e-05 9.2311226e-08)
(-0.00031498787 -0.00019205077 5.3769685e-08)
(0.00025631535 4.6151287e-05 7.7050348e-09)
(0.00017025448 9.8196584e-05 2.140536e-08)
(8.6424092e-06 9.1327555e-05 3.4737744e-09)
(0.00024053156 4.7159414e-05 -2.5019717e-09)
(0.00018182919 0.00011275639 -2.9829775e-09)
(7.4078676e-05 0.00016263351 -1.3476227e-08)
(0.0001688802 3.3771311e-05 -4.1649877e-09)
(0.00012860165 8.0938418e-05 -7.9105714e-09)
(5.5153688e-05 0.00010454211 -1.4607056e-08)
(0.00010848179 1.202617e-05 -2.5281437e-09)
(8.0506367e-05 2.6336964e-05 -5.7315478e-09)
(2.8772251e-05 2.9631992e-05 -1.0085286e-08)
(7.4917243e-05 -4.43408e-07 -9.1354353e-10)
(5.5469175e-05 -4.6597002e-06 -2.678093e-09)
(1.88618e-05 -1.5164216e-05 -5.3276195e-09)
(6.046256e-05 -3.062191e-06 -1.5313316e-10)
(4.6631709e-05 -1.0102069e-05 -8.9475558e-10)
(2.0084201e-05 -1.9647348e-05 -2.3255136e-09)
(5.376045e-05 -7.4793757e-07 -7.9373002e-11)
(4.3600944e-05 -2.7538952e-06 -3.0825052e-10)
(2.3765809e-05 -8.170142e-06 -9.3602404e-10)
(4.8759531e-05 1.5218765e-06 -1.72811e-10)
(4.1166663e-05 3.7617242e-06 -2.1444691e-10)
(2.6111467e-05 2.1007655e-06 -4.1841588e-10)
(4.3488641e-05 2.3698737e-06 -2.0536649e-10)
(3.7759644e-05 6.1900002e-06 -2.13297e-10)
(2.6230974e-05 7.4246149e-06 -2.4816569e-10)
(3.8038992e-05 2.3837973e-06 -1.9660372e-10)
(3.3666421e-05 5.8575123e-06 -1.9185447e-10)
(2.4760758e-05 8.0278484e-06 -1.7180688e-10)
(3.2925459e-05 1.805904e-06 -1.5059298e-10)
(2.9547968e-05 4.4583403e-06 -1.4602623e-10)
(2.2594883e-05 6.0392443e-06 -1.1477441e-10)
(2.8445928e-05 1.3522895e-06 -1.1448091e-10)
(2.5802697e-05 3.2759023e-06 -1.0343869e-10)
(2.0304641e-05 4.0811856e-06 -7.0615121e-11)
(2.466137e-05 8.9898279e-07 -8.8112651e-11)
(2.2566208e-05 2.3764026e-06 -7.4289591e-11)
(1.8167936e-05 3.1049564e-06 -4.3529704e-11)
(2.1503156e-05 7.8944569e-07 -7.9290187e-11)
(1.9823358e-05 2.0467281e-06 -6.1138605e-11)
(1.6269082e-05 2.7171106e-06 -3.1761247e-11)
(1.8860024e-05 6.5238072e-07 -7.5451465e-11)
(1.7498682e-05 1.7509859e-06 -5.7889301e-11)
(1.4598867e-05 2.481162e-06 -2.9343194e-11)
(1.6635539e-05 5.785103e-07 -6.8819064e-11)
(1.5521606e-05 1.6164932e-06 -5.6276341e-11)
(1.3135017e-05 2.2542079e-06 -2.9717352e-11)
(1.4768925e-05 4.9524883e-07 -6.4533082e-11)
(1.384996e-05 1.3705253e-06 -5.3615888e-11)
(1.1869708e-05 1.9416245e-06 -2.9787107e-11)
(1.3226974e-05 4.0743366e-07 -6.0816756e-11)
(1.2463348e-05 1.1218151e-06 -5.096217e-11)
(1.0809144e-05 1.6147673e-06 -2.9247135e-11)
(1.1989346e-05 3.1605122e-07 -5.69536e-11)
(1.1350968e-05 9.0661187e-07 -4.8621575e-11)
(9.9613181e-06 1.2911845e-06 -2.8857611e-11)
(1.103947e-05 2.0848797e-07 -5.1873951e-11)
(1.0503232e-05 6.6848267e-07 -4.5021091e-11)
(9.3295107e-06 9.3853039e-07 -2.7691423e-11)
(1.0359424e-05 1.2984975e-07 -5.0041841e-11)
(9.9073061e-06 4.7755051e-07 -4.3610078e-11)
(8.9109628e-06 6.311523e-07 -2.7306498e-11)
(9.9280718e-06 6.5015551e-08 -4.9306155e-11)
(9.5457543e-06 2.9681984e-07 -4.2767032e-11)
(8.6959656e-06 3.4450719e-07 -2.7134838e-11)
(9.7210487e-06 -7.5964253e-09 -4.7109875e-11)
(9.396908e-06 1.0484251e-07 -4.0727672e-11)
(8.6684577e-06 5.7035041e-08 -2.6351619e-11)
(9.7107481e-06 -6.5935556e-08 -4.5089665e-11)
(9.4353016e-06 -4.8125146e-08 -3.8832064e-11)
(8.8072969e-06 -1.7135426e-07 -2.5742205e-11)
(9.8673647e-06 -1.1738969e-07 -4.338594e-11)
(9.6328708e-06 -1.6640076e-07 -3.7232384e-11)
(9.088057e-06 -3.4206102e-07 -2.5215037e-11)
(1.0160735e-05 -1.5688659e-07 -4.1895826e-11)
(9.9607768e-06 -2.655206e-07 -3.5664958e-11)
(9.4848531e-06 -4.8547524e-07 -2.4539695e-11)
(1.0561668e-05 -1.8566144e-07 -4.0768217e-11)
(1.0390866e-05 -3.4347474e-07 -3.4466619e-11)
(9.9719274e-06 -6.0971712e-07 -2.381611e-11)
(1.1042592e-05 -2.0370303e-07 -3.9715205e-11)
(1.0896469e-05 -3.9027545e-07 -3.3392195e-11)
(1.0524546e-05 -6.9060115e-07 -2.3270875e-11)
(1.1578162e-05 -2.1707492e-07 -3.8448109e-11)
(1.1452939e-05 -4.2915437e-07 -3.2170307e-11)
(1.1119716e-05 -7.3831937e-07 -2.2736615e-11)
(1.2145742e-05 -2.2393845e-07 -3.7200932e-11)
(1.203818e-05 -4.5183587e-07 -3.106643e-11)
(1.1736752e-05 -7.6211623e-07 -2.2241878e-11)
(1.2725563e-05 -2.2175542e-07 -3.6402933e-11)
(1.2632942e-05 -4.5284121e-07 -3.0421346e-11)
(1.2357538e-05 -7.6648853e-07 -2.1795233e-11)
(1.3300877e-05 -2.153824e-07 -3.5496866e-11)
(1.3220887e-05 -4.4641894e-07 -2.9559675e-11)
(1.2966706e-05 -7.5584205e-07 -2.1280198e-11)
(1.3857971e-05 -2.0732744e-07 -3.4213816e-11)
(1.3788609e-05 -4.3512136e-07 -2.8369081e-11)
(1.3551672e-05 -7.2808549e-07 -2.0768466e-11)
(1.4385991e-05 -1.9390833e-07 -3.3317136e-11)
(1.4325551e-05 -4.0937074e-07 -2.7670204e-11)
(1.4102582e-05 -6.8162138e-07 -2.0527348e-11)
(1.4876795e-05 -1.7644748e-07 -3.2777108e-11)
(1.4823856e-05 -3.7299992e-07 -2.7370486e-11)
(1.461219e-05 -6.2219664e-07 -2.0483002e-11)
(1.5324723e-05 -1.5932919e-07 -3.2243977e-11)
(1.5278069e-05 -3.379757e-07 -2.7119603e-11)
(1.5075526e-05 -5.6328723e-07 -2.0482637e-11)
(1.572599e-05 -1.4140356e-07 -3.1768098e-11)
(1.5684553e-05 -3.008415e-07 -2.6922399e-11)
(1.5489323e-05 -5.0030349e-07 -2.0540322e-11)
(1.6077822e-05 -1.2238524e-07 -3.1427512e-11)
(1.6040676e-05 -2.607386e-07 -2.6849985e-11)
(1.5851264e-05 -4.3301503e-07 -2.0693349e-11)
(1.637752e-05 -1.0239676e-07 -3.1264082e-11)
(1.6343867e-05 -2.1789887e-07 -2.6943879e-11)
(1.615906e-05 -3.616438e-07 -2.0962887e-11)
(1.6621561e-05 -8.186388e-08 -3.1255365e-11)
(1.6590702e-05 -1.7362981e-07 -2.7166633e-11)
(1.6409532e-05 -2.8822062e-07 -2.1287881e-11)
(1.6808057e-05 -6.1702559e-08 -3.1297149e-11)
(1.6779365e-05 -1.304763e-07 -2.7360203e-11)
(1.6601023e-05 -2.1691386e-07 -2.1464389e-11)
(1.69268e-05 -3.9749858e-08 -3.1402184e-11)
(1.6899609e-05 -8.3787646e-08 -2.7168972e-11)
(1.6723402e-05 -1.4113725e-07 -2.1015215e-11)
(1.7017109e-05 -1.663412e-08 -3.0924255e-11)
(1.6990842e-05 -2.8330483e-08 -2.5281286e-11)
(1.6815804e-05 -4.519734e-08 -1.8751714e-11)
(1.6991041e-05 2.4984132e-09 -2.7496018e-11)
(1.6964841e-05 1.0947859e-08 -1.8598687e-11)
(1.6790755e-05 1.5677711e-08 -1.2570431e-11)
(-0.047824143 1.9565584 -3.5009762e-07)
(-0.033659621 1.7041802 -3.4303289e-06)
(-0.065334292 0.34594339 -2.1760093e-07)
(-0.04487349 0.15415973 -9.8123429e-07)
(-0.017780487 -0.040478548 -1.4246378e-07)
(-0.013001785 -0.043296296 -5.5730666e-07)
(-0.0064829512 -0.013769323 -2.3428201e-08)
(-0.0058016825 -0.015282061 -3.0841493e-07)
(-0.0019150212 -0.0026812592 -2.1667034e-08)
(-0.0020201852 -0.0037392881 -1.8815981e-07)
(-0.0004880624 -0.00049896617 -3.5388603e-08)
(-0.00057579076 -0.00084320241 -1.2668394e-07)
(-0.00011484785 4.729707e-05 -3.9812188e-08)
(-0.00017224157 -7.0630841e-06 -8.9229741e-08)
(-2.591588e-05 0.0001933194 -3.5546702e-08)
(-9.2547667e-05 0.00019807965 -6.2257086e-08)
(-1.9259161e-05 0.00011485068 -2.6383997e-08)
(-7.7974176e-05 0.00011991342 -4.0786576e-08)
(-2.7270706e-05 1.8084116e-05 -1.6563163e-08)
(-7.4911348e-05 -1.6662494e-06 -2.4300283e-08)
(-2.2670097e-05 -3.5343932e-05 -8.8992563e-09)
(-6.0259768e-05 -6.1652101e-05 -1.3007603e-08)
(-1.1095884e-05 -3.4344894e-05 -4.1940268e-09)
(-4.0605465e-05 -5.5539581e-05 -6.281257e-09)
(-1.3118767e-07 -1.6125023e-05 -1.8115848e-09)
(-2.3473141e-05 -2.7953827e-05 -2.7985256e-09)
(7.5649765e-06 -7.8710613e-07 -7.7164822e-10)
(-1.1085645e-05 -6.2529241e-06 -1.1953023e-09)
(1.1737857e-05 7.1984179e-06 -3.5958395e-10)
(-3.2357022e-06 3.8458998e-06 -5.1557896e-10)
(1.336072e-05 7.5908233e-06 -1.8671572e-10)
(1.2659483e-06 5.0537832e-06 -2.2923192e-10)
(1.3537258e-05 5.6777134e-06 -9.8430512e-11)
(3.7065552e-06 3.9295083e-06 -9.9800767e-11)
(1.3039532e-05 3.7437972e-06 -4.7238362e-11)
(4.9987916e-06 2.9602582e-06 -3.6811896e-11)
(1.2289319e-05 3.1443089e-06 -2.0583727e-11)
(5.6675658e-06 2.6059184e-06 -7.1431585e-12)
(1.1468932e-05 2.989446e-06 -9.9028615e-12)
(5.9758987e-06 2.457383e-06 4.366622e-12)
(1.0645594e-05 2.8521124e-06 -8.0361812e-12)
(6.057697e-06 2.4401896e-06 6.1966214e-12)
(9.8541155e-06 2.5514117e-06 -9.4890177e-12)
(6.0000575e-06 2.4292883e-06 3.9563953e-12)
(9.1293988e-06 2.2440241e-06 -1.1296805e-11)
(5.8755354e-06 2.1784532e-06 1.1849656e-12)
(8.5070274e-06 1.821739e-06 -1.2270493e-11)
(5.7486204e-06 1.7281544e-06 -9.6306171e-13)
(8.0175929e-06 1.5216258e-06 -1.3224629e-11)
(5.6699471e-06 1.2854121e-06 -2.6379311e-12)
(7.6813823e-06 1.0699852e-06 -1.3617691e-11)
(5.6759642e-06 1.0059928e-06 -3.9688946e-12)
(7.5073898e-06 6.5178764e-07 -1.3980459e-11)
(5.78908e-06 5.2508423e-07 -4.8431444e-12)
(7.495412e-06 2.9130722e-07 -1.4402423e-11)
(6.0175531e-06 6.2813632e-08 -5.548244e-12)
(7.6366224e-06 -6.4979807e-08 -1.4528762e-11)
(6.3598998e-06 -3.3528648e-07 -6.242808e-12)
(7.9156351e-06 -3.5356113e-07 -1.4745804e-11)
(6.8070317e-06 -6.5726086e-07 -6.9317561e-12)
(8.31274e-06 -5.7352024e-07 -1.492126e-11)
(7.3444028e-06 -9.0669579e-07 -7.5106688e-12)
(8.8059808e-06 -7.5365755e-07 -1.4911865e-11)
(7.9543904e-06 -1.1032219e-06 -7.932773e-12)
(9.3728016e-06 -9.1258463e-07 -1.4710456e-11)
(8.6180821e-06 -1.2721215e-06 -8.1478831e-12)
(9.9912096e-06 -1.0107601e-06 -1.4688758e-11)
(9.3165464e-06 -1.3838169e-06 -8.375839e-12)
(1.0640481e-05 -1.0697684e-06 -1.4589561e-11)
(1.0031699e-05 -1.4489365e-06 -8.5410784e-12)
(1.1301792e-05 -1.1044467e-06 -1.4401311e-11)
(1.0746986e-05 -1.4805654e-06 -8.6263207e-12)
(1.1958681e-05 -1.1058494e-06 -1.4255933e-11)
(1.1447872e-05 -1.4683008e-06 -8.7576842e-12)
(1.2597179e-05 -1.0789302e-06 -1.4162729e-11)
(1.2122081e-05 -1.4239349e-06 -8.9205077e-12)
(1.3205871e-05 -1.0294718e-06 -1.411123e-11)
(1.2759654e-05 -1.3506322e-06 -9.1119562e-12)
(1.3775914e-05 -9.5994169e-07 -1.4166532e-11)
(1.3352963e-05 -1.254428e-06 -9.3463137e-12)
(1.4300907e-05 -8.8253253e-07 -1.4305388e-11)
(1.3896629e-05 -1.1528966e-06 -9.6145944e-12)
(1.4776564e-05 -7.9674541e-07 -1.4491522e-11)
(1.438721e-05 -1.0385966e-06 -9.915224e-12)
(1.5200178e-05 -7.0542854e-07 -1.4722189e-11)
(1.4822678e-05 -9.1780766e-07 -1.0244057e-11)
(1.5569885e-05 -6.0992483e-07 -1.5015697e-11)
(1.5201749e-05 -7.9234926e-07 -1.0616614e-11)
(1.5883795e-05 -5.0968876e-07 -1.5382911e-11)
(1.5523021e-05 -6.6241201e-07 -1.1034424e-11)
(1.6139076e-05 -4.0660783e-07 -1.5753727e-11)
(1.5784094e-05 -5.2757499e-07 -1.1433051e-11)
(1.6334306e-05 -3.0402396e-07 -1.5923563e-11)
(1.5983849e-05 -3.8764204e-07 -1.1630544e-11)
(1.6459567e-05 -1.9247578e-07 -1.5445775e-11)
(1.61126e-05 -2.4254748e-07 -1.1248684e-11)
(1.6553523e-05 -6.5524853e-08 -1.343136e-11)
(1.6208419e-05 -9.2875368e-08 -9.6527276e-12)
(1.6529851e-05 1.8195477e-08 -8.6029232e-12)
(1.6186555e-05 1.7191546e-08 -6.0441778e-12)
(0.00077864775 -2.2488503e-05 -5.837962e-08)
(0.0007965345 -0.00011566697 -1.3701353e-07)
(0.00081129128 -0.00015441219 -1.9110375e-07)
(0.00080364919 -0.00021181905 -2.2279805e-07)
(0.00077230092 -0.00023848116 -2.3684765e-07)
(0.00072058661 -0.00026555134 -2.3857751e-07)
(0.00065894485 -0.00028250244 -2.3244859e-07)
(0.00059394868 -0.00029938189 -2.2176738e-07)
(0.0005305534 -0.00031879886 -2.0875871e-07)
(0.00047159946 -0.00034242003 -1.9487635e-07)
(0.00041829613 -0.00037169622 -1.8106851e-07)
(0.00037107693 -0.00040646225 -1.6781776e-07)
(0.00032962858 -0.00044534725 -1.5529162e-07)
(0.00029303593 -0.00048714274 -1.4344019e-07)
(0.00026035881 -0.00052994937 -1.3214787e-07)
(0.00023072896 -0.00057165785 -1.2130603e-07)
(0.00020334316 -0.00061105765 -1.1081627e-07)
(0.0001772305 -0.00064726165 -1.0054664e-07)
(0.00015216178 -0.00067835494 -9.0328034e-08)
(0.00012787784 -0.00070234308 -7.9967505e-08)
(0.0001041487 -0.00071838579 -6.9202301e-08)
(8.0658439e-05 -0.00072697522 -5.753084e-08)
(5.7364335e-05 -0.00072767487 -4.4427922e-08)
(3.4112037e-05 -0.00072215192 -2.949258e-08)
(1.0781376e-05 -0.00068859807 -1.2503458e-08)
(0.00034111165 -0.00015057234 -7.5285523e-08)
(0.00034682282 -0.0005760005 -1.7373889e-07)
(0.0003398523 -0.00082554231 -2.3710766e-07)
(0.00032214056 -0.0011690303 -2.6979116e-07)
(0.00030598607 -0.0014278973 -2.8044335e-07)
(0.00030008157 -0.0016945865 -2.7783123e-07)
(0.00030464637 -0.0019435897 -2.6776412e-07)
(0.00031788759 -0.0022050736 -2.5389754e-07)
(0.00033169619 -0.0024826172 -2.3829056e-07)
(0.00034213705 -0.0027568226 -2.2221872e-07)
(0.00034681326 -0.003026271 -2.0665218e-07)
(0.00034493676 -0.0032888825 -1.9200151e-07)
(0.00033676539 -0.0035399867 -1.7835335e-07)
(0.00032300221 -0.0037756907 -1.6552795e-07)
(0.00030438912 -0.0039932135 -1.5333159e-07)
(0.00028167691 -0.0041910493 -1.4162498e-07)
(0.00025565312 -0.0043730235 -1.3032273e-07)
(0.00022739409 -0.0045418015 -1.1922084e-07)
(0.00019736589 -0.0046834139 -1.0809472e-07)
(0.00016607949 -0.004781538 -9.6700405e-08)
(0.00013413767 -0.0048318209 -8.4847651e-08)
(0.0001020198 -0.0048362528 -7.1662152e-08)
(7.0340753e-05 -0.0047981738 -5.636231e-08)
(3.9598584e-05 -0.0047032281 -3.7891738e-08)
(1.0881468e-05 -0.0044917053 -1.6488911e-08)
(0.0013098802 -0.00036430675 -1.1537978e-07)
(0.0013048797 -0.0016474042 -2.5571634e-07)
(0.0012836291 -0.0022204093 -3.3407216e-07)
(0.0012640419 -0.0031137563 -3.6311386e-07)
(0.0012517002 -0.0038163343 -3.6397835e-07)
(0.0012426048 -0.0045326106 -3.5169996e-07)
(0.0012306033 -0.0052372559 -3.3351901e-07)
(0.001208328 -0.0061058595 -3.1352055e-07)
(0.0011753803 -0.0071189392 -2.929682e-07)
(0.0011317323 -0.0080722845 -2.7254954e-07)
(0.0010774853 -0.008912325 -2.5357849e-07)
(0.0010150139 -0.0096290761 -2.3622671e-07)
(0.00094597127 -0.010218729 -2.2049541e-07)
(0.00087194214 -0.010687956 -2.0585557e-07)
(0.00079407768 -0.011044812 -1.9195856e-07)
(0.00071358392 -0.011293519 -1.786089e-07)
(0.00063179002 -0.011432685 -1.6590059e-07)
(0.00054998962 -0.011467326 -1.5335981e-07)
(0.00046879916 -0.011419137 -1.4073053e-07)
(0.00038899531 -0.011310908 -1.2782519e-07)
(0.00031145713 -0.01115369 -1.1421714e-07)
(0.00023612815 -0.010956698 -9.90862e-08)
(0.00016343954 -0.010727471 -8.1145535e-08)
(9.3714338e-05 -0.01043598 -5.8118082e-08)
(2.873986e-05 -0.010034857 -2.9046902e-08)
(0.0040412348 -0.0011199542 -1.9988344e-07)
(0.0038896135 -0.0048808355 -4.0667169e-07)
(0.003719869 -0.0062107366 -4.9352144e-07)
(0.0034621801 -0.0093206467 -5.0483843e-07)
(0.0032042168 -0.012061482 -4.8587872e-07)
(0.0029320817 -0.014539332 -4.5782665e-07)
(0.002667477 -0.016330385 -4.273379e-07)
(0.002405262 -0.017304697 -3.9989797e-07)
(0.0021553156 -0.017610879 -3.7365678e-07)
(0.0019194889 -0.017506575 -3.4683981e-07)
(0.0016978401 -0.017092802 -3.2300777e-07)
(0.0014937867 -0.016481576 -3.0156044e-07)
(0.0013047547 -0.015697444 -2.8291267e-07)
(0.0011244371 -0.014786766 -2.6557354e-07)
(0.00096148737 -0.013804808 -2.4903214e-07)
(0.0008161763 -0.012797359 -2.3317792e-07)
(0.00068730461 -0.011802076 -2.1788621e-07)
(0.00057300053 -0.010851046 -2.028646e-07)
(0.00047173391 -0.0099658573 -1.8811097e-07)
(0.00038155133 -0.0091663825 -1.7326024e-07)
(0.00030028574 -0.0084665102 -1.5787656e-07)
(0.00022688769 -0.0078726773 -1.4123894e-07)
(0.0001594785 -0.007385991 -1.2210966e-07)
(9.6373609e-05 -0.0069622794 -9.8251332e-08)
(3.5479728e-05 -0.0066470757 -6.2731867e-08)
(0.012024882 -0.008867328 -3.8930137e-07)
(0.0093552484 -0.025842012 -6.6267546e-07)
(0.0079921925 -0.028063565 -7.256963e-07)
(0.0061862111 -0.032123824 -7.0554073e-07)
(0.0047352067 -0.029472665 -6.6166406e-07)
(0.003505184 -0.025676353 -6.123405e-07)
(0.0024853661 -0.021037525 -5.6499029e-07)
(0.0016779432 -0.016141936 -5.2126244e-07)
(0.0010503708 -0.011232214 -4.8347023e-07)
(0.00056700111 -0.0066972659 -4.4896285e-07)
(0.00020432959 -0.0026041321 -4.1791512e-07)
(-6.0058154e-05 0.00093082709 -3.8897936e-07)
(-0.00024424613 0.0041598871 -3.6618731e-07)
(-0.00036329211 0.0072538265 -3.4454367e-07)
(-0.00043635965 0.010125407 -3.2355442e-07)
(-0.00047084958 0.012621085 -3.035681e-07)
(-0.000474955 0.014704495 -2.8443721e-07)
(-0.00045554101 0.016391233 -2.6595549e-07)
(-0.00041804546 0.01770834 -2.4795848e-07)
(-0.0003670324 0.01868461 -2.30216e-07)
(-0.00030656752 0.01934709 -2.1242452e-07)
(-0.00023907297 0.019725086 -1.9408819e-07)
(-0.00016725449 0.019816375 -1.7424685e-07)
(-9.4178081e-05 0.01968651 -1.5573635e-07)
(-2.1456166e-05 0.018984891 -1.3759163e-07)
(0.014680344 0.024029808 -7.6964712e-07)
(0.0032953967 -0.00047466762 -1.0798453e-06)
(0.00051287759 0.048922662 -1.0760573e-06)
(-0.0012554137 0.052001653 -9.9939678e-07)
(-0.0028027361 0.066083067 -9.2159402e-07)
(-0.0039523082 0.076252044 -8.3529098e-07)
(-0.0045917156 0.083323399 -7.5773307e-07)
(-0.0047815871 0.089214795 -6.8973554e-07)
(-0.004692298 0.093533561 -6.300249e-07)
(-0.0044651099 0.096215951 -5.7834665e-07)
(-0.0041652633 0.097730765 -5.3418073e-07)
(-0.0038083395 0.098175632 -4.8763747e-07)
(-0.0034464614 0.097899284 -4.6080707e-07)
(-0.003096752 0.096638203 -4.3164942e-07)
(-0.0027449229 0.094484164 -4.0243503e-07)
(-0.0024026315 0.092055205 -3.7602202e-07)
(-0.0020794241 0.089426517 -3.5140491e-07)
(-0.0017765781 0.086681074 -3.2811478e-07)
(-0.0014935069 0.083894307 -3.0585501e-07)
(-0.001228458 0.081123724 -2.8437932e-07)
(-0.00097892192 0.078405035 -2.634509e-07)
(-0.00074311429 0.075781914 -2.4277742e-07)
(-0.00051828766 0.073219412 -2.2203732e-07)
(-0.00030267482 0.070928317 -2.0178578e-07)
(-9.0412718e-05 0.06742248 -1.8236145e-07)
(-0.0016099168 1.1793778 -2.498793e-06)
(-0.00080223442 0.96451573 -1.9832332e-06)
(-0.0011426207 0.86802126 -1.6041063e-06)
(-0.00086348357 0.77474369 -1.3130142e-06)
(-0.00072680479 0.67819509 -1.0966024e-06)
(-0.00061858984 0.58667051 -9.3993076e-07)
(-0.00051666534 0.50823819 -8.2459844e-07)
(-0.00043164123 0.44452099 -7.3782364e-07)
(-0.00035844963 0.39199648 -6.6586404e-07)
(-0.00029780542 0.34718783 -6.0922608e-07)
(-0.00024551853 0.3085097 -5.6408951e-07)
(-0.0002025998 0.27522379 -5.235147e-07)
(-0.00016794452 0.24676649 -4.8883231e-07)
(-0.00014373712 0.22241172 -4.578617e-07)
(-0.00012132148 0.20149837 -4.2931271e-07)
(-0.00010193059 0.18354637 -4.0259821e-07)
(-8.460521e-05 0.1681262 -3.7721923e-07)
(-7.0046478e-05 0.15487482 -3.5289511e-07)
(-5.750487e-05 0.14348893 -3.2946477e-07)
(-4.643845e-05 0.13371869 -3.0679204e-07)
(-3.6427356e-05 0.12534522 -2.8473728e-07)
(-2.7347582e-05 0.11822893 -2.6308742e-07)
(-1.8881236e-05 0.11211123 -2.4182828e-07)
(-1.09237e-05 0.10731912 -2.2087876e-07)
(-3.1847862e-06 0.10126104 -1.9896071e-07)
(-0.013246279 0.092234034 -1.1961223e-06)
(-0.00232144 0.10029009 -1.2336186e-06)
(0.00010438644 0.10588851 -1.1858386e-06)
(0.0016825508 0.10733181 -1.0944852e-06)
(0.0031011276 0.10910671 -9.9212718e-07)
(0.0041658935 0.11051949 -8.9253086e-07)
(0.0047426324 0.11198648 -8.0317171e-07)
(0.0048839473 0.11336623 -7.2548111e-07)
(0.0047321612 0.11404419 -6.4152522e-07)
(0.0044655581 0.1140054 -5.9792666e-07)
(0.0041706582 0.11324337 -5.543881e-07)
(0.0038290708 0.11155648 -5.0884708e-07)
(0.0034565501 0.10904584 -4.702143e-07)
(0.0030856272 0.10602298 -4.3651771e-07)
(0.0027269758 0.10274762 -4.0640476e-07)
(0.0023861114 0.099346559 -3.7895322e-07)
(0.0020668553 0.095901332 -3.5353992e-07)
(0.001765167 0.092479187 -3.2971301e-07)
(0.0014827346 0.089131897 -3.071158e-07)
(0.0012185376 0.085896841 -2.8544084e-07)
(0.00097063061 0.082794418 -2.6438093e-07)
(0.00073668912 0.079855628 -2.4352811e-07)
(0.00051399598 0.07703526 -2.233961e-07)
(0.00030044737 0.074550343 -2.0302745e-07)
(9.0102781e-05 0.07082329 -1.8319222e-07)
(-0.0098122585 -0.041009723 -7.7576637e-07)
(-0.0079873917 -0.038429998 -8.3735847e-07)
(-0.0063795912 -0.036379668 -8.2331284e-07)
(-0.0049226728 -0.032780987 -7.7773861e-07)
(-0.003656178 -0.027822466 -7.2056014e-07)
(-0.0025824544 -0.022310463 -6.6022545e-07)
(-0.00170642 -0.016682753 -6.0477331e-07)
(-0.001018455 -0.011170677 -5.5408126e-07)
(-0.00049405919 -0.0062379365 -5.0678792e-07)
(-9.6412324e-05 -0.0018735073 -4.7142459e-07)
(0.00019361821 0.0018856127 -4.3865358e-07)
(0.00039743346 0.0055482052 -4.0783803e-07)
(0.00053111182 0.009040483 -3.7986098e-07)
(0.00061142184 0.012174282 -3.5442633e-07)
(0.00064878069 0.014873003 -3.310387e-07)
(0.00065116705 0.017133816 -3.0926637e-07)
(0.00062435786 0.018984748 -2.8883629e-07)
(0.00058079785 0.020466376 -2.6942946e-07)
(0.00052266768 0.02160629 -2.507512e-07)
(0.00045306161 0.02242405 -2.3249277e-07)
(0.00037490343 0.02294068 -2.1421413e-07)
(0.00029053625 0.023176557 -1.9496394e-07)
(0.0002030905 0.023144035 -1.7764733e-07)
(0.00011521553 0.022890746 -1.5755128e-07)
(2.7900967e-05 0.022034146 -1.3876226e-07)
(-0.0052866761 -0.01662102 -4.7238539e-07)
(-0.0047466189 -0.018776471 -5.4215661e-07)
(-0.0042519249 -0.021187095 -5.5414504e-07)
(-0.00381431 -0.02293513 -5.3703911e-07)
(-0.0034243027 -0.024039297 -5.0850038e-07)
(-0.0030634021 -0.024391264 -4.7863138e-07)
(-0.002731004 -0.0241496 -4.4168153e-07)
(-0.0024182848 -0.023500336 -4.0738786e-07)
(-0.0021266773 -0.022596775 -3.764768e-07)
(-0.0018651325 -0.021494733 -3.503228e-07)
(-0.0016279535 -0.02027372 -3.2658862e-07)
(-0.0014061534 -0.018917156 -3.0467387e-07)
(-0.001203227 -0.017492818 -2.8452351e-07)
(-0.0010229184 -0.016051984 -2.6598529e-07)
(-0.00086438671 -0.014630065 -2.4866021e-07)
(-0.00072680514 -0.013262519 -2.3217767e-07)
(-0.00060976202 -0.011981361 -2.1666466e-07)
(-0.00050467418 -0.010816889 -2.0171384e-07)
(-0.00041207181 -0.009781703 -1.8704181e-07)
(-0.00033078129 -0.0088755149 -1.7233187e-07)
(-0.00025919892 -0.0080982126 -1.5712992e-07)
(-0.00019554891 -0.0074492705 -1.4077869e-07)
(-0.00013798532 -0.0069248124 -1.2267746e-07)
(-8.44101e-05 -0.0064826211 -9.8920031e-08)
(-3.2387372e-05 -0.006170327 -6.3501152e-08)
(-0.0019849557 -0.0046771921 -3.0069139e-07)
(-0.0018816732 -0.005502889 -3.6122361e-07)
(-0.0017920301 -0.0062756187 -3.8287925e-07)
(-0.001727911 -0.0069617286 -3.8095616e-07)
(-0.0016719734 -0.0076740859 -3.6647785e-07)
(-0.0016163284 -0.0086111746 -3.4601028e-07)
(-0.0015580175 -0.0097074429 -3.2171837e-07)
(-0.0014908728 -0.010700822 -2.9776637e-07)
(-0.0014131928 -0.011559046 -2.7575793e-07)
(-0.0013282584 -0.012267083 -2.5616673e-07)
(-0.0012381529 -0.012837218 -2.3839447e-07)
(-0.001144213 -0.013270204 -2.2205588e-07)
(-0.0010464114 -0.013575345 -2.0694232e-07)
(-0.00094861692 -0.013733856 -1.9322863e-07)
(-0.00085256566 -0.013766315 -1.8023421e-07)
(-0.00075813045 -0.013709876 -1.6806176e-07)
(-0.00066429593 -0.013587632 -1.5615789e-07)
(-0.00057542258 -0.013415135 -1.4450861e-07)
(-0.00048941528 -0.013203197 -1.3291478e-07)
(-0.00040592381 -0.0129589 -1.2109434e-07)
(-0.00032490936 -0.012687926 -1.0856541e-07)
(-0.00024643851 -0.012396297 -9.4567078e-08)
(-0.00017070548 -0.012088058 -7.7927463e-08)
(-9.8107584e-05 -0.011723089 -5.5983743e-08)
(-3.0423527e-05 -0.011260039 -2.8246156e-08)
(-0.00057225405 -0.0012161395 -1.972207e-07)
(-0.00053586757 -0.0015689264 -2.4129163e-07)
(-0.00049733231 -0.0019245731 -2.6196695e-07)
(-0.00047518602 -0.0022593248 -2.6600817e-07)
(-0.00046567151 -0.0025812358 -2.5962893e-07)
(-0.00047063569 -0.0029231272 -2.4729906e-07)
(-0.00048099657 -0.0032840231 -2.3177804e-07)
(-0.00049131697 -0.0036395961 -2.1550612e-07)
(-0.00049697965 -0.0039888541 -1.9986067e-07)
(-0.00049596604 -0.004322753 -1.8539634e-07)
(-0.00048662465 -0.0046371471 -1.7208534e-07)
(-0.00047095262 -0.0049276077 -1.5978768e-07)
(-0.00045189532 -0.0052018652 -1.4838628e-07)
(-0.00042779517 -0.0054841334 -1.3781842e-07)
(-0.00039880547 -0.00576767 -1.2788255e-07)
(-0.00036531306 -0.0060165718 -1.1844688e-07)
(-0.00032801729 -0.0062189998 -1.0929262e-07)
(-0.0002892856 -0.0063717634 -1.003014e-07)
(-0.00024951501 -0.0064744201 -9.1295926e-08)
(-0.00020908311 -0.0065262883 -8.2154274e-08)
(-0.00016838904 -0.0065285932 -7.2438429e-08)
(-0.00012787599 -0.00648443 -6.1456377e-08)
(-8.8096233e-05 -0.0063989738 -4.8557421e-08)
(-4.9609434e-05 -0.0062541665 -3.2612873e-08)
(-1.3838171e-05 -0.0059757392 -1.4297663e-08)
(-0.00017302245 -9.1904582e-05 -1.3127285e-07)
(-0.00014261513 -0.00017534672 -1.6041326e-07)
(-0.00010325816 -0.00022930773 -1.7631501e-07)
(-6.4354899e-05 -0.00027224112 -1.8147607e-07)
(-4.114866e-05 -0.00032028383 -1.7908927e-07)
(-2.991353e-05 -0.00038655852 -1.7192551e-07)
(-2.5158387e-05 -0.00046904732 -1.6207945e-07)
(-2.6806826e-05 -0.000561255 -1.5118315e-07)
(-3.3054477e-05 -0.00066032443 -1.4027941e-07)
(-4.1838978e-05 -0.00076439571 -1.298916e-07)
(-5.1807154e-05 -0.00087238866 -1.2017349e-07)
(-6.1260064e-05 -0.00098057328 -1.1112167e-07)
(-7.0920852e-05 -0.0010813797 -1.0268559e-07)
(-7.7490489e-05 -0.0011737154 -9.4801777e-08)
(-7.9677028e-05 -0.0012587721 -8.7369995e-08)
(-7.7578694e-05 -0.0013329089 -8.0287562e-08)
(-7.2424423e-05 -0.0013951709 -7.3441818e-08)
(-6.5802748e-05 -0.0014449784 -6.6742386e-08)
(-5.8139849e-05 -0.0014821781 -6.0082186e-08)
(-4.9732765e-05 -0.0015065118 -5.3330552e-08)
(-4.086373e-05 -0.0015177881 -4.6264103e-08)
(-3.1717224e-05 -0.0015162378 -3.8524037e-08)
(-2.2444282e-05 -0.0015040323 -2.9759224e-08)
(-1.3049304e-05 -0.0014803508 -1.9672203e-08)
(-3.5491858e-06 -0.0014089241 -8.4250286e-09)
(-0.00012643932 0.00020569639 -8.6492404e-08)
(-0.00011642175 0.0002175923 -1.0440064e-07)