/*--------------------------------*- C++ -*----------------------------------*\
| =========                 |                                                 |
| \\      /  F ield         | OpenFOAM: The Open Source CFD Toolbox           |
|  \\    /   O peration     | Version:  4.0                                   |
|   \\  /    A nd           | Web:      www.OpenFOAM.org                      |
|    \\/     M anipulation  |                                                 |
\*---------------------------------------------------------------------------*/
FoamFile
{
    version     2.0;
    format      ascii;
    class       volScalarField;
    location    "0.33";
    object      omega;
}
// * * * * * * * * * * * * * * * * * * * * * * * * * * * * * * * * * * * * * //

dimensions      [0 0 -1 0 0 0 0];

internalField   nonuniform List<scalar> 
1740
(
52.931834
697.89424
14919.538
145.47667
1437.7289
15028.427
264.45652
1858.1598
15114.806
378.68381
2179.4946
15199.739
496.63496
2488.0778
15274.766
610.78928
2789.5286
15324.989
710.19241
3005.8752
15375.106
822.27974
3196.9098
15418.917
931.05097
3387.4248
15449.89
1040.2248
3528.2288
15473.751
1127.6963
3610.6387
15495.488
1233.0229
3688.111
15515.376
1358.1375
3787.3004
15526.01
1434.2024
3875.6176
15539.093
1489.9713
3992.8802
15550.522
1556.1258
4046.4991
15551.987
1628.4974
4028.0611
15556.475
1680.4318
4037.5862
15564.355
1717.5267
4055.2399
15567.609
1758.6171
4043.8291
15568.271
1791.3939
4035.0803
15572.977
1813.5242
4060.3523
15578.669
1851.6459
4121.7203
15576.698
1877.1805
4110.0831
15574.152
1898.6016
4094.9568
15579.841
1930.1563
4174.8453
15580.725
1972.7514
4253.892
15572.324
2016.4014
4263.9902
15568.918
2037.2746
4274.905
15562.044
2154.0975
4306.0463
15500.925
3217.4244
4573.5473
10718.765
3339.8843
4239.2856
5931.4376
1572.8808
1860.5148
2155.5928
825.59082
900.31595
958.28694
479.58611
497.60115
507.34974
301.39457
305.0771
305.07741
201.90864
202.22248
200.76178
142.7165
142.39599
141.15504
105.75916
105.43382
104.60598
81.845065
81.617188
81.105849
65.998365
65.854231
65.546219
55.402012
55.313942
55.129055
48.384402
48.331252
48.219973
43.878421
43.846779
43.780039
41.133733
41.115598
41.076508
39.583274
39.574024
39.55259
38.787687
38.784311
38.773762
38.347665
38.344271
38.335561
38.019442
38.016531
38.009428
37.744671
37.742559
37.737081
37.492974
37.491839
37.488
37.250928
37.25082
37.248549
37.018395
37.019069
37.018032
36.803559
36.804585
36.804274
36.615307
36.616328
36.616307
36.457934
36.458768
36.458787
36.330519
36.331126
36.331088
36.228927
36.229334
36.22922
36.147959
36.148211
36.148034
36.082683
36.082823
36.082602
36.028952
36.029014
36.028767
35.983422
35.983431
35.983172
35.943299
35.943273
35.943012
35.905921
35.905873
35.905617
35.868178
35.868117
35.867872
35.825683
35.825616
35.825384
35.771547
35.771478
35.771264
35.694574
35.694508
35.694314
35.57665
35.57659
35.576421
35.389126
35.389076
35.388937
35.088065
35.088028
35.087925
34.608467
34.608448
34.60839
33.857997
33.858002
33.858001
32.711479
32.711514
32.711587
31.008542
31.008615
31.008781
28.559469
28.559591
28.559878
25.163028
25.163211
25.163653
20.644903
20.64515
20.645779
14.92747
14.927761
14.928558
8.1419052
8.1421596
8.1428846
13482.595
13536.65
5999.1832
5335.774
2083.9959
1881.5301
922.14265
853.76918
490.53221
463.41952
296.79005
284.77767
196.42121
190.66166
138.79856
135.86901
103.29625
101.73591
80.362177
79.497866
65.115116
64.618508
54.873789
54.578587
48.065971
47.885333
43.686306
43.573657
41.01994
40.949325
39.519462
39.475474
38.754783
38.727057
38.320619
38.298673
37.997295
37.979199
37.727239
37.712003
37.480163
37.467246
37.24251
37.231644
37.013506
37.004529
36.800902
36.793648
36.613754
36.608009
36.456806
36.452316
36.32951
36.326015
36.227932
36.225199
36.14696
36.144796
36.081688
36.079945
36.027976
36.026543
35.982477
35.981279
35.942396
35.941376
35.905067
35.904189
35.867379
35.866615
35.824944
35.824277
35.770872
35.77029
35.69397
35.693466
35.576127
35.5757
35.388696
35.38835
35.087747
35.087491
34.608287
34.608138
33.857991
33.857973
32.711697
32.711845
31.009046
31.009416
28.560352
28.561037
25.164422
25.165601
20.646977
20.648984
14.930256
14.933358
8.1445506
8.1477652
12058.196
2043.627
696.67008
369.19112
281.34587
257.1003
249.94415
246.88124
244.50851
242.07908
239.51251
236.71924
233.82483
230.8432
227.74144
224.4571
220.87958
216.81674
211.94074
205.70277
197.1873
184.84763
165.99402
135.60626
82.040645
12058.133
2037.454
697.79132
374.75273
283.28599
254.43975
242.89427
235.66912
229.54844
223.73544
218.03616
212.39011
206.85439
201.41221
196.04242
190.71783
185.38357
179.93788
174.19623
167.83885
160.31678
150.6647
137.08656
115.88871
77.679198
12058.179
2030.5445
718.65577
430.77745
359.43247
332.50493
315.13581
300.63505
287.39218
274.83499
262.84777
251.25856
240.27238
229.79646
219.76993
210.17938
201.00459
192.20033
183.66724
175.22805
166.56973
157.11007
145.64038
129.19777
98.468696
12058.527
2031.8177
817.679
608.99973
550.1518
512.95429
479.93559
449.41791
421.43338
395.11925
370.4416
347.4319
326.22127
306.35506
287.68802
270.22683
253.95917
238.8527
224.85234
211.86702
199.75577
188.29085
177.02735
164.76944
146.21179
12061.532
2151.2366
1232.7841
1078.8448
990.07476
907.22418
828.71305
757.2812
693.38355
634.25671
579.90378
530.25828
486.16011
445.87568
408.89461
375.22476
344.7287
317.23391
292.55921
270.51041
250.89076
233.52389
218.29386
205.37083
195.8317
12087.268
3826.1165
2810.899
2405.4262
2096.4275
1827.2092
1591.755
1388.3593
1212.3022
1060.3826
929.51298
816.86862
719.91707
636.22876
563.86687
501.31802
447.28452
400.63589
360.39675
325.73244
295.934
270.42567
248.80105
231.15482
218.72435
10368.116
7908.4091
6101.6352
4790.4627
3819.5284
3083.6174
2514.2456
2067.1516
1712.4909
1428.8622
1200.4026
1015.2788
864.58269
741.41049
640.26418
556.76796
487.46913
429.66114
381.22627
340.50362
306.18794
277.27267
253.04055
233.37043
219.54544
4093.248
3308.892
2844.4945
2468.5512
2148.8585
1868.1185
1623.2907
1411.6286
1230.1823
1074.6372
941.19319
826.44504
727.42063
641.95159
568.18943
504.53706
449.61656
402.25051
361.43634
326.32214
296.18852
270.45387
248.70205
231.00937
218.5718
1594.8671
1400.2333
1270.0007
1161.7185
1059.4666
962.16101
873.46848
794.40742
722.3449
657.06985
598.69423
547.07568
499.67807
456.37359
417.03767
381.47289
349.44678
320.72655
295.07922
272.28605
252.14658
234.48982
219.20138
206.43209
197.15193
771.25027
707.99615
661.78386
621.20757
580.85535
540.71612
503.13322
468.49978
436.39817
406.80117
379.75154
354.9758
331.78758
310.08463
289.85592
271.08647
253.74459
237.78727
223.16178
209.80182
197.61024
186.41529
175.83793
164.78524
148.33201
434.04847
410.28042
391.54555
374.31559
356.56372
338.27339
320.41244
303.41012
287.34437
272.26843
258.19242
244.99134
232.45674
220.54096
209.27289
198.64738
188.65553
179.2747
170.45812
162.11136
154.03646
145.79484
136.33595
122.84363
96.157946
272.37424
261.9173
253.24051
245.06879
236.55128
227.61371
218.6199
209.83582
201.38104
193.3126
185.63834
178.30835
171.24888
164.43441
157.87557
151.57451
145.52054
139.6815
133.98809
128.30076
122.33954
115.52955
106.63859
92.832995
66.512862
184.83998
179.75729
175.35088
171.13174
166.72349
162.05543
157.26237
152.48526
147.81317
143.29159
138.93012
134.70931
130.59853
126.58098
122.65035
118.79527
114.99112
111.18993
107.30339
103.172
98.506747
92.776091
84.972555
73.041483
51.599996
132.93103
130.29204
127.92502
125.62638
123.22458
120.67109
118.01337
115.32112
112.64947
110.02966
107.47101
104.96559
102.49729
100.05102
97.612002
95.158633
92.655115
90.042309
87.223706
84.043534
80.253786
75.471664
69.159563
60.820377
51.34215
100.16999
98.728803
97.400918
96.097606
94.737165
93.288389
91.766806
90.205825
88.636072
87.077046
85.535496
84.007127
82.480703
80.941109
79.368685
77.734811
75.996094
74.086992
71.909952
69.323374
66.131074
62.089292
56.988072
50.99138
45.687416
78.624694
77.80253
77.027839
76.260647
75.460597
74.608784
73.708907
72.776239
71.826838
70.871679
69.91442
68.951263
67.972224
66.961638
65.896756
64.744346
63.455979
61.962161
60.165697
57.935811
55.107792
51.501114
46.988772
41.695958
36.061139
64.110727
63.621324
63.150226
62.679229
62.188086
61.665581
61.111409
60.532021
59.935379
59.326947
58.707735
58.073476
57.414244
56.713639
55.946863
55.077475
54.053065
52.800229
51.219251
49.179631
46.518112
43.038648
38.494728
32.428321
23.054332
54.271073
53.966779
53.666796
53.362977
53.045209
52.70707
52.347288
51.9683
51.57365
51.16559
50.743372
50.302063
49.831493
49.31464
48.72517
48.023984
47.154896
46.039615
44.572485
42.615366
39.992192
36.477338
31.750115
25.205642
15.240273
47.692224
47.49493
47.294719
47.088073
46.870169
46.637537
46.389081
46.125589
45.848432
45.558077
45.252719
44.927035
44.570649
44.166016
43.685526
43.087678
42.312453
41.276064
39.865496
37.933284
35.292442
31.708262
26.873427
20.324426
11.188429
43.44904
43.316622
43.177356
43.029835
42.871934
42.702017
42.519483
42.324569
42.117682
41.898407
41.664408
41.410141
41.125111
40.791397
40.380331
39.84826
39.131613
38.141526
36.758575
34.828634
32.161405
28.533029
23.691772
17.362594
9.2000003
40.867564
40.776315
40.676017
40.566165
40.445973
40.314871
40.172724
40.019651
39.855635
39.679831
39.489633
39.279368
39.038479
38.748825
38.381012
37.889657
37.208375
36.244521
34.874567
32.941543
30.257464
26.616036
21.820138
15.732484
8.3505652
39.42121
39.356698
39.281871
39.196542
39.100551
38.993879
38.876639
38.748922
38.610461
38.460109
38.295022
38.1094
37.89259
37.626477
37.281558
36.811289
36.147314
35.194527
33.827824
31.890578
29.19869
25.559398
20.809755
14.883883
7.9308625
38.690019
38.642753
38.584858
38.516143
38.436557
38.346142
38.244953
38.132886
38.009381
37.872954
37.720456
37.545913
37.338632
37.080405
36.743102
36.279359
35.619003
34.664344
33.291879
31.34818
28.652082
25.016528
20.291166
14.425558
7.5694475
38.268945
38.230664
38.183294
38.126483
38.060011
37.983735
37.897478
37.80086
37.693001
37.572036
37.434319
37.273291
37.077978
36.829876
36.501457
36.045581
35.386851
34.421424
33.035594
31.082898
28.383806
24.75042
20.034037
14.184321
7.3364983
37.954237
37.921593
37.880632
37.830901
37.772079
37.703914
37.626105
37.538133
37.438999
37.326813
37.19814
37.046919
36.862607
36.627252
36.311433
35.870526
35.231925
34.291842
32.911102
30.953
28.254067
24.623423
19.911018
14.068822
7.3010999
37.69038
37.661471
37.624576
37.579193
37.524971
37.461641
37.388921
37.306389
37.213272
37.108073
36.987884
36.847148
36.675582
36.455046
36.155128
35.730947
35.110508
34.191656
32.837941
30.882524
28.189198
24.564775
19.858958
14.025106
7.2945042
37.448202
37.42204
37.388045
37.345747
37.294873
37.235293
37.166947
37.089739
37.003317
36.906634
36.797127
36.669331
36.512716
36.308616
36.026177
35.617561
35.013172
34.111092
32.775659
30.836758
28.154174
24.539632
19.844186
14.019537
7.2904123
37.214905
37.191241
37.159998
37.120849
37.073721
37.01875
36.956197
36.886308
36.80903
36.723478
36.627034
36.513905
36.373007
36.185003
35.918365
35.524387
34.933816
34.045468
32.724835
30.803218
28.13309
24.530501
19.848214
14.033763
7.2960188
36.99013
36.969273
36.94144
36.906496
36.864597
36.816119
36.76154
36.701253
36.63523
36.562441
36.479939
36.381458
36.255364
36.081792
35.828799
35.447431
34.868223
33.991015
32.682573
30.776112
28.118107
24.527357
19.858257
14.054305
7.2918128
36.781674
36.76406
36.740435
36.710816
36.675501
36.634962
36.589709
36.540071
36.485839
36.425693
36.356301
36.270971
36.157661
35.996186
35.75446
35.383748
34.813272
33.944894
32.646327
30.75249
28.105203
24.524683
19.866661
14.074359
7.3086924
36.598393
36.584155
36.565044
36.54115
36.512794
36.480411
36.444405
36.404924
36.361509
36.312536
36.254348
36.179933
36.076982
35.925128
35.692219
35.329571
34.766366
33.904995
32.614341
30.730793
28.092447
24.519919
19.868726
14.078375
7.2908923
36.444797
36.43367
36.418766
36.400186
36.378198
36.35313
36.325225
36.294426
36.260035
36.220176
36.170946
36.105115
36.010205
35.865751
35.639587
35.283133
34.72588
33.869821
32.585447
30.71024
28.079291
24.513296
19.867167
14.076224
7.2754152
36.32022
36.311695
36.300321
36.286177
36.269456
36.250363
36.228982
36.205075
36.177752
36.144943
36.102571
36.04326
35.954425
35.815542
35.594454
35.242661
34.68983
33.838163
32.558858
30.690464
28.065744
24.505661
19.865769
14.08142
7.2836246
36.220743
36.214252
36.205636
36.194948
36.182306
36.167808
36.151407
36.132724
36.110722
36.083193
36.045937
35.991478
35.907161
35.772428
35.555133
35.206852
34.657408
33.809288
32.534094
30.67134
28.051941
24.497252
19.86451
14.093367
7.3146397
36.141343
36.136376
36.129826
36.12172
36.112115
36.101027
36.088312
36.073484
36.055401
36.031758
35.998268
35.947384
35.866403
35.734748
35.520289
35.174671
34.627879
33.782738
32.510871
30.652927
28.038285
24.488635
19.862967
14.10816
7.3702884
36.07723
36.07338
36.068343
36.062124
36.054737
36.046136
36.036107
36.02409
36.008867
35.988064
35.957332
35.909076
35.830558
35.701188
35.488852
35.14526
34.600539
33.757766
32.488914
30.635333
28.025266
24.480578
19.86089
14.115465
7.3573983
36.024369
36.021335
36.017397
36.012547
36.006769
35.999972
35.991895
35.981923
35.968787
35.950062
35.921355
35.875035
35.79834
35.67067
35.459933
35.1179
34.574836
33.734071
32.468004
30.618573
28.013264
24.474101
19.860606
14.12193
7.3719241
35.979505
35.977067
35.973932
35.970079
35.965471
35.95999
35.953337
35.94486
35.933255
35.916059
35.888848
35.843963
35.768623
35.642227
35.432699
35.09188
34.550172
33.711177
32.447771
30.602335
28.002082
24.469369
19.863887
14.134401
7.390011
35.939902
35.937909
35.935365
35.932246
35.9285
35.923986
35.918383
35.911012
35.900541
35.884482
35.858385
35.814572
35.740247
35.614806
35.4062
35.066331
34.525742
33.688296
32.427308
30.585774
27.990622
24.464544
19.867217
14.146895
7.408021
35.902945
35.901287
35.899188
35.896619
35.893516
35.889726
35.884908
35.878366
35.868746
35.853542
35.828284
35.785278
35.711716
35.586997
35.379092
35.03997
34.500308
33.664219
32.405429
30.567524
27.977183
24.457303
19.867275
14.153151
7.4024519
35.865554
35.864156
35.862399
35.86025
35.857638
35.854398
35.850179
35.844268
35.835298
35.820746
35.796128
35.753734
35.680751
35.556576
35.349205
35.010667
34.471773
33.636868
32.380049
30.545412
27.959396
24.445029
19.862052
14.161058
7.4496409
35.823363
35.822174
35.820687
35.818868
35.816639
35.813829
35.810076
35.804657
35.796191
35.782146
35.758021
35.716098
35.643553
35.519788
35.31282
34.974742
34.436487
33.60262
32.347578
30.51589
27.93376
24.424236
19.847196
14.155489
7.4888414
35.769502
35.768486
35.767221
35.765669
35.76375
35.761286
35.757906
35.75288
35.744817
35.731173
35.707436
35.665877
35.593667
35.47021
35.263548
34.925835
34.388131
33.555219
32.301862
30.473006
27.894709
24.390201
19.820316
14.142077
7.4981408
35.692791
35.691926
35.690851
35.689526
35.687868
35.685693
35.682626
35.677926
35.670195
35.656878
35.633454
35.592184
35.520233
35.397011
35.19059
34.853194
34.316023
33.4841
32.232556
30.40682
27.833052
24.334992
19.775096
14.115182
7.4990052
35.575132
35.574407
35.573505
35.572385
35.57096
35.569042
35.566249
35.561834
35.55439
35.541353
35.518193
35.477162
35.405424
35.2824
35.076203
34.73915
34.202623
33.371953
32.122756
30.30114
27.733756
24.245261
19.699762
14.06208
7.4757702
35.387891
35.387306
35.386574
35.385652
35.384451
35.382777
35.380242
35.376094
35.368917
35.356137
35.333217
35.292404
35.220868
35.098056
34.892149
34.555606
34.020072
33.19133
31.945709
30.130352
27.572968
24.099607
19.575832
13.967848
7.4215306
35.087152
35.086717
35.086164
35.085449
35.084478
35.083054
35.080783
35.076904
35.069996
35.057476
35.034804
34.994229
34.922941
34.800445
34.595039
34.259421
33.725653
32.900223
31.660563
29.855443
27.314507
23.866229
19.378889
13.823555
7.3601637
34.607938
34.607673
34.607321
34.606835
34.606117
34.604965
34.602979
34.599394
34.592781
34.580554
34.558177
34.517919
34.447021
34.325099
34.12067
33.786828
33.256323
32.436762
31.207317
29.419287
26.905503
23.498219
19.069051
13.589908
7.2214401
33.857941
33.85788
33.857764
33.857541
33.857108
33.856262
33.854598
33.851346
33.845077
33.833212
33.811234
33.771465
33.701256
33.580432
33.377896
33.047415
32.522856
31.713607
30.501534
28.741855
26.272302
22.930983
18.595154
13.240267
7.0266677
32.712026
32.712218
32.712387
32.712473
32.712368
32.711865
32.710561
32.70769
32.701833
32.690439
32.669045
32.630086
32.561119
32.442348
32.243339
31.918971
31.404904
30.613291
29.430041
27.716518
25.31732
22.079088
17.88652
12.717127
6.6993441
31.009881
31.010405
31.010937
31.011405
31.011685
31.011565
31.010651
31.008199
31.002831
30.992065
30.971554
30.933948
30.867177
30.752087
30.559342
30.245613
29.749369
28.987001
27.850643
26.209784
23.91936
20.838083
16.861878
11.974426
6.3000058
28.561915
28.562908
28.563937
28.564903
28.56565
28.565946
28.565414
28.56337
28.558543
28.548603
28.529408
28.494008
28.430964
28.322171
28.140054
27.84407
27.376949
26.661245
25.597762
24.06753
21.93985
19.089574
15.427581
10.945563
5.7589305
25.167157
25.168859
25.170592
25.172239
25.173579
25.17432
25.174112
25.1724
25.16815
25.1593
25.141977
25.110001
25.052933
24.954245
24.789091
24.521039
24.09908
23.454479
22.499976
21.132143
19.239061
16.716051
13.492769
9.5709071
5.0514239
20.651702
20.654448
20.656994
20.65947
20.661507
20.662706
20.662752
20.661331
20.657832
20.650495
20.635582
20.608538
20.560344
20.476568
20.336771
20.110168
19.754615
19.213154
18.41434
17.274697
15.705448
13.625895
10.987128
7.8024994
4.157863
14.937607
14.941264
14.942306
14.945154
14.94763
14.949102
14.949325
14.94832
14.945976
14.940556
14.92806
14.907198
14.8705
14.805677
14.700511
14.531151
14.267086
13.866118
13.277573
12.441974
11.29723
9.7882353
7.8873244
5.6179887
3.0632654
8.1520631
8.1531999
8.1300479
8.1302588
8.1320952
8.1332279
8.1334585
8.1330092
8.1319779
8.1285217
8.1188722
8.1054363
8.0822778
8.0395715
7.9781715
7.882466
7.7349869
7.4811695
7.1576088
6.701529
6.0795116
5.2623874
4.2391497
3.030687
1.6917485
)
;

boundaryField
{
    Walls
    {
        Cmu             0.09;
        kappa           0.41;
        E               9.8;
        beta1           0.075;
        type            omegaWallFunction;
        value           nonuniform List<scalar> 
38
(
12058.196
12058.133
12058.179
12058.527
12061.532
12087.268
13482.595
13536.65
14919.538
15028.427
15114.806
15199.739
15274.766
15324.989
15375.106
15418.917
15449.89
15473.751
15495.488
15515.376
15526.01
15539.093
15550.522
15551.987
15556.475
15564.355
15567.609
15568.271
15572.977
15578.669
15576.698
15574.152
15579.841
15580.725
15572.324
15568.918
15562.044
15500.925
)
;
    }
    Inlet
    {
        type            turbulentMixingLengthDissipationRateInlet;
        mixingLength    0.03;
        phi             phi;
        k               k;
        value           nonuniform List<scalar> 3(0.0046934865 0.0040505324 0.0053101471);
    }
    Outlet
    {
        type            inletOutlet;
        inletValue      uniform 1e-05;
        value           nonuniform List<scalar> 
86
(
1e-05
1e-05
1e-05
1e-05
1e-05
1e-05
1e-05
1e-05
1e-05
1e-05
1e-05
1e-05
1e-05
1e-05
1e-05
1e-05
1e-05
1e-05
1e-05
1e-05
1e-05
1e-05
1e-05
1e-05
1e-05
1e-05
1e-05
1e-05
1e-05
1e-05
219.54544
218.5718
197.15193
1e-05
1e-05
1e-05
1e-05
51.34215
45.687416
36.061139
1e-05
1e-05
1e-05
1e-05
1e-05
7.9308625
7.5694475
7.3364983
7.3010999
7.2945042
7.2904123
7.2960188
7.2918128
7.3086924
7.2908923
7.2754152
7.2836246
7.3146397
7.3702884
1e-05
1e-05
1e-05
1e-05
1e-05
1e-05
1e-05
1e-05
1e-05
1e-05
1e-05
1e-05
1e-05
1e-05
1e-05
1e-05
1e-05
1e-05
1e-05
1e-05
1e-05
1e-05
1e-05
1e-05
1e-05
195.8317
218.72435
)
;
    }
    Front
    {
        type            wedge;
    }
    Back
    {
        type            wedge;
    }
    defaultFaces
    {
        type            empty;
    }
}


// ************************************************************************* //
