/*--------------------------------*- C++ -*----------------------------------*\
| =========                 |                                                 |
| \\      /  F ield         | OpenFOAM: The Open Source CFD Toolbox           |
|  \\    /   O peration     | Version:  4.0                                   |
|   \\  /    A nd           | Web:      www.OpenFOAM.org                      |
|    \\/     M anipulation  |                                                 |
\*---------------------------------------------------------------------------*/
FoamFile
{
    version     2.0;
    format      ascii;
    class       volScalarField;
    location    "0.33";
    object      p;
}
// * * * * * * * * * * * * * * * * * * * * * * * * * * * * * * * * * * * * * //

dimensions      [0 2 -2 0 0 0 0];

internalField   nonuniform List<scalar> 
1740
(
491.42441
491.32365
491.33071
474.52863
474.41507
474.19426
457.74047
457.62063
457.34557
440.93764
440.87466
440.89411
424.32385
424.53691
424.5678
407.90961
408.03828
407.99009
391.52849
391.47967
391.52233
375.36188
375.42549
375.33783
359.43734
359.36282
359.04751
342.98776
342.83225
342.78014
326.18072
326.21546
326.4508
309.6855
309.92484
310.07148
293.25812
293.46702
293.40778
277.04591
276.90486
276.74541
260.61444
260.32382
260.42032
243.89078
243.70819
243.86578
227.20561
227.30603
227.18215
210.25756
210.39919
210.35557
193.311
193.22757
193.47834
176.43263
176.53292
176.74872
159.77736
160.14697
160.00685
143.36583
143.5039
143.38576
126.75902
126.64474
126.86034
110.15385
110.06668
110.26581
93.790247
93.74539
93.783209
77.877382
77.562455
77.446013
62.05552
61.845994
61.430685
46.191534
46.511144
46.214077
30.752756
30.90282
30.993024
16.14432
15.791248
15.560176
3.9816696
3.281553
1.4762058
-0.75315608
-0.70368575
-0.49726305
-0.24567698
-0.23246041
-0.19903263
-0.10839049
-0.10245167
-0.088678444
-0.077079293
-0.07258728
-0.063268494
-0.059400743
-0.056552115
-0.050679882
-0.049058387
-0.047122104
-0.043017637
-0.042141274
-0.040714311
-0.037721733
-0.036770809
-0.035677131
-0.033410256
-0.032213609
-0.031355007
-0.029586532
-0.02832567
-0.027647901
-0.026249213
-0.02509274
-0.024552512
-0.023432381
-0.022438442
-0.022004152
-0.02109929
-0.020253385
-0.019901684
-0.019165649
-0.018434395
-0.018147321
-0.017543781
-0.016895372
-0.016658859
-0.016159577
-0.015572289
-0.015375604
-0.014958862
-0.014419214
-0.014254195
-0.013903396
-0.013402162
-0.013262552
-0.012964875
-0.012494716
-0.012375666
-0.012121141
-0.011675644
-0.011573359
-0.011354143
-0.010927909
-0.0108394
-0.010649291
-0.010238044
-0.010160937
-0.0099949927
-0.0095954691
-0.0095278694
-0.009382126
-0.0089919201
-0.0089323097
-0.0088035852
-0.008421057
-0.0083682193
-0.0082539558
-0.0078781431
-0.0078310978
-0.0077292303
-0.0073597295
-0.0073176819
-0.0072265337
-0.0068633835
-0.006825688
-0.0067438952
-0.0063874465
-0.0063535745
-0.0062800131
-0.0059307961
-0.0059003066
-0.0058340395
-0.0054926528
-0.0054651763
-0.005405416
-0.0050724621
-0.0050476879
-0.0049937728
-0.0046698108
-0.0046474771
-0.0045988482
-0.0042843495
-0.0042642334
-0.0042204142
-0.0039157272
-0.0038976372
-0.0038582165
-0.0035635414
-0.003547311
-0.0035119317
-0.0032273052
-0.0032127895
-0.0031811387
-0.0029064294
-0.0028935006
-0.0028653035
-0.0026002115
-0.0025887572
-0.0025637708
-0.0023078335
-0.0022977543
-0.0022757634
-0.0020283618
-0.0020195697
-0.0020003843
-0.0017607542
-0.0017531721
-0.001736625
-0.0015038707
-0.0014974314
-0.0014833771
-0.001256484
-0.0012511299
-0.0012394435
-0.0010172791
-0.0010129618
-0.0010035381
-0.0007848442
-0.00078152459
-0.00077427804
-0.00055763449
-0.00055528252
-0.00055014737
-0.00033410802
-0.00033270367
-0.00032963365
-0.00011159312
-0.00011112567
-0.00011010123
-1.3874387
-0.97298703
-0.38062015
-0.29305381
-0.1685188
-0.14319909
-0.07649388
-0.064253054
-0.052439562
-0.041607551
-0.043292268
-0.035248514
-0.037624708
-0.03168664
-0.033716805
-0.029270346
-0.030358459
-0.026918105
-0.027201143
-0.024478356
-0.02433994
-0.022145055
-0.021892242
-0.020101157
-0.019847371
-0.018374448
-0.018139461
-0.016918546
-0.016695738
-0.015676034
-0.015452858
-0.014594644
-0.014365062
-0.013637448
-0.013400548
-0.012779419
-0.012535918
-0.012002239
-0.011752633
-0.011291166
-0.011035404
-0.010633915
-0.010371809
-0.010020421
-0.0097519358
-0.009442661
-0.0091679892
-0.0088943395
-0.0086139256
-0.0083706235
-0.008085183
-0.0078679322
-0.0075784339
-0.0073837311
-0.0070913452
-0.0069163284
-0.0066223751
-0.0064646828
-0.006170555
-0.006028216
-0.0057352986
-0.0056066532
-0.0053162619
-0.0051999141
-0.0049132545
-0.0048080265
-0.0045261593
-0.0044310458
-0.0041548635
-0.0040689979
-0.0037992057
-0.0037218341
-0.003458939
-0.0033894013
-0.0031337065
-0.0030714213
-0.002823028
-0.0027674805
-0.0025262947
-0.0024770273
-0.0022427694
-0.0021993746
-0.0019715914
-0.0019337073
-0.0017117857
-0.0016790929
-0.0014622757
-0.0014344949
-0.0012218942
-0.0011987848
-0.00098938473
-0.00097074363
-0.00076339315
-0.00074905468
-0.00054243304
-0.00053226979
-0.00032502071
-0.00031894265
-0.00010856142
-0.00010653232
-0.015094914
-0.014278095
-0.013034399
-0.011657931
-0.010317363
-0.0090741939
-0.0079538264
-0.0069726774
-0.0061411744
-0.0054559725
-0.0048986896
-0.0044383969
-0.0040442574
-0.0036910968
-0.0033606164
-0.0030402699
-0.0027222597
-0.0024029618
-0.0020813968
-0.0017578798
-0.0014342146
-0.0011121699
-0.00079308282
-0.00047690847
-0.00015916922
-0.016082676
-0.015084465
-0.013691112
-0.012248692
-0.010905253
-0.0097115839
-0.0086738607
-0.0077921085
-0.0070572963
-0.0064452269
-0.0059290123
-0.005473791
-0.0050549752
-0.0046579604
-0.0042716407
-0.0038874919
-0.003497977
-0.0030968608
-0.0026867479
-0.002268922
-0.0018483982
-0.0014296025
-0.0010148475
-0.00060289127
-0.00019130135
-0.021182062
-0.020133398
-0.018845807
-0.017582748
-0.016559657
-0.01578629
-0.015210905
-0.014738618
-0.014216696
-0.013624096
-0.012972744
-0.012254868
-0.011479992
-0.010661344
-0.0098013419
-0.00890359
-0.0079750491
-0.0070252341
-0.0060558578
-0.0050724975
-0.0040916555
-0.0031231187
-0.0021737051
-0.0012508845
-0.0003707086
-0.038707056
-0.037737167
-0.036951912
-0.036540246
-0.03616184
-0.035569075
-0.034623451
-0.033325096
-0.031785443
-0.03005287
-0.02821453
-0.026278376
-0.024281597
-0.022237014
-0.020166111
-0.01808612
-0.016009728
-0.013946338
-0.011905583
-0.0098919172
-0.007940707
-0.0060472845
-0.0042088728
-0.002433468
-0.00075300202
-0.093080163
-0.091843209
-0.089540189
-0.085090193
-0.080112994
-0.074487008
-0.068669823
-0.062857897
-0.05714635
-0.051587131
-0.046478683
-0.041654819
-0.037111798
-0.032649698
-0.028521828
-0.024730595
-0.021255006
-0.018069323
-0.015141384
-0.01244176
-0.0099099046
-0.0075266157
-0.0052749403
-0.0031287243
-0.0010634416
-0.26345702
-0.21711967
-0.19274892
-0.15833823
-0.1300391
-0.10536623
-0.084408648
-0.0672176
-0.053293908
-0.042102812
-0.032943449
-0.025640736
-0.019833704
-0.015350795
-0.011752507
-0.0089141651
-0.0066896096
-0.0049603867
-0.0036328399
-0.0026292423
-0.0018741504
-0.0013084356
-0.00088595566
-0.00055925454
-0.00032529694
-0.37700729
-0.1642942
-0.10828954
-0.066875389
-0.030114421
-0.001069639
0.017743857
0.027606748
0.03185375
0.03312689
0.032789216
0.031374684
0.029283689
0.026812058
0.024169439
0.021488569
0.018848346
0.016289493
0.013829244
0.0114691
0.0092027467
0.007018081
0.0048930105
0.002819891
0.000714843
-0.23871402
-0.20523356
-0.17458763
-0.14536965
-0.11842115
-0.095039118
-0.075439023
-0.059507201
-0.046683981
-0.036480665
-0.028356775
-0.021910922
-0.016823391
-0.012788301
-0.0096054213
-0.0071115484
-0.005176056
-0.0036975646
-0.0025873341
-0.0017732638
-0.0011942587
-0.00079626102
-0.00053300556
-0.00035680387
-0.00026771532
-0.12649546
-0.11523672
-0.10601697
-0.097600301
-0.089358067
-0.081290077
-0.073716522
-0.066608305
-0.059966987
-0.053797606
-0.048137909
-0.042736069
-0.037702005
-0.033086432
-0.028865969
-0.024996666
-0.021432837
-0.018174029
-0.015182228
-0.012425784
-0.0098731926
-0.0074927204
-0.0052547207
-0.003125056
-0.0010743335
-0.056975302
-0.05255466
-0.04980922
-0.047863975
-0.046086214
-0.044218723
-0.042199125
-0.03998956
-0.03763867
-0.03518647
-0.032703797
-0.030199911
-0.027678083
-0.025156415
-0.022656947
-0.020205006
-0.017824979
-0.01549145
-0.013212021
-0.010987501
-0.0088192236
-0.0067101827
-0.0046660088
-0.0026961789
-0.00083277725
-0.032671735
-0.026882922
-0.023347086
-0.021550165
-0.020672268
-0.020159119
-0.01964638
-0.019042226
-0.018342162
-0.017535378
-0.016639159
-0.01566103
-0.014608229
-0.013493961
-0.012335714
-0.011144762
-0.0099328238
-0.008704903
-0.0074706575
-0.0062388836
-0.0050179979
-0.0038170464
-0.0026460149
-0.0015149525
-0.00044648372
-0.027653493
-0.021810459
-0.017537519
-0.014351106
-0.012168793
-0.01068512
-0.0097018304
-0.0090097763
-0.0085000879
-0.0080828442
-0.0077044603
-0.0072978694
-0.006855032
-0.0063764686
-0.0058625278
-0.0053243869
-0.0047668694
-0.0041949697
-0.0036145666
-0.0030330008
-0.0024555486
-0.0018863474
-0.0013281438
-0.00078023389
-0.00024148263
-0.025934385
-0.021097277
-0.017289281
-0.01425347
-0.011825775
-0.0099601983
-0.008552942
-0.0075010595
-0.0066673087
-0.0060095146
-0.0054471192
-0.0049657865
-0.0045308727
-0.0041231807
-0.0037327115
-0.0033542804
-0.0029813453
-0.0026108386
-0.0022432459
-0.0018823924
-0.0015289421
-0.0011827818
-0.00084307313
-0.00050668701
-0.00016812988
-0.024912746
-0.020984323
-0.017633398
-0.014794867
-0.012423599
-0.010497628
-0.0089576737
-0.007753565
-0.0068071787
-0.0060148463
-0.005348681
-0.0047833051
-0.0042891045
-0.003852881
-0.0034569741
-0.0030889689
-0.0027364291
-0.0023904157
-0.0020533089
-0.001722294
-0.0013968924
-0.0010772885
-0.00076358495
-0.00045643503
-0.00015233457
-0.023461532
-0.020264668
-0.017427312
-0.014942019
-0.012776536
-0.01092155
-0.00936184
-0.0080738519
-0.0070054465
-0.0061093859
-0.0053557833
-0.0047222632
-0.0041833785
-0.0037116676
-0.0032851196
-0.0028929419
-0.0025294935
-0.0021917906
-0.0018715493
-0.0015625596
-0.0012624078
-0.00096990501
-0.00068459955
-0.00040650529
-0.00013526235
-0.021690937
-0.019038286
-0.016636948
-0.014489299
-0.012574823
-0.010883868
-0.0094115746
-0.0081436414
-0.0070535849
-0.0061159103
-0.0053103578
-0.004619795
-0.0040263708
-0.0035115926
-0.0030679271
-0.0026699017
-0.0023065685
-0.0019774848
-0.0016728767
-0.0013862693
-0.0011133465
-0.00085178467
-0.00059988393
-0.00035584445
-0.00011854185
-0.019866937
-0.017655914
-0.015599433
-0.013733618
-0.012055185
-0.010552875
-0.0092167669
-0.0080292369
-0.0069768396
-0.0060472461
-0.0052310154
-0.004518375
-0.0039004714
-0.0033623646
-0.0028905396
-0.0024807452
-0.0021220653
-0.0017999684
-0.0015087096
-0.0012390898
-0.00098661289
-0.00074930529
-0.00052444793
-0.00030945098
-0.0001020953
-0.018216032
-0.01635741
-0.014595528
-0.012971881
-0.011495727
-0.010160137
-0.0089534058
-0.0078619732
-0.0068765785
-0.0059890443
-0.0051944883
-0.0044882676
-0.0038660131
-0.0033192028
-0.0028387038
-0.0024179387
-0.0020485187
-0.0017193061
-0.0014237315
-0.0011581682
-0.00091667894
-0.00069309193
-0.00048387525
-0.00028600154
-9.5485754e-05
-0.016800712
-0.015223579
-0.013708619
-0.012292101
-0.010988124
-0.0097932481
-0.0087016993
-0.0077029309
-0.0067896747
-0.0059560642
-0.0051984408
-0.0045148624
-0.0039028426
-0.0033577341
-0.002873607
-0.0024447439
-0.0020649045
-0.0017269416
-0.0014250555
-0.001154163
-0.00090900478
-0.00068451554
-0.00047658507
-0.00028112696
-9.3535817e-05
-0.015595974
-0.014250336
-0.012938462
-0.011695018
-0.010536107
-0.0094642145
-0.0084753751
-0.0075630936
-0.0067214411
-0.0059458237
-0.0052326733
-0.0045802278
-0.0039869374
-0.0034502232
-0.0029670507
-0.0025334494
-0.0021448006
-0.0017962429
-0.0014831778
-0.0012009318
-0.00094492321
-0.00071070889
-0.00049431262
-0.00029077264
-9.5452005e-05
-0.014557235
-0.01340263
-0.012260948
-0.011164113
-0.010129606
-0.0091636238
-0.0082656359
-0.0074314734
-0.0066566256
-0.0059372952
-0.0052703842
-0.0046530441
-0.0040831875
-0.0035602743
-0.0030829574
-0.002648486
-0.0022539114
-0.0018959061
-0.0015708823
-0.001275297
-0.0010052688
-0.00075686756
-0.00052652532
-0.00030879636
-9.9948582e-05
-0.013641972
-0.012646095
-0.0116482
-0.010677331
-0.0097510591
-0.0088777417
-0.0080595174
-0.0072946828
-0.0065799491
-0.005911989
-0.0052880502
-0.0047054945
-0.0041619495
-0.0036565566
-0.0031890784
-0.0027579778
-0.0023614638
-0.0019972549
-0.0016627412
-0.0013551964
-0.0010715057
-0.00080835637
-0.00056240004
-0.0003296308
-0.0001072085
-0.012821089
-0.011957767
-0.011082151
-0.010220097
-0.0093885575
-0.0085970341
-0.0078494179
-0.0071458847
-0.0064845146
-0.0058626765
-0.0052778299
-0.0047279229
-0.0042111396
-0.0037254756
-0.0032705725
-0.0028465099
-0.0024519784
-0.0020853194
-0.0017447651
-0.0014281582
-0.0011331235
-0.00085706089
-0.00059726018
-0.00035009643
-0.00011344165
-0.012075793
-0.011323725
-0.010552405
-0.0097845415
-0.0090360809
-0.008316929
-0.0076321153
-0.0069831739
-0.006369399
-0.0057890281
-0.0052399712
-0.0047204499
-0.0042290892
-0.0037643003
-0.0033245888
-0.002910148
-0.0025205248
-0.0021547686
-0.001811402
-0.0014888534
-0.0011853704
-0.00089901397
-0.00062784309
-0.00036815227
-0.00011846558
-0.011392381
-0.010734117
-0.010051957
-0.0093657561
-0.0086902349
-0.0080352378
-0.0074064531
-0.0068063923
-0.0062353796
-0.0056924419
-0.0051761164
-0.0046848976
-0.0042175498
-0.0037730356
-0.003349958
-0.0029472314
-0.002564809
-0.0022024085
-0.0018591031
-0.0015337204
-0.0012248801
-0.00093114429
-0.00065111149
-0.00038241485
-0.00012388306
-0.010759632
-0.010180727
-0.0095750212
-0.0089598057
-0.0083484656
-0.0077504807
-0.0071718566
-0.0066157804
-0.0060833885
-0.0055744671
-0.0050881126
-0.0046231868
-0.0041785916
-0.0037533697
-0.0033466535
-0.0029571805
-0.0025842807
-0.0022275277
-0.0018867607
-0.0015612336
-0.0012500237
-0.0009521782
-0.00066666514
-0.00039219167
-0.00012759559
-0.010168101
-0.009656589
-0.0091166815
-0.0085633564
-0.0080086524
-0.0074614963
-0.0069279615
-0.0064116788
-0.0059144041
-0.0054365673
-0.004977779
-0.0045372635
-0.0041141171
-0.003707495
-0.0033165857
-0.0029405809
-0.0025786166
-0.0022300326
-0.0018944311
-0.0015715239
-0.0012609701
-0.00096223689
-0.00067468753
-0.00039728231
-0.00012931973
-0.0096100548
-0.0091560582
-0.0086730002
-0.0081738103
-0.0076692259
-0.0071675421
-0.0066747201
-0.0061946531
-0.0057295391
-0.005280301
-0.004847026
-0.0044292791
-0.0040264277
-0.0036377132
-0.0032624163
-0.0028998292
-0.0025493149
-0.002210316
-0.0018822722
-0.0015649638
-0.0012581843
-0.00096163002
-0.00067505205
-0.00039772723
-0.00012944896
-0.0090793439
-0.0086746809
-0.0082409479
-0.0077892873
-0.0073292126
-0.0068683773
-0.0064125086
-0.0059655894
-0.0055301139
-0.0051074205
-0.0046979654
-0.0043016561
-0.0039181045
-0.0035467192
-0.0031868842
-0.0028380062
-0.0024995169
-0.002170959
-0.001852009
-0.0015423931
-0.0012418935
-0.0009503746
-0.00066779402
-0.00039364803
-0.00012807012
-0.0085711716
-0.008209034
-0.0078182956
-0.0074085527
-0.0069882133
-0.0065642555
-0.0061421035
-0.0057257214
-0.005317783
-0.0049199124
-0.0045328978
-0.0041569702
-0.0037919526
-0.0034374632
-0.0030930237
-0.0027581408
-0.0024323426
-0.0021152527
-0.0018066029
-0.0015061868
-0.0012138995
-0.00092972912
-0.00065371597
-0.00038546708
-0.00012532223
-0.0080819339
-0.007756666
-0.0074036103
-0.0070310409
-0.0066463672
-0.0062558738
-0.0058646501
-0.0054765738
-0.0050944103
-0.0047199721
-0.0043543156
-0.0039979287
-0.0036508791
-0.0033129875
-0.0029839245
-0.002663312
-0.0023507797
-0.0020460224
-0.0017488275
-0.001459051
-0.0011766439
-0.00090165418
-0.00063419938
-0.00037399675
-0.00012148957
-0.0076090627
-0.0073159741
-0.0069961445
-0.0066567167
-0.006304203
-0.0059442527
-0.0055815771
-0.0052199064
-0.0048620284
-0.0045098886
-0.004164741
-0.0038272817
-0.0034977998
-0.0031763058
-0.002862633
-0.0025565318
-0.0022577413
-0.0019660286
-0.0016812207
-0.0014032277
-0.0011320386
-0.00086772783
-0.00061044841
-0.0003599811
-0.00011681854
-0.0071508564
-0.0068860583
-0.0065957113
-0.0062859933
-0.0059626322
-0.0056307106
-0.0052945417
-0.0049576556
-0.0046228049
-0.0042920176
-0.0039666858
-0.0036476807
-0.0033354783
-0.0030302619
-0.0027320254
-0.0024406505
-0.0021559749
-0.0018778499
-0.0016061458
-0.0013408112
-0.0010818537
-0.00082937243
-0.00058349509
-0.000344043
-0.00011150983
-0.006706303
-0.0064665571
-0.0062025444
-0.0059196238
-0.005622842
-0.0053167596
-0.0050053218
-0.0046918242
-0.0043789264
-0.004068683
-0.00376258
-0.0034616365
-0.0031664848
-0.0028774655
-0.0025947155
-0.0023182376
-0.0020479657
-0.0017838194
-0.0015257311
-0.0012736729
-0.0010276778
-0.00078782386
-0.00055425451
-0.00032672303
-0.00010571208
-0.0062748881
-0.0060574793
-0.0058171411
-0.005558536
-0.005286113
-0.0050039536
-0.0047156649
-0.0044243159
-0.0041324359
-0.0038420394
-0.0035546728
-0.0032714616
-0.0029931684
-0.0027202721
-0.0024530324
-0.0021915612
-0.0019358842
-0.001685985
-0.0014418448
-0.0012034582
-0.00097087296
-0.00074412901
-0.00052345452
-0.00030845501
-9.9621136e-05
-0.0058564463
-0.0056590777
-0.0054401493
-0.005203724
-0.0049537246
-0.0046938023
-0.0044272425
-0.0041568988
-0.0038851693
-0.0036140058
-0.0033449596
-0.0030792093
-0.0028176126
-0.0025607574
-0.0023090121
-0.0020625912
-0.0018216048
-0.001586098
-0.0013560903
-0.0011315994
-0.00091265668
-0.00069931581
-0.00049179427
-0.00028966035
-9.3289676e-05
-0.0054510463
-0.0052717674
-0.0050723079
-0.004856213
-0.0046269449
-0.0043877686
-0.0041416663
-0.0038912789
-0.0036388738
-0.0033863379
-0.0031351933
-0.0028866354
-0.0026415726
-0.0024006639
-0.0021643682
-0.0019329875
-0.0017067034
-0.0014856191
-0.0012697943
-0.0010592713
-0.00085408353
-0.00065429872
-0.00046001101
-0.00027090732
-8.7288462e-05
-0.005058897
-0.0048960441
-0.0047143815
-0.0045170095
-0.0043069862
-0.0040872305
-0.0038604436
-0.0036290559
-0.0033951939
-0.0031606649
-0.0029269553
-0.0026952599
-0.0024665101
-0.0022414091
-0.0020204759
-0.0018040712
-0.0015924342
-0.0013857181
-0.0011840202
-0.00098740388
-0.00079591606
-0.00060960781
-0.00042852622
-0.00025234287
-8.1368321e-05
-0.0046802604
-0.0045324043
-0.00436709
-0.0041870338
-0.0039949391
-0.0037934137
-0.0035849001
-0.0033716252
-0.0031555659
-0.0029384322
-0.0027216639
-0.002506442
-0.0022937084
-0.0020841963
-0.0018784555
-0.0016768856
-0.0014797667
-0.0012872888
-0.0010995747
-0.00091670069
-0.00073871612
-0.0005656612
-0.00039759802
-0.00023413681
-7.5527783e-05
-0.0043153809
-0.0041812856
-0.0040310544
-0.0038670713
-0.003691727
-0.00350735
-0.0033161443
-0.0031201421
-0.0029211709
-0.0027208349
-0.00252051
-0.0023213464
-0.002124282
-0.0019300615
-0.001739255
-0.0015522888
-0.0013694711
-0.0011910128
-0.0010170511
-0.00084766915
-0.00068291435
-0.00052281844
-0.00036746618
-0.00021641005
-6.9798296e-05
-0.0039644374
-0.0038430236
-0.0037067605
-0.0035577426
-0.0033980841
-0.0032298623
-0.0030550615
-0.0028755297
-0.0026929481
-0.0025088114
-0.0023244193
-0.002140876
-0.0019590972
-0.0017798222
-0.0016036315
-0.001430967
-0.0012621528
-0.001097413
-0.0009368933
-0.00078067979
-0.00062881422
-0.00048131179
-0.00033824641
-0.00019922566
-6.4288756e-05
-0.0036275064
-0.0035178241
-0.0033945381
-0.003259489
-0.003114547
-0.0029615622
-0.0028023169
-0.0026384856
-0.0024716068
-0.0023030634
-0.0021340719
-0.0019656789
-0.0017987645
-0.00163405
-0.001472112
-0.0013133961
-0.0011582328
-0.0010068552
-0.00085941565
-0.00071600188
-0.00057664987
-0.00044135196
-0.00031017539
-0.00018270093
-5.8939772e-05
-0.0033045385
-0.0032057443
-0.0030945482
-0.002972567
-0.0028414534
-0.0027028526
-0.0025583604
-0.0024094882
-0.0022576363
-0.002104075
-0.001949933
-0.0017961916
-0.0016436854
-0.0014931077
-0.001345019
-0.0011998584
-0.0010579564
-0.00091954977
-0.00078479527
-0.000653784
-0.00052655399
-0.00040310265
-0.00028348651
-0.00016699607
-5.3703694e-05
-0.0029953427
-0.0029066834
-0.0028067784
-0.0026970464
-0.0025789452
-0.0024539337
-0.0023234358
-0.0021888093
-0.0020513215
-0.0019121313
-0.0017722766
-0.0016326683
-0.0014940885
-0.0013571934
-0.0012225194
-0.0010904914
-0.00096143348
-0.00083558107
-0.0007130927
-0.0005940625
-0.00047853172
-0.00036649901
-0.00025799732
-0.00015198471
-4.8675662e-05
-0.0026995801
-0.0026203803
-0.002531045
-0.002432816
-0.0023269758
-0.002214813
-0.0020975928
-0.0019765286
-0.0018527603
-0.001727337
-0.0016012052
-0.0014752019
-0.0013500514
-0.0012263668
-0.0011046538
-0.00098531697
-0.0008686686
-0.00075493827
-0.00064428326
-0.00053679904
-0.00043252825
-0.00033146414
-0.00023362135
-0.00013762163
-4.3880026e-05
-0.0024167639
-0.0023464172
-0.0022669989
-0.0021795927
-0.0020853219
-0.0019853194
-0.0018807032
-0.001772551
-0.0016618808
-0.0015496347
-0.0014366681
-0.001323742
-0.0012115198
-0.0011005669
-0.00099135311
-0.00088425806
-0.00077957739
-0.00067753115
-0.00057827264
-0.00048189767
-0.00038845199
-0.00029793091
-0.00021035012
-0.00012392694
-3.9233906e-05
-0.0021462644
-0.0020842263
-0.0020141359
-0.0019369336
-0.0018535978
-0.0017651187
-0.0016724772
-0.0015766237
-0.0014784594
-0.0013788229
-0.0012784793
-0.001178113
-0.0010783243
-0.00097962761
-0.0008824536
-0.00078715256
-0.00069399978
-0.00060320239
-0.00051490737
-0.00042921061
-0.00034616612
-0.00026578725
-0.0001881609
-0.00011082591
-3.4671788e-05
-0.0018873192
-0.0018331024
-0.0017718095
-0.0017042507
-0.0016312717
-0.001553731
-0.0014724821
-0.0013883548
-0.0013021394
-0.0012145739
-0.001126335
-0.0010380307
-0.00095019655
-0.00086329428
-0.0007777124
-0.0006937689
-0.0006117155
-0.00053174336
-0.00045399033
-0.00037855036
-0.00030548596
-0.00023484304
-0.00016691222
-9.800923e-05
-3.0289711e-05
-0.001639045
-0.0015922162
-0.001539247
-0.0014808284
-0.0014176838
-0.0013505499
-0.0012801608
-0.0012072325
-0.0011324493
-0.0010564524
-0.00097983174
-0.00090311939
-0.00082678603
-0.00075123915
-0.00067682324
-0.00060382168
-0.00053246009
-0.00046291095
-0.00039529965
-0.00032971223
-0.00026620263
-0.000204776
-0.00014590068
-8.5598897e-05
-2.6366532e-05
-0.0014004526
-0.0013606303
-0.001315566
-0.0012658409
-0.0012120651
-0.0011548614
-0.0010948518
-0.0010326446
-0.00096882248
-0.00090393353
-0.00083848307
-0.00077292841
-0.00070767531
-0.00064307629
-0.00057943049
-0.00051698505
-0.00045593779
-0.00039644059
-0.00033860427
-0.00028250582
-0.00022819671
-0.00017555968
-0.00012532538
-7.3570752e-05
-2.2659277e-05
-0.0011704588
-0.0011373125
-0.0010997888
-0.0010583673
-0.001013552
-0.00096585899
-0.00091580408
-0.00086389304
-0.00081061164
-0.00075641761
-0.00070173419
-0.00064694525
-0.00059239219
-0.00053837226
-0.00048513845
-0.00043290065
-0.00038182765
-0.00033204951
-0.00028366007
-0.00023672162
-0.00019127342
-0.00014730561
-0.00010509835
-6.1750977e-05
-1.9016174e-05
-0.0009478893
-0.00092113863
-0.00089084596
-0.00085739554
-0.00082119162
-0.00078264888
-0.00074218252
-0.00070020029
-0.00065709456
-0.00061323576
-0.00056896708
-0.0005246004
-0.00048041353
-0.0004366488
-0.00039351281
-0.00035117737
-0.00030978124
-0.00026943162
-0.00023020283
-0.00019213967
-0.0001552827
-0.00011963471
-8.5332871e-05
-5.018174e-05
-1.5449693e-05
-0.00073147211
-0.0007108875
-0.00068757176
-0.00066181874
-0.00063393804
-0.00060424751
-0.000573066
-0.00054070695
-0.00050747241
-0.00047364795
-0.0004394985
-0.00040526515
-0.00037116298
-0.00033737985
-0.0003040761
-0.00027138506
-0.00023941436
-0.0002082472
-0.0001779378
-0.00014851511
-0.00012003085
-9.2481534e-05
-6.5996449e-05
-3.8792819e-05
-1.1944811e-05
-0.00051980526
-0.00050520995
-0.00048867501
-0.0004704078
-0.00045062705
-0.0004295575
-0.00040742487
-0.00038445116
-0.00036085048
-0.00033682543
-0.00031256411
-0.00028823779
-0.00026399932
-0.00023998213
-0.00021630002
-0.00019304745
-0.00017030066
-0.000148119
-0.0001265476
-0.00010562052
-8.5357476e-05
-6.5740068e-05
-4.6958205e-05
-2.7598698e-05
-8.5032258e-06
-0.00031148745
-0.0003027566
-0.00029286383
-0.00028193268
-0.00027009381
-0.00025748145
-0.00024423045
-0.00023047342
-0.0002163383
-0.00020194618
-0.00018740949
-0.00017283054
-0.00015830035
-0.00014389786
-0.00012968961
-0.00011573079
-0.00010206795
-8.8743923e-05
-7.581291e-05
-6.3282679e-05
-5.1148625e-05
-3.9399272e-05
-2.80473e-05
-1.6536171e-05
-5.1306453e-06
-0.00010404328
-0.00010112812
-9.7824685e-05
-9.4174094e-05
-9.0220054e-05
-8.600741e-05
-8.1581184e-05
-7.6985622e-05
-7.2263378e-05
-6.74548e-05
-6.2597341e-05
-5.7724982e-05
-5.2867702e-05
-4.8050919e-05
-4.3295054e-05
-3.861679e-05
-3.403276e-05
-2.9569714e-05
-2.5265682e-05
-2.1098938e-05
-1.7058731e-05
-1.3138777e-05
-9.3252224e-06
-5.5025318e-06
-1.7391902e-06
)
;

boundaryField
{
    Walls
    {
        type            zeroGradient;
    }
    Inlet
    {
        type            fixedValue;
        value           uniform 500;
    }
    Outlet
    {
        type            fixedValue;
        value           uniform 0;
    }
    Front
    {
        type            wedge;
    }
    Back
    {
        type            wedge;
    }
    defaultFaces
    {
        type            empty;
    }
}


// ************************************************************************* //
