/*--------------------------------*- C++ -*----------------------------------*\
| =========                 |                                                 |
| \\      /  F ield         | OpenFOAM: The Open Source CFD Toolbox           |
|  \\    /   O peration     | Version:  4.0                                   |
|   \\  /    A nd           | Web:      www.OpenFOAM.org                      |
|    \\/     M anipulation  |                                                 |
\*---------------------------------------------------------------------------*/
FoamFile
{
    version     2.0;
    format      ascii;
    class       surfaceScalarField;
    location    "0.33";
    object      phi;
}
// * * * * * * * * * * * * * * * * * * * * * * * * * * * * * * * * * * * * * //

dimensions      [0 3 -1 0 0 0 0];

internalField   nonuniform List<scalar> 
3364
(
1.6204534e-10
1.625454e-08
-6.7531726e-10
5.1744721e-08
8.4097253e-08
8.9226522e-11
1.6165285e-08
-7.4335717e-10
5.2577347e-08
8.3353946e-08
6.0198348e-11
1.6105051e-08
4.2852669e-10
5.2209072e-08
8.3782489e-08
1.6470692e-10
1.5940317e-08
6.748052e-10
5.1698945e-08
8.4457253e-08
-5.2851777e-10
1.6468811e-08
3.4056637e-10
5.0829775e-08
8.4797764e-08
-4.9810159e-10
1.6966884e-08
1.0125116e-10
5.0230363e-08
8.4898983e-08
2.6286773e-10
1.6703962e-08
-4.442854e-11
5.0537628e-08
8.4854541e-08
3.7442481e-11
1.6666475e-08
5.9916905e-10
4.9975843e-08
8.5453679e-08
8.2232456e-11
1.6584213e-08
8.7278382e-10
4.9185236e-08
8.632643e-08
2.7643875e-10
1.6307746e-08
-9.377878e-11
4.9555422e-08
8.6232629e-08
8.0717841e-11
1.622699e-08
-3.6126312e-10
4.9997368e-08
8.5871342e-08
-4.9587541e-10
1.6722816e-08
-3.2081676e-10
4.9822254e-08
8.5550484e-08
-8.1807526e-10
1.7540842e-08
-3.2992968e-11
4.9037127e-08
8.5517445e-08
-1.0286263e-10
1.7643681e-08
9.7918965e-11
4.8836321e-08
8.5615318e-08
7.5526872e-10
1.6888371e-08
-1.0510587e-09
5.0642606e-08
8.4564227e-08
5.4083305e-10
1.6347483e-08
-1.0716076e-09
5.2255017e-08
8.3492602e-08
-3.249601e-10
1.6672408e-08
2.9249163e-10
5.1637551e-08
8.3785078e-08
-3.83095e-10
1.7055482e-08
2.0285609e-10
5.1051566e-08
8.3987907e-08
2.6044032e-10
1.6794991e-08
-9.3119893e-10
5.2243164e-08
8.305666e-08
-1.1268903e-10
1.6907643e-08
-4.415371e-10
5.2571971e-08
8.2615062e-08
-4.8457163e-10
1.7392185e-08
1.1652575e-09
5.0922071e-08
8.3780264e-08
-1.984993e-10
1.7590636e-08
7.7391412e-10
4.9949583e-08
8.4554147e-08
1.1302839e-10
1.7477561e-08
-9.9582657e-10
5.1058399e-08
8.3558295e-08
2.3198213e-10
1.7245544e-08
-5.7612455e-10
5.1866491e-08
8.2982124e-08
3.4829211e-10
1.6897217e-08
5.0312176e-10
5.171161e-08
8.3485185e-08
6.7713894e-10
1.6220051e-08
4.8550655e-10
5.1903186e-08
8.3970635e-08
1.2559552e-10
1.6094425e-08
1.3017894e-09
5.0726989e-08
8.5272387e-08
-1.0498377e-09
1.714424e-08
3.1469202e-10
4.9362483e-08
8.558707e-08
-5.7494378e-10
1.7719232e-08
-1.101483e-09
4.9889134e-08
8.4485599e-08
1.8541705e-09
1.5865275e-08
4.0482555e-09
4.7695185e-08
8.8533853e-08
1.1581356e-08
4.2832702e-09
4.8835382e-08
1.043928e-08
1.0403458e-08
1.2696318e-07
4.8561193e-09
-5.7332315e-10
1.6894252e-08
-1.6003474e-09
-1.6783845e-09
2.8974212e-08
-4.1711324e-10
-1.5617581e-10
-1.5707222e-09
-4.4666798e-10
-5.5622259e-10
-2.6927842e-09
-1.2006347e-10
-3.6097782e-11
-4.6293643e-10
-1.0375992e-10
-1.4697498e-10
-8.7214446e-10
-1.9278705e-11
-1.6817748e-11
-7.8252066e-11
-4.4782698e-11
-5.82601e-11
-1.6696202e-10
-6.238655e-12
-1.0579008e-11
-2.3446869e-11
-2.7574174e-11
-3.5717805e-11
-4.5989099e-11
-2.8869132e-12
-7.6919818e-12
-9.4435648e-12
-2.1017404e-11
-2.7827064e-11
-1.7334307e-11
-1.2146208e-12
-6.4772334e-12
-3.1246894e-12
-1.910724e-11
-2.6847732e-11
-4.1037003e-12
-6.4131164e-13
-5.835796e-12
-2.7979608e-12
-1.6950364e-11
-2.4988225e-11
-4.6571213e-12
-8.2869705e-13
-5.0069732e-12
-3.3189674e-12
-1.4459854e-11
-2.1227717e-11
-7.0790933e-12
-9.7080587e-13
-4.0360477e-12
-3.743021e-12
-1.1687398e-11
-1.7350867e-11
-7.6195023e-12
-8.6515978e-13
-3.1707897e-12
-3.3532739e-12
-9.1990881e-12
-1.3958036e-11
-6.7458071e-12
-6.4167942e-13
-2.5290386e-12
-2.5163483e-12
-7.3242845e-12
-1.1241465e-11
-5.2327118e-12
-4.3942758e-13
-2.089561e-12
-1.7111735e-12
-6.0524499e-12
-9.3159047e-12
-3.6366053e-12
-3.121495e-13
-1.7773771e-12
-1.1991062e-12
-5.1654333e-12
-7.9868658e-12
-2.5280663e-12
-2.3398855e-13
-1.5433648e-12
-8.9386618e-13
-4.5055143e-12
-7.0349958e-12
-1.8456841e-12
-1.8916609e-13
-1.3541819e-12
-7.2792776e-13
-3.9667226e-12
-6.2490232e-12
-1.5138628e-12
-1.5374105e-13
-1.2004297e-12
-5.9679848e-13
-3.5236453e-12
-5.5645093e-12
-1.2812895e-12
-1.3111796e-13
-1.0693046e-12
-5.083407e-13
-3.1464113e-12
-4.99074e-12
-1.0820984e-12
-1.0854001e-13
-9.6076044e-13
-4.2145958e-13
-2.8334869e-12
-4.5134308e-12
-8.987654e-13
-8.7199281e-14
-8.7355903e-13
-3.3952066e-13
-2.5811653e-12
-4.1299082e-12
-7.2304607e-13
-6.9420811e-14
-8.0413756e-13
-2.7034216e-13
-2.3802469e-12
-3.8247382e-12
-5.7551935e-13
-5.5659153e-14
-7.4847879e-13
-2.1663469e-13
-2.2192765e-12
-3.5800981e-12
-4.6128516e-13
-4.5420104e-14
-7.0305979e-13
-1.7684195e-13
-2.0878613e-12
-3.3798937e-12
-3.770588e-13
-3.7939114e-14
-6.6512225e-13
-1.4794855e-13
-1.9778594e-12
-3.2115061e-12
-3.1634987e-13
-3.244802e-14
-6.3267612e-13
-1.2679662e-13
-1.8835188e-12
-3.0661062e-12
-2.7221079e-13
-2.8431855e-14
-6.0424632e-13
-1.1130122e-13
-1.8006576e-12
-2.93807e-12
-2.3935181e-13
-2.5365724e-14
-5.7888273e-13
-9.9509009e-14
-1.7265224e-12
-2.8234221e-12
-2.1417112e-13
-2.3499028e-14
-5.5538583e-13
-9.1868964e-14
-1.6581603e-12
-2.7152644e-12
-2.0004038e-13
-2.2243214e-14
-5.3314469e-13
-8.7934761e-14
-1.5924763e-12
-2.6115395e-12
-1.9167257e-13
-2.13473e-14
-5.1179936e-13
-8.4278804e-14
-1.5295519e-12
-2.5111679e-12
-1.8466249e-13
-2.0676142e-14
-4.9112507e-13
-8.1770474e-14
-1.4684641e-12
-2.4135232e-12
-1.7942642e-13
-2.0214509e-14
-4.7091226e-13
-7.9885685e-14
-1.4087989e-12
-2.3169009e-12
-1.7651824e-13
-1.9941537e-14
-4.5097227e-13
-7.9318508e-14
-1.3494274e-12
-2.2210881e-12
-1.7514057e-13
-1.9555016e-14
-4.3141864e-13
-7.7780396e-14
-1.2912069e-12
-2.1265354e-12
-1.7234139e-13
-1.9067756e-14
-4.1235213e-13
-7.5891806e-14
-1.2343872e-12
-2.0338832e-12
-1.6855131e-13
-1.8524524e-14
-3.9382869e-13
-7.3698428e-14
-1.1792172e-12
-1.9437662e-12
-1.6382181e-13
-1.7833867e-14
-3.7599577e-13
-7.1037702e-14
-1.1260167e-12
-1.856716e-12
-1.5809344e-13
-1.7035483e-14
-3.5896109e-13
-6.7807997e-14
-1.0752471e-12
-1.7735135e-12
-1.5101513e-13
-1.6119773e-14
-3.4284201e-13
-6.4217429e-14
-1.0271519e-12
-1.6946089e-12
-1.4312595e-13
-1.5051144e-14
-3.2779144e-13
-6.0025546e-14
-9.8217955e-13
-1.6207655e-12
-1.3387223e-13
-1.3846174e-14
-3.1394575e-13
-5.5263907e-14
-9.4076352e-13
-1.5527155e-12
-1.2331659e-13
-1.2507179e-14
-3.0143896e-13
-4.9945698e-14
-9.0332642e-13
-1.4911552e-12
-1.115082e-13
-1.1033504e-14
-2.9040579e-13
-4.4067659e-14
-8.7029342e-13
-1.4367954e-12
-9.8429177e-14
-9.447895e-15
-2.8095815e-13
-3.7696043e-14
-8.4204621e-13
-1.390317e-12
-8.4175906e-14
-7.7685904e-15
-2.7318977e-13
-3.0919056e-14
-8.1889652e-13
-1.3522444e-12
-6.8992842e-14
-5.9868283e-15
-2.6720312e-13
-2.3784781e-14
-8.0109921e-13
-1.3229993e-12
-5.3030824e-14
-4.1309658e-15
-2.6307232e-13
-1.6364986e-14
-7.8886578e-13
-1.3028773e-12
-3.648783e-14
-2.1933732e-15
-2.6087911e-13
-8.9181333e-15
-7.8214159e-13
-1.2917658e-12
-2.0030442e-14
-4.4067393e-16
-1.9376934e-15
-4.4002542e-15
1.3662228e-07
-9.6644053e-09
-8.7630652e-09
1.4537906e-07
2.0983303e-08
-1.6746995e-09
-1.4728836e-09
1.3692586e-08
-3.7237326e-09
-6.4362089e-10
-6.7761363e-10
-4.5188592e-09
-1.3214131e-09
-1.9429988e-10
-2.342989e-10
-1.7646652e-09
-2.9538616e-10
-6.586645e-11
-6.6626538e-11
-4.6304391e-10
-7.7646008e-11
-3.4207159e-11
-2.2296349e-11
-1.2197325e-10
-2.2355228e-11
-2.9185356e-11
-1.9996663e-11
-2.4654613e-11
-4.7511925e-12
-2.8537588e-11
-2.6805355e-11
2.0573368e-12
-4.1165223e-12
-2.9077886e-11
-2.9488965e-11
-1.4328287e-12
-9.6905729e-12
-2.6465963e-11
-2.8048359e-11
-1.1130773e-11
-1.229862e-11
-2.1786376e-11
-2.3673845e-11
-1.6672605e-11
-1.1323141e-11
-1.720865e-11
-1.8877987e-11
-1.6118528e-11
-8.618267e-12
-1.3822816e-11
-1.5137837e-11
-1.2358077e-11
-5.9126861e-12
-1.1546564e-11
-1.2696665e-11
-8.3536474e-12
-4.0494899e-12
-1.0025043e-11
-1.1222707e-11
-5.5233298e-12
-2.9536963e-12
-8.9169738e-12
-1.0066761e-11
-4.1095791e-12
-2.4439828e-12
-7.9868175e-12
-9.1320248e-12
-3.3786843e-12
-2.0920277e-12
-7.1760607e-12
-8.2816734e-12
-2.9423648e-12
-1.7680657e-12
-6.4900869e-12
-7.5521308e-12
-2.4976073e-12
-1.4847217e-12
-5.9041324e-12
-6.9508383e-12
-2.0860217e-12
-1.1870857e-12
-5.4401009e-12
-6.4596863e-12
-1.6782519e-12
-9.4526122e-13
-5.070372e-12
-6.0704502e-12
-1.3345166e-12
-7.5781246e-13
-4.7738611e-12
-5.7592151e-12
-1.0690706e-12
-6.205864e-13
-4.5303523e-12
-5.5030501e-12
-8.7677684e-13
-5.2296523e-13
-4.3237571e-12
-5.2830083e-12
-7.4303381e-13
-4.529328e-13
-4.1430558e-12
-5.0865744e-12
-6.49394e-13
-3.9832868e-13
-3.9840998e-12
-4.9191594e-12
-5.657709e-13
-3.5730473e-13
-3.8409865e-12
-4.7517063e-12
-5.2478428e-13
-3.3859578e-13
-3.7024506e-12
-4.5970983e-12
-4.9322903e-13
-3.262014e-13
-3.5679402e-12
-4.4428936e-12
-4.8042974e-13
-3.1576188e-13
-3.4368579e-12
-4.2890762e-12
-4.6960123e-13
-3.0887208e-13
-3.3074279e-12
-4.1356678e-12
-4.6230058e-13
-3.0497461e-13
-3.1789859e-12
-3.9803892e-12
-4.6027162e-13
-3.0323415e-13
-3.0509054e-12
-3.8249102e-12
-4.5872965e-13
-2.9967918e-13
-2.9235791e-12
-3.6691607e-12
-4.5544308e-13
-2.9406273e-13
-2.7980777e-12
-3.514619e-12
-4.48617e-13
-2.8621777e-13
-2.6756904e-12
-3.3635249e-12
-4.3732272e-13
-2.7661691e-13
-2.5571743e-12
-3.2166069e-12
-4.2354414e-13
-2.6462722e-13
-2.4435685e-12
-3.075211e-12
-4.0603091e-13
-2.5102473e-13
-2.335675e-12
-2.9408362e-12
-3.8540611e-13
-2.3493962e-13
-2.234612e-12
-2.8147568e-12
-3.6102438e-13
-2.1653e-13
-2.1414022e-12
-2.6983603e-12
-3.329309e-13
-1.9592173e-13
-2.0569916e-12
-2.5928015e-12
-3.0148405e-13
-1.7303872e-13
-1.9823844e-12
-2.4994008e-12
-2.6644229e-13
-1.4799972e-13
-1.9185625e-12
-2.4193923e-12
-2.2801053e-13
-1.212918e-13
-1.866265e-12
-2.3538775e-12
-1.8680837e-13
-9.3143078e-14
-1.826154e-12
-2.3036473e-12
-1.4337479e-13
-6.410299e-14
-1.7985399e-12
-2.2690608e-12
-9.8690731e-14
-3.5287572e-14
-1.7832837e-12
-2.2499607e-12
-5.4388802e-14
-7.7558573e-15
-1.1902106e-14
-1.2571664e-11
1.256745e-11
-2.4730792e-11
1.2151132e-11
-3.6135045e-11
1.1395512e-11
-4.7731136e-11
1.1590462e-11
-6.0601505e-11
1.2867283e-11
-7.6002592e-11
1.5399924e-11
-9.5039726e-11
1.9037496e-11
-1.1857578e-10
2.3537526e-11
-1.4698746e-10
2.8413927e-11
-1.7993911e-10
3.2954412e-11
-2.1663004e-10
3.6693972e-11
-2.558854e-10
3.9258527e-11
-2.9653144e-10
4.0649166e-11
-3.3763796e-10
4.11095e-11
-3.78465e-10
4.0829751e-11
-4.183797e-10
3.9917083e-11
-4.5670726e-10
3.832953e-11
-4.9258524e-10
3.5879545e-11
-5.2527449e-10
3.2690363e-11
-5.5404275e-10
2.876899e-11
-5.7831016e-10
2.4267775e-11
-5.9764038e-10
1.9330337e-11
-6.116573e-10
1.4016847e-11
-6.1991245e-10
8.254978e-12
2.1804107e-12
-5.1967496e-11
6.453917e-11
-1.1133457e-10
7.1524813e-11
-1.7847148e-10
7.8540093e-11
-2.5561142e-10
8.8738473e-11
-3.4524672e-10
1.025107e-10
-4.4917137e-10
1.1933253e-10
-5.6855851e-10
1.3843228e-10
-7.0402469e-10
1.5901091e-10
-8.5370027e-10
1.7809616e-10
-1.0150743e-09
1.9433446e-10
-1.1857553e-09
2.0738037e-10
-1.3631406e-09
2.1664863e-10
-1.5448553e-09
2.2236792e-10
-1.7290807e-09
2.2533849e-10
-1.9139913e-09
2.2574326e-10
-2.0985572e-09
2.2448532e-10
-2.2927164e-09
2.3249042e-10
-2.4786075e-09
2.2177191e-10
-2.6480581e-09
2.0214163e-10
-2.7960494e-09
1.7676053e-10
-2.9190702e-09
1.4728831e-10
-3.0143558e-09
1.1461528e-10
-3.0794266e-09
7.9086663e-11
-3.1104437e-09
3.9270725e-11
1.0073058e-11
-1.3419333e-10
1.9874122e-10
-2.8758295e-10
2.2492801e-10
-4.662633e-10
2.5723621e-10
-6.7516908e-10
2.9766046e-10
-9.1778035e-10
3.4513781e-10
-1.1961471e-09
3.9771414e-10
-1.5139804e-09
4.5627935e-10
-1.9338372e-09
5.7887992e-10
-2.3887927e-09
6.3306225e-10
-2.8523958e-09
6.5794648e-10
-3.3110988e-09
6.6609085e-10
-3.756312e-09
6.6186783e-10
-4.1819845e-09
6.4804513e-10
-4.5823631e-09
6.2572057e-10
-4.9515435e-09
5.9492607e-10
-5.2841126e-09
5.5705577e-10
-5.5647776e-09
5.1315588e-10
-5.8067014e-09
4.636954e-10
-6.0145033e-09
4.099424e-10
-6.1904763e-09
3.5273166e-10
-6.3367849e-09
2.9359444e-10
-6.4541126e-09
2.3194009e-10
-6.5425439e-09
1.6751445e-10
-6.6039739e-09
1.0069699e-10
3.3427306e-11
-3.8442965e-10
5.8318762e-10
-8.1483768e-10
6.5536104e-10
-1.3105409e-09
7.5296669e-10
-2.104221e-09
1.0913653e-09
-2.9608738e-09
1.2018118e-09
-3.7764667e-09
1.2133243e-09
-4.5009137e-09
1.1807403e-09
-5.0413183e-09
1.1192954e-09
-5.4462859e-09
1.0380386e-09
-5.7314249e-09
9.4309222e-10
-5.9125599e-09
8.4723096e-10
-6.0008692e-09
7.501809e-10
-6.0066223e-09
6.5380084e-10
-5.9323822e-09
5.5148219e-10
-5.7939897e-09
4.5653462e-10
-5.6085078e-09
3.7157416e-10
-5.3929926e-09
2.9764063e-10
-5.1645421e-09
2.3524432e-10
-4.9387691e-09
1.8416854e-10
-4.7299843e-09
1.439456e-10
-4.5509101e-09
1.1451877e-10
-4.408369e-09
8.9397274e-11
-4.307681e-09
6.6824469e-11
-4.2521492e-09
4.5162995e-11
2.4522477e-11
-2.2406988e-09
2.8239128e-09
-4.0026993e-09
2.417391e-09
-5.4998559e-09
2.2501515e-09
-6.174541e-09
1.7660704e-09
-6.2365507e-09
1.2638377e-09
-5.765062e-09
7.4184861e-10
-4.9984143e-09
4.1410335e-10
-4.0038515e-09
1.2474169e-10
-2.8470306e-09
-1.1877461e-10
-1.594615e-09
-3.0931695e-10
-3.5434681e-10
-3.9303308e-10
8.8171911e-10
-4.8588598e-10
2.1850102e-09
-6.494913e-10
3.5998403e-09
-8.6334761e-10
4.9825483e-09
-9.2617141e-10
6.2930935e-09
-9.3896734e-10
7.5089576e-09
-9.1821789e-10
8.6157622e-09
-8.7155298e-10
9.6030931e-09
-8.0315337e-10
1.0462988e-08
-7.1593877e-10
1.1188799e-08
-6.1128028e-10
1.1770378e-08
-4.9216835e-10
1.2197826e-08
-3.6060867e-10
1.2461994e-08
-2.189893e-10
-6.5602384e-11
9.8029623e-10
1.8437026e-09
4.1826553e-09
-7.8491668e-10
7.9217151e-09
-1.4888381e-09
1.1628878e-08
-1.9410633e-09
1.5361319e-08
-2.4685785e-09
1.9023958e-08
-2.9207617e-09
2.2622177e-08
-3.184084e-09
2.599814e-08
-3.2511833e-09
2.9062985e-08
-3.1835772e-09
3.1800326e-08
-3.0466114e-09
3.4274495e-08
-2.8671528e-09
3.6444567e-08
-2.655905e-09
3.8233315e-08
-2.4381855e-09
3.9601041e-08
-2.2310187e-09
4.0690304e-08
-2.0153781e-09
4.1551725e-08
-1.8003332e-09
4.2225202e-08
-1.5916388e-09
4.2744042e-08
-1.3903374e-09
4.3137424e-08
-1.1964808e-09
4.3430728e-08
-1.0091872e-09
4.3645996e-08
-8.2649397e-10
4.3800122e-08
-6.4624012e-10
4.3905192e-08
-4.6562422e-10
4.3968335e-08
-2.8207883e-10
-8.9628914e-11
1.4950958e-07
-2.2856006e-09
1.4811799e-07
6.0760073e-10
1.4549348e-07
1.1364593e-09
1.4196484e-07
1.5882687e-09
1.3736195e-07
2.1349294e-09
1.3184126e-07
2.6004479e-09
1.2577265e-07
2.8849721e-09
1.19547e-07
2.9748529e-09
1.1343387e-07
2.9298858e-09
1.0757946e-07
2.8080867e-09
1.0205325e-07
2.6593074e-09
9.6905442e-08
2.4921213e-09
9.2165515e-08
2.30194e-09
8.7833653e-08
2.1010213e-09
8.3920609e-08
1.8978267e-09
8.0423612e-08
1.6968098e-09
7.7331648e-08
1.5004589e-09
7.4631036e-08
1.3103977e-09
7.2307684e-08
1.1269845e-09
7.0348943e-08
9.4965997e-10
6.8745361e-08
7.7718644e-10
6.7491598e-08
6.0761597e-10
6.6588029e-08
4.3803384e-10
6.6040293e-08
2.6574104e-10
8.4902966e-11
1.3043952e-08
-1.6368436e-09
1.5420028e-08
-1.7683615e-09
1.8082784e-08
-1.5261815e-09
2.0830374e-08
-1.1592107e-09
2.3656082e-08
-6.90672e-10
2.6586705e-08
-3.3007322e-10
2.9517258e-08
-4.5488541e-11
3.2289594e-08
2.0260592e-10
3.4870429e-08
3.4913937e-10
3.7221345e-08
4.572581e-10
3.9302012e-08
5.7872686e-10
4.092501e-08
8.6920853e-10
4.2214384e-08
1.0126488e-09
4.3239296e-08
1.0761906e-09
4.404195e-08
1.0952522e-09
4.4658535e-08
1.0803013e-09
4.51227e-08
1.0363684e-09
4.5463687e-08
9.694833e-10
4.5707617e-08
8.8312404e-10
4.5877385e-08
7.7996052e-10
4.5992529e-08
6.6210731e-10
4.6069082e-08
5.3112692e-10
4.6118401e-08
3.8877591e-10
4.6147667e-08
2.3653432e-10
7.182927e-11
-5.2902478e-09
-8.6546571e-10
-5.9720615e-09
-1.0865574e-09
-6.3134888e-09
-1.1847644e-09
-6.2422649e-09
-1.2304442e-09
-5.7104297e-09
-1.2225152e-09
-4.8690003e-09
-1.1715083e-09
-3.8178135e-09
-1.0966783e-09
-2.6102047e-09
-1.0050031e-09
-1.3575314e-09
-9.0353149e-10
-1.0118754e-10
-7.9908093e-10
1.1733176e-09
-6.9577121e-10
2.630052e-09
-5.8751652e-10
4.1253961e-09
-4.8268364e-10
5.5877911e-09
-3.8619067e-10
6.9822905e-09
-2.9923156e-10
8.2871378e-09
-2.245288e-10
9.5007394e-09
-1.7721463e-10
1.0608098e-08
-1.3785557e-10
1.1596966e-08
-1.057239e-10
1.2457397e-08
-8.04496e-11
1.3180876e-08
-6.1350079e-11
1.3759345e-08
-4.7320549e-11
1.4185072e-08
-3.6929678e-11
1.4449511e-08
-2.7883182e-11
-1.6793032e-11
-2.3719175e-09
-2.582147e-10
-3.148749e-09
-3.0972855e-10
-3.9592077e-09
-3.7431072e-10
-4.7489654e-09
-4.4069394e-10
-5.459406e-09
-5.1208376e-10
-5.9877511e-09
-6.4317368e-10
-6.3887791e-09
-6.9566135e-10
-6.6710228e-09
-7.2277067e-10
-6.8414417e-09
-7.3312382e-10
-6.9100587e-09
-7.3047488e-10
-6.8872551e-09
-7.1858532e-10
-6.7755635e-09
-6.99218e-10
-6.5863817e-09
-6.7187469e-10
-6.3350411e-09
-6.375396e-10
-6.0368952e-09
-5.973851e-10
-5.7085881e-09
-5.5284274e-10
-5.3796137e-09
-5.0619503e-10
-5.0609852e-09
-4.564895e-10
-4.7627508e-09
-4.0396304e-10
-4.4945102e-09
-3.4869447e-10
-4.2651361e-09
-2.907279e-10
-4.0823891e-09
-2.3007105e-10
-3.9525628e-09
-1.6675914e-10
-3.8794457e-09
-1.0100339e-10
-3.4046533e-11
-6.5747047e-10
-6.3785434e-11
-8.9136293e-10
-7.5833625e-11
-1.1657052e-09
-9.9966713e-11
-1.4837524e-09
-1.2264583e-10
-1.8448365e-09
-1.509997e-10
-2.3037841e-09
-1.8422726e-10
-2.7840625e-09
-2.1538542e-10
-3.26603e-09
-2.4080665e-10
-3.7390727e-09
-2.6008575e-10
-4.195925e-09
-2.7362806e-10
-4.6323431e-09
-2.8217342e-10
-5.0426944e-09
-2.8887353e-10
-5.417912e-09
-2.9666454e-10
-5.7343124e-09
-3.2114694e-10
-6.0124097e-09
-3.1929577e-10
-6.2571017e-09
-3.0815893e-10
-6.4726434e-09
-2.9066171e-10
-6.6612732e-09
-2.6786805e-10
-6.8247739e-09
-2.4047075e-10
-6.964629e-09
-2.0884784e-10
-7.0819219e-09
-1.7344332e-10
-7.1771824e-09
-1.3481888e-10
-7.2502189e-09
-9.3730874e-11
-7.3008236e-09
-5.0406825e-11
-1.1676155e-11
-1.7719373e-10
-8.5633528e-12
-2.5324705e-10
2.2134072e-13
-3.5455289e-10
1.3406441e-12
-4.7495416e-10
-2.243298e-12
-6.1825514e-10
-7.697776e-12
-7.8487051e-10
-1.7611358e-11
-9.698861e-10
-3.0369752e-11
-1.1675003e-09
-4.3192859e-11
-1.3709753e-09
-5.6611615e-11
-1.5777874e-09
-6.6817132e-11
-1.7879784e-09
-7.1984125e-11
-2.0004334e-09
-7.6420605e-11
-2.2179893e-09
-7.9111125e-11
-2.4591726e-09
-7.996646e-11
-2.6994694e-09
-7.9002113e-11
-2.9311628e-09
-7.6469023e-11
-3.1493579e-09
-7.2470451e-11
-3.3501467e-09
-6.7083307e-11
-3.5300352e-09
-6.0586616e-11
-3.6859147e-09
-5.2972751e-11
-3.8149644e-09
-4.4398189e-11
-3.9147462e-09
-3.5041695e-11
-3.9833933e-09
-2.5088422e-11
-4.0190839e-09
-1.472082e-11
-4.1638005e-12
-2.7540985e-11
-5.6763926e-12
-3.0384144e-11
3.0649879e-12
-4.1264076e-11
1.2220951e-11
-6.1086582e-11
1.757947e-11
-8.9651505e-11
2.0867296e-11
-1.2851402e-10
2.125119e-11
-1.7742471e-10
1.8540845e-11
-2.331292e-10
1.2511431e-11
-2.9391438e-10
4.1732323e-12
-3.6079518e-10
6.3226388e-14
-4.2921049e-10
-3.5693626e-12
-4.9868603e-10
-6.9457142e-12
-5.6806852e-10
-9.7293938e-12
-6.3654462e-10
-1.1491213e-11
-7.0318854e-10
-1.2359145e-11
-7.6714862e-10
-1.2509985e-11
-8.2749933e-10
-1.2120867e-11
-8.8315501e-10
-1.1428821e-11
-9.3345331e-10
-1.028958e-11
-9.7738357e-10
-9.0437871e-12
-1.0140186e-09
-7.764475e-12
-1.0426155e-09
-6.4461402e-12
-1.0626657e-09
-5.0394649e-12
-1.0740888e-09
-3.2990155e-12
-1.0743374e-12
1.4072529e-11
-1.7691177e-11
2.7137664e-11
-9.9998168e-12
4.1699494e-11
-2.3406222e-12
5.6636748e-11
2.6424152e-12
6.8910439e-11
8.5937661e-12
7.8926534e-11
1.1235228e-11
8.5323396e-11
1.2144099e-11
8.6468736e-11
1.1366192e-11
8.2034401e-11
8.6076548e-12
7.5491776e-11
6.6059272e-12
6.8609007e-11
3.3134716e-12
6.1900857e-11
-2.3750771e-13
5.6010337e-11
-3.8388244e-12
5.0580006e-11
-6.0608354e-12
4.5967363e-11
-7.746456e-12
4.2112369e-11
-8.6549417e-12
3.930572e-11
-9.3141631e-12
3.75444e-11
-9.6674384e-12
3.6604951e-11
-9.3500598e-12
3.6269484e-11
-8.7082387e-12
3.6092309e-11
-7.5872088e-12
3.5879135e-11
-6.2328635e-12
3.5529925e-11
-4.6901396e-12
3.5248388e-11
-3.0173519e-12
-1.1158324e-12
6.7458545e-12
-2.5869495e-11
1.8021567e-11
-2.1275196e-11
3.226519e-11
-1.6583948e-11
4.6915972e-11
-1.2008094e-11
6.3012279e-11
-7.5022859e-12
7.8055234e-11
-3.8074782e-12
9.0642019e-11
-4.4243805e-13
1.0178965e-10
2.1880701e-13
1.1052287e-10
-1.2531246e-13
1.1852204e-10
-1.3929758e-12
1.2522498e-10
-3.3892146e-12
1.3040478e-10
-5.4170357e-12
1.3357868e-10
-7.012462e-12
1.3612359e-10
-8.6054667e-12
1.3901965e-10
-1.0642244e-11
1.4244082e-10
-1.2075825e-11
1.4603174e-10
-1.2904789e-11
1.4949022e-10
-1.3125621e-11
1.5292773e-10
-1.2787258e-11
1.560645e-10
-1.1844696e-11
1.5888922e-10
-1.0411615e-11
1.6119776e-10
-8.5410952e-12
1.6280627e-10
-6.2983363e-12
1.6361221e-10
-3.8229882e-12
-1.1733981e-12
-1.0114596e-11
-2.6885405e-11
-7.5907168e-12
-2.3798817e-11
-2.4662027e-12
-2.1708217e-11
4.0462553e-12
-1.8520318e-11
1.1467291e-11
-1.4923094e-11
1.8971432e-11
-1.1311396e-11
2.6069291e-11
-7.5400767e-12
3.1345217e-11
-5.0569011e-12
3.5376895e-11
-4.1567772e-12
3.8635793e-11
-4.6516649e-12
4.0410733e-11
-5.1639492e-12
4.0826076e-11
-5.8321795e-12
4.0283831e-11
-6.470023e-12
3.8777348e-11
-7.0987954e-12
3.6184948e-11
-8.0496635e-12
3.3107046e-11
-8.9977471e-12
3.0322698e-11
-1.0120273e-11
2.7777392e-11
-1.0580152e-11
2.5382799e-11
-1.0392508e-11
2.3336501e-11
-9.7982473e-12
2.1749781e-11
-8.8247517e-12
2.0663077e-11
-7.4542526e-12
2.0107989e-11
-5.7431185e-12
1.9987778e-11
-3.7026561e-12
-1.377178e-12
-2.0045052e-11
-2.351279e-11
-2.2778114e-11
-2.1065588e-11
-2.4600286e-11
-1.9885885e-11
-2.5364727e-11
-1.7755726e-11
-2.5325068e-11
-1.4962611e-11
-2.4741993e-11
-1.1894333e-11
-2.3438538e-11
-8.843401e-12
-2.2141167e-11
-6.3541472e-12
-2.2447731e-11
-3.8500974e-12
-2.4599021e-11
-2.500267e-12
-2.7518188e-11
-2.244686e-12
-3.1002733e-11
-2.3475489e-12
-3.5000098e-11
-2.4725842e-12
-3.9331341e-11
-2.7674905e-12
-4.419446e-11
-3.1864946e-12
-4.9524088e-11
-3.6680801e-12
-5.5702547e-11
-3.941787e-12
-6.1700136e-11
-4.5825462e-12
-6.744616e-11
-4.6464774e-12
-7.2639941e-11
-4.6044672e-12
-7.7104525e-11
-4.360178e-12
-8.0840226e-11
-3.7185669e-12
-8.3780313e-11
-2.8030544e-12
-8.5880379e-11
-1.602619e-12
-4.5103085e-13
-2.0653721e-11
-1.8977506e-11
-2.4433279e-11
-1.7285935e-11
-2.8002742e-11
-1.6316329e-11
-3.1318417e-11
-1.4439964e-11
-3.4142828e-11
-1.213812e-11
-3.6324451e-11
-9.7126378e-12
-3.7946073e-11
-7.2217146e-12
-3.9547519e-11
-4.752645e-12
-4.0926825e-11
-2.4707425e-12
-4.2752673e-11
-6.7437876e-13
-4.5517297e-11
5.1996814e-13
-4.9540882e-11
1.6760567e-12
-5.3967931e-11
1.9544738e-12
-5.8416872e-11
1.6814488e-12
-6.3294035e-11
1.6906565e-12
-6.8485645e-11
1.5235064e-12
-7.3666512e-11
1.2390477e-12
-7.9038499e-11
7.8939936e-13
-8.4073552e-11
3.8852684e-13
-8.8697349e-11
1.9273605e-14
-9.2796001e-11
-2.6158925e-13
-9.612845e-11
-3.8618482e-13
-9.8546301e-11
-3.8527536e-13
-9.98635e-11
-2.8549665e-13
-6.4569001e-14
-1.6100773e-11
-1.5234767e-11
-1.8879277e-11
-1.450738e-11
-2.2065782e-11
-1.3129768e-11
-2.5038482e-11
-1.146721e-11
-2.7522804e-11
-9.6537475e-12
-2.9634974e-11
-7.6004219e-12
-3.1370115e-11
-5.4865344e-12
-3.2735339e-11
-3.3873876e-12
-3.3834432e-11
-1.3716221e-12
-3.5134911e-11
6.261215e-13
-3.677769e-11
2.1627607e-12
-3.8219605e-11
3.1179775e-12
-4.0071781e-11
3.8066489e-12
-4.2821224e-11
4.4308816e-12
-4.5903806e-11
4.7732217e-12
-4.9191088e-11
4.8107627e-12
-5.2545553e-11
4.5934799e-12
-5.5939688e-11
4.1834952e-12
-5.9221417e-11
3.670211e-12
-6.229037e-11
3.0881758e-12
-6.503867e-11
2.4866544e-12
-6.7327094e-11
1.9021803e-12
-6.9052272e-11
1.3398381e-12
-7.0104188e-11
7.6635139e-13
1.9163307e-13
-1.0747383e-11
-1.2841027e-11
-1.2599358e-11
-1.2655386e-11
-1.450234e-11
-1.1226758e-11
-1.619605e-11
-9.7734674e-12
-1.7638122e-11
-8.2116412e-12
-1.8613913e-11
-6.6245978e-12
-1.9346929e-11
-4.7534878e-12
-1.9805638e-11
-2.9286508e-12
-2.0024489e-11
-1.1527472e-12
-1.9973711e-11
5.753625e-13
-1.9969173e-11
2.1582367e-12
-1.9864731e-11
3.0135457e-12
-2.0150331e-11
4.0922533e-12
-2.0728172e-11
5.0087227e-12
-2.1616999e-11
5.6620426e-12
-2.2804143e-11
5.9978942e-12
-2.4200728e-11
5.9900474e-12
-2.5692653e-11
5.675399e-12
-2.719953e-11
5.1770607e-12
-2.8693205e-11
4.5818194e-12
-3.0092337e-11
3.8857512e-12
-3.1295489e-11
3.1052942e-12
-3.2220287e-11
2.264594e-12
-3.276843e-11
1.3144501e-12
2.8953309e-13
-6.9150015e-12
-1.144938e-11
-8.2861625e-12
-1.1284235e-11
-9.1777064e-12
-1.0335211e-11
-9.8727227e-12
-9.0784407e-12
-1.0364838e-11
-7.7195107e-12
-1.0659506e-11
-6.3299129e-12
-1.0554263e-11
-4.858714e-12
-1.0234775e-11
-3.2481218e-12
-9.7403463e-12
-1.6471606e-12
-9.0191222e-12
-1.4584878e-13
-8.071219e-12
1.2103439e-12
-7.3086257e-12
2.25096e-12
-6.3917564e-12
3.1753886e-12
-5.578575e-12
4.1955427e-12
-5.1424549e-12
5.2259204e-12
-4.8785369e-12
5.7339705e-12
-4.7943882e-12
5.9058895e-12
-4.9132376e-12
5.7942356e-12
-5.2004336e-12
5.4642409e-12
-5.5590066e-12
4.9403735e-12
-5.9239407e-12
4.2506632e-12
-6.2342018e-12
3.4155315e-12
-6.3931634e-12
2.4235289e-12
-6.5314115e-12
1.4526714e-12
6.0064815e-13
-5.0606891e-12
-1.049832e-11
-5.9709822e-12
-1.0373977e-11
-6.5164208e-12
-9.7897959e-12
-6.8027672e-12
-8.7921085e-12
-6.8424262e-12
-7.6798597e-12
-6.7114081e-12
-6.4609349e-12
-6.3628639e-12
-5.2072598e-12
-5.7385289e-12
-3.8724572e-12
-4.8737636e-12
-2.5119261e-12
-3.8630676e-12
-1.1565451e-12
-2.7471608e-12
9.4435979e-14
-1.7425234e-12
1.2463203e-12
-5.6012096e-13
1.9929825e-12
7.7130157e-13
2.864115e-12
1.9756419e-12
4.0215731e-12
3.0368693e-12
4.6727343e-12
3.9419228e-12
5.0008252e-12
4.6693883e-12
5.0667574e-12
5.2249202e-12
4.9086947e-12
5.630953e-12
4.5343248e-12
5.9070008e-12
3.9745976e-12
6.0728616e-12
3.2496526e-12
6.0947431e-12
2.4016276e-12
6.0799261e-12
1.4674697e-12
4.6236161e-13
-4.2118749e-12
-9.6651962e-12
-4.9383896e-12
-9.6475162e-12
-5.4173278e-12
-9.3109014e-12
-5.6338874e-12
-8.5755839e-12
-5.6214085e-12
-7.6923666e-12
-5.3961817e-12
-6.6861847e-12
-4.9782901e-12
-5.6251708e-12
-4.3555136e-12
-4.4952507e-12
-3.5212447e-12
-3.3462102e-12
-2.5124231e-12
-2.1653808e-12
-1.3663363e-12
-1.0516643e-12
-1.3970109e-13
1.9671973e-14
9.0519579e-13
9.4807231e-13
2.19111e-12
1.5781872e-12
3.703936e-12
2.5087331e-12
5.0806342e-12
3.2960216e-12
6.3332288e-12
3.7482155e-12
7.4344289e-12
3.9655417e-12
8.3869513e-12
3.9561563e-12
9.1817955e-12
3.739464e-12
9.8167641e-12
3.3396116e-12
1.0256703e-11
2.8096964e-12
1.045606e-11
2.2022539e-12
1.0589662e-11
1.3338511e-12
2.6983742e-13
-3.7293684e-12
-8.878266e-12
-4.3531108e-12
-9.0238379e-12
-4.8093316e-12
-8.8547358e-12
-5.0480352e-12
-8.3369276e-12
-5.0622432e-12
-7.6781993e-12
-4.8918747e-12
-6.8565884e-12
-4.552086e-12
-5.9649904e-12
-4.0092778e-12
-5.0380864e-12
-3.3105265e-12
-4.0449863e-12
-2.3978967e-12
-3.0780334e-12
-1.3510553e-12
-2.0985269e-12
-1.9094218e-13
-1.1404609e-12
9.9413905e-13
-2.370278e-13
2.0437372e-12
5.2857073e-13
3.4681524e-12
1.0843001e-12
4.9166237e-12
1.8475328e-12
6.2911319e-12
2.3736901e-12
7.548049e-12
2.7086076e-12
8.6772714e-12
2.8269171e-12
9.6507446e-12
2.7659743e-12
1.0455107e-11
2.5352328e-12
1.1116715e-11
2.1480722e-12
1.1698977e-11
1.6199756e-12
1.2028794e-11
1.0040199e-12
4.4600137e-13
-3.1803518e-12
-8.1955942e-12
-3.7482212e-12
-8.4560342e-12
-4.1989226e-12
-8.4040928e-12
-4.43768e-12
-8.0982218e-12
-4.4633451e-12
-7.6525796e-12
-4.3525433e-12
-6.9674303e-12
-4.0819678e-12
-6.2356015e-12
-3.6430376e-12
-5.4770485e-12
-3.0016454e-12
-4.6864073e-12
-2.2437393e-12
-3.8359656e-12
-1.3211537e-12
-3.0211363e-12
-2.6344337e-13
-2.1981933e-12
8.8251362e-13
-1.3830053e-12
2.0657184e-12
-6.5465328e-13
3.1663467e-12
-1.6346488e-14
4.4865298e-12
5.273322e-13
5.9134702e-12
9.4673281e-13
7.1916787e-12
1.430383e-12
8.3776338e-12
1.6409464e-12
9.4388679e-12
1.7047252e-12
1.0363255e-11
1.6108311e-12
1.1134265e-11
1.3770485e-12
1.1831007e-11
9.232195e-13
1.2164747e-11
6.7026759e-13
3.4495454e-13
-2.6479319e-12
-7.6337493e-12
-3.1194197e-12
-7.984609e-12
-3.4685134e-12
-8.0550557e-12
-3.6749525e-12
-7.8918334e-12
-3.7738455e-12
-7.553732e-12
-3.6777674e-12
-7.0635488e-12
-3.4157971e-12
-6.4976078e-12
-3.006385e-12
-5.8864928e-12
-2.4388357e-12
-5.2539854e-12
-1.742676e-12
-4.5321512e-12
-9.3002995e-13
-3.8338058e-12
1.8654027e-14
-3.1468986e-12
1.0853388e-12
-2.4497096e-12
2.2247798e-12
-1.7941123e-12
3.3787824e-12
-1.1703659e-12
4.557137e-12
-6.5103814e-13
5.695281e-12
-1.9142616e-13
7.0187292e-12
1.0692071e-13
8.2090023e-12
4.5066016e-13
9.2428471e-12
6.7086793e-13
1.0143296e-11
7.1036955e-13
1.0859968e-11
6.6036616e-13
1.1230673e-11
5.5250304e-13
1.1548221e-11
3.5270991e-13
1.3305889e-13
-2.1373855e-12
-7.1746705e-12
-2.5241937e-12
-7.5978535e-12
-2.8012838e-12
-7.7780156e-12
-2.9328514e-12
-7.7603125e-12
-2.9848487e-12
-7.5017774e-12
-2.8870463e-12
-7.1613894e-12
-2.6294336e-12
-6.7552546e-12
-2.2516666e-12
-6.2642902e-12
-1.7599793e-12
-5.7456999e-12
-1.1246835e-12
-5.1674711e-12
-3.6908971e-13
-4.5894212e-12
5.2043042e-13
-4.0364382e-12
1.4643673e-12
-3.3936641e-12
2.4993781e-12
-2.8291392e-12
3.6154878e-12
-2.2864902e-12
4.7437406e-12
-1.7793043e-12
5.8729474e-12
-1.3206454e-12
6.9193353e-12
-9.3947863e-13
7.9560464e-12
-5.8606149e-13
8.9627085e-12
-3.3580402e-13
9.8351101e-12
-1.6204153e-13
1.0525806e-11
-3.0338533e-14
1.1015421e-11
6.2880741e-14
1.1309687e-11
5.8436815e-14
5.3668176e-15
-1.6995958e-12
-6.8096399e-12
-2.005487e-12
-7.2920085e-12
-2.2407272e-12
-7.5428187e-12
-2.3003409e-12
-7.7007393e-12
-2.3025322e-12
-7.4996232e-12
-2.1845047e-12
-7.2794507e-12
-1.9648153e-12
-6.9749747e-12
-1.6204207e-12
-6.6087126e-12
-1.1246425e-12
-6.2415029e-12
-5.5212633e-13
-5.7400092e-12
1.3651315e-13
-5.2780802e-12
8.8455037e-13
-4.7844927e-12
1.75632e-12
-4.2654492e-12
2.6887037e-12
-3.7615367e-12
3.690468e-12
-3.288267e-12
4.7042732e-12
-2.7931208e-12
5.7211686e-12