/*--------------------------------*- C++ -*----------------------------------*\
| =========                 |                                                 |
| \\      /  F ield         | OpenFOAM: The Open Source CFD Toolbox           |
|  \\    /   O peration     | Version:  4.0                                   |
|   \\  /    A nd           | Web:      www.OpenFOAM.org                      |
|    \\/     M anipulation  |                                                 |
\*---------------------------------------------------------------------------*/
FoamFile
{
    version     2.0;
    format      ascii;
    class       volVectorField;
    location    "0.33";
    object      U;
}
// * * * * * * * * * * * * * * * * * * * * * * * * * * * * * * * * * * * * * //

dimensions      [0 1 -1 0 0 0 0];

internalField   nonuniform List<vector> 
1740
(
(1.4941188 0.009443787 5.0254459e-06)
(1.5359886 -0.0082679064 7.9153402e-07)
(1.5455134 -0.0096368038 7.0964524e-08)
(1.5001932 0.016355746 7.8812268e-06)
(1.6368474 -0.015795639 1.4015333e-06)
(1.5427497 -0.016648223 2.6981053e-07)
(1.4992892 0.0078860225 1.0970423e-05)
(1.6305708 0.0019778996 2.5421094e-06)
(1.512707 -0.0031859811 4.4716557e-07)
(1.4792979 -0.0046118961 1.3374351e-05)
(1.5995142 0.014430108 3.3324442e-06)
(1.5911567 0.0081137873 5.1925201e-07)
(1.4526436 -0.022632657 1.504353e-05)
(1.5912039 0.00034326279 4.4997481e-06)
(1.5939378 0.0035028067 8.6140157e-07)
(1.5546599 -0.017222504 1.6169571e-05)
(1.4895298 -0.0054902758 5.2355386e-06)
(1.4844671 -0.0022678759 1.018246e-06)
(1.5468299 0.0053610075 1.7136679e-05)
(1.5547174 0.0067784352 5.9464369e-06)
(1.5788763 -0.0043466783 1.1434685e-06)
(1.523574 0.00027377314 1.8067409e-05)
(1.5650443 0.010785329 6.7620001e-06)
(1.5680288 0.0016563988 1.3876061e-06)
(1.5464621 0.0044773108 1.9033677e-05)
(1.4932752 0.01389797 7.4764304e-06)
(1.5706937 0.0036937687 1.5588871e-06)
(1.4868046 0.0081683875 1.9553051e-05)
(1.493045 0.0012990518 7.9605027e-06)
(1.5788818 -0.0034064004 1.7583985e-06)
(1.5043223 0.0011995 1.9654232e-05)
(1.5428299 -0.00039311809 8.5854764e-06)
(1.5865813 -0.0040883586 1.9268781e-06)
(1.4799205 -0.015884739 1.979441e-05)
(1.5356956 -0.011035266 9.1036468e-06)
(1.6019281 -0.0022360093 2.1447744e-06)
(1.542133 -0.028296287 2.0322165e-05)
(1.4835539 -0.013483238 9.584287e-06)
(1.4969184 0.0018104573 2.3235171e-06)
(1.6702775 -0.0068396958 2.0428364e-05)
(1.4886449 -0.002288334 1.0047283e-05)
(1.5937522 0.003857733 2.4578078e-06)
(1.5959087 0.029670976 2.0283046e-05)
(1.4992138 -0.0049735606 1.04033e-05)
(1.5948219 -0.01521162 2.6911504e-06)
(1.4947976 0.021516216 2.0561859e-05)
(1.6026803 -0.0077061644 1.0829773e-05)
(1.506781 -0.01571328 2.8668986e-06)
(1.5032397 -0.0082412864 2.11301e-05)
(1.6139192 -0.0015572851 1.1280623e-05)
(1.5381284 0.001279173 3.0610277e-06)
(1.5564463 -0.011228874 2.1448021e-05)
(1.5374245 -0.0012407869 1.1671971e-05)
(1.5475704 -0.0026145703 3.2419211e-06)
(1.5620884 0.0066919739 2.1509431e-05)
(1.5605514 -0.0068909201 1.2070537e-05)
(1.5274768 -0.005226983 3.4068405e-06)
(1.5189594 -0.0056164772 2.1745983e-05)
(1.6405014 -0.0061015828 1.2525414e-05)
(1.5232911 0.00030884296 3.5943791e-06)
(1.5991846 -0.011095152 2.147769e-05)
(1.6038352 0.0088318653 1.2754592e-05)
(1.5165134 0.0086784925 3.7305316e-06)
(1.5976954 -0.0071378015 2.1569504e-05)
(1.5163779 0.010656793 1.3132895e-05)
(1.5557305 0.0053007101 3.9340418e-06)
(1.6065177 -0.0012412538 2.1889567e-05)
(1.5120246 -0.0067983783 1.3482039e-05)
(1.552744 -0.0090044116 4.1114261e-06)
(1.5943828 0.0033195734 2.2158672e-05)
(1.5965367 -0.0040437677 1.3790059e-05)
(1.4905308 -0.00050450346 4.2649604e-06)
(1.5561089 0.007165672 2.2137416e-05)
(1.5744247 0.015001758 1.4111196e-05)
(1.5359995 0.011298003 4.4161178e-06)
(1.5302023 0.01855515 2.2263929e-05)
(1.5460674 0.021890139 1.4345394e-05)
(1.5154901 0.0067763203 4.5935377e-06)
(1.4143394 0.0079380199 2.2371069e-05)
(1.596491 0.011362869 1.4674631e-05)
(1.5085799 0.010967897 4.7130802e-06)
(1.4532399 -0.026294784 2.2874683e-05)
(1.4687234 -0.017356918 1.5035672e-05)
(1.5948974 -0.0018846075 4.8793342e-06)
(1.5098178 -0.014649649 2.2298022e-05)
(1.3880805 -0.029515395 1.5204167e-05)
(1.5023352 -0.0092622464 4.8737145e-06)
(1.333339 0.051692954 2.3431259e-05)
(1.2783866 0.089539852 1.5757196e-05)
(1.355644 0.04451017 5.5439928e-06)
(0.8236256 0.3758768 1.1683972e-05)
(0.80326232 0.93821306 9.9862422e-06)
(0.74593854 1.2532305 5.4376581e-06)
(0.21696153 0.11221228 1.5040564e-06)
(0.179174 0.36573001 3.1050696e-06)
(0.084248409 0.49775442 7.0923612e-07)
(-0.033548395 -0.014437168 1.2353628e-06)
(-0.031515935 -0.030052402 1.6962305e-06)
(-0.021445811 -0.03533339 5.9450766e-07)
(-0.008830164 -0.003540926 4.5701916e-07)
(-0.008421878 -0.0090670115 7.4648428e-07)
(-0.0071595041 -0.012006852 3.5135556e-07)
(-0.0025974207 -0.00053429477 1.2300304e-07)
(-0.0024451823 -0.0013574592 2.5461291e-07)
(-0.0020226592 -0.0020673036 1.2564122e-07)
(-0.0014968958 -0.00018908999 2.7756867e-08)
(-0.0013677203 -0.00040713852 6.4902759e-08)
(-0.0010883717 -0.00059331318 9.9425807e-09)
(-0.00092723492 -9.4691053e-05 -1.2987436e-09)
(-0.00085511244 -0.00017618724 -2.8720103e-09)
(-0.0007004277 -0.00024288499 -3.5740239e-08)
(-0.0006619973 -4.5049669e-05 -1.0128114e-08)
(-0.00061937798 -6.297456e-05 -2.4083681e-08)
(-0.00052039933 -7.1033617e-05 -4.7784398e-08)
(-0.00053473065 -1.8767426e-05 -1.0681328e-08)
(-0.0005062138 -4.4681812e-05 -2.5926685e-08)
(-0.0004401282 -7.2933337e-05 -4.3907702e-08)
(-0.00045437698 -2.4319126e-05 -7.9553211e-09)
(-0.00043371669 -5.4476182e-05 -2.0618605e-08)
(-0.00038681622 -9.3690579e-05 -3.4196143e-08)
(-0.00038292733 -2.7999188e-05 -5.1483373e-09)
(-0.00036722374 -6.4892248e-05 -1.4314578e-08)
(-0.00033221193 -0.0001012035 -2.4173248e-08)
(-0.00031665894 -2.487665e-05 -3.1981189e-09)
(-0.00030470745 -5.8453642e-05 -9.3231807e-09)
(-0.00027805429 -8.9458177e-05 -1.6098531e-08)
(-0.0002604499 -1.8707404e-05 -2.0607601e-09)
(-0.00025122219 -4.2347871e-05 -5.9639782e-09)
(-0.00023050589 -6.7382169e-05 -1.0348155e-08)
(-0.00021563435 -1.34888e-05 -1.411981e-09)
(-0.00020844864 -2.9401832e-05 -3.8355869e-09)
(-0.00019220659 -4.5865292e-05 -6.5130164e-09)
(-0.00018094407 -9.8142094e-06 -9.8956957e-10)
(-0.00017534652 -2.1205825e-05 -2.4617444e-09)
(-0.00016258966 -3.1592742e-05 -4.0161053e-09)
(-0.00015428771 -7.4534522e-06 -6.7554348e-10)
(-0.00014992514 -1.5856537e-05 -1.5435254e-09)
(-0.00013986226 -2.4028719e-05 -2.4060127e-09)
(-0.00013352383 -6.045178e-06 -4.3596692e-10)
(-0.00013010424 -1.2899787e-05 -9.2515204e-10)
(-0.00012210667 -1.9852279e-05 -1.3846881e-09)
(-0.00011704774 -4.9110445e-06 -2.6845532e-10)
(-0.00011434784 -1.0542392e-05 -5.2621186e-10)
(-0.00010793562 -1.6664078e-05 -7.5940455e-10)
(-0.00010381322 -4.1776124e-06 -1.6441402e-10)
(-0.00010166736 -8.990617e-06 -2.8842568e-10)
(-9.6483129e-05 -1.4135856e-05 -3.9723262e-10)
(-9.3134725e-05 -3.4600781e-06 -1.0707689e-10)
(-9.1419874e-05 -7.4550825e-06 -1.5942859e-10)
(-8.7195336e-05 -1.1741165e-05 -2.0159785e-10)
(-8.4508247e-05 -2.7929224e-06 -7.7187263e-11)
(-8.313147e-05 -6.001858e-06 -9.5799527e-11)
(-7.9663741e-05 -9.448312e-06 -1.0396581e-10)
(-7.7517701e-05 -2.2388495e-06 -6.1625072e-11)
(-7.6408031e-05 -4.7794294e-06 -6.6704143e-11)
(-7.3541045e-05 -7.5239422e-06 -5.8889318e-11)
(-7.1817572e-05 -1.8085175e-06 -5.2791585e-11)
(-7.0920467e-05 -3.8309105e-06 -5.3762088e-11)
(-6.8533713e-05 -6.0327937e-06 -3.9568554e-11)
(-6.7129724e-05 -1.4857678e-06 -4.7086282e-11)
(-6.640251e-05 -3.1262749e-06 -4.7746012e-11)
(-6.4401174e-05 -4.9309714e-06 -3.1757923e-11)
(-6.3227728e-05 -1.2475099e-06 -4.2796208e-11)
(-6.2636415e-05 -2.6135251e-06 -4.4231619e-11)
(-6.0944863e-05 -4.1345406e-06 -2.846752e-11)
(-5.9923238e-05 -1.0710826e-06 -3.9325473e-11)
(-5.9440803e-05 -2.2390425e-06 -4.1587095e-11)
(-5.7998932e-05 -3.553605e-06 -2.6892516e-11)
(-5.7062067e-05 -9.404749e-07 -3.6616856e-11)
(-5.6667142e-05 -1.9656479e-06 -3.9478255e-11)
(-5.5427497e-05 -3.1328016e-06 -2.5976356e-11)
(-5.452128e-05 -8.3968727e-07 -3.4726839e-11)
(-5.4196779e-05 -1.7598119e-06 -3.7650522e-11)
(-5.312157e-05 -2.8139663e-06 -2.524729e-11)
(-5.2205301e-05 -7.6856514e-07 -3.3044296e-11)
(-5.1937506e-05 -1.6346814e-06 -3.5591104e-11)
(-5.0996898e-05 -2.6256792e-06 -2.420802e-11)
(-5.0044065e-05 -7.3340551e-07 -3.1572644e-11)
(-4.9822305e-05 -1.5517436e-06 -3.3743044e-11)
(-4.8993214e-05 -2.4991797e-06 -2.324989e-11)
(-4.7990352e-05 -7.0234057e-07 -3.0683493e-11)
(-4.7806249e-05 -1.4879605e-06 -3.247533e-11)
(-4.7070438e-05 -2.4013518e-06 -2.2742267e-11)
(-4.6013468e-05 -6.7782072e-07 -3.003982e-11)
(-4.5860097e-05 -1.4450928e-06 -3.1504113e-11)
(-4.5202604e-05 -2.3320308e-06 -2.2491269e-11)
(-4.4093448e-05 -6.5826552e-07 -2.9496135e-11)
(-4.3965048e-05 -1.4200307e-06 -3.0541909e-11)
(-4.3373463e-05 -2.2981256e-06 -2.2203138e-11)
(-4.2218916e-05 -6.4739803e-07 -2.8934178e-11)
(-4.2110782e-05 -1.4021007e-06 -2.9512926e-11)
(-4.1575046e-05 -2.2736009e-06 -2.1815906e-11)
(-4.0386108e-05 -6.3272501e-07 -2.8694403e-11)
(-4.0294466e-05 -1.3756903e-06 -2.8838938e-11)
(-3.9806517e-05 -2.233992e-06 -2.1626621e-11)
(-3.8597382e-05 -6.1500943e-07 -2.8585916e-11)
(-3.8519207e-05 -1.3428803e-06 -2.8279786e-11)
(-3.8072533e-05 -2.1827024e-06 -2.144543e-11)
(-3.6859485e-05 -5.9562293e-07 -2.8324934e-11)
(-3.6792349e-05 -1.3055907e-06 -2.7558892e-11)
(-3.6381575e-05 -2.1208957e-06 -2.1123907e-11)
(-3.5181905e-05 -5.7180204e-07 -2.8185118e-11)
(-3.5123846e-05 -1.2585941e-06 -2.6903318e-11)
(-3.4744478e-05 -2.0460689e-06 -2.0768879e-11)
(-3.3575685e-05 -5.4480664e-07 -2.8018767e-11)
(-3.3525108e-05 -1.2025432e-06 -2.6363144e-11)
(-3.3173344e-05 -1.954041e-06 -2.0553024e-11)
(-3.2052591e-05 -5.1421404e-07 -2.7870793e-11)
(-3.2008204e-05 -1.1391666e-06 -2.5908475e-11)
(-3.1680781e-05 -1.8517084e-06 -2.0412101e-11)
(-3.0624547e-05 -4.7904159e-07 -2.7779677e-11)
(-3.0585303e-05 -1.0648385e-06 -2.5551223e-11)
(-3.0279354e-05 -1.731765e-06 -2.0336637e-11)
(-2.9303128e-05 -4.3982581e-07 -2.7711244e-11)
(-2.9268157e-05 -9.8041966e-07 -2.5269532e-11)
(-2.8981093e-05 -1.5950066e-06 -2.0308586e-11)
(-2.8099005e-05 -3.9666704e-07 -2.7708305e-11)
(-2.806757e-05 -8.8612935e-07 -2.5127364e-11)
(-2.7796996e-05 -1.441959e-06 -2.0380166e-11)
(-2.7021749e-05 -3.495757e-07 -2.780158e-11)
(-2.6993222e-05 -7.8197339e-07 -2.5150048e-11)
(-2.6736884e-05 -1.2726248e-06 -2.0570894e-11)
(-2.6080435e-05 -2.9923758e-07 -2.7962739e-11)
(-2.6054266e-05 -6.6930624e-07 -2.5290185e-11)
(-2.5810012e-05 -1.0884466e-06 -2.08246e-11)
(-2.5284641e-05 -2.4613967e-07 -2.8144723e-11)
(-2.5260345e-05 -5.4951209e-07 -2.5436061e-11)
(-2.5026087e-05 -8.9238189e-07 -2.098579e-11)
(-2.4646359e-05 -1.9004442e-07 -2.8334949e-11)
(-2.4623505e-05 -4.2292678e-07 -2.5461649e-11)
(-2.4397174e-05 -6.8617512e-07 -2.0856091e-11)
(-2.4172257e-05 -1.3166566e-07 -2.8363341e-11)
(-2.4150401e-05 -2.9090843e-07 -2.4989351e-11)
(-2.3929942e-05 -4.721271e-07 -2.0001085e-11)
(-2.3922191e-05 -7.0788045e-08 -2.7805007e-11)
(-2.3901102e-05 -1.5662107e-07 -2.3025795e-11)
(-2.3684108e-05 -2.5849612e-07 -1.7532063e-11)
(-2.3839781e-05 -1.5287367e-08 -2.5016585e-11)
(-2.3819056e-05 -3.2767376e-08 -1.7309406e-11)
(-2.3603397e-05 -5.6570075e-08 -1.1987053e-11)
(-0.046843586 1.9507443 -3.4310343e-07)
(-0.033091562 1.6976591 -3.4438746e-06)
(-0.062449341 0.34092939 -2.465511e-07)
(-0.043303125 0.15103867 -1.0039651e-06)
(-0.015929065 -0.042874818 -1.8836511e-07)
(-0.011992928 -0.044710418 -6.0739184e-07)
(-0.0061210828 -0.014509784 -8.3467203e-08)
(-0.0053492362 -0.015890656 -3.7615644e-07)
(-0.00176271 -0.002892569 -8.2725685e-08)
(-0.0015331248 -0.0037790223 -2.5979339e-07)
(-0.00079618487 -0.00075785402 -9.3242253e-08)
(-0.00053239865 -0.00096328663 -1.9605366e-07)
(-0.0005183591 -0.00025631123 -9.2408219e-08)
(-0.00032485449 -0.00023069874 -1.5328027e-07)
(-0.00039423438 -6.1534373e-05 -8.1999675e-08)
(-0.00025968611 -1.5620287e-05 -1.1943674e-07)
(-0.00035272064 -6.1898178e-05 -6.6229723e-08)
(-0.00025974042 -2.9684641e-05 -9.0189631e-08)
(-0.0003250712 -0.00011108227 -4.9431316e-08)
(-0.00025781093 -0.0001070962 -6.5234839e-08)
(-0.00028652233 -0.00012906621 -3.4652551e-08)
(-0.00023618282 -0.00014765373 -4.5198675e-08)
(-0.0002425464 -0.0001165348 -2.3135456e-08)
(-0.00020354732 -0.00013909369 -3.0082496e-08)
(-0.00020276251 -8.9375328e-05 -1.487194e-08)
(-0.00017197827 -0.00010619704 -1.9300731e-08)
(-0.000170417 -6.0732705e-05 -9.2710098e-09)
(-0.00014595763 -7.2239072e-05 -1.1966253e-08)
(-0.00014536165 -4.106516e-05 -5.6103657e-09)
(-0.000125794 -4.8390484e-05 -7.1716017e-09)
(-0.00012615608 -3.0058095e-05 -3.285279e-09)
(-0.00011040161 -3.526041e-05 -4.147713e-09)
(-0.00011111847 -2.4379885e-05 -1.8503812e-09)
(-9.8333198e-05 -2.8520247e-05 -2.3070385e-09)
(-9.9052464e-05 -2.0806165e-05 -9.9624668e-10)
(-8.8595761e-05 -2.46696e-05 -1.2282599e-09)
(-8.9244798e-05 -1.7600879e-05 -5.110194e-10)
(-8.0636837e-05 -2.0911313e-05 -6.2336879e-10)
(-8.125732e-05 -1.4750878e-05 -2.5041392e-10)
(-7.4130816e-05 -1.7506463e-05 -3.0071472e-10)
(-7.4760087e-05 -1.2022896e-05 -1.1924003e-10)
(-6.8825614e-05 -1.4177047e-05 -1.3797534e-10)
(-6.946422e-05 -9.657757e-06 -5.7624153e-11)
(-6.4492767e-05 -1.1307665e-05 -6.0718126e-11)
(-6.5121638e-05 -7.7821114e-06 -3.079655e-11)
(-6.0930564e-05 -9.048695e-06 -2.6511658e-11)
(-6.1525221e-05 -6.3885648e-06 -2.0045676e-11)
(-5.7968394e-05 -7.3899168e-06 -1.2509619e-11)
(-5.8501907e-05 -5.3900686e-06 -1.6082771e-11)
(-5.5461282e-05 -6.2092077e-06 -7.432278e-12)
(-5.5906476e-05 -4.6701215e-06 -1.4871018e-11)
(-5.3286502e-05 -5.3976925e-06 -6.1075992e-12)
(-5.3619759e-05 -4.1304751e-06 -1.4714463e-11)
(-5.1343216e-05 -4.8263067e-06 -6.2870533e-12)
(-5.1546262e-05 -3.7813473e-06 -1.4738333e-11)
(-4.9551677e-05 -4.4351731e-06 -6.7674169e-12)
(-4.9612964e-05 -3.5142529e-06 -1.4502769e-11)
(-4.7852306e-05 -4.1785246e-06 -7.0890588e-12)
(-4.7768582e-05 -3.3431933e-06 -1.426058e-11)
(-4.6203975e-05 -4.0218291e-06 -7.3882868e-12)
(-4.5979402e-05 -3.2289652e-06 -1.4348887e-11)
(-4.4579802e-05 -3.9333492e-06 -7.914661e-12)
(-4.4223914e-05 -3.1529539e-06 -1.4618708e-11)
(-4.2963336e-05 -3.882021e-06 -8.5479576e-12)
(-4.2489635e-05 -3.1112618e-06 -1.4860892e-11)
(-4.1346995e-05 -3.853724e-06 -9.1432725e-12)
(-4.0772032e-05 -3.0889639e-06 -1.5007507e-11)
(-3.9730514e-05 -3.8400031e-06 -9.6458022e-12)
(-3.9073066e-05 -3.0485569e-06 -1.5208888e-11)
(-3.8119064e-05 -3.8093563e-06 -1.0115401e-11)
(-3.7399474e-05 -2.9877012e-06 -1.5352646e-11)
(-3.652181e-05 -3.7483209e-06 -1.0487555e-11)
(-3.5761286e-05 -2.9070412e-06 -1.5364768e-11)
(-3.4950626e-05 -3.6526097e-06 -1.0750072e-11)
(-3.4170557e-05 -2.8084554e-06 -1.5322963e-11)
(-3.3419026e-05 -3.5352764e-06 -1.0951692e-11)
(-3.2640361e-05 -2.6852679e-06 -1.5383832e-11)
(-3.1941244e-05 -3.3867772e-06 -1.1206305e-11)
(-3.1184055e-05 -2.5468716e-06 -1.5497276e-11)
(-3.0531534e-05 -3.2148876e-06 -1.1495681e-11)
(-2.9814746e-05 -2.3833882e-06 -1.5650852e-11)
(-2.9203636e-05 -3.0108463e-06 -1.1807017e-11)
(-2.8544828e-05 -2.1962822e-06 -1.582479e-11)
(-2.7970363e-05 -2.7760118e-06 -1.2120377e-11)
(-2.7385558e-05 -1.9867126e-06 -1.6054986e-11)
(-2.684327e-05 -2.5131181e-06 -1.2456111e-11)
(-2.6346941e-05 -1.7542802e-06 -1.6357184e-11)
(-2.5832579e-05 -2.2204818e-06 -1.2830797e-11)
(-2.5438366e-05 -1.5003573e-06 -1.6669221e-11)
(-2.4947824e-05 -1.8997751e-06 -1.3180161e-11)
(-2.4669613e-05 -1.2297047e-06 -1.6826569e-11)
(-2.4198857e-05 -1.5567328e-06 -1.3352296e-11)
(-2.4052744e-05 -9.4472874e-07 -1.662049e-11)
(-2.3597709e-05 -1.1950961e-06 -1.3155973e-11)
(-2.3594445e-05 -6.5012652e-07 -1.5654121e-11)
(-2.3151072e-05 -8.2266501e-07 -1.2259136e-11)
(-2.3353828e-05 -3.5750763e-07 -1.3268225e-11)
(-2.2917237e-05 -4.5322631e-07 -1.0185467e-11)
(-2.3275067e-05 -7.8493026e-08 -8.6236513e-12)
(-2.2840975e-05 -9.9210239e-08 -6.4371279e-12)
(0.0016703047 -3.3331732e-05 -9.1219463e-08)
(0.001586417 -0.00013934018 -2.1555556e-07)
(0.0014451542 -0.00017180155 -3.0341132e-07)
(0.0012947152 -0.00022753671 -3.5738876e-07)
(0.001151539 -0.00025705789 -3.8476368e-07)
(0.0010210379 -0.000298159 -3.9375183e-07)
(0.00090491772 -0.0003398563 -3.9072196e-07)
(0.00080426718 -0.00039058304 -3.8023268e-07)
(0.00071930931 -0.00045027806 -3.654388e-07)
(0.00064866576 -0.00051581278 -3.484961e-07)
(0.00058998145 -0.0005852754 -3.3087427e-07)
(0.00053978396 -0.00065546132 -3.1342287e-07)
(0.00049513389 -0.00072281108 -2.9651523e-07)
(0.00045391597 -0.00078526814 -2.8017603e-07)
(0.00041456759 -0.00084152465 -2.6425175e-07)
(0.0003759644 -0.00089048972 -2.4849665e-07)
(0.00033728523 -0.00093304486 -2.3258334e-07)
(0.00029799908 -0.0009685405 -2.1604867e-07)
(0.00025818223 -0.00099514951 -1.9837953e-07)
(0.00021791145 -0.0010130014 -1.7896941e-07)
(0.00017754251 -0.0010209938 -1.571388e-07)
(0.00013739771 -0.0010208855 -1.3189815e-07)
(9.7667674e-05 -0.0010130153 -1.0235348e-07)
(5.8287203e-05 -0.0010000158 -6.7947585e-08)
(1.8770046e-05 -0.00095036586 -2.8302923e-08)
(0.00032131233 -0.00015831216 -1.0765746e-07)
(0.00030945204 -0.00059376738 -2.5069442e-07)
(0.00030677933 -0.00084129513 -3.4599801e-07)
(0.00031240665 -0.0011768662 -3.9889854e-07)
(0.00032881377 -0.0014420905 -4.2132204e-07)
(0.00035329588 -0.0017305591 -4.2496039e-07)
(0.00038178293 -0.0020159652 -4.1734499e-07)
(0.0004084273 -0.0023211582 -4.0330082e-07)
(0.0004246362 -0.0026429362 -3.8577358e-07)
(0.00042945858 -0.002956151 -3.6667427e-07)
(0.00042448716 -0.0032577736 -3.4745215e-07)
(0.00041091593 -0.0035451944 -3.288394e-07)
(0.00039086426 -0.003813837 -3.1110186e-07)
(0.00036635609 -0.0040616935 -2.941188e-07)
(0.00033848338 -0.0042875823 -2.7765329e-07)
(0.00030809877 -0.0044926733 -2.6143404e-07)
(0.00027598186 -0.0046880857 -2.4517407e-07)
(0.00024282568 -0.0048677722 -2.2829098e-07)
(0.0002087726 -0.0050085356 -2.103075e-07)
(0.00017408155 -0.0051022733 -1.9056425e-07)
(0.00013956502 -0.0051464105 -1.6859287e-07)
(0.00010563183 -0.0051434488 -1.4288136e-07)
(7.2542738e-05 -0.0050967323 -1.1221546e-07)
(4.0682873e-05 -0.0049916661 -7.5136197e-08)
(1.1130022e-05 -0.0047658727 -3.2624993e-08)
(0.0011926824 -0.00035976561 -1.4680957e-07)
(0.0011958797 -0.0016185253 -3.2910166e-07)
(0.0012268833 -0.0021842523 -4.3552533e-07)
(0.0012796166 -0.0031006538 -4.8114921e-07)
(0.0013290488 -0.0038466476 -4.9140898e-07)
(0.0013597838 -0.0046278102 -4.837818e-07)
(0.0013640693 -0.005399059 -4.6698838e-07)
(0.0013417906 -0.0063170752 -4.4623368e-07)
(0.0012992175 -0.0073530244 -4.2364432e-07)
(0.0012400832 -0.0083069399 -4.0037167e-07)
(0.0011704112 -0.0091378608 -3.7813593e-07)
(0.0010924082 -0.0098426561 -3.5735653e-07)
(0.0010093258 -0.01041991 -3.3815508e-07)
(0.00092262131 -0.010878042 -3.2004419e-07)
(0.0008340082 -0.011223662 -3.0262782e-07)
(0.00074478778 -0.011458696 -2.8558452e-07)
(0.00065614613 -0.011575221 -2.6897343e-07)
(0.00056885439 -0.011590253 -2.516195e-07)
(0.00048326164 -0.011532421 -2.3341515e-07)
(0.00039953095 -0.011417714 -2.1372368e-07)
(0.00031927726 -0.011256233 -1.9174808e-07)
(0.00024201528 -0.011056673 -1.6620353e-07)
(0.00016745845 -0.010825487 -1.3527802e-07)
(9.6004295e-05 -0.010533124 -9.5891055e-08)
(2.9507073e-05 -0.010132817 -4.7476762e-08)
(0.0037884761 -0.001091951 -2.3023444e-07)
(0.0037839035 -0.0048144931 -4.7382322e-07)
(0.0037250566 -0.0061735959 -5.8254459e-07)
(0.003551772 -0.0094077795 -6.0569894e-07)
(0.0033409712 -0.012285071 -5.9328071e-07)
(0.0030843282 -0.01483413 -5.6779673e-07)
(0.0028069705 -0.016635949 -5.3731654e-07)
(0.0025238424 -0.017582708 -5.0831017e-07)
(0.0022519318 -0.01785182 -4.79974e-07)
(0.001991994 -0.017699529 -4.5072577e-07)
(0.0017577241 -0.017234789 -4.2441405e-07)
(0.0015419031 -0.016578285 -4.0052969e-07)
(0.0013438852 -0.015747598 -3.7949608e-07)
(0.0011525083 -0.014796085 -3.5986661e-07)
(0.00098091395 -0.013776653 -3.4108878e-07)
(0.000829026 -0.012734535 -3.2293198e-07)
(0.0006953701 -0.011708182 -3.0510542e-07)
(0.00057806508 -0.010731122 -2.8727063e-07)
(0.00047539936 -0.009826327 -2.6898601e-07)
(0.00038551188 -0.0090137335 -2.4969291e-07)
(0.00030432579 -0.0083064681 -2.2866373e-07)
(0.00023031843 -0.007708485 -2.0481945e-07)
(0.0001622402 -0.0072194966 -1.765021e-07)
(9.8278171e-05 -0.0067975845 -1.4089249e-07)
(3.6332559e-05 -0.0064918128 -8.9180766e-08)
(0.011820223 -0.0088196268 -4.1867914e-07)
(0.0094463536 -0.025886254 -7.1844355e-07)
(0.0081790742 -0.028393124 -7.9485108e-07)
(0.0063872936 -0.032642681 -7.7931004e-07)
(0.0049284173 -0.030041335 -7.3777798e-07)
(0.0036630979 -0.026216387 -6.8892804e-07)
(0.0026122366 -0.021491347 -6.412059e-07)
(0.0017776207 -0.016508124 -5.9695921e-07)
(0.001127891 -0.011532731 -5.5803462e-07)
(0.00063189153 -0.0069407159 -5.2237498e-07)
(0.0002479439 -0.0027974839 -4.9030426e-07)
(-3.3324294e-05 0.00076075604 -4.6052622e-07)
(-0.00023288012 0.0040776211 -4.3692001e-07)
(-0.00036047939 0.007242134 -4.1463441e-07)
(-0.00044031203 0.010146952 -3.9319681e-07)
(-0.00047984675 0.01266759 -3.7281869e-07)
(-0.00048743254 0.014772525 -3.5321987e-07)
(-0.00046978923 0.016480141 -3.3407898e-07)
(-0.00043234029 0.017818881 -3.1502804e-07)
(-0.00037938856 0.018818061 -2.9564786e-07)
(-0.0003167872 0.019503604 -2.7540204e-07)
(-0.00024739035 0.019901028 -2.5351e-07)
(-0.00017326955 0.020007678 -2.2866938e-07)
(-9.7685646e-05 0.019881734 -2.046232e-07)
(-2.241375e-05 0.019182072 -1.8069135e-07)
(0.014923659 0.023196646 -7.8664945e-07)
(0.0038100345 -0.0015906503 -1.1095699e-06)
(0.00098773895 0.04807653 -1.109622e-06)
(-0.00094992112 0.051040663 -1.0349792e-06)
(-0.0026134754 0.065324077 -9.5732917e-07)
(-0.0038442893 0.075661766 -8.7072983e-07)
(-0.0045250039 0.08286807 -7.9305422e-07)
(-0.0047372411 0.088867976 -7.2559248e-07)
(-0.0046604017 0.093277379 -6.6707215e-07)
(-0.0044354501 0.096015477 -6.1694958e-07)
(-0.004149908 0.097576821 -5.7435072e-07)
(-0.0038027616 0.09805491 -5.2953084e-07)
(-0.003449927 0.097778124 -5.0381736e-07)
(-0.003104593 0.096464429 -4.759279e-07)
(-0.0027562707 0.094302548 -4.4840331e-07)
(-0.0024170184 0.091872026 -4.2375366e-07)
(-0.0020965227 0.089239597 -4.0089106e-07)
(-0.0017955797 0.086489022 -3.7920992e-07)
(-0.0015134289 0.083697293 -3.5828559e-07)
(-0.0012486413 0.080922575 -3.3774735e-07)
(-0.00099770222 0.078201914 -3.1719859e-07)
(-0.00075898385 0.0755777 -2.9613509e-07)
(-0.00053044137 0.073021179 -2.7401615e-07)
(-0.00031027306 0.070721512 -2.5157128e-07)
(-9.290834e-05 0.0672372 -2.2976476e-07)
(-0.0012761922 1.1761397 -2.5121285e-06)
(-0.00061700931 0.96317426 -1.9965244e-06)
(-0.00094789015 0.86723569 -1.6191819e-06)
(-0.00067700081 0.7747515 -1.3292416e-06)
(-0.00060750549 0.67847504 -1.1129601e-06)
(-0.00054064747 0.58691089 -9.5499803e-07)
(-0.00047002577 0.50840953 -8.3717394e-07)
(-0.00040432981 0.44460911 -7.4839818e-07)
(-0.00034685592 0.39199987 -6.7684913e-07)
(-0.00029516786 0.34711002 -6.2309442e-07)
(-0.00024081101 0.30837071 -5.8202027e-07)
(-0.00019585619 0.27503472 -5.4543464e-07)
(-0.0001580896 0.24652867 -5.140159e-07)
(-0.00013455041 0.22212482 -4.8584118e-07)
(-0.00011271693 0.20116512 -4.6008902e-07)
(-9.4620912e-05 0.183169 -4.363676e-07)
(-7.9432405e-05 0.16770621 -4.1407746e-07)
(-6.6250073e-05 0.15441394 -3.9273209e-07)
(-5.4826038e-05 0.14298958 -3.7201318e-07)
(-4.4871613e-05 0.13318372 -3.5168418e-07)
(-3.5628402e-05 0.1247801 -3.3149631e-07)
(-2.6830534e-05 0.11763701 -3.1107179e-07)
(-1.8484377e-05 0.11151129 -2.9020757e-07)
(-1.0600871e-05 0.10668931 -2.687121e-07)
(-3.0157915e-06 0.10067004 -2.4583987e-07)
(-0.013023867 0.089897246 -1.2177801e-06)
(-0.002549821 0.098147015 -1.2586503e-06)
(-0.00011721409 0.10417201 -1.2125341e-06)
(0.0016085617 0.10599002 -1.1213004e-06)
(0.0031000939 0.10810449 -1.0182492e-06)
(0.0041976869 0.10980017 -9.1798312e-07)
(0.0047862006 0.11144781 -8.2829201e-07)
(0.0049306281 0.11294693 -7.5085834e-07)
(0.0048055649 0.11371898 -6.694643e-07)
(0.00452789 0.1137623 -6.2571375e-07)
(0.004214808 0.11303028 -5.8419909e-07)
(0.0038764535 0.11133659 -5.4038815e-07)
(0.0035045958 0.10879905 -5.0326858e-07)
(0.0031332207 0.10576663 -4.7122259e-07)
(0.0027735924 0.1024838 -4.4299203e-07)
(0.0024303569 0.099074483 -4.1760507e-07)
(0.0021053234 0.095622232 -3.943029e-07)
(0.0018006453 0.092194707 -3.725012e-07)
(0.0015152298 0.088842488 -3.5174176e-07)
(0.001247516 0.08560326 -3.3161714e-07)
(0.00099554323 0.082498625 -3.1167763e-07)
(0.00075702741 0.079558512 -2.9131321e-07)
(0.00052925521 0.076744895 -2.7089457e-07)
(0.00031000589 0.074251771 -2.4932434e-07)
(9.3440847e-05 0.070551746 -2.2793424e-07)
(-0.0095338847 -0.042052467 -8.2922671e-07)
(-0.0080063341 -0.039578202 -8.9311008e-07)
(-0.0065427433 -0.037651208 -8.7956473e-07)
(-0.0051127288 -0.034009619 -8.3332904e-07)
(-0.0037930042 -0.028913959 -7.7513235e-07)
(-0.0026643027 -0.023205285 -7.1395204e-07)
(-0.0017429098 -0.017374504 -6.5736759e-07)
(-0.0010236435 -0.011717659 -6.0566951e-07)
(-0.00047469031 -0.0066752437 -5.5761146e-07)
(-6.8576396e-05 -0.0022272387 -5.2160331e-07)
(0.00022694447 0.0016010727 -4.8841966e-07)
(0.00043336986 0.0053433355 -4.5738448e-07)
(0.00056761824 0.0089091156 -4.2941721e-07)
(0.00064670703 0.012093929 -4.0422771e-07)
(0.00068231518 0.01483279 -3.812619e-07)
(0.00068438813 0.017127216 -3.6001683e-07)
(0.0006610014 0.019013886 -3.4011537e-07)
(0.00061611908 0.020531443 -3.2113915e-07)
(0.0005548423 0.021700688 -3.0267812e-07)
(0.00048101553 0.022543639 -2.8427096e-07)
(0.00039792359 0.023081948 -2.6526267e-07)
(0.00030840392 0.023336562 -2.4443435e-07)
(0.00021536204 0.023317918 -2.2456085e-07)
(0.00012192512 0.023070155 -2.0085293e-07)
(2.9595577e-05 0.022218383 -1.7787762e-07)
(-0.0049333854 -0.017119162 -5.4610424e-07)
(-0.0046428238 -0.019329888 -6.1950397e-07)
(-0.0043427043 -0.021846129 -6.3305577e-07)
(-0.0039922709 -0.023652637 -6.15828e-07)
(-0.0036017933 -0.024760965 -5.86304e-07)
(-0.0032059492 -0.025062261 -5.5442855e-07)
(-0.0028378477 -0.024727469 -5.1562171e-07)
(-0.0024962875 -0.023968871 -4.7940952e-07)
(-0.0021842994 -0.022953654 -4.4661671e-07)
(-0.0019025685 -0.021748295 -4.1871394e-07)
(-0.0016523388 -0.0204352 -3.934309e-07)
(-0.0014200059 -0.01899642 -3.7017512e-07)
(-0.0012109338 -0.017499621 -3.4889753e-07)
(-0.0010270924 -0.015996697 -3.2941736e-07)
(-0.00086632635 -0.01452171 -3.1124693e-07)
(-0.00072565063 -0.013108463 -2.939906e-07)
(-0.00060220979 -0.011794009 -2.776224e-07)
(-0.00049569064 -0.010605882 -2.6162639e-07)
(-0.00040355928 -0.0095488817 -2.4555953e-07)
(-0.000323684 -0.0086247767 -2.2889781e-07)
(-0.00025396572 -0.0078341252 -2.1091521e-07)
(-0.00019226127 -0.0071765129 -1.9060364e-07)
(-0.00013648486 -0.0066484822 -1.6693961e-07)
(-8.4279436e-05 -0.0062093713 -1.3509187e-07)
(-3.2935374e-05 -0.0059107765 -8.701216e-08)
(-0.0015447535 -0.0046571314 -3.8021381e-07)
(-0.0016174562 -0.0054537459 -4.4625816e-07)
(-0.0016966417 -0.0063125392 -4.7120361e-07)
(-0.0017613455 -0.0071547399 -4.7069161e-07)
(-0.0017822771 -0.008022901 -4.562173e-07)
(-0.0017618322 -0.0090456248 -4.3475001e-07)
(-0.0017072145 -0.010153041 -4.0881897e-07)
(-0.0016273698 -0.01111229 -3.8283345e-07)
(-0.001530484 -0.011917166 -3.5858453e-07)
(-0.0014233395 -0.012566547 -3.3671842e-07)
(-0.0013125391 -0.013081081 -3.167524e-07)
(-0.001202138 -0.013463528 -2.9835647e-07)
(-0.0010925658 -0.013719997 -2.8134558e-07)
(-0.00098509452 -0.0138304 -2.6588575e-07)
(-0.0008808014 -0.01381845 -2.5114725e-07)
(-0.00078016424 -0.013724636 -2.3722402e-07)
(-0.00068443007 -0.013573709 -2.234739e-07)
(-0.00059192857 -0.013379708 -2.0968559e-07)
(-0.00050277865 -0.013151193 -1.9545468e-07)
(-0.00041663948 -0.012894953 -1.8025777e-07)
(-0.00033330009 -0.012616474 -1.6330058e-07)
(-0.00025268874 -0.012321129 -1.4340268e-07)
(-0.00017493162 -0.012012187 -1.1881867e-07)
(-0.00010045653 -0.011651448 -8.5852103e-08)
(-3.1058082e-05 -0.01119789 -4.3671919e-08)
(-0.00036011459 -0.0012234307 -2.7575559e-07)
(-0.00030739805 -0.0015144182 -3.2670238e-07)
(-0.0003202051 -0.0018657894 -3.5208306e-07)
(-0.00038452152 -0.0022384612 -3.588765e-07)
(-0.000465619 -0.0026266299 -3.5360216e-07)
(-0.00053644736 -0.0030507966 -3.4108076e-07)
(-0.00058322821 -0.0034966006 -3.2441586e-07)
(-0.00060651456 -0.0039212855 -3.063448e-07)
(-0.00061339073 -0.0043134667 -2.8849526e-07)
(-0.00060547058 -0.0046649635 -2.7163156e-07)
(-0.00058787688 -0.0049812206 -2.5587874e-07)
(-0.00056171141 -0.0052660458 -2.4118888e-07)
(-0.00052917577 -0.0055294658 -2.2748628e-07)
(-0.00049197721 -0.0057994406 -2.1471007e-07)
(-0.00045157011 -0.0060699246 -2.0256734e-07)
(-0.00040883478 -0.0063034516 -1.9086924e-07)
(-0.00036473063 -0.006490821 -1.7927079e-07)
(-0.00031967858 -0.0066296478 -1.6746721e-07)
(-0.00027416506 -0.0067192999 -1.550649e-07)
(-0.00022847153 -0.0067592167 -1.4169257e-07)
(-0.00018299591 -0.0067502893 -1.2666967e-07)
(-0.00013819667 -0.0066955017 -1.0884002e-07)
(-9.4634362e-05 -0.0065993395 -8.7143525e-08)
(-5.2959302e-05 -0.0064437572 -5.9737883e-08)
(-1.4641304e-05 -0.00615496 -2.7215217e-08)
(-0.0001511476 -0.00020727486 -2.0484083e-07)
(-4.8141182e-05 -0.00019317594 -2.4152998e-07)
(1.7971024e-06 -0.00021278942 -2.6296551e-07)
(2.1140645e-05 -0.0002738032 -2.7177944e-07)
(1.1907353e-05 -0.00036163893 -2.7134087e-07)
(-1.0916952e-05 -0.00047585296 -2.6469526e-07)
(-3.9810656e-05 -0.00061018945 -2.5424096e-07)
(-6.635764e-05 -0.00075380431 -2.4191144e-07)
(-8.9061843e-05 -0.00089641813 -2.2902303e-07)
(-0.00010868227 -0.0010364155 -2.1632995e-07)
(-0.00012378274 -0.0011688748 -2.0416094e-07)
(-0.00013211393 -0.0012881618 -1.9262843e-07)
(-0.00013480966 -0.0013955232 -1.8174059e-07)
(-0.00013258499 -0.001491487 -1.7144002e-07)
(-0.00012638496 -0.0015762247 -1.6157464e-07)
(-0.00011745032 -0.001646664 -1.5196403e-07)
(-0.00010668417 -0.0017035066 -1.4236933e-07)
(-9.4820763e-05 -0.0017468461 -1.3252698e-07)
(-8.2036642e-05 -0.0017767827 -1.221254e-07)
(-6.8874165e-05 -0.0017933081 -1.1081709e-07)
(-5.5636962e-05 -0.001796215 -9.8163418e-08)