/*--------------------------------*- C++ -*----------------------------------*\
| =========                 |                                                 |
| \\      /  F ield         | OpenFOAM: The Open Source CFD Toolbox           |
|  \\    /   O peration     | Version:  4.0                                   |
|   \\  /    A nd           | Web:      www.OpenFOAM.org                      |
|    \\/     M anipulation  |                                                 |
\*---------------------------------------------------------------------------*/
FoamFile
{
    version     2.0;
    format      ascii;
    class       volScalarField;
    location    "0.54";
    object      k;
}
// * * * * * * * * * * * * * * * * * * * * * * * * * * * * * * * * * * * * * //

dimensions      [0 2 -2 0 0 0 0];

internalField   nonuniform List<scalar> 
1740
(
0.0089847387
0.0093243113
0.018461171
0.0092319414
0.0099111236
0.027360409
0.0095231507
0.010427189
0.034850987
0.0097776297
0.010715402
0.041631479
0.010015132
0.011011077
0.04727987
0.010117951
0.011257243
0.052157392
0.010169673
0.011551318
0.056195392
0.010132334
0.011723205
0.059123996
0.010111682
0.012117917
0.062235178
0.010089966
0.012796327
0.06516805
0.010069353
0.013438284
0.066784751
0.010011249
0.013561322
0.067857915
0.0098772736
0.013593301
0.0685975
0.0098024194
0.013486572
0.06955817
0.0097304709
0.013541669
0.070449081
0.0095843331
0.013634425
0.07137397
0.0094455218
0.013849928
0.071746852
0.0093167776
0.014078114
0.072309349
0.0092081118
0.014308946
0.072893581
0.0090759677
0.014045535
0.072505059
0.0089540973
0.014087608
0.073202936
0.0088746098
0.014495543
0.074017189
0.0088133577
0.01467468
0.073201865
0.0086941582
0.014526473
0.07339593
0.0086302741
0.014525515
0.074143449
0.0085850603
0.014819056
0.073823561
0.0085054519
0.014964827
0.073394695
0.0084703522
0.015313861
0.07301362
0.0084674516
0.015208516
0.072027499
0.0090238789
0.01612534
0.066778401
0.012777789
0.018055974
0.047360241
0.024046343
0.031286668
0.039960007
0.010296557
0.012565534
0.013771186
0.0042652853
0.0045953826
0.0046500107
0.0020754927
0.0021183258
0.0020915487
0.0011422526
0.0011433633
0.0011252223
0.00069091619
0.00068845246
0.00068044274
0.00044948985
0.00044817214
0.00044546466
0.0003087634
0.00030842505
0.0003080574
0.00022052076
0.00022064681
0.00022115963
0.00016157025
0.00016185423
0.00016259999
0.00012003245
0.00012033198
0.00012104873
8.953006e-05
8.979006e-05
9.0388432e-05
6.6504107e-05
6.6709457e-05
6.7172848e-05
4.8882595e-05
4.9034981e-05
4.9375345e-05
3.5387047e-05
3.5494738e-05
3.5733681e-05
2.5159001e-05
2.5231753e-05
2.5392498e-05
1.7555785e-05
1.760284e-05
1.7706534e-05
1.2046389e-05
1.2075565e-05
1.2139732e-05
8.1688634e-06
8.1862204e-06
8.2243464e-06
5.5224792e-06
5.5324089e-06
5.554224e-06
3.7741396e-06
3.7796704e-06
3.7918117e-06
2.6572156e-06
2.6602659e-06
2.6669455e-06
1.9678525e-06
1.9695564e-06
1.9732815e-06
1.5589141e-06
1.5599203e-06
1.5621185e-06
1.3287659e-06
1.329426e-06
1.3308682e-06
1.2095973e-06
1.210091e-06
1.2111706e-06
1.1575414e-06
1.1579547e-06
1.1588594e-06
1.144998e-06
1.1453688e-06
1.1461812e-06
1.1550279e-06
1.1553713e-06
1.1561239e-06
1.1774526e-06
1.1777736e-06
1.1784772e-06
1.2062444e-06
1.2065443e-06
1.2072015e-06
1.2378346e-06
1.2381137e-06
1.238725e-06
1.2700429e-06
1.2703014e-06
1.2708674e-06
1.3014091e-06
1.3016475e-06
1.3021695e-06
1.3307739e-06
1.3309932e-06
1.331473e-06
1.3570076e-06
1.3572088e-06
1.3576488e-06
1.3788196e-06
1.3790038e-06
1.3794065e-06
1.3946114e-06
1.3947799e-06
1.395148e-06
1.4023531e-06
1.4025069e-06
1.4028429e-06
1.3994767e-06
1.399617e-06
1.3999233e-06
1.3827973e-06
1.3829249e-06
1.3832034e-06
1.3484827e-06
1.3485984e-06
1.3488507e-06
1.2921146e-06
1.2922187e-06
1.2924459e-06
1.2088892e-06
1.2089819e-06
1.2091844e-06
1.0940564e-06
1.0941375e-06
1.0943152e-06
9.4367737e-07
9.4374638e-07
9.4389806e-07
7.5580035e-07
7.5585597e-07
7.5597901e-07
5.3216706e-07
5.3220715e-07
5.3229647e-07
2.8055017e-07
2.8057189e-07
2.8062059e-07
0.056201014
0.060860442
0.046231937
0.046741347
0.012516899
0.011378053
0.0043519976
0.0041256685
0.0020002056
0.0019409848
0.0010954888
0.0010801162
0.00067139906
0.00066938842
0.00044365871
0.00044563583
0.0003087414
0.00031161344
0.00022254832
0.00022528572
0.00016402033
0.00016631791
0.00012227054
0.00012408422
9.1357913e-05
9.2734782e-05
6.790367e-05
6.8916121e-05
4.9903957e-05
5.0625493e-05
3.610144e-05
3.659876e-05
2.5638481e-05
2.596906e-05
1.7864554e-05
1.807599e-05
1.2237207e-05
1.2367198e-05
8.2821345e-06
8.358999e-06
5.5872467e-06
5.6310684e-06
3.8101579e-06
3.83444e-06
2.6770127e-06
2.6902982e-06
1.978884e-06
1.9862583e-06
1.56542e-06
1.569759e-06
1.3330341e-06
1.3358807e-06
1.2127934e-06
1.2149294e-06
1.1602211e-06
1.1620169e-06
1.1474053e-06
1.1490217e-06
1.1572584e-06
1.1587575e-06
1.1795377e-06
1.180939e-06
1.2081917e-06
1.2094996e-06
1.2396455e-06
1.2408605e-06
1.2717191e-06
1.2728424e-06
1.3029544e-06
1.3039885e-06
1.332194e-06
1.3331429e-06
1.3583094e-06
1.3591781e-06
1.3800108e-06
1.3808044e-06
1.3956998e-06
1.3964238e-06
1.4033463e-06
1.4040058e-06
1.4003817e-06
1.4009815e-06
1.38362e-06
1.3841644e-06
1.349228e-06
1.3497203e-06
1.2927856e-06
1.2932286e-06
1.2094875e-06
1.2098832e-06
1.0945819e-06
1.0949313e-06
9.4412719e-07
9.4442948e-07
7.5616664e-07
7.5641663e-07
5.3243414e-07
5.3261946e-07
2.806963e-07
2.8079897e-07
4.118839e-06
2.7104161e-05
0.00013451632
0.00030511738
0.00046236919
0.00057334808
0.0006436496
0.0006872781
0.00071601308
0.00073698461
0.00075423061
0.00077075813
0.00078625132
0.00080046419
0.00081308388
0.00082356035
0.00083091012
0.00083346737
0.00082851389
0.00081176484
0.00077665514
0.00071345649
0.00060858284
0.00044492187
0.00020189624
2.5382107e-06
5.4814395e-05
0.00025131317
0.00051637686
0.0007283725
0.00085989064
0.00093580491
0.00098029269
0.0010087946
0.0010293403
0.0010461758
0.0010618278
0.0010761827
0.0010889676
0.0010997864
0.0011080169
0.0011125276
0.0011114031
0.0011014446
0.0010775237
0.0010316292
0.00095147119
0.00081873155
0.00060786071
0.00028770373
7.9278263e-06
0.00016023437
0.00061699794
0.0010812625
0.0013643768
0.0015070504
0.0015743981
0.001605852
0.0016214209
0.0016295644
0.0016346679
0.0016376689
0.0016397487
0.0016402634
0.0016387208
0.0016346478
0.001626986
0.0016139377
0.0015920886
0.0015558374
0.0014961514
0.0013983001
0.0012375588
0.00097098483
0.0005229285
3.7544257e-05
0.00058033819
0.0016885485
0.0024404856
0.0027773436
0.0028909745
0.0028999939
0.0028694518
0.002829155
0.0027840438
0.0027392037
0.0026965256
0.0026565016
0.0026159396
0.0025743068
0.0025320062
0.0024885361
0.0024424665
0.0023910469
0.0023295009
0.0022499144
0.0021389951
0.0019724037
0.0016971743
0.0011562335
0.00028087169
0.0024517459
0.0049229491
0.0060455455
0.0063919719
0.0063296197
0.0060994089
0.0058355258
0.0055855092
0.0053338931
0.0050930769
0.0048682009
0.0046643761
0.0044668071
0.0042750291
0.0040937241
0.0039237968
0.0037646536
0.0036144636
0.0034697314
0.0033247877
0.0031713777
0.0029984751
0.0027977183
0.0025874723
0.0023588007
0.010556416
0.016608241
0.018558046
0.018097312
0.016537642
0.014718624
0.01302643
0.011541059
0.010262196
0.0091686778
0.0082377521
0.0074439023
0.0067632009
0.0061779533
0.0056748421
0.005242475
0.0048705069
0.0045495011
0.0042705931
0.0040249098
0.0038034621
0.0035976427
0.0034067536
0.003246246
0.044997182
0.034090623
0.026582907
0.021427014
0.017778271
0.015077406
0.012990129
0.011332873
0.0099988482
0.008913934
0.0080212771
0.0072768451
0.0066469369
0.0061065414
0.0056375473
0.005227464
0.0048676968
0.004551778
0.0042742237
0.0040297836
0.0038128466
0.0036174157
0.0034377526
0.0032752126
0.0031449836
0.037401247
0.031058718
0.027819573
0.025173964
0.022296799
0.01931844
0.016597414
0.014295142
0.01241111
0.010867701
0.0095952956
0.0085370055
0.007649242
0.0069021418
0.0062719229
0.005739069
0.0052872104
0.0049026094
0.0045734891
0.0042892798
0.0040398794
0.0038154772
0.0036069004
0.0034133069
0.0032505702
0.010234405
0.0095577946
0.0092163752
0.008895615
0.0084332537
0.0078680326
0.0073102945
0.0068136647
0.006361896
0.0059631521
0.0056144611
0.0053096776
0.0050235346
0.0047591188
0.0045178881
0.0042990277
0.004100483
0.0039193198
0.0037516074
0.0035922821
0.0034345998
0.0032695953
0.0030857839
0.0028746017
0.002654631
0.0039687386
0.0038964444
0.0038747736
0.0038344811
0.003740338
0.0036054627
0.0034658795
0.0033364881
0.003219883
0.0031182304
0.0030305606
0.0029537453
0.0028821911
0.0028153256
0.002752967
0.002694247
0.0026374845
0.0025800648
0.0025181894
0.002446345
0.0023562086
0.0022343582
0.0020564332
0.001768711
0.0012087276
0.0019246929
0.0019391742
0.0019649193
0.0019801334
0.0019738991
0.0019498858
0.0019191333
0.0018886367
0.0018614589
0.0018389186
0.0018208098
0.001805874
0.0017924314
0.0017798135
0.0017676402
0.0017546768
0.0017390313
0.001717897
0.0016871997
0.0016409635
0.001570135
0.0014603346
0.0012873667
0.00100831
0.00054574946
0.0010846612
0.0011033835
0.0011272938
0.0011476741
0.0011599459
0.0011648836
0.0011660804
0.0011665522
0.0011680326
0.0011712687
0.0011762213
0.0011823127
0.0011887454
0.0011948227
0.0011997719
0.0012023606
0.0012007508
0.0011923022
0.0011732842
0.0011384138
0.0010801058
0.0009872866
0.00084365903
0.00062580877
0.0003028727
0.00067676571
0.00069124029
0.00070875077
0.00072545082
0.00073920651
0.00074997126
0.0007589737
0.00076752276
0.00077651268
0.00078636409
0.00079707559
0.00080833397
0.0008196419
0.00083038828
0.00083975907
0.00084658506
0.00084922786
0.00084544058
0.00083219366
0.00080544663
0.00075986945
0.00068855731
0.00058285058
0.00043207236
0.00021861176
0.0004523528
0.00046285695
0.00047531213
0.00048792932
0.00049962486
0.00051020083
0.00052005775
0.00052975058
0.00053971344
0.00055016312
0.00056108417
0.00057226333
0.00058332747
0.00059375162
0.00060281202
0.00060951031
0.0006124996
0.00061000974
0.00059977977
0.00057902134
0.00054448993
0.00049287072
0.00042204787
0.00033493356
0.00025165354
0.00031706683
0.00032468144
0.00033360255
0.00034296859
0.00035219959
0.00036111352
0.00036981851
0.00037853733
0.00038746409
0.00039669002
0.00040617414
0.00041574335
0.00042509543
0.00043378973
0.00044121875
0.000446567
0.00044877329
0.00044650339
0.00043815189
0.00042190928
0.00039598026
0.000359147
0.00031210941
0.00026045114
0.00022006624
0.00022953568
0.00023510061
0.0002415662
0.0002484975
0.00025557855
0.00026267261
0.00026978661
0.00027699714
0.00028437683
0.00029194572
0.00029964436
0.00030732157
0.00031472611
0.00032149458
0.0003271326
0.00033099375
0.00033226399
0.00032996157
0.00032296746
0.00031011434
0.00029038593
0.00026332423
0.00022982737
0.00019365366
0.00016420181
0.00016955879
0.00017364264
0.00017836061
0.00018348446
0.00018883511
0.0001943163
0.00019990334
0.00020561007
0.00021145037
0.00021740789
0.00022341525
0.0002293402
0.00023497491
0.00024002522
0.00024409839
0.0002466928
0.00024719414
0.00024488467
0.00023897464
0.00022866573
0.00021325462
0.00019226132
0.00016546222
0.00013217142
8.58398e-05
0.00012651395
0.00012950548
0.00013294838
0.00013671773
0.00014070893
0.00014485495
0.00014912461
0.00015350632
0.00015798789
0.00016253772
0.00016708948
0.00017153053
0.00017569227
0.00017934157
0.00018217302
0.00018380391
0.00018377492
0.00018155958
0.00017658548
0.00016826605
0.00015602933
0.00013929847
0.0001173056
8.8466121e-05
4.8249962e-05
9.4525626e-05
9.6698723e-05
9.9193204e-05
0.00010193801
0.00010486966
0.00010794204
0.00011112611
0.0001144019
0.00011774803
0.00012112929
0.00012448634
0.00012772676
0.00013071736
0.00013327782
0.00013517564
0.00013612349
0.00013578074
0.00013376004
0.00012963903
0.00012297265
0.00011329315
0.00010006956
8.258704e-05
5.9765793e-05
3.0031226e-05
7.0209808e-05
7.1765076e-05
7.3546746e-05
7.5513055e-05
7.7624399e-05
7.9848822e-05
8.2162282e-05
8.4544465e-05
8.6972709e-05
8.9414524e-05
9.1820486e-05
9.4117708e-05
9.620427e-05
9.7944516e-05
9.9165534e-05
9.965559e-05
9.9165152e-05
9.7410808e-05
9.4081316e-05
8.8842835e-05
8.1337595e-05
7.1169172e-05
5.7879917e-05
4.0986052e-05
2.0282348e-05
5.1537294e-05
5.2626742e-05
5.3872616e-05
5.5249602e-05
5.6732454e-05
5.8299081e-05
5.9930764e-05
6.1609839e-05
6.3316392e-05
6.5023331e-05
6.66918e-05
6.8266765e-05
6.9672888e-05
7.0811229e-05
7.1556686e-05
7.1756859e-05
7.1232452e-05
6.977943e-05
6.7172606e-05
6.3169872e-05
5.7516957e-05
4.9956874e-05
4.0261161e-05
2.8319265e-05
1.4408878e-05
3.7222663e-05
3.7964888e-05
3.8812274e-05
3.9749089e-05
4.0759052e-05
4.1826909e-05
4.2938709e-05
4.4080512e-05
4.523627e-05
4.6385118e-05
4.7498136e-05
4.8535481e-05
4.9443553e-05
5.015263e-05
5.0575072e-05
5.0604316e-05
5.0114869e-05
4.8963487e-05
4.6991804e-05
4.4030908e-05
3.9910036e-05
3.4475475e-05
2.7632246e-05
1.941517e-05
1.0059033e-05
2.638167e-05
2.6870833e-05
2.7428285e-05
2.8044104e-05
2.8707727e-05
2.9408766e-05
3.0137156e-05
3.088254e-05
3.1632928e-05
3.2373093e-05
3.3082577e-05
3.3733774e-05
3.4290018e-05
3.470404e-05
3.4916538e-05
3.48554e-05
3.4435483e-05
3.3559288e-05
3.2119005e-05
3.0000954e-05
2.7094692e-05
2.3311143e-05
1.8615298e-05
1.3066212e-05
6.8120499e-06
1.8338854e-05
1.8649528e-05
1.9002795e-05
1.9392361e-05
1.9811391e-05
2.0252928e-05
2.0709975e-05
2.1175176e-05
2.164007e-05
2.2094086e-05
2.252339e-05
2.2909618e-05
2.3228696e-05
2.3449733e-05
2.3534014e-05
2.3434393e-05
2.3094966e-05
2.2451466e-05
2.1432832e-05
1.9964895e-05
1.7977884e-05
1.5420204e-05
1.2279841e-05
8.6035098e-06
4.4774177e-06
1.2528273e-05
1.2718071e-05
1.2933302e-05
1.3169985e-05
1.3423736e-05
1.3689993e-05
1.3964049e-05
1.4240898e-05
1.4514819e-05
1.4778796e-05
1.5023826e-05
1.5238153e-05
1.5406512e-05
1.5509387e-05
1.5522322e-05
1.541543e-05
1.5153092e-05
1.4694172e-05
1.3993134e-05
1.3002765e-05
1.1679599e-05
9.9932597e-06
7.939553e-06
5.5494199e-06
2.8833929e-06
8.453969e-06
8.5655377e-06
8.6916509e-06
8.8298193e-06
8.9772634e-06
9.1310511e-06
9.2881148e-06
9.4451596e-06
9.5984488e-06
9.74348e-06
9.8745794e-06
9.9844394e-06
1.0063639e-05
1.0100155e-05
1.0078897e-05
9.981346e-06
9.7853396e-06
9.4651062e-06
8.9920254e-06
8.3365243e-06
7.4717107e-06
6.3793891e-06
5.0581529e-06
3.5285324e-06
1.828932e-06
5.6850688e-06
5.7483085e-06
5.8195276e-06
5.8971947e-06
5.979587e-06
6.0648617e-06
6.1510777e-06
6.2361317e-06
6.3176534e-06
6.3928237e-06
6.4581391e-06
6.5091359e-06
6.5400752e-06
6.5436063e-06
6.5104392e-06
6.4291366e-06
6.2860683e-06
6.0652661e-06
5.7488504e-06
5.3183621e-06
4.7571337e-06
4.0540796e-06
3.2087887e-06
2.2348915e-06
1.1570308e-06
3.8642681e-06
3.899067e-06
3.9380705e-06
3.9803521e-06
4.0248634e-06
4.0704679e-06
4.1159595e-06
4.1600246e-06
4.2011833e-06
4.2376886e-06
4.2673882e-06
4.2875575e-06
4.2947054e-06
4.2843532e-06
4.2507985e-06
4.1868444e-06
4.083675e-06
3.9312633e-06
3.7183707e-06
3.4333297e-06
3.0656453e-06
2.6083895e-06
2.0614548e-06
1.4339465e-06
7.4478525e-07
2.7065578e-06
2.7254442e-06
2.7464943e-06
2.7691493e-06
2.7927746e-06
2.8166735e-06
2.840096e-06
2.8622192e-06
2.8821101e-06
2.8986653e-06
2.9105264e-06
2.915973e-06
2.9127994e-06
2.8981741e-06
2.8684769e-06
2.8190862e-06
2.7441748e-06
2.6369128e-06
2.4899172e-06
2.2955352e-06
2.0468923e-06
1.7394383e-06
1.373038e-06
9.5360859e-07
4.9415694e-07
1.9952537e-06
2.0056588e-06
2.0171971e-06
2.0295303e-06
2.0422699e-06
2.054984e-06
2.0671981e-06
2.0783812e-06
2.0879208e-06
2.095082e-06
2.0989491e-06
2.098352e-06
2.0917767e-06
2.0772627e-06
2.0522908e-06
2.0136732e-06
1.9574337e-06
1.8786626e-06
1.7720345e-06
1.6321474e-06
1.4541658e-06
1.2348713e-06
9.74113e-07
6.760957e-07
3.5141884e-07
1.5750416e-06
1.5811374e-06
1.5878775e-06
1.5950538e-06
1.6024215e-06
1.6097026e-06
1.6165824e-06
1.6226978e-06
1.6276171e-06
1.6308074e-06
1.631591e-06
1.6290883e-06
1.6221474e-06
1.6092645e-06
1.5884972e-06
1.5573803e-06
1.5128647e-06
1.4512538e-06
1.3683471e-06
1.2599481e-06
1.1223159e-06
9.5294547e-07
7.5168457e-07
5.2193658e-07
2.726018e-07
1.3393477e-06
1.3433521e-06
1.3477853e-06
1.3525127e-06
1.3573716e-06
1.362171e-06
1.3666859e-06
1.3706457e-06
1.3737158e-06
1.37547e-06
1.3753518e-06
1.3726266e-06
1.3663222e-06
1.3551606e-06
1.3374862e-06
1.3111972e-06
1.2736977e-06
1.2218999e-06
1.1522489e-06
1.0611731e-06
9.4549123e-07
8.0305801e-07
6.336881e-07
4.4021692e-07
2.291406e-07
1.2175374e-06
1.2205608e-06
1.2239247e-06
1.2275343e-06
1.2312728e-06
1.2349967e-06
1.2385297e-06
1.2416504e-06
1.2440743e-06
1.2454277e-06
1.2452121e-06
1.2427601e-06
1.2371807e-06
1.2272981e-06
1.2115864e-06
1.1881108e-06
1.1544872e-06
1.107896e-06
1.0451211e-06
9.6289544e-07
8.5830503e-07
7.2936743e-07
5.7584009e-07
4.0013858e-07
2.0873113e-07
1.1642159e-06
1.1667758e-06
1.1696403e-06
1.1727362e-06
1.1759707e-06
1.1792261e-06
1.1823519e-06
1.1851517e-06
1.1873655e-06
1.1886434e-06
1.1885118e-06
1.1863297e-06
1.1812369e-06
1.1720947e-06
1.1574246e-06
1.1353535e-06
1.1035784e-06
1.0593824e-06
9.996961e-07
9.2138223e-07
8.2163519e-07
6.9852938e-07
5.5176733e-07
3.8353023e-07
1.9993981e-07
1.1510054e-06
1.1533215e-06
1.1559235e-06
1.1587501e-06
1.1617212e-06
1.1647326e-06
1.167647e-06
1.1702804e-06
1.1723839e-06
1.1736172e-06
1.1735142e-06
1.1714403e-06
1.1665404e-06
1.1576801e-06
1.1433861e-06
1.1217923e-06
1.0906079e-06
1.0471353e-06
9.8834532e-07
9.1113436e-07
8.1272053e-07
6.9117985e-07
5.4616219e-07
3.797058e-07
1.9780812e-07
1.1605989e-06
1.1627521e-06
1.1651758e-06
1.167815e-06
1.1705966e-06
1.1734235e-06
1.1761652e-06
1.1786436e-06
1.1806142e-06
1.1817387e-06
1.1815509e-06
1.1794124e-06
1.1744608e-06
1.1655499e-06
1.1511903e-06
1.1294956e-06
1.0981521e-06
1.0544381e-06
9.9530913e-07
9.1764354e-07
8.1863914e-07
6.9634858e-07
5.5037717e-07
3.826437e-07
1.9906897e-07
1.1826605e-06
1.184674e-06
1.1869411e-06
1.1894104e-06
1.192013e-06
1.1946556e-06
1.1972113e-06
1.1995047e-06
1.2012922e-06
1.2022344e-06
1.2018607e-06
1.1995247e-06
1.1943502e-06
1.185172e-06
1.1704742e-06
1.1483369e-06
1.1164058e-06
1.0719141e-06
1.0117729e-06
9.3281607e-07
8.32198e-07
7.0793529e-07
5.5959927e-07
3.8904261e-07
2.0218809e-07
1.2111055e-06
1.2129825e-06
1.2150944e-06
1.217392e-06
1.2198088e-06
1.2222541e-06
1.2246028e-06
1.2266806e-06
1.2282433e-06
1.2289486e-06
1.2283199e-06
1.2257001e-06
1.2201973e-06
1.2106234e-06
1.1954315e-06
1.172662e-06
1.1399125e-06
1.0943602e-06
1.0328592e-06
9.5218555e-07
8.4944021e-07
7.2259882e-07
5.71207e-07
3.9709456e-07
2.0623689e-07
1.242351e-06
1.2440913e-06
1.2460463e-06
1.2481686e-06
1.2503935e-06
1.252632e-06
1.2547599e-06
1.2566033e-06
1.2579165e-06
1.2583536e-06
1.2574309e-06
1.25448e-06
1.248592e-06
1.2385546e-06
1.2227883e-06
1.1992916e-06
1.1656109e-06
1.1188642e-06
1.0558432e-06
9.7326198e-07
8.6816627e-07
7.3849112e-07
5.8375404e-07
4.0573402e-07
2.0950712e-07
1.2742188e-06
1.2758234e-06
1.2776225e-06
1.2795698e-06
1.2816021e-06
1.2836315e-06
1.2855347e-06
1.2871372e-06
1.2881917e-06
1.2883479e-06
1.287115e-06
1.2838129e-06
1.2775152e-06
1.2669853e-06
1.2506112e-06
1.2263497e-06
1.1916958e-06
1.1437084e-06
1.0791171e-06
9.9457443e-07
8.870727e-07
7.5451021e-07
5.9638754e-07
4.1448338e-07
2.139382e-07
1.305254e-06
1.3067269e-06
1.3083744e-06
1.3101513e-06
1.3119956e-06
1.3138202e-06
1.3155023e-06
1.3168667e-06
1.317664e-06
1.3175397e-06
1.3159953e-06
1.3123389e-06
1.3056273e-06
1.2946002e-06
1.2776139e-06
1.2525849e-06
1.2169594e-06
1.16774e-06
1.1015969e-06
1.015125e-06
9.0526621e-07
7.6988468e-07
6.08468e-07
4.2279984e-07
2.1808787e-07
1.3343027e-06
1.3356498e-06
1.3371525e-06
1.3387667e-06
1.3404312e-06
1.3420596e-06
1.3435293e-06
1.3446644e-06
1.3452129e-06
1.3448159e-06
1.3429676e-06
1.3389648e-06
1.3318476e-06
1.3203334e-06
1.3027491e-06
1.2769734e-06
1.240408e-06
1.1900042e-06
1.1223791e-06
1.0340758e-06
9.2199184e-07
7.8396524e-07
6.1950502e-07
4.3054799e-07
2.2252509e-07
1.3602381e-06
1.3614668e-06
1.3628332e-06
1.3642941e-06
1.3657891e-06
1.3672324e-06
1.3685013e-06
1.3694188e-06
1.3697306e-06
1.3690735e-06
1.3669342e-06
1.362599e-06
1.3550929e-06
1.3431125e-06
1.324958e-06
1.2984754e-06
1.2610273e-06
1.2095219e-06
1.140532e-06
1.0505589e-06
9.3646562e-07
7.9607312e-07
6.2891809e-07
4.3707199e-07
2.261447e-07
1.3817713e-06
1.3828895e-06
1.3841287e-06
1.3854466e-06
1.3867833e-06
1.3880537e-06
1.3891345e-06
1.3898479e-06
1.3899372e-06
1.389035e-06
1.3866213e-06
1.3819727e-06
1.3741007e-06
1.3616842e-06
1.3430011e-06
1.3158706e-06
1.2776249e-06
1.2251397e-06
1.1549566e-06
1.0635503e-06
9.4776496e-07
8.0542222e-07
6.3611186e-07
4.4208011e-07
2.2909974e-07
1.3973043e-06
1.39832e-06
1.3994413e-06
1.4006265e-06
1.4018165e-06
1.4029262e-06
1.4038323e-06
1.4043559e-06
1.404238e-06
1.4031076e-06
1.400439e-06
1.3955007e-06
1.3872933e-06
1.374482e-06
1.3553283e-06
1.3276331e-06
1.2887096e-06
1.2354162e-06
1.1642816e-06
1.0717743e-06
9.5474186e-07
8.1102507e-07
6.4025958e-07
4.447633e-07
2.303874e-07
1.4048064e-06
1.4057273e-06
1.4067397e-06
1.4078023e-06
1.4088567e-06
1.4098179e-06
1.4105626e-06
1.4109111e-06
1.4106027e-06
1.4092634e-06
1.4063634e-06
1.4011654e-06
1.3926631e-06
1.3795134e-06
1.3599698e-06
1.3318261e-06
1.2923921e-06
1.2385291e-06
1.166777e-06
1.0736262e-06
9.559564e-07
8.1165337e-07
6.4041336e-07
4.4460646e-07
2.300935e-07
1.4017082e-06
1.4025416e-06
1.4034533e-06
1.4044028e-06
1.4053322e-06
1.406157e-06
1.4067538e-06
1.4069426e-06
1.4064621e-06
1.4049366e-06
1.4018346e-06
1.3964166e-06
1.3876744e-06
1.3742649e-06
1.3544442e-06
1.3260147e-06
1.2863031e-06
1.2321994e-06
1.1602868e-06
1.0671131e-06
9.4962567e-07
8.0578106e-07
6.3533536e-07
4.4065172e-07
2.2752915e-07
1.3848225e-06
1.3855748e-06
1.3863934e-06
1.3872387e-06
1.3880532e-06
1.3887532e-06
1.389216e-06
1.3892622e-06
1.3886309e-06
1.3869476e-06
1.3836821e-06
1.3780981e-06
1.369193e-06
1.3556341e-06
1.3356951e-06
1.307207e-06
1.2675402e-06
1.2136461e-06
1.142191e-06
1.0498251e-06
9.3360658e-07
7.915936e-07
6.2360604e-07
4.3200844e-07
2.22641e-07
1.3503144e-06
1.3509912e-06
1.3517238e-06
1.3524729e-06
1.3531822e-06
1.3537693e-06
1.354113e-06
1.3540361e-06
1.3532806e-06
1.3514762e-06
1.3480996e-06
1.3424246e-06
1.3334647e-06
1.3199119e-06
1.3000773e-06
1.2718463e-06
1.2326657e-06
1.1795895e-06
1.1094165e-06
1.0189531e-06
9.0542128e-07
7.6702575e-07
6.036804e-07
4.1779298e-07
2.1479596e-07
1.2937624e-06
1.2943689e-06
1.2950216e-06
1.2956823e-06
1.296296e-06
1.2967824e-06
1.2970238e-06
1.2968473e-06
1.2960015e-06
1.2941254e-06
1.2907094e-06
1.2850479e-06
1.2761844e-06
1.2628543e-06
1.2434312e-06
1.2158873e-06
1.1777869e-06
1.1263375e-06
1.0585275e-06
9.7137962e-07
8.623398e-07
7.2980977e-07
5.7382392e-07
3.9676628e-07
2.0302232e-07
1.21036e-06
1.2109006e-06
1.2114792e-06
1.2120588e-06
1.2125862e-06
1.212985e-06
1.2131433e-06
1.2128963e-06
1.212004e-06
1.2101219e-06
1.2067643e-06
1.2012595e-06
1.1926992e-06
1.1798865e-06
1.1612886e-06
1.1350049e-06
1.098767e-06
1.0499939e-06
9.8592734e-07
9.0387229e-07
8.0155861e-07
6.7762725e-07
5.3223695e-07
3.6769013e-07
1.8803692e-07
1.0953533e-06
1.0958315e-06
1.0963407e-06
1.0968447e-06
1.0972934e-06
1.0976171e-06
1.097714e-06
1.0974313e-06
1.0965474e-06
1.0947439e-06
1.0915718e-06
1.0864117e-06
1.0784269e-06
1.0665178e-06
1.0492827e-06
1.0249956e-06
9.9161298e-07
9.4683071e-07
8.8821303e-07
8.1341354e-07
7.2050025e-07
6.0838314e-07
4.7733072e-07
3.2948234e-07
1.6842792e-07
9.4479643e-07
9.4521242e-07
9.4565255e-07
9.4608175e-07
9.4645489e-07
9.4671396e-07
9.4677313e-07
9.4649307e-07
9.4568111e-07
9.4405551e-07
9.412193e-07
9.3663401e-07
9.295621e-07
9.1903595e-07
9.0382516e-07
8.8243248e-07
8.5310403e-07
8.1388305e-07
7.6272822e-07
6.977026e-07
6.1725353e-07
5.2057281e-07
4.0801213e-07
2.8146885e-07
1.439324e-07
7.5672208e-07
7.5706827e-07
7.5743095e-07
7.5777757e-07
7.580724e-07
7.5827856e-07
7.5833194e-07
7.58088e-07
7.5740854e-07
7.5605473e-07
7.5369245e-07
7.4992865e-07
7.4415262e-07
7.3556079e-07
7.2313074e-07
7.0565136e-07
6.81729e-07
6.4982252e-07
6.0836359e-07
5.5586841e-07
4.9118404e-07
4.1377482e-07
3.2403941e-07
2.2358533e-07
1.1510123e-07
5.3284719e-07
5.3310461e-07
5.3337062e-07
5.3361953e-07
5.3383331e-07
5.3401062e-07
5.3410704e-07
5.3393743e-07
5.3342208e-07
5.3238375e-07
5.305251e-07
5.277861e-07
5.2367882e-07
5.1757854e-07
5.0869986e-07
4.9617157e-07
4.79026e-07
4.5614815e-07
4.2663153e-07
3.8941407e-07
3.4372958e-07
2.8927775e-07
2.2644192e-07
1.5648316e-07
8.1909444e-08
2.8092556e-07
2.8106807e-07
2.8121359e-07
2.8134934e-07
2.8147893e-07
2.8163566e-07
2.8181772e-07
2.8226699e-07
2.8195376e-07
2.8123423e-07
2.7980601e-07
2.7821574e-07
2.7603972e-07
2.7283943e-07
2.681232e-07
2.6138715e-07
2.5211543e-07
2.3937083e-07
2.2363163e-07
2.0395378e-07
1.7988038e-07
1.5128309e-07
1.184325e-07
8.2165344e-08
4.4207164e-08
)
;

boundaryField
{
    Walls
    {
        type            kqRWallFunction;
        value           nonuniform List<scalar> 
38
(
4.118839e-06
2.5382107e-06
7.9278263e-06
3.7544257e-05
0.00028087169
0.0023588007
0.056201014
0.060860442
0.018461171
0.027360409
0.034850987
0.041631479
0.04727987
0.052157392
0.056195392
0.059123996
0.062235178
0.06516805
0.066784751
0.067857915
0.0685975
0.06955817
0.070449081
0.07137397
0.071746852
0.072309349
0.072893581
0.072505059
0.073202936
0.074017189
0.073201865
0.07339593
0.074143449
0.073823561
0.073394695
0.07301362
0.072027499
0.066778401
)
;
    }
    Inlet
    {
        type            turbulentIntensityKineticEnergyInlet;
        intensity       0.05;
        value           nonuniform List<scalar> 3(0.0086363733 0.0086118545 0.010096439);
    }
    Outlet
    {
        type            inletOutlet;
        inletValue      uniform 0;
        value           nonuniform List<scalar> 
86
(
2.8055017e-07
2.8057189e-07
2.8062059e-07
2.806963e-07
2.8079897e-07
2.8092556e-07
2.8106807e-07
2.8121359e-07
2.8134934e-07
2.8147893e-07
2.8163566e-07
2.8181772e-07
2.8226699e-07
2.8195376e-07
2.8123423e-07
2.7980601e-07
2.7821574e-07
2.7603972e-07
2.7283943e-07
2.681232e-07
2.6138715e-07
2.5211543e-07
2.3937083e-07
2.2363163e-07
2.0395378e-07
1.7988038e-07
1.5128309e-07
1.184325e-07
8.2165344e-08
4.4207164e-08
0.0031449836
0.0032505702
0.002654631
0
0
0
0
0.00025165354
0.00022006624
0.00016420181
8.58398e-05
0
0
2.0282348e-05
1.4408878e-05
1.0059033e-05
6.8120499e-06
4.4774177e-06
2.8833929e-06
1.828932e-06
1.1570308e-06
7.4478525e-07
4.9415694e-07
3.5141884e-07
2.726018e-07
2.291406e-07
2.0873113e-07
1.9993981e-07
1.9780812e-07
1.9906897e-07
2.0218809e-07
2.0623689e-07
0
0
0
0
0
0
0
0
0
0
0
0
0
0
0
0
8.1909444e-08
4.4207164e-08
0
0
0
0
0.0025874723
0.003246246
)
;
    }
    Front
    {
        type            wedge;
    }
    Back
    {
        type            wedge;
    }
    defaultFaces
    {
        type            empty;
    }
}


// ************************************************************************* //
