/*--------------------------------*- C++ -*----------------------------------*\
| =========                 |                                                 |
| \\      /  F ield         | OpenFOAM: The Open Source CFD Toolbox           |
|  \\    /   O peration     | Version:  4.0                                   |
|   \\  /    A nd           | Web:      www.OpenFOAM.org                      |
|    \\/     M anipulation  |                                                 |
\*---------------------------------------------------------------------------*/
FoamFile
{
    version     2.0;
    format      ascii;
    class       volScalarField;
    location    "0.54";
    object      nut;
}
// * * * * * * * * * * * * * * * * * * * * * * * * * * * * * * * * * * * * * //

dimensions      [0 2 -1 0 0 0 0];

internalField   nonuniform List<scalar> 
1740
(
2.4828883e-05
1.4600733e-05
1.2373354e-06
1.6344688e-05
7.3974331e-06
1.8204584e-06
1.5798869e-05
5.5630033e-06
2.3048381e-06
2.2532372e-05
4.8058689e-06
2.7387665e-06
8.7110969e-06
4.3437979e-06
3.09656e-06
1.578237e-05
4.0516393e-06
3.4025821e-06
1.3920005e-05
3.8532953e-06
3.6547771e-06
1.2257674e-05
3.71633e-06
3.8368427e-06
1.0853991e-05
3.639654e-06
4.0284476e-06
9.5986009e-06
3.6060373e-06
4.209451e-06
8.4527322e-06
3.5824713e-06
4.3091893e-06
7.7794715e-06
3.5434883e-06
4.3741624e-06
7.3329637e-06
3.514845e-06
4.4195349e-06
6.8203295e-06
3.4842578e-06
4.4778292e-06
6.3770244e-06
3.4709425e-06
4.5318013e-06
6.0947767e-06
3.4677713e-06
4.588838e-06
5.8466509e-06
3.4815894e-06
4.6119961e-06
5.6109228e-06
3.4976325e-06
4.6454662e-06
5.3689901e-06
3.5134093e-06
4.6810865e-06
5.1783964e-06
3.4883477e-06
4.6574303e-06
4.999514e-06
3.4918881e-06
4.6996788e-06
4.8323904e-06
3.5249656e-06
4.7493021e-06
4.6940112e-06
3.5407963e-06
4.6995867e-06
4.5878066e-06
3.5306336e-06
4.710951e-06
4.4804715e-06
3.5328009e-06
4.7573782e-06
4.383821e-06
3.5540056e-06
4.7377093e-06
4.2960106e-06
3.5635265e-06
4.711587e-06
4.2135646e-06
3.5876657e-06
4.6889875e-06
4.1677936e-06
3.5834575e-06
4.6287794e-06
2.910371e-06
3.3762994e-06
4.308277e-06
1.947801e-06
2.154822e-06
4.4002749e-06
7.1837698e-06
7.3647201e-06
6.695589e-06
6.5394775e-06
6.7491197e-06
6.3828436e-06
5.1766718e-06
5.1143613e-06
4.8655591e-06
4.3382253e-06
4.2664917e-06
4.1311176e-06
3.7972803e-06
3.7546151e-06
3.6946822e-06
3.431675e-06
3.4143804e-06
3.3995978e-06
3.167617e-06
3.1659876e-06
3.1755914e-06
2.9554386e-06
2.9619262e-06
2.9830671e-06
2.7602538e-06
2.770136e-06
2.7952831e-06
2.557542e-06
2.5681577e-06
2.593143e-06
2.3318856e-06
2.3418469e-06
2.3645209e-06
2.0767645e-06
2.0854231e-06
2.1048151e-06
1.7946076e-06
1.8017276e-06
1.8175414e-06
1.4962375e-06
1.5018103e-06
1.5141368e-06
1.1987467e-06
1.2029003e-06
1.2120643e-06
9.2141132e-07
9.2435105e-07
9.3082752e-07
6.8054582e-07
6.8251693e-07
6.8685721e-07
4.8547449e-07
4.8672619e-07
4.8948338e-07
3.3745025e-07
3.3820391e-07
3.3986805e-07
2.3153079e-07
2.3196513e-07
2.3292775e-07
1.5979141e-07
1.6003862e-07
1.6058349e-07
1.1335369e-07
1.1349245e-07
1.1379716e-07
8.446873e-08
8.4547614e-08
8.4720623e-08
6.7282306e-08
6.7329711e-08
6.743377e-08
5.7642818e-08
5.7674289e-08
5.7743639e-08
5.2734221e-08
5.2757741e-08
5.2809975e-08
5.071307e-08
5.0732492e-08
5.0776089e-08
5.0406762e-08
5.0423859e-08
5.0462644e-08
5.1086615e-08
5.1102186e-08
5.1137778e-08
5.2308845e-08
5.2323255e-08
5.2356298e-08
5.3808422e-08
5.3821835e-08
5.3852576e-08
5.5430181e-08
5.5442674e-08
5.5471221e-08
5.7084884e-08
5.70965e-08
5.7122933e-08
5.8721657e-08
5.8732432e-08
5.875684e-08
6.0311149e-08
6.0321122e-08
6.0343616e-08
6.1835616e-08
6.1844833e-08
6.1865542e-08
6.3283373e-08
6.3291886e-08
6.331095e-08
6.4645901e-08
6.4653768e-08
6.4671335e-08
6.5916512e-08
6.5923792e-08
6.5940013e-08
6.7089862e-08
6.7096618e-08
6.7111643e-08
6.8161903e-08
6.81682e-08
6.818218e-08
6.9130081e-08
6.9135992e-08
6.9149084e-08
6.9993459e-08
6.999909e-08
7.001147e-08
7.0727728e-08
7.0733089e-08
7.0744844e-08
7.1325056e-08
7.1330182e-08
7.1341414e-08
7.1772459e-08
7.1777394e-08
7.1788201e-08
7.204541e-08
7.2050192e-08
7.2060663e-08
7.2092928e-08
7.2097586e-08
7.2107788e-08
7.17647e-08
7.1769242e-08
7.1779186e-08
4.1694647e-06
4.4968422e-06
6.6430764e-06
8.3547612e-06
5.9995995e-06
6.0415336e-06
4.7236461e-06
4.8310667e-06
4.0837859e-06
4.1929012e-06
3.6973541e-06
3.7991233e-06
3.4289988e-06
3.5226559e-06
3.2176177e-06
3.3029437e-06
3.0291715e-06
3.1058804e-06
2.8403934e-06
2.9082011e-06
2.6344094e-06
2.6931585e-06
2.4005076e-06
2.4502477e-06
2.1349721e-06
2.1759891e-06
1.8418703e-06
1.8746736e-06
1.5329911e-06
1.5582934e-06
1.2260393e-06
1.2447452e-06
9.4068801e-07
9.5386645e-07
6.9345876e-07
7.0227367e-07
4.9367567e-07
4.9927083e-07
3.4240043e-07
3.4577997e-07
2.3439393e-07
2.3634921e-07
1.6141037e-07
1.6251006e-07
1.1425829e-07
1.1487014e-07
8.4982158e-08
8.5328826e-08
6.7591226e-08
6.7800177e-08
5.7848966e-08
5.7989276e-08
5.2889827e-08
5.2996832e-08
5.0843271e-08
5.0933863e-08
5.0522841e-08
5.0604421e-08
5.1193279e-08
5.126871e-08
5.2407912e-08
5.2478111e-08
5.3900554e-08
5.3965747e-08
5.5515666e-08
5.5575935e-08
5.716395e-08
5.7219428e-08
5.8794582e-08
5.8845492e-08
6.0378282e-08
6.042492e-08
6.1897359e-08
6.1940065e-08
6.3340164e-08
6.3379295e-08
6.4698195e-08
6.4734109e-08
6.5964767e-08
6.5997817e-08
6.7134536e-08
6.716506e-08
6.8203449e-08
6.8231771e-08
6.916896e-08
6.9195387e-08
7.0030185e-08
7.0055006e-08
7.0762577e-08
7.0786059e-08
7.1358339e-08
7.1380734e-08
7.1804482e-08
7.1826015e-08
7.2076438e-08
7.2097301e-08
7.2123159e-08
7.2143488e-08
7.1794173e-08
7.1813996e-08
3.4158066e-10
1.3265244e-08
1.9311949e-07
8.2671986e-07
1.6439812e-06
2.2305971e-06
2.575481e-06
2.7838012e-06
2.9278815e-06
3.0433097e-06
3.1471808e-06
3.2532835e-06
3.3587181e-06
3.4623323e-06
3.5633187e-06
3.6603195e-06
3.7508794e-06
3.8308615e-06
3.8935685e-06
3.9284089e-06
3.918748e-06
3.8382807e-06
3.6443675e-06
3.2600939e-06
2.446715e-06
2.1049783e-10
2.6909486e-08
3.6025136e-07
1.3783776e-06
2.571912e-06
3.3801641e-06
3.8530484e-06
4.1596074e-06
4.3942492e-06
4.5996882e-06
4.7964479e-06
4.9968318e-06
5.198874e-06
5.4014811e-06
5.6029799e-06
5.8006277e-06
5.9896729e-06
6.1623307e-06
6.3058929e-06
6.4000473e-06
6.4124326e-06
6.2906607e-06
5.9469349e-06
5.2203316e-06
3.6817193e-06
6.5746465e-10
7.8908649e-08
8.5854114e-07
2.5099101e-06
3.7954667e-06
4.5317892e-06
4.9952007e-06
5.3406955e-06
5.6408462e-06
5.9280198e-06
6.2175157e-06
6.5160508e-06
6.8222142e-06
7.1348357e-06
7.4524848e-06
7.7720894e-06
8.0874171e-06
8.3884866e-06
8.6576248e-06
8.8660855e-06
8.9671813e-06
8.8832436e-06
8.4787732e-06
7.4952167e-06
5.2888703e-06
3.1135031e-09
2.855844e-07
2.064749e-06
4.0064409e-06
5.0471092e-06
5.6347049e-06
6.0412998e-06
6.3836612e-06
6.712004e-06
7.0449129e-06
7.3932317e-06
7.7600569e-06
8.1418876e-06
8.5374512e-06
8.9466203e-06
9.3680337e-06
9.7967074e-06
1.0223091e-05
1.0630499e-05
1.0990991e-05
1.1258283e-05
1.1353852e-05
1.1133918e-05
1.0289343e-05
7.8901885e-06
2.3286584e-08
1.1395172e-06
3.9920208e-06
5.6016435e-06
6.45388e-06
6.9750456e-06
7.3585462e-06
7.70465e-06
8.0541709e-06
8.4085473e-06
8.7814578e-06
9.1799064e-06
9.5931569e-06
1.0017084e-05
1.0454328e-05
1.0909589e-05
1.1382202e-05
1.186755e-05
1.2355666e-05
1.2828266e-05
1.3254162e-05
1.358309e-05
1.3738327e-05
1.3624041e-05
1.3211872e-05
1.9514801e-07
2.7554373e-06
5.9048199e-06
7.7113296e-06
8.6286956e-06
9.0472637e-06
9.2438216e-06
9.3803343e-06
9.5185391e-06
9.6769401e-06
9.8634181e-06
1.0084183e-05
1.0339668e-05
1.0629983e-05
1.095641e-05
1.1320127e-05
1.1721436e-05
1.2158467e-05
1.2626196e-05
1.3114725e-05
1.360627e-05
1.4071887e-05
1.4468363e-05
1.4747008e-05
1.4850358e-05
4.3367235e-06
4.3097409e-06
4.3580114e-06
4.4742492e-06
4.6547549e-06
4.888426e-06
5.1647474e-06
5.4803525e-06
5.8371334e-06
6.2374653e-06
6.6817507e-06
7.1673879e-06
7.6883588e-06
8.2368801e-06
8.8056674e-06
9.3897847e-06
9.9868883e-06
1.0595837e-05
1.1214874e-05
1.1839439e-05
1.2459195e-05
1.3054976e-05
1.3596048e-05
1.4045632e-05
1.4336093e-05
9.1272633e-06
9.3832093e-06
9.7820177e-06
1.0198891e-05
1.0374977e-05
1.0339094e-05
1.0222166e-05
1.0124906e-05
1.0087785e-05
1.0112461e-05
1.0194833e-05
1.0330225e-05
1.0516495e-05
1.0753363e-05
1.1040791e-05
1.1378348e-05
1.1764233e-05
1.2194623e-05
1.266249e-05
1.315555e-05
1.3653175e-05
1.4123276e-05
1.451951e-05
1.4791802e-05
1.4886219e-05
6.4133393e-06
6.8231135e-06
7.2545178e-06
7.6550603e-06
7.9579304e-06
8.1759033e-06
8.3686105e-06
8.5764737e-06
8.8072144e-06
9.0757698e-06
9.378844e-06
9.7072968e-06
1.005641e-05
1.0432464e-05
1.0839409e-05
1.127789e-05
1.1745025e-05
1.2233558e-05
1.272995e-05
1.321141e-05
1.3641346e-05
1.3963482e-05
1.4095375e-05
1.3938245e-05
1.3470933e-05
5.145117e-06
5.502815e-06
5.8543773e-06
6.1721357e-06
6.4391863e-06
6.6681229e-06
6.8892193e-06
7.1229555e-06
7.3804877e-06
7.668454e-06
7.9848706e-06
8.3270435e-06
8.6948533e-06
9.0894426e-06
9.5103711e-06
9.9539871e-06
1.0412173e-05
1.0870634e-05
1.1306311e-05
1.1683246e-05
1.1945644e-05
1.2004658e-05
1.1706609e-05
1.0732061e-05
8.1257167e-06
4.4371222e-06
4.7282307e-06
5.0199276e-06
5.2919318e-06
5.5384295e-06
5.7676301e-06
5.9940542e-06
6.2305179e-06
6.4855766e-06
6.7633969e-06
7.0636874e-06
7.3852428e-06
7.7277262e-06
8.0901313e-06
8.4695869e-06
8.8591521e-06
9.2467296e-06
9.6131633e-06
9.9295202e-06
1.0152981e-05
1.0220278e-05
1.0036161e-05
9.4499444e-06
8.1959636e-06
5.638088e-06
3.9883244e-06
4.2190905e-06
4.4585108e-06
4.6908373e-06
4.912408e-06
5.1279883e-06
5.3456853e-06
5.5732797e-06
5.8164761e-06
6.0781272e-06
6.3584714e-06
6.6566334e-06
6.9713625e-06
7.2999588e-06
7.6370878e-06
7.9736832e-06
8.2955664e-06
8.5818207e-06
8.8026915e-06
8.9167314e-06
8.8667134e-06
8.5731042e-06
7.9211006e-06
6.7228393e-06
4.494257e-06
3.6742953e-06
3.8596574e-06
4.0575644e-06
4.2564246e-06
4.4529608e-06
4.6493562e-06
4.8502462e-06
5.0604401e-06
5.2836484e-06
5.5218422e-06
5.7752503e-06
6.0429449e-06
6.322995e-06
6.6117491e-06
6.9028898e-06
7.1865593e-06
7.4483953e-06
7.6684054e-06
7.8197293e-06
7.8672845e-06
7.7662642e-06
7.4600298e-06
6.8745886e-06
5.8920119e-06
4.1402501e-06
3.4281736e-06
3.5801124e-06
3.7456717e-06
3.9166673e-06
4.0901004e-06
4.2666466e-06
4.4488109e-06
4.6394716e-06
4.8409293e-06
5.0543766e-06
5.2797521e-06
5.5158534e-06
5.7602362e-06
6.0087118e-06
6.254686e-06
6.4885134e-06
6.6968567e-06
6.8620889e-06
6.9618645e-06
6.9690605e-06
6.8525083e-06
6.5794726e-06
6.1228059e-06
5.485272e-06
4.8092071e-06
3.2112444e-06
3.3378645e-06
3.4776878e-06
3.6250665e-06
3.7774049e-06
3.9345589e-06
4.0977311e-06
4.2685191e-06
4.4482184e-06
4.6373672e-06
4.8355326e-06
5.0412251e-06
5.251702e-06
5.4625977e-06
5.6674776e-06
5.8574104e-06
6.0206236e-06
6.1423191e-06
6.2048068e-06
6.1882334e-06
6.0724771e-06
5.8415742e-06
5.4944507e-06
5.0724923e-06
4.7222149e-06
2.9974637e-06
3.1038643e-06
3.2223761e-06
3.3490983e-06
3.4818971e-06
3.620216e-06
3.7644668e-06
3.9154057e-06
4.0736138e-06
4.2391302e-06
4.4112121e-06
4.588173e-06
4.7671776e-06
4.9439718e-06
5.1125909e-06
5.2651139e-06
5.3915298e-06
5.4798042e-06
5.5162709e-06
5.4865587e-06
5.3774382e-06
5.1804221e-06
4.8992385e-06
4.5666268e-06
4.2820164e-06
2.76851e-06
2.8578271e-06
2.9578959e-06
3.0659951e-06
3.1803975e-06
3.300373e-06
3.4258653e-06
3.5570883e-06
3.6941469e-06
3.8367391e-06
3.9839313e-06
4.1339788e-06
4.2841468e-06
4.4305177e-06
4.5678096e-06
4.6892561e-06
4.7865978e-06
4.8502441e-06
4.8696745e-06
4.8341367e-06
4.7336412e-06
4.5599936e-06
4.3064118e-06
3.9573059e-06
3.3920761e-06
2.5130807e-06
2.5873286e-06
2.6708764e-06
2.761795e-06
2.8587038e-06
2.9608326e-06
3.0678697e-06
3.1796997e-06
3.2961363e-06
3.4166842e-06
3.5403441e-06
3.6654513e-06
3.7895279e-06
3.9091508e-06
4.0198457e-06
4.1160398e-06
4.1911062e-06
4.2375244e-06
4.2471634e-06
4.2116208e-06
4.1223544e-06
3.9697844e-06
3.738856e-06
3.3921539e-06
2.7742868e-06
2.2273656e-06
2.2879965e-06
2.3564608e-06
2.4313757e-06
2.5116469e-06
2.5965496e-06
2.6856564e-06
2.7786749e-06
2.8752693e-06
2.9748712e-06
3.0765247e-06
3.178753e-06
3.2794433e-06
3.3757602e-06
3.4640859e-06
3.54001e-06
3.5983812e-06
3.6334222e-06
3.638872e-06
3.6080366e-06
3.5334278e-06
3.4051849e-06
3.2062278e-06
2.8979527e-06
2.3518991e-06
1.9155778e-06
1.9638421e-06
2.018499e-06
2.0785584e-06
2.1431689e-06
2.2116936e-06
2.2836842e-06
2.358783e-06
2.4366026e-06
2.5165912e-06
2.5979135e-06
2.6793468e-06
2.7592009e-06
2.8352591e-06
2.9047465e-06
2.9643342e-06
3.0101787e-06
3.0379812e-06
3.0430197e-06
3.0200343e-06
2.9627133e-06
2.8622342e-06
2.703599e-06
2.4558373e-06
2.0262177e-06
1.5897738e-06
1.6269347e-06
1.6691161e-06
1.7156158e-06
1.7657889e-06
1.8191093e-06
1.8751653e-06
1.9336029e-06
1.9940537e-06
2.0560377e-06
2.1188803e-06
2.1816407e-06
2.2430547e-06
2.3014987e-06
2.3549728e-06
2.4011084e-06
2.4371884e-06
2.4601633e-06
2.4666153e-06
2.4525818e-06
2.4130784e-06
2.3410347e-06
2.2250303e-06
2.0436307e-06
1.7408086e-06
1.2679928e-06
1.2954518e-06
1.3266762e-06
1.361177e-06
1.3984815e-06
1.4381771e-06
1.4799185e-06
1.5233984e-06
1.5683012e-06
1.6142475e-06
1.6607337e-06
1.7070878e-06
1.752432e-06
1.7956622e-06
1.8354401e-06
1.8701968e-06
1.898139e-06
1.9172384e-06
1.9251709e-06
1.9191438e-06
1.8955278e-06
1.8491689e-06
1.7721218e-06
1.650543e-06
1.4484067e-06
9.7023466e-07
9.8957586e-07
1.0115949e-06
1.035959e-06
1.0623333e-06
1.0904104e-06
1.1199197e-06
1.1506171e-06
1.182256e-06
1.2145578e-06
1.2471747e-06
1.2796632e-06
1.3114617e-06
1.3418816e-06
1.3700989e-06
1.3951569e-06
1.4159631e-06
1.4312711e-06
1.4396232e-06
1.4392178e-06
1.427661e-06
1.401552e-06
1.3557779e-06
1.2816881e-06
1.1559926e-06
7.1321691e-07
7.261487e-07
7.4087793e-07
7.5718334e-07
7.7483565e-07
7.9361629e-07
8.1332614e-07
8.3378324e-07
8.5480957e-07
8.7621348e-07
8.9777233e-07
9.1921617e-07
9.4021766e-07
9.6038568e-07
9.7925861e-07
9.9630317e-07
1.0109066e-06
1.0223626e-06
1.0298352e-06
1.0322754e-06
1.0282739e-06
1.0158269e-06
9.9193286e-07
9.5144641e-07
8.7982496e-07
5.0621373e-07
5.1441614e-07
5.2375664e-07
5.3409167e-07
5.4526902e-07
5.5713981e-07
5.6956511e-07
5.8241734e-07
5.9557508e-07
6.0891517e-07
6.2230459e-07
6.3559306e-07
6.4860843e-07
6.6115205e-07
6.7299231e-07
6.8385721e-07
6.9342503e-07
7.013187e-07
7.0709344e-07
7.101971e-07
7.098912e-07
7.0512654e-07
6.9431322e-07
6.7460113e-07
6.3772882e-07
3.499718e-07
3.5492182e-07
3.6055456e-07
3.6677928e-07
3.7349777e-07
3.8061253e-07
3.8803137e-07
3.9566928e-07
4.0344761e-07
4.1129151e-07
4.1912694e-07
4.2687814e-07
4.3446588e-07
4.418044e-07
4.4879421e-07
4.5530871e-07
4.6118201e-07
4.6621041e-07
4.7016274e-07
4.7276996e-07
4.7368325e-07
4.7240715e-07
4.6817238e-07
4.5951656e-07
4.4202735e-07
2.3877197e-07
2.4162933e-07
2.4487539e-07
2.4845464e-07
2.5230653e-07
2.5637021e-07
2.6058804e-07
2.6490671e-07
2.6927821e-07
2.7365955e-07
2.7801242e-07
2.8230331e-07
2.8650353e-07
2.9058769e-07
2.9452605e-07
2.9826601e-07
3.0171168e-07
3.0473691e-07
3.0721283e-07
3.0901493e-07
3.0999301e-07
3.099308e-07
3.084808e-07
3.0495384e-07
2.9720835e-07
1.638689e-07
1.6546629e-07
1.6727424e-07
1.6925924e-07
1.7138461e-07
1.7361321e-07
1.7590988e-07
1.7824247e-07
1.8058284e-07
1.8290755e-07
1.8519842e-07
1.8744395e-07
1.8964209e-07
1.9180388e-07
1.9395005e-07
1.9607409e-07
1.9808779e-07
1.9987884e-07
2.0136308e-07
2.0248887e-07
2.0320048e-07
2.0341004e-07
2.0296891e-07
2.0158112e-07
1.9831e-07
1.1562423e-07
1.1650817e-07
1.1750519e-07
1.1859528e-07
1.1975659e-07
1.2096681e-07
1.2220475e-07
1.2345121e-07
1.2468976e-07
1.2590744e-07
1.2709532e-07
1.2824937e-07
1.2937209e-07
1.3047471e-07
1.3157955e-07
1.3272283e-07
1.3391275e-07
1.3500953e-07
1.3591048e-07
1.3659867e-07
1.3706071e-07
1.3726355e-07
1.3714326e-07
1.3657099e-07
1.3511916e-07
8.5755591e-08
8.6255116e-08
8.6817677e-08
8.7431498e-08
8.8083648e-08
8.8760888e-08
8.9450587e-08
9.0141339e-08
9.0823555e-08
9.1489949e-08
9.2135975e-08
9.2760365e-08
9.3365933e-08
9.3960847e-08
9.4560497e-08
9.5190664e-08
9.588914e-08
9.6606185e-08
9.7194102e-08
9.7642573e-08
9.7953144e-08
9.8113491e-08
9.8091121e-08
9.7810796e-08
9.7009154e-08
6.8057738e-08
6.8359678e-08
6.8700379e-08
6.9072999e-08
6.9469859e-08
6.9883065e-08
7.0305005e-08
7.0728783e-08
7.1148622e-08
7.1560143e-08
7.1960685e-08
7.2349642e-08
7.2728953e-08
7.3103932e-08
7.3484613e-08
7.3887852e-08
7.4340365e-08
7.4858007e-08
7.5291126e-08
7.5625451e-08
7.5865016e-08
7.6004045e-08
7.6022191e-08
7.5869285e-08
7.5372567e-08
5.8162998e-08
5.8367752e-08
5.8600261e-08
5.8856485e-08
5.9131781e-08
5.9421277e-08
5.9720195e-08
6.0024104e-08
6.0329189e-08
6.0632439e-08
6.0931845e-08
6.1226637e-08
6.1517674e-08
6.1808084e-08
6.2104375e-08
6.2418231e-08
6.2769127e-08
6.3185235e-08
6.3547437e-08
6.383439e-08
6.404838e-08
6.4184902e-08
6.4228238e-08
6.4141519e-08
6.3807911e-08
5.3130187e-08
5.3288591e-08
5.3470088e-08
5.3672148e-08
5.3891806e-08
5.4125831e-08
5.437095e-08
5.4624004e-08
5.4882122e-08
5.5142857e-08
5.5404336e-08
5.5665461e-08
5.5926239e-08
5.6188323e-08
5.6455971e-08
5.6737693e-08
5.7048932e-08
5.7415128e-08
5.7745899e-08
5.8015006e-08
5.8222632e-08
5.8363901e-08
5.8424516e-08
5.8372241e-08
5.8111982e-08
5.1047492e-08
5.1183466e-08
5.134054e-08
5.1516982e-08
5.1710677e-08
5.1919245e-08
5.2140169e-08
5.2370915e-08
5.2609055e-08
5.2852381e-08
5.3099037e-08
5.3347708e-08
5.3597891e-08
5.3850357e-08
5.4107966e-08
5.437713e-08
5.467035e-08
5.500947e-08
5.5323593e-08
5.558449e-08
5.5790578e-08
5.5936059e-08
5.6006579e-08
5.5970645e-08
5.5737024e-08
5.0707227e-08
5.0830892e-08
5.0974528e-08
5.1136798e-08
5.1316006e-08
5.1510188e-08
5.171721e-08
5.1934866e-08
5.2160979e-08
5.2393512e-08
5.2630686e-08
5.2871147e-08
5.311419e-08
5.3360133e-08
5.3610989e-08
5.3871735e-08
5.4152605e-08
5.4472179e-08
5.4773275e-08
5.5027008e-08
5.5230425e-08
5.5376602e-08
5.5450397e-08
5.5419615e-08
5.5192351e-08
5.1364003e-08
5.147894e-08
5.1612795e-08
5.1764421e-08
5.1932333e-08
5.2114794e-08
5.2309899e-08
5.2515671e-08
5.2730153e-08
5.2951509e-08
5.3178139e-08
5.3408804e-08
5.3642811e-08
5.3880299e-08
5.4122781e-08
5.437423e-08
5.4643124e-08
5.4945341e-08
5.5232641e-08
5.5477538e-08
5.5675706e-08
5.5818948e-08
5.5890952e-08
5.585801e-08
5.5624962e-08
5.2566838e-08
5.2673917e-08
5.2798692e-08
5.2940115e-08
5.3096837e-08
5.3267282e-08
5.3449739e-08
5.364245e-08
5.3843698e-08
5.4051902e-08
5.426571e-08
5.4484102e-08
5.4706519e-08
5.4933075e-08
5.5164991e-08
5.5405498e-08
5.5661636e-08
5.5946854e-08
5.6219399e-08
5.6453865e-08
5.6644689e-08
5.6782381e-08
5.6849293e-08
5.6809893e-08
5.656485e-08
5.4048067e-08
5.4147324e-08
5.426289e-08
5.4393794e-08
5.4538799e-08
5.4696489e-08
5.4865348e-08
5.5043849e-08
5.5230542e-08
5.5424131e-08
5.5623551e-08
5.5828043e-08
5.6037238e-08
5.6251307e-08
5.6471288e-08
5.6699838e-08
5.694277e-08
5.7211324e-08
5.7468852e-08
5.7692124e-08
5.7874458e-08
5.800514e-08
5.8065159e-08
5.8017e-08
5.7756442e-08
5.5651893e-08
5.5743316e-08
5.5849597e-08
5.5969833e-08
5.6102905e-08
5.6247559e-08
5.6402484e-08
5.6566394e-08
5.6738111e-08
5.691663e-08
5.7101181e-08
5.7291272e-08
5.7486741e-08
5.7687845e-08
5.7895504e-08
5.8111908e-08
5.8341804e-08
5.859445e-08
5.8837442e-08
5.9049489e-08
5.9222959e-08
5.9345995e-08
5.9398242e-08
5.9340106e-08
5.9061894e-08
5.7289185e-08
5.7372961e-08
5.7470169e-08
5.7579981e-08
5.7701398e-08
5.7833328e-08
5.7974664e-08
5.8124357e-08
5.8281492e-08
5.8445342e-08
5.8615415e-08
5.8791476e-08
5.897356e-08
5.9162021e-08
5.9357694e-08
5.9562375e-08
5.9779892e-08
6.0017743e-08
6.0247122e-08
6.0448394e-08
6.0613081e-08
6.072826e-08
6.0772276e-08
6.0703571e-08
6.0407589e-08
5.8909352e-08
5.8985869e-08
5.9074486e-08
5.9174448e-08
5.9284876e-08
5.9404834e-08
5.9533407e-08
5.9669769e-08
5.9813245e-08
5.9963365e-08
6.0119887e-08
6.0282809e-08
6.0452348e-08
6.0628947e-08
6.0813381e-08
6.1007111e-08
6.1213169e-08
6.1437518e-08
6.1654389e-08
6.1845537e-08
6.2001727e-08
6.2109038e-08
6.2144563e-08
6.2064913e-08
6.1751101e-08
6.0483287e-08
6.0553071e-08
6.0633745e-08
6.072463e-08
6.0824957e-08
6.0933938e-08
6.105083e-08
6.1175008e-08
6.1306012e-08
6.1443599e-08
6.158775e-08
6.1738663e-08
6.1896717e-08
6.2062441e-08
6.2236556e-08
6.2420245e-08
6.2615856e-08
6.2828022e-08
6.3033473e-08
6.3215166e-08
6.3363194e-08
6.3462722e-08
6.3489704e-08
6.3399208e-08
6.3069018e-08
6.1993398e-08
6.205704e-08
6.2130498e-08
6.2213161e-08
6.2304365e-08
6.2403452e-08
6.2509834e-08
6.2623059e-08
6.2742858e-08
6.286918e-08
6.3002201e-08
6.3142294e-08
6.3289975e-08
6.3445846e-08
6.361059e-08
6.3785156e-08
6.3971313e-08
6.4172556e-08
6.4367538e-08
6.4540351e-08
6.4680506e-08
6.4772357e-08
6.4790808e-08
6.4689353e-08
6.4341783e-08
6.3428073e-08
6.3486181e-08
6.3553161e-08
6.3628468e-08
6.3711529e-08
6.38018e-08
6.389883e-08
6.4002313e-08
6.4112145e-08
6.422844e-08
6.4351536e-08
6.4481955e-08
6.4620329e-08
6.4767324e-08
6.4923595e-08
6.5089897e-08
6.5267519e-08
6.5458992e-08
6.5644246e-08
6.5808595e-08
6.5941071e-08
6.6025322e-08
6.6035327e-08
6.5923121e-08
6.5558635e-08
6.4778807e-08
6.4831979e-08
6.48932e-08
6.4961985e-08
6.503784e-08
6.5120321e-08
6.5209092e-08
6.5303975e-08
6.5405e-08
6.5512423e-08
6.5626714e-08
6.5748519e-08
6.5878568e-08
6.6017581e-08
6.6166192e-08
6.6325004e-08
6.6494904e-08
6.6677613e-08
6.6853627e-08
6.7009739e-08
6.7134598e-08
6.721125e-08
6.7212822e-08
6.7089749e-08
6.6707049e-08
6.6038896e-08
6.6087701e-08
6.6143843e-08
6.6206888e-08
6.6276411e-08
6.6352054e-08
6.6433575e-08
6.6520906e-08
6.6614188e-08
6.6713791e-08
6.6820297e-08
6.6934449e-08
6.7057057e-08
6.7188887e-08
6.7330567e-08
6.7482574e-08
6.7645435e-08
6.7820116e-08
6.7987104e-08
6.8135002e-08
6.8252169e-08
6.8321147e-08
6.8314357e-08
6.8180883e-08
6.778133e-08
6.7202956e-08
6.7247931e-08
6.7299626e-08
6.7357652e-08
6.7421643e-08
6.7491313e-08
6.75665e-08
6.7647225e-08
6.773372e-08
6.7826448e-08
6.7926079e-08
6.8033433e-08
6.8149383e-08
6.8274744e-08
6.8410171e-08
6.8556045e-08
6.8712505e-08
6.8879182e-08
6.9037031e-08
6.9176543e-08
6.928581e-08
6.934697e-08
6.9331918e-08
6.9188809e-08
6.8775198e-08
6.8266893e-08
6.8308534e-08
6.8356358e-08
6.8410015e-08
6.8469191e-08
6.8533656e-08
6.8603319e-08
6.867827e-08
6.8758817e-08
6.8845495e-08
6.8939044e-08
6.9040339e-08
6.9150309e-08
6.9269844e-08
6.9399787e-08
6.9540436e-08
6.9691957e-08
6.9848263e-08
6.9996401e-08
7.0127181e-08
7.0228236e-08
7.0281374e-08
7.0258313e-08
7.0107784e-08
6.9694852e-08
6.9228113e-08
6.9266865e-08
6.9311327e-08
6.936118e-08
6.9416153e-08
6.9476066e-08
6.9540882e-08
6.9610753e-08
6.9686047e-08
6.9767358e-08
6.9855474e-08
6.9951315e-08
7.0055844e-08
7.0170093e-08
7.0295821e-08
7.0432102e-08
7.0575318e-08
7.0720196e-08
7.0858311e-08
7.0980045e-08
7.1072525e-08
7.11173e-08
7.1086043e-08
7.0927993e-08
7.0510646e-08
7.0085682e-08
7.0121932e-08
7.0163454e-08
7.0209958e-08
7.0261207e-08
7.0317064e-08
7.0377542e-08
7.0442844e-08
7.0513392e-08
7.0589827e-08
7.067298e-08
7.0763787e-08
7.086318e-08
7.0971938e-08
7.1090527e-08
7.1218188e-08
7.1351941e-08
7.1486829e-08
7.1615444e-08
7.17281e-08
7.1811697e-08
7.1847671e-08
7.1807703e-08
7.1641013e-08
7.121044e-08
7.0815041e-08
7.0849243e-08
7.0888374e-08
7.0932162e-08
7.0980395e-08
7.1032967e-08
7.1089925e-08
7.1151505e-08
7.1218158e-08
7.1290546e-08
7.1369506e-08
7.1455955e-08
7.1550751e-08
7.1654483e-08
7.1767191e-08
7.1887846e-08
7.2013695e-08
7.214002e-08
7.2259822e-08
7.2363519e-08
7.2438007e-08
7.2464762e-08
7.241555e-08
7.2239495e-08
7.1797985e-08
7.1408351e-08
7.1440915e-08
7.1478142e-08
7.151977e-08
7.1565602e-08
7.1615557e-08
7.1669706e-08
7.1728304e-08
7.1791815e-08
7.1860906e-08
7.19364e-08
7.2019182e-08
7.2110034e-08
7.2209412e-08
7.2317132e-08
7.2431952e-08
7.255108e-08
7.2669852e-08
7.2781429e-08
7.2876347e-08
7.2941619e-08
7.2958894e-08
7.2900159e-08
7.2714638e-08
7.2262771e-08
7.1852558e-08
7.1883839e-08
7.1919573e-08
7.1959503e-08
7.2003443e-08
7.2051334e-08
7.2103267e-08
7.2159497e-08
7.2220494e-08
7.2286917e-08
7.2359564e-08
7.2439297e-08
7.2526836e-08
7.2622545e-08
7.2726108e-08
7.2836115e-08
7.2949556e-08
7.3061643e-08
7.316558e-08
7.3252028e-08
7.3308192e-08
7.3316015e-08
7.324791e-08
7.3053625e-08
7.2593806e-08
7.2123012e-08
7.2153298e-08
7.2187872e-08
7.2226473e-08
7.2268929e-08
7.2315211e-08
7.2365428e-08
7.2419782e-08
7.2478768e-08
7.2543017e-08
7.2613295e-08
7.2690512e-08
7.277535e-08
7.2868149e-08
7.2968581e-08
7.3075171e-08
7.3184289e-08
7.3290745e-08
7.3387816e-08
7.3466367e-08
7.3513888e-08
7.3512753e-08
7.3436073e-08
7.3234869e-08
7.2775924e-08
7.2168539e-08
7.2198034e-08
7.223168e-08
7.2269215e-08
7.2310491e-08
7.2355545e-08
7.240449e-08
7.2457367e-08
7.2514665e-08
7.2576995e-08
7.2645034e-08
7.2720085e-08
7.2802785e-08
7.2893568e-08
7.2992531e-08
7.3098977e-08
7.3206526e-08
7.3308859e-08
7.340019e-08
7.3471818e-08
7.3511689e-08
7.3502761e-08
7.3419167e-08
7.3214285e-08
7.2765538e-08
7.1838421e-08
7.1867169e-08
7.189994e-08
7.1936481e-08
7.1976713e-08
7.2020826e-08
7.206901e-08
7.2122272e-08
7.2177889e-08
7.2237902e-08
7.230267e-08
7.237531e-08
7.2456105e-08
7.2545742e-08
7.2646599e-08
7.2768408e-08
7.2883506e-08
7.2982817e-08
7.3069625e-08
7.3135684e-08
7.3169541e-08
7.3154919e-08
7.3067429e-08
7.2865116e-08
7.2449029e-08
)
;

boundaryField
{
    Walls
    {
        type            nutUWallFunction;
        Cmu             0.09;
        kappa           0.41;
        E               9.8;
        value           uniform 0;
    }
    Inlet
    {
        type            calculated;
        value           nonuniform List<scalar> 3(2.560856e-05 2.4966099e-05 8.1536494e-07);
    }
    Outlet
    {
        type            calculated;
        value           nonuniform List<scalar> 
86
(
7.17647e-08
7.1769242e-08
7.1779186e-08
7.1794173e-08
7.1813996e-08
7.1838421e-08
7.1867169e-08
7.189994e-08
7.1936481e-08
7.1976713e-08
7.2020826e-08
7.206901e-08
7.2122272e-08
7.2177889e-08
7.2237902e-08
7.230267e-08
7.237531e-08
7.2456105e-08
7.2545742e-08
7.2646599e-08
7.2768408e-08
7.2883506e-08
7.2982817e-08
7.3069625e-08
7.3135684e-08
7.3169541e-08
7.3154919e-08
7.3067429e-08
7.2865116e-08
7.2449029e-08
1.4336093e-05
1.4886219e-05
1.3470933e-05
0
0
0
0
4.8092071e-06
4.7222149e-06
4.2820164e-06
3.3920761e-06
0
0
2.0262177e-06
1.7408086e-06
1.4484067e-06
1.1559926e-06
8.7982496e-07
6.3772882e-07
4.4202735e-07
2.9720835e-07
1.9831e-07
1.3511916e-07
9.7009154e-08
7.5372567e-08
6.3807911e-08
5.8111982e-08
5.5737024e-08
5.5192351e-08
5.5624962e-08
5.656485e-08
5.7756442e-08
0
0
0
0
0
0
0
0
0
0
0
0
0
0
0
0
7.2765538e-08
7.2449029e-08
0
0
0
0
1.3211872e-05
1.4850358e-05
)
;
    }
    Front
    {
        type            wedge;
    }
    Back
    {
        type            wedge;
    }
    defaultFaces
    {
        type            empty;
    }
}


// ************************************************************************* //
