/*--------------------------------*- C++ -*----------------------------------*\
| =========                 |                                                 |
| \\      /  F ield         | OpenFOAM: The Open Source CFD Toolbox           |
|  \\    /   O peration     | Version:  4.0                                   |
|   \\  /    A nd           | Web:      www.OpenFOAM.org                      |
|    \\/     M anipulation  |                                                 |
\*---------------------------------------------------------------------------*/
FoamFile
{
    version     2.0;
    format      ascii;
    class       volScalarField;
    location    "0.54";
    object      omega;
}
// * * * * * * * * * * * * * * * * * * * * * * * * * * * * * * * * * * * * * //

dimensions      [0 0 -1 0 0 0 0];

internalField   nonuniform List<scalar> 
1740
(
57.851608
638.61939
14920.102
155.96206
1339.8058
15029.407
282.09937
1874.3811
15120.796
402.73892
2229.6492
15200.814
535.91155
2534.8963
15268.514
641.09201
2778.4417
15328.768
730.57972
2997.7764
15375.874
826.61147
3154.5113
15409.544
931.6096
3329.4144
15448.923
1051.1913
3548.5841
15481.366
1191.2542
3751.1213
15498.217
1286.8803
3827.1106
15513.351
1346.9689
3867.397
15521.43
1437.2355
3870.7159
15533.904
1525.8638
3901.4386
15545.492
1572.5487
3931.7545
15553.822
1615.544
3978.0475
15556.573
1660.4715
4025.0411
15565.574
1715.0547
4072.667
15571.936
1752.6599
4026.4149
15567.61
1790.9936
4034.3812
15576.157
1836.4845
4112.251
15584.856
1877.5749
4144.4575
15576.235
1895.0577
4114.4098
15579.854
1926.1977
4111.6143
15584.939
1958.351
4169.6771
15582.121
1979.8489
4199.4431
15577.489
2010.2581
4268.475
15571.297
2031.6389
4244.0901
15560.798
2146.6819
4290.3713
15500.025
3201.8636
4561.2975
10763.019
3347.3154
4248.1816
5968.1093
1574.5229
1861.8034
2157.5315
823.94354
898.52521
955.69915
478.41977
496.50298
506.29126
300.80809
304.52211
304.55184
201.33497
201.6332
200.15389
141.90158
141.5584
140.2777
104.47296
104.12989
103.26868
79.891479
79.651977
79.118867
63.174035
63.023476
62.703826
51.474415
51.383368
51.193768
43.110357
43.056039
42.943644
37.057743
37.025273
36.958083
32.670345
32.650582
32.609568
29.520038
29.507632
29.481671
27.304854
27.296721
27.279488
25.796625
25.791067
25.779062
24.81364
24.809771
24.801112
24.207608
24.204984
24.198646
23.85203
23.850175
23.845265
23.619164
23.617239
23.612712
23.44181
23.440024
23.435958
23.296816
23.295233
23.291631
23.169748
23.16838
23.165225
23.051716
23.050583
23.047876
22.937616
22.936749
22.934505
22.825307
22.824715
22.822936
22.715166
22.714818
22.71346
22.609208
22.609038
22.60802
22.509627
22.509563
22.508795
22.417391
22.417376
22.416783
22.33142
22.331421
22.330948
22.248323
22.248323
22.247936
22.162336
22.16233
22.162006
22.06514
22.065127
22.064853
21.945405
21.945387
21.945153
21.788023
21.788003
21.787803
21.573083
21.573064
21.572896
21.274686
21.27467
21.274532
20.859735
20.859725
20.859619
20.286953
20.286951
20.286876
19.506454
19.506459
19.506415
18.460505
18.460507
18.460488
17.092153
17.092169
17.092192
15.339019
15.339054
15.33913
13.148182
13.14824
13.148373
10.490611
10.490687
10.490869
7.3816818
7.381761
7.3819553
3.9093059
3.9093613
3.9094981
13479.192
13534.04
6008.0339
5339.0873
2086.289
1883.3055
921.32168
853.98707
489.79199
462.92166
296.28994
284.30671
195.80032
190.02379
137.88422
134.92081
101.92272
100.33015
78.351229
77.465661
62.260759
61.75571
50.935286
50.641501
42.791151
42.6173
36.866695
36.761664
32.553326
32.487779
29.445581
29.402613
27.255031
27.225048
25.761523
25.739239
24.787948
24.770519
24.188447
24.17433
23.836994
23.825205
23.605409
23.595094
23.429483
23.420344
23.285876
23.277694
23.160107
23.152727
23.043352
23.036685
22.930561
22.924566
22.819561
22.81423
22.710625
22.705956
22.60567
22.60165
22.506863
22.503459
22.4152
22.412357
22.329652
22.327299
22.246873
22.244933
22.16113
22.15953
22.064126
22.0628
21.944546
21.943439
21.787294
21.786364
21.57247
21.571685
21.27418
21.273519
20.859334
20.858784
20.286658
20.286215
19.506264
19.505929
18.460405
18.460188
17.092191
17.092111
15.339228
15.339311
13.148583
13.14885
10.491177
10.491608
7.3822909
7.3827794
3.9097365
3.910087
12058.174
2043.2463
696.54449
369.06985
281.24968
257.03794
249.91433
246.88476
244.54988
242.1655
239.65277
236.91699
234.09268
231.19219
228.18164
224.99685
221.52408
217.56656
212.79037
206.6396
198.18961
185.87918
166.99272
136.47517
82.517267
12058.132
2036.9915
697.60507
374.62657
283.20273
254.39317
242.8739
235.66952
229.57154
223.78479
218.11469
212.5002
207.00304
201.60537
196.28598
191.01672
185.74096
180.35434
174.6691
168.36184
160.87955
151.25139
137.67286
116.44101
78.143851
12058.179
2030.6313
718.65856
430.79729
359.47536
332.55086
315.18215
300.68218
287.44284
274.89187
262.91336
251.32844
240.35433
229.89505
219.88919
210.32282
201.17498
192.39915
183.89438
175.48188
166.84745
157.40873
145.95965
129.54727
98.873384
12058.526
2032.1074
817.79843
609.14055
550.28403
513.06582
480.02813
449.49939
421.50675
395.18499
370.50154
347.48786
326.27589
306.40756
287.7407
270.2815
254.0176
238.91663
224.92329
211.94639
199.84525
188.39379
177.15271
164.94486
146.54067
12061.524
2151.5655
1233.1973
1079.245
990.40762
907.46643
828.88776
757.40309
693.49275
634.34181
579.9808
530.31051
486.2191
445.91889
408.92432
375.2409
344.73089
317.22247
292.5349
270.47548
250.84859
233.47984
218.25619
205.35159
195.84448
12087.239
3831.1218
2812.6582
2406.5948
2097.3404
1827.9164
1592.2662
1388.6957
1212.4822
1060.4794
929.56394
816.89828
719.93629
636.2382
563.86655
501.30552
447.25535
400.58562
360.32239
325.63345
295.81286
270.28799
248.65581
231.01321
218.59715
10375.848
7910.1328
6099.7791
4788.9631
3819.3785
3084.3069
2515.1528
2067.9095
1712.9724
1429.0956
1200.4754
1015.2716
864.54561
741.36583
640.21807
556.7182
487.40876
429.58171
381.12096
340.36946
306.02672
277.09096
252.84941
233.18372
219.37522
4097.7504
3310.0314
2843.9503
2468.304
2149.0938
1868.4848
1623.6689
1411.879
1230.3107
1074.6841
941.19202
826.41043
727.35657
641.85889
568.06827
504.3851
449.43095
402.03043
361.18402
326.04337
295.89304
270.15525
248.41749
230.75667
218.36103
1595.7996
1400.7967
1270.4325
1162.0568
1059.7295
962.34415
873.53743
794.45994
722.35053
657.04092
598.63039
546.97798
499.53557
456.18358
416.80205
381.1908
349.1251
320.37447
294.70715
271.90755
251.77866
234.1533
218.92173
206.23843
197.06363
771.36022
708.08203
661.85922
621.25678
580.87123
540.70129
503.08742
468.41344
436.26968
406.63091
379.53785
354.71717
331.48243
309.73578
289.46999
270.67013
253.30779
237.34262
222.72423
209.38915
197.24417
186.12427
175.66429
164.80628
148.75336
433.77053
410.12681
391.42383
374.1797
356.40051
338.074
320.17284
303.12676
287.01518
271.89275
257.77044
244.52467
231.9481
219.9981
208.70442
198.06374
188.06987
178.70257
169.91754
161.6238
153.62937
145.50729
136.23008
123.02519
96.796903
271.95911
261.52166
252.84089
244.66296
236.12572
227.16191
218.13488
209.31162
200.81448
192.70224
184.98491
177.61421
170.51837
163.67527
157.09809
150.79111
144.74609
138.93348
133.28698
127.67165
121.8158
115.16092
106.5078
93.086973
67.391051
184.18925
179.09369
174.67394
170.43666
166.00337
161.30647
156.48148
151.67115
146.96524
142.40974
138.01577
133.76491
129.62875
125.59283
121.65326
117.80116
114.01487
110.24986
106.42231
102.37924
97.842338
92.299538
84.78334
73.331888
52.801584
131.95154
129.28559
126.89637
124.57768
122.15467
119.57888
116.89815
114.18339
111.48964
108.84886
106.27093
103.74883
101.26798
98.815128
96.377664
93.936819
91.46076
88.895634
86.152174
83.084562
79.458484
74.910368
68.930467
61.060519
52.327449
98.736435
97.272205
95.926537
94.610289
93.238506
91.779925
90.249579
88.681183
87.105454
85.542077
83.997809
82.468714
80.944316
79.410887
77.85099
76.239665
74.539337
72.692965
70.614913
68.179278
65.209017
61.481202
56.804479
51.345793
46.602334
76.576634
75.744486
74.965241
74.198331
73.402097
72.557167
71.66662
70.74545
69.809473
68.869251
67.927898
66.981253
66.019379
65.027591
63.985678
62.86545
61.627034
60.214117
58.548152
56.52256
54.000793
50.830652
46.910835
42.406281
38.346844
61.245503
60.760372
60.299827
59.844993
59.374688
58.877072
58.351197
57.802915
57.239297
56.664758
56.079094
55.476868
54.847538
54.175433
53.438827
52.608089
51.642973
50.489145
49.074049
47.30229
45.050864
42.16263
38.422294
33.399342
25.305977
50.342177
50.053742
49.777061
49.503215
49.221235
48.923723
48.608523
48.276986
47.931238
47.571771
47.195829
46.796565
46.362574
45.877372
45.31841
44.655523
43.848786
42.845671
41.577275
39.952801
37.849568
35.089682
31.37473
26.079631
17.391844
42.438307
42.263492
42.094145
41.926064
41.753347
41.571337
41.377633
41.171387
40.952001
40.71749
40.463299
40.181405
39.859618
39.480832
39.022021
38.452855
37.733839
36.813789
35.626158
34.082982
32.063242
29.387408
25.758319
20.623453
12.768926
36.652026
36.543201
36.436354
36.329533
36.219451
36.103021
35.977952
35.842408
35.694253
35.530015
35.343936
35.12711
34.866714
34.545173
34.139136
33.618203
32.943278
32.064323
30.91709
29.417823
27.453752
24.864901
21.408469
16.689238
10.009955
32.418005
32.347174
32.276134
32.203948
32.128673
32.048147
31.960256
31.862716
31.752601
31.625553
31.475021
31.29148
31.061609
30.767443
30.385355
29.88489
29.227306
28.363739
27.232704
25.756479
23.835511
21.339656
18.094658
13.85733
8.2771178
29.35558
29.306292
29.255273
29.201999
29.14522
29.083282
29.01424
28.935642
28.844121
28.734824
28.600693
28.431743
28.214249
27.929879
27.554738
27.058284
26.402107
25.538549
24.409159
22.942995
21.05484
18.643768
15.592747
11.762899
6.9448957
27.191019
27.153889
27.1139
27.070669
27.023277
26.970365
26.910104
26.839981
26.75641
26.654223
26.526018
26.361447
26.146411
25.862222
25.484684
24.983139
24.319478
23.447192
22.310703
20.845319
18.978379
16.632378
13.730345
10.194533
5.8928145
25.71287
25.682795
25.649023
25.611183
25.568507
25.519799
25.46331
25.3965
25.315662
25.215415
25.088086
24.922993
24.705658
24.416996
24.032481
23.521348
22.845797
21.960374
20.811905
19.340667
17.483555
15.179953
12.37971
9.0425585
5.0889869
24.748979
24.723314
24.693343
24.65866
24.618556
24.571916
24.517037
24.451363
24.371099
24.270698
24.142239
23.9747
23.75318
23.458124
23.064635
22.541884
21.852531
20.952204
19.789653
18.308671
16.45266
14.172293
11.435117
8.2262239
4.5213463
24.156144
24.13359
24.10634
24.073932
24.035655
23.990411
23.936505
23.871349
23.791066
23.689961
23.559878
23.389437
23.163243
22.861146
22.457725
21.92215
21.217956
20.30222
19.125347
17.633363
15.773643
13.504006
10.80404
7.6787927
4.1375991
23.809615
23.78978
23.765261
23.735498
23.699692
23.656655
23.604604
23.54086
23.461436
23.360499
23.229678
23.057242
22.827206
22.518526
22.104799
21.555043
20.834687
19.903286
18.712924
17.210696
15.345939
13.080596
10.401907
7.3286222
3.8929958
23.581461
23.564117
23.542599
23.516307
23.484392
23.445612
23.398114
23.339133
23.264576
23.168473
23.042249
22.873811
22.646373
22.337157
21.916975
21.353379
20.615481
19.668232
18.466
16.955646
15.086801
12.823308
10.156505
7.1134961
3.7556616
23.408223
23.392729
23.373388
23.349575
23.320426
23.28468
23.240471
23.185024
23.114248
23.022192
22.900344
22.736743
22.514898
22.212535
21.800324
21.240402
20.492259
19.531309
18.320274
16.80496
14.934202
12.672253
10.011706
6.9825122
3.6571938
23.266748
23.252636
23.234867
23.212805
23.185574
23.151909
23.109944
23.056915
22.988759
22.899586
22.780994
22.621213
22.404067
22.107748
21.703469
21.154103
20.413508
19.446608
18.231914
16.715531
14.845525
12.586152
9.930695
6.9122809
3.6225328
23.142726
23.129679
23.113082
23.092291
23.066428
23.034231
22.993846
22.942538
22.876298
22.789326
22.673367
22.516881
22.304011
22.013379
21.616732
21.077623
20.350515
19.386755
18.174082
16.660372
14.793589
12.538089
9.8876994
6.8794187
3.6167243
23.027488
23.015314
22.999647
22.979841
22.955027
22.92396
22.88482
22.834921
22.770335
22.685381
22.57197
22.418782
22.210238
21.925298
21.536102
21.006639
20.291787
19.338377
18.132107
16.623846
14.762141
12.511634
9.8661915
6.8632133
3.5911001
22.916114
22.90473
22.889894
22.870974
22.847125
22.81714
22.779254
22.730856
22.668117
22.585476
22.474994
22.325515
22.12165
21.842582
21.460731
20.940415
20.236789
19.296238
18.09862
16.597351
14.741776
12.496893
9.856138
6.8549463
3.5918776
22.806525
22.795952
22.782002
22.76407
22.741352
22.712698
22.67641
22.629959
22.569602
22.489874
22.382926
22.237689
22.038869
21.765774
21.391021
20.879247
20.186049
19.258182
18.069978
16.576247
14.727132
12.487998
9.8518306
6.8523462
3.5871993
22.69904
22.689382
22.676494
22.659809
22.638574
22.611694
22.577532
22.533618
22.476264
22.400048
22.297148
22.156514
21.962876
21.6956
21.327458
20.823393
20.139529
19.223305
18.044298
16.557948
14.715087
12.481442
9.8495631
6.8514695
3.5839771
22.59557
22.586948
22.575329
22.560186
22.540804
22.51613
22.484562
22.443656
22.389735
22.317375
22.218733
22.082735
21.894094
21.63221
21.269977
20.772628
20.096803
19.190674
18.020307
16.540812
14.703705
12.475129
9.8473394
6.8502923
3.5787704
22.498225
22.490714
22.480502
22.467091
22.449792
22.427569
22.398825
22.36111
22.31073
22.242222
22.147701
22.016049
21.831954
21.574835
21.2177
20.726046
20.057007
19.159506
17.996865
16.523511
14.691545
12.467517
9.8435573
6.848149
3.5744475
22.407933
22.401524
22.392734
22.381083
22.36589
22.346117
22.320151
22.285517
22.238479
22.173529
22.08273
21.954917
21.774758
21.521693
21.168837
20.681929
20.018564
19.128384
17.972505
16.504602
14.67729
12.457496
9.8373449
6.8444518
3.5708033
22.323608
22.318215
22.310749
22.300739
22.287501
22.269979
22.246537
22.214662
22.170574
22.108715
22.021101
21.89653
21.719652
21.46994
21.120608
20.637623
19.979
19.095054
17.94509
16.482141
14.659286
12.443824
9.8277999
6.8374334
3.5472469
22.241873
22.237364
22.231055
22.222478
22.210937
22.19536
22.174078
22.144541
22.102929
22.043638
21.958644
21.836718
21.662507
21.415517
21.069067
20.589335
19.934726
19.056172
17.911513
16.453281
14.635004
12.424367
9.8134804
6.82799
3.5415782
22.156992
22.15322
22.147876
22.14049
22.130359
22.116385
22.096875
22.069245
22.029636
21.972411
21.889516
21.769704
21.597628
21.352839
21.008763
20.531785
19.880679
19.006952
17.867292
16.413877
14.600661
12.395695
9.7911704
6.81222
3.5317244
22.060684
22.057508
22.052943
22.046519
22.037519
22.02483
22.006733
21.980617
21.942593
21.886998
21.805759
21.687622
21.517258
21.274275
20.932216
20.457681
19.809806
18.94066
17.806081
16.358033
14.550905
12.353161
9.7575666
6.7910626
3.528279
21.94166
21.938958
21.935011
21.929348
21.921242
21.909564
21.892576
21.867644
21.830861
21.776544
21.696611
21.579815
21.410861
21.169431
20.829204
20.357015
19.712388
18.847963
17.719055
16.277551
14.478329
12.290322
9.706903
6.7564749
3.514741
21.784853
21.782527
21.779069
21.774005
21.7666
21.755713
21.739592
21.715589
21.679781
21.626478
21.547602
21.431929
21.264216
21.024246
20.685871
20.216204
19.575202
18.71614
17.594179
16.161267
14.372908
12.198687
9.6329023
6.7059949
3.4945776
21.570392
21.568368
21.5653
21.56071
21.55386
21.543601
21.528168
21.504906
21.469888
21.417428
21.339466
21.224823
21.05834
20.819939
20.483699
20.017083
19.380577
18.528201
17.415384
15.994306
14.221309
12.066805
9.5258548
6.629378
3.453719
21.272409
21.270635
21.267885
21.263684
21.257287
21.24754
21.232677
21.21004
21.175709
21.124019
21.046949
20.933398
20.76833
20.531869
20.198401
19.735852
19.105386
18.261972
17.16174
15.757337
14.006242
11.879973
9.3745062
6.5209842
3.3946442
20.857835
20.856278
20.853805
20.849938
20.843933
20.834636
20.820285
20.798231
20.764577
20.713698
20.63765
20.525447
20.362245
20.128452
19.798872
19.342054
18.720073
17.889287
16.806731
15.425939
13.705918
11.619557
9.1636777
6.3688294
3.3083024
20.285418
20.284065
20.281851
20.278299
20.272669
20.263813
20.249982
20.228555
20.195678
20.1458
20.071096
19.960766
19.800244
19.570335
19.246386
18.797798
18.187754
17.375466
16.317853
14.970302
13.293892
11.263206
8.8759039
6.162061
3.1945115
19.505289
19.504149
19.502206
19.498989
19.493766
19.485405
19.472186
19.451536
19.419678
19.371183
19.298411
19.190841
19.03431
18.810177
18.494375
18.057765
17.46596
16.679669
15.65683
14.355487
12.739399
10.785361
8.4922492
5.8903821
3.0462913
18.459725
18.458831
18.457209
18.454395
18.449669
18.441931
18.429513
18.409923
18.379508
18.333029
18.263125
18.159682
18.009132
17.793713
17.490814
17.072708
16.506725
15.755874
14.780715
13.542525
12.008347
10.157737
7.9911194
5.5382562
2.8510191
17.091849
17.091228
17.089956
17.087577
17.083395
17.076366
17.064912
17.046672
17.018188
16.974507
16.908683
16.811188
16.669275
16.466332
16.181331
15.78855
15.25775
14.554943
13.644198
12.490718
11.065443
9.3511277
7.3497606
5.0898767
2.6189722
15.339288
15.33899
15.338125
15.336245
15.332693
15.326518
15.31629
15.299836
15.273988
15.234206
15.174123
15.085033
14.955295
14.76979
14.509462
14.151152
13.667791
13.029209
12.203842
11.161557
9.8777661
8.3387111
6.5477322
4.5311694
2.3307703
13.149099
13.149164
13.148751
13.147419
13.144578
13.139437
13.130794
13.116681
13.094359
13.059839
13.007531
12.929916
12.816802
12.654968
12.427795
12.115315
11.694438
11.139676
10.424686
9.5246864
8.4199803
7.100397
5.5702904
3.8529073
1.9827091
10.492103
10.492497
10.492496
10.491687
10.489603
10.485741
10.479202
10.467969
10.450075
10.422157
10.379538
10.316734
10.225339
10.094408
9.9101659
9.6565133
9.3152371
8.8663654
8.2897084
7.5662977
6.6815135
5.6286127
4.4125373
3.0529901
1.5815839
7.3833723
7.3839215
7.3841647
7.3837738
7.3825153
7.380369
7.3767115
7.3689875
7.3560581
7.3354339
7.3029781
7.2577762
7.1931151
7.1004693
6.9692043
6.7876678
6.5434877
6.2222787
5.8124037
5.3001828
4.6758493
3.9356039
3.0842343
2.1373309
1.1256626
3.9105197
3.9109385
3.9111798
3.9110801
3.9106945
3.9104753
3.910387
3.9137284
3.906373
3.8931672
3.8699264
3.8440698
3.809751
3.7609296
3.6907881
3.5920416
3.4591562
3.2798245
3.060528
2.7887041
2.4584052
2.0679825
1.6208658
1.1276362
0.61018297
)
;

boundaryField
{
    Walls
    {
        Cmu             0.09;
        kappa           0.41;
        E               9.8;
        beta1           0.075;
        type            omegaWallFunction;
        value           nonuniform List<scalar> 
38
(
12058.174
12058.132
12058.179
12058.526
12061.524
12087.239
13479.192
13534.04
14920.102
15029.407
15120.796
15200.814
15268.514
15328.768
15375.874
15409.544
15448.923
15481.366
15498.217
15513.351
15521.43
15533.904
15545.492
15553.822
15556.573
15565.574
15571.936
15567.61
15576.157
15584.856
15576.235
15579.854
15584.939
15582.121
15577.489
15571.297
15560.798
15500.025
)
;
    }
    Inlet
    {
        type            turbulentMixingLengthDissipationRateInlet;
        mixingLength    0.03;
        phi             phi;
        k               k;
        value           nonuniform List<scalar> 3(0.0043867997 0.0048975004 0.005103921);
    }
    Outlet
    {
        type            inletOutlet;
        inletValue      uniform 1e-05;
        value           nonuniform List<scalar> 
86
(
3.9093059
3.9093613
3.9094981
3.9097365
3.910087
3.9105197
3.9109385
3.9111798
3.9110801
3.9106945
3.9104753
3.910387
3.9137284
3.906373
3.8931672
3.8699264
3.8440698
3.809751
3.7609296
3.6907881
3.5920416
3.4591562
3.2798245
3.060528
2.7887041
2.4584052
2.0679825
1.6208658
1.1276362
0.61018297
219.37522
218.36103
197.06363
1e-05
1e-05
1e-05
1e-05
52.327449
46.602334
38.346844
25.305977
1e-05
1e-05
10.009955
8.2771178
6.9448957
5.8928145
5.0889869
4.5213463
4.1375991
3.8929958
3.7556616
3.6571938
3.6225328
3.6167243
3.5911001
3.5918776
3.5871993
3.5839771
3.5787704
3.5744475
3.5708033
1e-05
1e-05
1e-05
1e-05
1e-05
1e-05
1e-05
1e-05
1e-05
1e-05
1e-05
1e-05
1e-05
1e-05
1e-05
1e-05
1.1256626
0.61018297
1e-05
1e-05
1e-05
1e-05
195.84448
218.59715
)
;
    }
    Front
    {
        type            wedge;
    }
    Back
    {
        type            wedge;
    }
    defaultFaces
    {
        type            empty;
    }
}


// ************************************************************************* //
