/*--------------------------------*- C++ -*----------------------------------*\
| =========                 |                                                 |
| \\      /  F ield         | OpenFOAM: The Open Source CFD Toolbox           |
|  \\    /   O peration     | Version:  4.0                                   |
|   \\  /    A nd           | Web:      www.OpenFOAM.org                      |
|    \\/     M anipulation  |                                                 |
\*---------------------------------------------------------------------------*/
FoamFile
{
    version     2.0;
    format      ascii;
    class       volScalarField;
    location    "0.54";
    object      p;
}
// * * * * * * * * * * * * * * * * * * * * * * * * * * * * * * * * * * * * * //

dimensions      [0 2 -2 0 0 0 0];

internalField   nonuniform List<scalar> 
1740
(
491.51264
491.54945
491.67285
474.86889
474.82727
475.17037
458.4026
458.32499
458.35201
441.82161
441.84935
441.6818
425.34628
425.52091
425.79664
409.25436
409.3106
409.45207
392.67706
392.67831
392.46421
375.76926
375.82858
375.79237
359.07385
358.88764
358.89531
342.299
342.13013
342.07251
325.64969
325.7566
325.85008
308.94711
308.98442
309.16351
292.05523
292.07258
292.18919
275.14234
275.3501
275.25489
258.25252
258.35017
258.02396
241.5445
241.50065
241.2822
224.91135
224.9917
225.17222
208.27461
208.19141
208.35243
191.1701
190.92064
190.91058
174.05706
173.98773
174.00028
157.62069
157.61169
157.63461
141.18386
141.21637
141.25988
124.4542
124.76011
124.64392
107.87543
108.15487
108.00956
91.951489
91.992725
92.135599
76.338954
76.251985
76.356569
60.522255
60.352241
60.269987
45.362073
44.969105
44.9016
30.805823
30.485602
30.356408
16.353978
16.232806
15.783983
4.2146635
3.766744
1.8229782
-0.53885606
-0.43559221
-0.28413798
-0.087731934
-0.065402332
-0.050892109
0.038213904
0.039153982
0.034239672
0.045481852
0.043838508
0.039770545
0.039400696
0.0377678
0.034911348
0.031858307
0.030698712
0.028737243
0.025834429
0.025161719
0.023908933
0.021504199
0.021036601
0.020170885
0.018438079
0.018147216
0.017581774
0.016336127
0.016141725
0.015732715
0.014412645
0.014280071
0.01399806
0.012709593
0.012617647
0.012419475
0.011213511
0.01114822
0.011005664
0.00989988
0.0098524484
0.0097460171
0.0087599754
0.008724624
0.0086441452
0.0077790205
0.0077520377
0.007690176
0.0069371667
0.006915971
0.006866948
0.0062135497
0.0061964513
0.0061568037
0.005590055
0.0055760125
0.0055434384
0.0050517463
0.0050400801
0.005013023
0.0045863909
0.0045766216
0.0045539748
0.0041838069
0.0041755687
0.0041564842
0.0038352596
0.0038282594
0.0038120536
0.0035329814
0.003526977
0.0035130903
0.0032699638
0.0032647572
0.0032527377
0.003039886
0.0030353213
0.0030248049
0.0028370988
0.0028330488
0.0028237359
0.0026565999
0.0026529607
0.00264461
0.0024940159
0.002490702
0.0024831225
0.002345575
0.0023425142
0.0023355448
0.002208053
0.0022051858
0.002198705
0.0020787275
0.0020760061
0.0020699101
0.0019553123
0.0019527514
0.0019469744
0.001836021
0.0018335918
0.0018281012
0.0017193799
0.0017170678
0.0017118433
0.0016042337
0.0016020334
0.001597067
0.0014896998
0.0014876121
0.001482906
0.0013751253
0.001373155
0.0013687195
0.0012600481
0.0012582029
0.0012540539
0.0011441622
0.0011424512
0.0011386086
0.0010272857
0.0010257194
0.0010222051
0.00090933499
0.0009079239
0.00090476056
0.00079030359
0.000789058
0.0007862677
0.00067024831
0.00066917767
0.00066678095
0.00054928266
0.00054839561
0.00054641094
0.00042757654
0.00042688028
0.0004253232
0.00030537886
0.00030487867
0.00030376091
0.00018287058
0.00018256946
0.00018189926
6.0862731e-05
6.0762398e-05
6.0540075e-05
-1.2106507
-0.85548855
-0.23340955
-0.18438497
-0.050040271
-0.049327207
0.024868691
0.015811208
0.034903062
0.03075819
0.031893715
0.029229618
0.026646188
0.024676719
0.022434977
0.020900662
0.019142953
0.018010228
0.016854661
0.01604515
0.015177337
0.014512239
0.013601313
0.013111098
0.012130015
0.011753627
0.010790718
0.010499726
0.0095830072
0.0093582625
0.008517994
0.0083412228
0.0075908136
0.0074494043
0.0067875388
0.0066730908
0.0060922589
0.0059987013
0.0054902813
0.0054131398
0.0049688805
0.004904798
0.004517057
0.0044634686
0.0041254067
0.0040802962
0.0037856917
0.0037474548
0.0034905313
0.0034578616
0.0032332439
0.0032050758
0.0030077806
0.0029832283
0.0028086931
0.0027870411
0.002631151
0.0026118261
0.0024709243
0.0024534673
0.0023243671
0.0023084084
0.0021883681
0.0021736454
0.0020602088
0.0020464722
0.0019378264
0.0019249404
0.0018194422
0.0018073004
0.0017036328
0.0016921666
0.001589286
0.0015784592
0.0014755528
0.0014653547
0.0013618056
0.0013522445
0.0012476
0.0012386981
0.0011326419
0.0011244305
0.0010167565
0.0010092726
0.00089986243
0.00089314573
0.00078195191
0.0007760421
0.00066307749
0.000658012
0.00054334651
0.00053915901
0.00042292037
0.00041963923
0.00030203676
0.0002996835
0.00018086591
0.00017945583
6.0197196e-05
5.9729275e-05
0.021735926
0.021385767
0.020671633
0.019676812
0.018530989
0.017349161
0.016195438
0.015095109
0.014043314
0.013020833
0.012010886
0.011008218
0.010010717
0.0090200131
0.0080326344
0.0070714835
0.0061513621
0.0052764308
0.0044470039
0.0036613776
0.0029163214
0.0022088948
0.0015361348
0.00089580785
0.00028772789
0.021917742
0.021567585
0.020778489
0.019691577
0.018467904
0.017226031
0.016015307
0.014846615
0.013707574
0.012584135
0.011470354
0.010376308
0.009315239
0.008295921
0.007332201
0.0064173823
0.0055520152
0.0047398158
0.0039772917
0.0032624437
0.0025908849
0.0019582956
0.0013604375
0.0007957867
0.00026234745
0.018869554
0.018295089
0.017146626
0.015758551
0.014278577
0.01275878
0.01119267
0.0095848524
0.0080614559
0.0066797878
0.005453585
0.0043975904
0.0035038079
0.0027558401
0.0021423566
0.0016464802
0.001248841
0.00093276523
0.00068989979
0.00051075801
0.00038028379
0.00028584304
0.00021495898
0.0001556506
8.6172371e-05
0.0049831059
0.0038783374
0.0020112854
-0.00013095903
-0.0022792693
-0.0042160847
-0.0058315494
-0.0070439852
-0.0079035672
-0.0084453157
-0.0087264175
-0.0087614169
-0.0085966864
-0.008265724
-0.0077954324
-0.0072137645
-0.0065458893
-0.0058125885
-0.0050319427
-0.0042208112
-0.0034080071
-0.0025957047
-0.0017923634
-0.0010114838
-0.00029076652
-0.043361434
-0.044139981
-0.044826613
-0.043693839
-0.042055352
-0.039814214
-0.037275902
-0.034551931
-0.031722467
-0.02886206
-0.026129507
-0.023457608
-0.020875017
-0.018266941
-0.01585582
-0.013653566
-0.011652253
-0.0098393054
-0.0081969291
-0.0067028773
-0.0053196552
-0.0040354928
-0.0028344064
-0.0016953643
-0.00059997163
-0.20183052
-0.15907721
-0.13928777
-0.11057449
-0.087308475
-0.067279354
-0.050519141
-0.037082004
-0.026490391
-0.018228703
-0.011792971
-0.0069646563
-0.0034029024
-0.00090082268
0.00090216406
0.0021025295
0.0028228217
0.0031631298
0.0032015664
0.003000965
0.002619732
0.0021058937
0.0014991411
0.00084075072
0.00012822496
-0.28898731
-0.090213924
-0.046633396
-0.015444751
0.013669221
0.036751524
0.05081018
0.056750196
0.057656496
0.05598013
0.052997068
0.049238626
0.045045183
0.040681226
0.036322427
0.032072761
0.027989338
0.024096745
0.020396817
0.016877267
0.013518394
0.010297387
0.0071844181
0.0041654337
0.001151389
-0.15375873
-0.13459962
-0.11394779
-0.092739511
-0.072793098
-0.055220243
-0.040584199
-0.028883499
-0.019731463
-0.01268766
-0.0073097311
-0.0033127855
-0.00041585642
0.0016444163
0.0030312664
0.0038802408
0.0042998993
0.0043818127
0.0041969949
0.0038029282
0.0032477694
0.0025744453
0.0018196365
0.0010234131
0.00017950365
-0.051615457
-0.052493857
-0.051445469
-0.049311823
-0.046500697
-0.043371531
-0.040100285
-0.036771218
-0.0334584
-0.030239368
-0.02715915
-0.024115979
-0.021214573
-0.018536086
-0.016090068
-0.013867739
-0.011835057
-0.0099831171
-0.0082994899
-0.0067666744
-0.0053647221
-0.004072117
-0.0028674115
-0.0017241757
-0.00061988856
0.0082435326
0.0025460057
-0.0018298707
-0.005244908
-0.0078720916
-0.0098330681
-0.011253651
-0.012192989
-0.012710214
-0.01286874
-0.012755303
-0.012413453
-0.011875053
-0.011182135
-0.010369137
-0.0094637574
-0.0085125167
-0.0075247613
-0.0065072669
-0.0054688465
-0.0044192264
-0.0033694368
-0.0023328275
-0.0013260451
-0.00038987249
0.026528026
0.022347075
0.018555228
0.015515015
0.01288629
0.010340094
0.008064447
0.0060743963
0.0043824549
0.0029827399
0.001842494
0.00093402475
0.00023283367
-0.00029910006
-0.00068102403
-0.00092906238
-0.0010629153
-0.0011015341
-0.0010610108
-0.00095613429
-0.00080162494
-0.00061288137
-0.00040632599
-0.00019824409
-1.9306439e-05
0.026546544
0.023907885
0.021633717
0.019517071
0.017640234
0.016014131
0.014467781
0.013000887
0.011584521
0.010236165
0.0089770919
0.0078182086
0.0067726308
0.0058278519
0.00497709
0.0042183296
0.0035468596
0.0029533653
0.0024260638
0.00195509
0.0015313457
0.0011463755
0.00079273946
0.00046645579
0.00016341187
0.022788883
0.020818016
0.019012595
0.017365624
0.015893966
0.014641379
0.013518484
0.012449491
0.011418854
0.010419805
0.0094523855
0.0085280473
0.0076584345
0.0068429191
0.0060625041
0.0053191692
0.0046164462
0.0039512335
0.0033224109
0.0027279335
0.0021658863
0.0016335819
0.0011294835
0.00065381923
0.00020938747
0.019378739
0.017827963
0.016331805
0.014941092
0.013715012
0.012654005
0.011716448
0.010851888
0.010030719
0.0092333399
0.0084508665
0.0076834229
0.0069245067
0.0061977668
0.005514599
0.0048615048
0.0042375288
0.0036414471
0.0030734769
0.0025330665
0.0020189925
0.0015301304
0.0010648278
0.00062142792
0.00019902513
0.016803776
0.015542805
0.014281508
0.0130854
0.01201852
0.011060897
0.01021685
0.0094595807
0.0087587162
0.0080918304
0.0074462541
0.0068138112
0.0061900752
0.0055822655
0.0049950845
0.0044259521
0.0038760276
0.0033456726
0.0028355909
0.0023458604
0.001876371
0.0014269028
0.00099659115
0.00058441971
0.00018831665
0.015126337
0.01409261
0.013009373
0.011928029
0.010888385
0.0099743602
0.0091764259
0.0084722581
0.007833092
0.0072364759
0.006673586
0.0061305484
0.0055980152
0.0050762986
0.0045670502
0.0040700579
0.003585431
0.0031127094
0.0026526688
0.002205832
0.001772331
0.0013528336
0.0009482262
0.0005574794
0.00017986211
0.013770413
0.012921474
0.012005131
0.011066567
0.010156269
0.0093117716
0.0085334444
0.0078373404
0.0072149915
0.0066459553
0.0061172189
0.0056163538
0.0051338322
0.004665818
0.0042103279
0.0037663795
0.0033317829
0.0029057573
0.0024876218
0.0020781139
0.0016777877
0.0012869213
0.00090519505
0.00053474716
0.00017501399
0.012511666
0.011823816
0.011061139
0.010257302
0.0094579365
0.008693238
0.007980507
0.0073161145
0.0067072876
0.0061559872
0.0056468227
0.0051701189
0.0047185692
0.0042864798
0.0038695375
0.003464717
0.0030692384
0.002681269
0.0022998364
0.0019248368
0.0015565675
0.0011953124
0.00084158757
0.00049718559
0.00016243234
0.011287879
0.010741804
0.010122116
0.0094455427
0.0087489288
0.0080656446
0.0074103183
0.0067907898
0.0062161107
0.0056898885
0.0052035354
0.0047500577
0.004323902
0.0039196487
0.0035326031
0.0031588203
0.0027954038
0.0024406616
0.0020931271
0.0017519543
0.0014169466
0.0010880735
0.00076526762
0.00045241962
0.00014879416
0.010131879
0.0096868258
0.009176024
0.0086200293
0.0080265034
0.0074209316
0.0068287648
0.0062639742
0.0057307363
0.0052350783
0.0047759553
0.0043477079
0.0039456479
0.0035658235
0.0032043294
0.0028577668
0.0025233912
0.0021991007
0.0018830869
0.001574289
0.0012722546
0.00097682029
0.00068298238
0.00040446835
0.00013584328
0.009065548
0.0087017236
0.0082757548
0.0078040465
0.00730238
0.0067794002
0.006255833
0.0057482833
0.0052630912
0.0048032428
0.0043723531
0.0039701781
0.0035927307
0.003236502
0.0028986373
0.0025767466
0.002268516
0.0019716612
0.0016843694
0.0014053382
0.0011337058
0.00086887474
0.00060997907
0.00036043083
0.00011891256
0.0081068957
0.0078105815
0.0074578947
0.0070586665
0.0066284591
0.0061782599
0.0057192263
0.0052659454
0.0048287358
0.0044088011
0.0040078202
0.0036303508
0.0032758771
0.0029423793
0.0026271309
0.0023278587
0.002042566
0.0017696256
0.0015074352
0.0012545711
0.0010099838
0.00077290881
0.00054282152
0.00032039656
0.00010507031
0.0072600674
0.00701878
0.0067274939
0.0063924562
0.0060234414
0.0056343408
0.0052322785
0.0048292034
0.0044343988
0.0040527709
0.0036862525
0.0033347194
0.0030019767
0.002688899
0.0023937409
0.0021147595
0.0018500234
0.0015980405
0.0013573746
0.0011267342
0.00090502457
0.00069139423
0.00048508727
0.00028608228
9.3839435e-05
0.0065187344
0.006321144
0.00608037
0.0058001508
0.0054869375
0.0051506137
0.0048010575
0.004445029
0.0040895988
0.003740502
0.0034025053
0.0030787727
0.0027705509
0.0024773952
0.0021995148
0.0019378346
0.0016908176
0.001456671
0.0012340964
0.0010219303
0.00081912444
0.00062473748
0.00043784014
0.00025807964
8.4832932e-05
0.0058719578
0.005709137
0.0055094807
0.0052749642
0.0050100497
0.0047215365
0.0044175476
0.0041036254
0.0037861174
0.0034705458
0.0031614025
0.0028619437
0.0025740598
0.0022997797
0.0020405278
0.0017950877
0.0015632623
0.0013435263
0.001135634
0.00093856359
0.00075105387
0.00057204414
0.00040045555
0.00023608627
7.7981983e-05
0.0053084206
0.0051734657
0.0050071019
0.0048102666
0.0045859063
0.0043387295
0.0040745104
0.0037984381
0.0035159477
0.0032320308
0.0029509572
0.0026761672
0.0024101434
0.0021548824
0.001911632
0.0016804788
0.0014614079
0.0012548951
0.0010596312
0.00087466635
0.00069909549
0.00053198267
0.00037230708
0.00021919172
7.2245598e-05
0.0048177135
0.004705213
0.0045659342
0.0044000891
0.0042094931
0.0039974504
0.0037680757
0.0035258044
0.0032752023
0.0030206644
0.0027661482
0.0025150063
0.0022699309
0.0020330104
0.0018056911
0.0015887064
0.0013824647
0.0011871432
0.0010021266
0.00082676259
0.00066036109
0.00050209032
0.00035079101
0.0002066777
6.8408091e-05
0.0043906084
0.004296281
0.0041790833
0.0040387559
0.0038763111
0.0036940071
0.0034949186
0.0032824955
0.0030605466
0.0028328627
0.0026029981
0.0023741046
0.002148845
0.0019293687
0.0017172749
0.0015136234
0.0013190547
0.0011338587
0.00095784981
0.00079062831
0.00063168172
0.00048034847
0.00033566166
0.00019767993
6.5529669e-05
0.0040189557
0.0039393854
0.0038402162
0.0037209297
0.003582
0.0034248596
0.0032517771
0.0030654379
0.0028689326
0.0026654579
0.0024581319
0.0022498288
0.0020430756
0.0018399899
0.001642243
0.0014510578
0.0012672563
0.0010912832
0.00092324206
0.00076298326
0.00061017243
0.00046432833
0.00032457126
0.00019112709
6.3445533e-05
0.0036954577
0.0036279097
0.0035434891
0.0034415285
0.0033221347
0.0031862155
0.0030353449
0.0028715964
0.0026974556
0.0025155548
0.0023285771
0.0021390791
0.0019493882
0.0017615259
0.0015771623
0.001397597
0.0012237723
0.0010562747
0.00089540292
0.00074122513
0.00059359671
0.00045230115
0.00031626119
0.00018621758
6.1928917e-05
0.0034134453
0.0033556895
0.0032833441
0.0031956533
0.0030924738
0.0029743208
0.0028423296
0.0026980299
0.0025433483
0.0023804738
0.0022116675
0.0020391534
0.0018650269
0.0016911704
0.001519199
0.001350423
0.001185853
0.0010262057
0.00087192123
0.00072321456
0.00058009245
0.0004428206
0.00030965843
0.00018225441
6.0981222e-05
0.0031667931
0.0031169998
0.0030545221
0.0029785632
0.0028888111
0.002785495
0.0026695133
0.0025418431
0.0024040002
0.0022577621
0.0021050297
0.0019477071
0.0017876555
0.0016265849
0.0014660147
0.0013072344
0.0011512848
0.00099896218
0.00085082429
0.00070722449
0.00056833832
0.00043435069
0.00030427099
0.00017940722
6.0042439e-05
0.0029499006
0.0029065705
0.0028521572
0.0027858564
0.0027072205
0.0026162069
0.0025137784
0.0024002662
0.0022769092
0.0021451425
0.0020065298
0.0018627109
0.0017152981
0.0015658369
0.0014157289
0.0012662135
0.0011183256
0.00097290751
0.00083060205
0.00069187084
0.00055701727
0.00042624652
0.00029922888
0.00017674403
5.8915426e-05
0.0027577119
0.0027196226
0.0026717875
0.0026134379
0.0025441072
0.0024637058
0.0023722546
0.0022706689
0.0021597408
0.0020405194
0.0019142863
0.0017824231
0.001646335
0.0015073943
0.0013668863
0.0012259661
0.0010856566
0.00094681363
0.0008101328
0.00067615694
0.00054529124
0.00041783402
0.00029374041
0.00017368449
5.7815122e-05
0.0025857148
0.0025518693
0.0025093914
0.0024575578
0.0023958569
0.0023241236
0.0022420821
0.0021506629
0.0020503997
0.001942047
0.0018266592
0.0017053933
0.0015794568
0.0014500626
0.0013183739
0.0011854697
0.0010523293
0.00091980687
0.00078862884
0.00065939599
0.00053259164
0.00040860418
0.00028755186
0.00017013011
5.6585391e-05
0.0024299437
0.0023995399
0.0023614248
0.002314957
0.0022594623
0.0021949482
0.002121124
0.0020382844
0.001947094
0.0018481574
0.0017422824
0.0016304269
0.0015136206
0.0013929233
0.0012693835
0.0011439968
0.001017691
0.00089130456
0.00076557693
0.00064114671
0.0005185558
0.00039826274
0.00028050741
0.00016602872
5.5166674e-05
0.002286969
0.0022593743
0.0022247695
0.0021826988
0.0021325496
0.0020740739
0.0020071184
0.0019316477
0.0018483033
0.0017575579
0.0016600528
0.0015565914
0.0014480347
0.0013353042
0.0012193441
0.0011010599
0.0009813252
0.00086095169
0.00074067706
0.00062116067
0.00050298458
0.00038666067
0.00027252306
0.00016134804
5.3553074e-05
0.002153797
0.002128508
0.0020969302
0.0020585174
0.0020127878
0.0019594377
0.0018983178
0.0018294586
0.0017528225
0.0016691828
0.0015790878
0.001483183
0.0013821317
0.0012767537
0.0011678976
0.0010563748
0.00094300784
0.00082857292
0.00071379281
0.00059933358
0.000485802
0.00037374779
0.00026357627
0.00015608519
5.1752465e-05
0.0020281498
0.0020047452
0.0019756455
0.0019403227
0.0018983324
0.0018493627
0.0017932399
0.0017299401
0.0016595625
0.0015823348
0.0014986762
0.0014096805
0.0013155103
0.0012170115
0.0011148515
0.0010098132
0.00090266455
0.00079413195
0.00068491292
0.00057566976
0.00046702212
0.00035954339
0.00025368781
0.00015025705
4.9771503e-05
0.0019078538
0.0018860789
0.0018590959
0.0018264259
0.0017876613
0.0017424988
0.0016907484
0.0016323562
0.0015674047
0.0014961245
0.0014189485
0.0013358847
0.0012479013
0.0011559003
0.0010601343
0.00096135699
0.00086032907
0.00075769142
0.00065411455
0.00055025024
0.00044672105
0.00034411261
0.00024290544
0.00014389021
4.7616749e-05
0.0017912754
0.0017709269
0.0017458001
0.0017154638
0.0016795445
0.0016377558
0.0015899043
0.001535917
0.0014758416
0.0014098497
0.0013382251
0.0012612915
0.0011796659
0.0010935242
0.0010037933
0.0009110429
0.00081610727
0.00071937923
0.00062153169
0.000523204
0.00042501411
0.00032755248
0.00023130224
0.00013702888
4.5302445e-05
0.0016770971
0.0016580356
0.0016345814
0.0016063514
0.0015730073
0.0015342714
0.0014899679
0.0014400094
0.0013844139
0.0013233071
0.001256913
0.0011855405
0.0011096127
0.0010295406
0.00094594455
0.000859398
0.00077026782
0.00067939377
0.00058733968
0.00049468526
0.00040203219
0.00030998001
0.00021896537
0.00012972876
4.2847301e-05
0.0015642855
0.0015464249
0.0015245249
0.0014982453
0.0014672817
0.0014313837
0.0013903793
0.0013441765
0.0012927757
0.0012362693
0.0011748393
0.0011087528
0.0010383578
0.00096405708
0.00088634129
0.00080571406
0.0007226696
0.00063781861
0.00055173517
0.00046498502
0.00037810162
0.00029159697
0.00020602236
0.0001220634
4.028722e-05
0.0014520515
0.0014353474
0.0014149338
0.0013905107
0.001361807
0.0013285988
0.0012907231
0.0012480888
0.0012006834
0.0011485758
0.0010919163
0.0010309325
0.00096592263
0.00089724809
0.00082532782
0.00075061794
0.00067359989
0.00059479943
0.00051474705
0.00043397209
0.00035299361
0.00027232687
0.00019245764
0.00011402652
3.7592967e-05
0.0013398123
0.0013242529
0.0013052977
0.0012826841
0.0012561732
0.0012255649
0.0011907098
0.0011515204
0.0011079774
0.001060133
0.0010081117
0.00095210654
0.00089237698
0.00082924075
0.00076306618
0.00069426309
0.00062327316
0.00055056868
0.00047663542
0.0004019649
0.00032704849
0.0002523767
0.00017839846
0.00010569733
3.4807904e-05
0.0012271561
0.0012127537
0.0011952586
0.0011744426
0.0011500965
0.0011220433
0.0010901487
0.0010543316
0.0010145694
0.0009709023
0.00092343381
0.00087232931
0.00081781371
0.00076016449
0.00069970793
0.00063680972
0.00057186819
0.00050530874
0.0004375733
0.00036911397
0.00030038716
0.00023185146
0.00016392234
9.712192e-05
3.1950878e-05
0.0011138108
0.0011005943
0.0010845817
0.0010655761
0.0010433959
0.0010178861
0.00098892823
0.0009564488
0.00092042478
0.00088088736
0.00083792331
0.00079167438
0.00074233493
0.00069014765
0.00063539942
0.00057841455
0.00051954873
0.00045918235
0.00039771466
0.00033555616
0.00027312424
0.00021084193
0.00014909247
8.8340253e-05
2.9051437e-05
0.00099961518
0.00098762431
0.00097313015
0.00095596448
0.00093597127
0.00091301671
0.00088699768
0.00085784901
0.00082554873
0.0007901216
0.00075164056
0.0007102268
0.00066604785
0.00061931469
0.00057027782
0.00051922226
0.00046646212
0.00041233505
0.00035719689
0.00030141559
0.00024536738
0.0001894364
0.00013397347
7.9395491e-05
2.6114175e-05
0.00088449474
0.00087377506
0.00086084354
0.00084555795
0.00082778598
0.00080741364
0.00078435266
0.00075854644
0.00072997509
0.00069865851
0.00066465802
0.0006280766
0.00058905766
0.00054778285
0.00050446876
0.00045936297
0.00041273955
0.00036489433
0.00031614011
0.00026680168
0.00021721243
0.00016771522
0.00011862379
7.0310517e-05
2.3132892e-05
0.00076844252
0.00075904164
0.00074772048
0.0007343605
0.00071885118
0.00070109701
0.00068102372
0.00065858337
0.00063375865
0.00060656571
0.00057705574
0.0005453153
0.00051146568
0.00047566109
0.00043808613
0.00039895256
0.00035849566
0.00031697029
0.00027464668
0.00023180643
0.00018873917
0.00014574286
0.00010308722
6.1099968e-05
2.0100254e-05
0.00065150683
0.00064347107
0.00063380771
0.00062241986
0.00060921698
0.00059412065
0.00057706979
0.00055802488
0.00053697141
0.00051392247
0.00048892012
0.00046203589
0.00043337037
0.00040305185
0.00037123435
0.00033809512
0.00030383166
0.00026865851
0.00023280377
0.00019650562
0.00016000925
0.00012356495
8.7399592e-05
5.1792334e-05
1.7027128e-05
0.00053378703
0.00052715862
0.00051919685
0.00050982482
0.00049897036
0.00048657093
0.00047257772
0.0004569592
0.00043970375
0.00042082173
0.0004003468
0.00037833639
0.00035487147
0.00033005554
0.00030401318
0.00027688807
0.00024884072
0.00022004585
0.0001906896
0.00016096666
0.00013107749
0.00010122597
7.1596895e-05
4.242132e-05
1.3937202e-05
0.00041543331
0.00041024815
0.00040402543
0.00039670675
0.00038823711
0.00037856904
0.00036766511
0.00035550115
0.0003420683
0.00032737447
0.00031144536
0.00029432496
0.00027607538
0.00025677622
0.00023652345
0.00021542798
0.00019361389
0.00017121643
0.00014837997
0.00012525566
0.00010199941
7.8770231e-05
5.5712359e-05
3.3008072e-05
1.0844639e-05
0.00029666859
0.00029295384
0.00028849829
0.000283261
0.00027720363
0.00027029211
0.00026250072
0.00025381191
0.00024421929
0.00023372842
0.00022235737
0.00021013715
0.00019711163
0.00018333714
0.00016888173
0.00015382411
0.0001382524
0.00012226276
0.00010595791
8.94456e-05
7.2837302e-05
5.6247778e-05
3.9782152e-05
2.3572221e-05
7.7485146e-06
0.00017764967
0.00017542467
0.00017275642
0.0001696205
0.00016599415
0.00016185748
0.00015719447
0.0001519948
0.00014625438
0.00013997625
0.00013317109
0.00012585724
0.00011806076
0.00010981519
0.00010116107
9.2145376e-05
8.2820692e-05
7.3244418e-05
6.3477887e-05
5.3585527e-05
4.3634334e-05
3.3694391e-05
2.3829585e-05
1.4121011e-05
4.6453558e-06
5.9129845e-05
5.8391281e-05
5.7505386e-05
5.6463961e-05
5.5259316e-05
5.3884791e-05
5.2336385e-05
5.060773e-05
4.8699758e-05
4.6612347e-05
4.4349123e-05
4.1916144e-05
3.9322043e-05
3.6577947e-05
3.3697332e-05
3.0695807e-05
2.7590865e-05
2.4401567e-05
2.1148259e-05
1.7852304e-05
1.4536027e-05
1.1223687e-05
7.93597e-06
4.7015202e-06
1.54764e-06
)
;

boundaryField
{
    Walls
    {
        type            zeroGradient;
    }
    Inlet
    {
        type            fixedValue;
        value           uniform 500;
    }
    Outlet
    {
        type            fixedValue;
        value           uniform 0;
    }
    Front
    {
        type            wedge;
    }
    Back
    {
        type            wedge;
    }
    defaultFaces
    {
        type            empty;
    }
}


// ************************************************************************* //
