/*--------------------------------*- C++ -*----------------------------------*\
| =========                 |                                                 |
| \\      /  F ield         | OpenFOAM: The Open Source CFD Toolbox           |
|  \\    /   O peration     | Version:  4.0                                   |
|   \\  /    A nd           | Web:      www.OpenFOAM.org                      |
|    \\/     M anipulation  |                                                 |
\*---------------------------------------------------------------------------*/
FoamFile
{
    version     2.0;
    format      ascii;
    class       surfaceScalarField;
    location    "0.54";
    object      phi;
}
// * * * * * * * * * * * * * * * * * * * * * * * * * * * * * * * * * * * * * //

dimensions      [0 3 -1 0 0 0 0];

internalField   nonuniform List<scalar> 
3364
(
-3.0685654e-10
1.6858348e-08
-7.0109778e-10
4.9978274e-08
8.8779004e-08
-2.3425454e-10
1.7092582e-08
-2.2321671e-09
5.1976182e-08
8.6546823e-08
1.7872732e-10
1.6913846e-08
-8.8162562e-10
5.3036559e-08
8.5665199e-08
-1.5119412e-10
1.7065011e-08
3.0853459e-10
5.2576844e-08
8.5973742e-08
-7.6028981e-10
1.7825249e-08
-8.0034229e-10
5.2616859e-08
8.5173364e-08
-3.7186769e-10
1.8197095e-08
-3.3465569e-10
5.2579584e-08
8.4838656e-08
2.2154591e-10
1.7975511e-08
6.4314035e-10
5.215793e-08
8.5481755e-08
1.3079699e-10
1.784466e-08
3.6973056e-10
5.1918942e-08
8.5851448e-08
7.1753105e-10
1.7127085e-08
5.3376895e-10
5.210263e-08
8.6385168e-08
6.7595224e-10
1.6451081e-08
4.8610022e-10
5.2292407e-08
8.6871245e-08
-3.943189e-10
1.6845347e-08
-6.1231523e-10
5.2510388e-08
8.6258923e-08
-3.6090778e-10
1.7206234e-08
-1.0187131e-09
5.3168168e-08
8.5240177e-08
1.4294991e-10
1.7063249e-08
-4.9249333e-10
5.380357e-08
8.474765e-08
-2.870797e-10
1.7350269e-08
7.9672903e-10
5.2719701e-08
8.5544346e-08
-4.349467e-10
1.7785201e-08
1.3726426e-09
5.0912061e-08
8.6916943e-08
-2.6561446e-11
1.7811772e-08
7.463445e-10
5.0139116e-08
8.7663239e-08
-3.5919167e-11
1.7847669e-08
-5.7509205e-10
5.0678249e-08
8.7088109e-08
2.8246275e-10
1.7565145e-08
-8.6229556e-10
5.1822961e-08
8.6225783e-08
4.4232431e-10
1.7122761e-08
-6.3581171e-10
5.2901055e-08
8.5589939e-08
2.7386419e-10
1.6848868e-08
6.2768081e-11
5.3112128e-08
8.5652668e-08
3.144455e-10
1.6534382e-08
7.618233e-10
5.2664696e-08
8.6414431e-08
-1.2958344e-10
1.6663926e-08
-4.001811e-10
5.2935232e-08
8.6014205e-08
-8.5563609e-10
1.7519529e-08
1.1643346e-10
5.1963147e-08
8.6130615e-08
-4.2882163e-10
1.7948318e-08
1.0469349e-09
5.0487356e-08
8.7177526e-08
5.5505385e-10
1.7393218e-08
-7.0137243e-11
5.1112488e-08
8.7107339e-08
3.6598442e-10
1.7027203e-08
-2.3140814e-10
5.170984e-08
8.6875884e-08
1.0132371e-10
1.6925831e-08
-4.9620253e-12
5.1816082e-08
8.6870889e-08
5.2903273e-11
1.6872889e-08
-5.8051125e-10
5.244949e-08
8.6290358e-08
1.6942677e-10
1.6703506e-08
-4.5484281e-10
5.3073868e-08
8.583555e-08
1.2531666e-09
1.5450564e-08
5.0117325e-09
4.9315438e-08
9.0847299e-08
1.1091841e-08
4.3580784e-09
4.9057694e-08
1.1347713e-08
1.1302751e-08
1.2859966e-07
4.8746661e-09
-5.1707287e-10
1.7489662e-08
-1.2687944e-09
-1.3220152e-09
3.011251e-08
-4.0223148e-10
-1.1481076e-10
-1.3842155e-09
-2.867488e-10
-3.7920729e-10
-2.326939e-09
-1.0661961e-10
-8.1768824e-12
-3.7777164e-10
-1.5562658e-11
-3.1079085e-11
-7.2586156e-10
-1.5731498e-11
7.5562172e-12
-5.3020268e-11
2.1730542e-11
2.8936951e-11
-1.1303041e-10
-1.3220547e-12
8.878361e-12
-4.6423898e-12
2.5051126e-11
3.6408805e-11
-1.2113529e-11
1.5531551e-12
7.325221e-12
5.5075963e-12
2.1096676e-11
3.1181289e-11
1.0735169e-11
2.1006988e-12
5.2245015e-12
8.3433789e-12
1.4853835e-11
2.2346004e-11
1.7178282e-11
1.8116164e-12
3.4128672e-12
6.9502828e-12
9.7150535e-12
1.459441e-11
1.4701637e-11
9.8808729e-13
2.424801e-12
3.6295947e-12
7.073566e-12
1.0880624e-11
7.3433934e-12
3.2883217e-13
2.0960191e-12
1.2829509e-12
6.1195557e-12
9.5769712e-12
2.5867684e-12
1.107058e-13
1.9853612e-12
4.0620952e-13
5.824161e-12
9.2112259e-12
7.721247e-13
1.6740184e-13
1.8179894e-12
5.7065593e-13
5.4209749e-12
8.7192495e-12
1.0627407e-12
1.9317437e-13
1.6248311e-12
8.2775015e-13
4.7864313e-12
7.865269e-12
1.6817807e-12
2.2847637e-13
1.3963615e-12
8.7947473e-13
4.1354436e-12
6.7633525e-12
1.9814064e-12
2.1539758e-13
1.1809663e-12
8.2398131e-13
3.5268607e-12
5.6685291e-12
1.9188041e-12
1.8507413e-13
9.9589294e-13
7.3021072e-13
2.9817212e-12
4.8343682e-12
1.5643665e-12
1.4786956e-13
8.4802366e-13
5.893264e-13
2.540261e-12
4.1732459e-12
1.2504432e-12
1.1779565e-13
7.3022806e-13
4.6887252e-13
2.1891808e-12
3.6130156e-12
1.029097e-12
9.7996535e-14
6.3223122e-13
3.9075757e-13
1.8964159e-12
3.1316463e-12
8.7212031e-13
8.4228023e-14
5.4800257e-13
3.3614926e-13
1.6444903e-12
2.7173824e-12
7.5040571e-13
7.3444994e-14
4.7455668e-13
2.9315646e-13
1.424774e-12
2.3557187e-12
6.5481215e-13
6.4465897e-14
4.1008971e-13
2.578455e-13
1.2313893e-12
2.0373111e-12
5.7624465e-13
5.5478264e-14
3.5461033e-13
2.2228359e-13
1.064579e-12
1.7610981e-12
4.984882e-13
4.6959487e-14
3.0764975e-13
1.8781029e-13
9.2372353e-13
1.5281828e-12
4.2071769e-13
3.9374775e-14
2.6827395e-13
1.5763291e-13
8.0546108e-13
1.3336277e-12
3.5218073e-13
3.2479634e-14
2.3579337e-13
1.299044e-13
7.0803245e-13
1.1724597e-12
2.9106573e-13
2.6385379e-14
2.0940716e-13
1.054394e-13
6.2897504e-13
1.0419939e-12
2.3589948e-13
2.1125567e-14
1.8828088e-13
8.4485725e-14
5.6561197e-13
9.3847152e-13
1.8800312e-13
1.6729872e-14
1.7155042e-13
6.6698223e-14
5.1564117e-13
8.5650709e-13
1.486585e-13
1.2824723e-14
1.5872522e-13
5.1139184e-14
4.7732473e-13
7.932716e-13
1.1437129e-13
9.5864677e-15
1.491384e-13
3.824466e-14
4.48665e-13
7.4609468e-13
8.541895e-14
6.8934406e-15
1.4224473e-13
2.7686209e-14
4.2787111e-13
7.1180283e-13
6.1976145e-14
4.7931472e-15
1.3745147e-13
1.9113209e-14
4.1355033e-13
6.8814193e-13
4.277287e-14
3.0484087e-15
1.3440306e-13
1.2167522e-14
4.0443086e-13
6.7306359e-13
2.7245254e-14
1.6789424e-15
1.3272422e-13
6.7116675e-15
3.9939811e-13
6.6469457e-13
1.5080651e-14
6.3539211e-16
1.3208902e-13
2.5479001e-15
3.9748587e-13
6.6149609e-13
5.7468478e-15
-1.4145976e-16
1.3223075e-13
-5.578689e-16
3.9790279e-13
6.6212475e-13
-1.1856057e-15
-6.7881325e-16
1.329099e-13
-2.7020783e-15
3.9992678e-13
6.6541036e-13
-5.9864026e-15
-1.0367307e-15
1.3394701e-13
-4.1181832e-15
4.0300911e-13
6.7042399e-13
-9.1302481e-15
-1.2483794e-15
1.351958e-13
-4.966391e-15
4.0672814e-13
6.7647833e-13
-1.1018947e-14
-1.3437423e-15
1.3653997e-13
-5.3618926e-15
4.1074739e-13
6.8305602e-13
-1.1937649e-14
-1.3318965e-15
1.3787231e-13
-5.3208621e-15
4.1473751e-13
6.89626e-13
-1.1888813e-14
-1.2343928e-15
1.3910714e-13
-4.9148802e-15
4.1841918e-13
6.9563719e-13
-1.0924021e-14
-1.1191379e-15
1.4022671e-13
-4.4475767e-15
4.2174878e-13
7.010819e-13
-9.8902573e-15
-9.1048758e-16
1.411376e-13
-3.5582818e-15
4.243977e-13
7.0534037e-13
-7.8147949e-15
-6.494963e-16
1.4178748e-13
-2.4464637e-15
4.2619576e-13
7.0821071e-13
-5.3148983e-15
-3.3156052e-16
1.4211941e-13
-1.1973544e-15
4.2706264e-13
7.0958808e-13
-2.5728084e-15
6.6639125e-17
1.4205317e-13
1.0407219e-16
4.2702635e-13
7.095481e-13
1.460695e-16
3.181445e-16
1.0764153e-15
2.2783942e-15
1.3813906e-07
-9.5447319e-09
-8.7905899e-09
1.4692331e-07
2.2032904e-08
-1.4663551e-09
-1.3452401e-09
1.4586994e-08
-3.3136746e-09
-4.7950487e-10
-5.4745189e-10
-4.1113232e-09
-1.1244936e-09
-8.0822886e-11
-1.2490566e-10
-1.5469799e-09
-2.1905005e-10
2.5206808e-11
1.6742786e-11
-3.6068334e-10
-3.0631759e-11
4.3726703e-11
4.8316344e-11
-6.220251e-11
1.6138637e-11
3.832292e-11
4.4399764e-11
2.0054815e-11
2.9019148e-11
2.648137e-11
3.0138364e-11
4.3279582e-11
2.2989124e-11
1.8193474e-11
2.0857252e-11
3.226965e-11
1.1703025e-11
1.3833825e-11
1.6282293e-11
1.6277921e-11
4.0124706e-12
1.2408325e-11
1.4878401e-11
5.4165881e-12
1.1106246e-12
1.2070044e-11
1.4294698e-11
1.694585e-12
1.593902e-12
1.1539026e-11
1.3718682e-11
2.1700885e-12
2.6903203e-12
1.0530552e-11
1.254244e-11
3.8666394e-12
3.3331301e-12
9.1788458e-12
1.1124582e-11
4.7510059e-12
3.246912e-12
7.8507341e-12
9.6653618e-12
4.7061248e-12
2.7212439e-12
6.6938479e-12
8.3275814e-12
4.0590106e-12
2.2107337e-12
5.7335484e-12
7.1758025e-12
3.362499e-12
1.8130855e-12
4.949551e-12
6.2155397e-12
2.7733354e-12
1.5154079e-12
4.3062539e-12
5.4006877e-12
2.3302468e-12
1.3112018e-12
3.7454474e-12
4.6852613e-12
2.0266145e-12
1.1489395e-12
3.2513087e-12
4.0591117e-12
1.7750746e-12
1.0191019e-12
2.8084397e-12
3.5295779e-12
1.5486207e-12
8.8098495e-13
2.4259314e-12
3.0704737e-12
1.3400747e-12
7.4934351e-13
2.0972946e-12
2.6755069e-12
1.1442963e-12
6.2038616e-13
1.8290789e-12
2.3401191e-12
9.5576093e-13
5.0955523e-13
1.6105802e-12
2.0627006e-12
7.8696203e-13
4.1396012e-13
1.4325114e-12
1.8382513e-12
6.3839926e-13
3.2713147e-13
1.2933762e-12
1.6559123e-12
5.0946172e-13
2.5421841e-13
1.1878105e-12
1.5101293e-12
3.9999417e-13
1.9842643e-13
1.1037507e-12
1.4031823e-12
3.0536759e-13
1.4928793e-13
1.0398781e-12
1.3258487e-12
2.2661702e-13
1.0934463e-13
9.9250701e-13
1.2675149e-12
1.6767521e-13
7.5376235e-14
9.5990198e-13
1.2269946e-12
1.1589457e-13
4.7986776e-14
9.391597e-13
1.2011095e-12
7.3871068e-14
2.6642046e-14
9.2759837e-13
1.1865935e-12
4.1158332e-14
1.0288302e-14
9.2305771e-13
1.1807671e-12
1.6115809e-14
-1.9318456e-15
9.2380537e-13
1.1815374e-12
-2.7001373e-15
-1.0534774e-14
9.2835566e-13
1.1869688e-12
-1.596357e-14
-1.5806573e-14
9.3503429e-13
1.195348e-12
-2.4182694e-14
-1.9135356e-14
9.4315331e-13
1.2054678e-12
-2.9251789e-14
-2.0875972e-14
9.5209444e-13
1.2164585e-12
-3.1862932e-14
-2.1126693e-14
9.6133524e-13
1.2274822e-12
-3.214658e-14
-1.9937687e-14
9.7035187e-13
1.2376291e-12
-3.0080735e-14
-1.6439797e-14
9.7690432e-13
1.2467274e-12
-2.5534288e-14
-1.3226911e-14
9.8231925e-13
1.2538341e-12
-2.0329976e-14
-9.1932089e-15
9.862003e-13
1.2584814e-12
-1.3836871e-14
-4.4054924e-15
9.8803573e-13
1.2607331e-12
-6.6536915e-15
2.3024896e-16
9.8795447e-13
1.2605468e-12
4.2034871e-16
3.9344735e-15
6.0387978e-15
2.3709063e-12
-2.3678989e-12
5.1884897e-12
-2.8227992e-12
7.1153059e-12
-1.9331349e-12
7.4483421e-12
-3.3898016e-13
6.0703273e-12
1.3728059e-12
3.0577252e-12
3.0081677e-12
-1.7826659e-12
4.8367263e-12
-9.0423711e-12
7.2567653e-12
-1.9631441e-11
1.0586825e-11
-3.4421369e-11
1.4788292e-11
-5.3990884e-11
1.9568415e-11
-7.8344849e-11
2.4353271e-11
-1.0677341e-10
2.8428184e-11
-1.3805927e-10
3.128565e-11
-1.7242262e-10
3.4363261e-11
-2.0860847e-10
3.6185764e-11
-2.4499917e-10
3.6390597e-11
-2.8013453e-10
3.5135191e-11
-3.1288247e-10
3.2747711e-11
-3.4223212e-10
2.9349365e-11
-3.6730721e-10
2.5074801e-11
-3.874257e-10
2.0118189e-11
-4.0205453e-10
1.4628557e-11
-4.1061857e-10
8.5637809e-12
2.0520235e-12
-3.643976e-11
3.4076048e-11
-7.9938173e-11
4.068205e-11
-1.3290457e-10
5.1040739e-11
-1.9671753e-10
6.3481845e-11
-2.7202108e-10
7.6684355e-11
-3.5960735e-10
9.0602428e-11
-4.6086904e-10
1.061063e-10
-5.7734736e-10
1.2374274e-10
-7.0884703e-10
1.4209377e-10
-8.5409942e-10
1.6004748e-10
-1.0112439e-09
1.7671907e-10
-1.1776381e-09
1.9075308e-10
-1.3508828e-09
2.0167792e-10
-1.5291861e-09
2.0959319e-10
-1.7097504e-09
2.1493125e-10
-1.8922706e-09
2.18709e-10
-2.0856996e-09
2.2982187e-10
-2.2705716e-09
2.2000893e-10
-2.4395771e-09
2.0175428e-10
-2.5876062e-09
1.7737893e-10
-2.7108624e-09
1.4833098e-10
-2.8063979e-09
1.1565317e-10
-2.8717809e-09
8.0010573e-11
-2.9029376e-09
3.9719284e-11
1.0041362e-11
-1.1346745e-10
1.4755255e-10
-2.4827947e-10
1.7550783e-10
-4.0832371e-10
2.1110085e-10
-5.9519487e-10
2.5036939e-10
-8.1186672e-10
2.9337243e-10
-1.0624611e-09
3.4121235e-10
-1.3555785e-09
3.9923832e-10
-1.7594516e-09
5.276292e-10
-2.2051178e-09
5.8777183e-10
-2.6637104e-09
6.186504e-10
-3.1197122e-09
6.3272967e-10
-3.5628919e-09
6.3394014e-10
-3.9862647e-09
6.2505669e-10
-4.3844291e-09
6.0776234e-10
-4.7511942e-09
5.8169979e-10
-5.0804202e-09
5.4793726e-10
-5.3579094e-09
5.0731239e-10
-5.598321e-09
4.6042086e-10
-5.8049744e-09
4.0840708e-10
-5.9800917e-09
3.5249483e-10
-6.1257229e-09
2.9396012e-10
-6.2425393e-09
2.3246679e-10
-6.3305672e-09
1.6803521e-10
-6.3919225e-09
1.0107087e-10
3.3522054e-11
-3.6017831e-10
5.0774841e-10
-7.6364779e-10
5.7900306e-10
-1.2246115e-09
6.7209261e-10
-1.9673052e-09
9.9308872e-10
-2.7854887e-09
1.1115785e-09
-3.5798286e-09
1.1355711e-09
-4.2941753e-09
1.1136006e-09
-4.8284975e-09
1.061964e-09
-5.2313579e-09
9.9064243e-10
-5.518948e-09
9.0624874e-10
-5.7028067e-09
8.1659491e-10
-5.7929232e-09
7.2406171e-10
-5.7989654e-09
6.3110274e-10
-5.7246886e-09
5.3348838e-10
-5.5858295e-09
4.4284266e-10
-5.3994076e-09
3.6151653e-10
-5.1824282e-09
2.9033356e-10
-4.9517115e-09
2.2970423e-10
-4.7229413e-09
1.7963648e-10
-4.5115035e-09
1.4105629e-10
-4.3305934e-09
1.1304876e-10
-4.1866001e-09
8.8471983e-11
-4.0849827e-09
6.6416031e-11
-4.029086e-09
4.5172156e-11
2.4757109e-11
-2.1986598e-09
2.7064364e-09
-3.8875175e-09
2.2678918e-09
-5.3072007e-09
2.0918058e-09
-5.9435162e-09
1.6294256e-09
-5.97423e-09
1.1423099e-09
-5.5093347e-09
6.7068987e-10
-4.7498946e-09
3.5417212e-10
-3.7614961e-09
7.3575257e-11
-2.6067272e-09
-1.6411811e-10
-1.3681384e-09
-3.3233328e-10
-1.3310331e-10
-4.1843593e-10
1.101818e-09
-5.1086065e-10
2.400282e-09
-6.6736246e-10
3.814786e-09
-8.8101562e-10
5.1979489e-09
-9.4031845e-10
6.5098125e-09
-9.5034357e-10
7.7273337e-09
-9.2718227e-10
8.8354051e-09
-8.7836009e-10
9.8233695e-09
-8.0831911e-10
1.0684078e-08
-7.1964201e-10
1.1411154e-08
-6.1401542e-10
1.1993865e-08
-4.9422545e-10
1.2422312e-08
-3.620154e-10
1.2687274e-08
-2.1977469e-10
-6.581292e-11
1.203323e-09
1.5032008e-09
4.5133359e-09
-1.0420712e-09
8.3052911e-09
-1.7000816e-09
1.2009016e-08
-2.0742713e-09
1.5701593e-08
-2.5502435e-09
1.9346111e-08
-2.9738e-09
2.2922418e-08
-3.2221035e-09
2.6277248e-08
-3.2812174e-09
2.9321615e-08
-3.2084434e-09
3.2054101e-08
-3.064773e-09
3.4517435e-08
-2.8817205e-09
3.6675592e-08
-2.6689655e-09
3.8459579e-08
-2.4512958e-09
3.9821128e-08
-2.2425093e-09
4.0905767e-08
-2.0249029e-09
4.1763579e-08
-1.8080997e-09
4.2434254e-08
-1.597802e-09
4.2950995e-08
-1.3950464e-09
4.3342615e-08
-1.1998841e-09
4.3634501e-08
-1.0114727e-09
4.3848581e-08
-8.2804078e-10
4.4001745e-08
-6.4733587e-10
4.4106176e-08
-4.6639165e-10
4.4169014e-08
-2.8255976e-10
-8.9772391e-11
1.5067766e-07
-2.249917e-09
1.489679e-07
6.6861801e-10
1.4609574e-07
1.1728625e-09
1.4242338e-07
1.5987934e-09
1.377472e-07
2.1265405e-09
1.3218724e-07
2.5866856e-09
1.260912e-07
2.8743908e-09
1.1984075e-07
2.9696165e-09
1.1371362e-07
2.9190126e-09
1.0784614e-07
2.8029977e-09
1.0230094e-07
2.6637231e-09
9.7138054e-08
2.4941475e-09
9.2384351e-08
2.3026054e-09
8.804093e-08
2.1010904e-09
8.4118447e-08
1.8977397e-09
8.0613472e-08
1.6970219e-09
7.7514718e-08
1.5010856e-09
7.4808338e-08
1.311456e-09
7.2480115e-08
1.1284522e-09
7.0517293e-08
9.5145542e-10
6.8910252e-08
7.7909854e-10
6.7653608e-08
6.0940112e-10
6.6747801e-08
4.3950361e-10
6.6198597e-08
2.6672903e-10
8.5210716e-11
1.3823731e-08
-1.4865274e-09
1.612198e-08
-1.6295147e-09
1.8695949e-08
-1.4009911e-09
2.1352475e-08
-1.0576205e-09
2.4088925e-08
-6.0980274e-10
2.6964725e-08
-2.8901261e-10
2.9852101e-08
-1.2892826e-11
3.2592687e-08
2.2911936e-10
3.5144088e-08
3.6769973e-10
3.7473519e-08
4.7365456e-10
3.9544359e-08
5.929697e-10
4.1158e-08
8.8059084e-10
4.2436617e-08
1.0240724e-09
4.3451753e-08
1.0860353e-09
4.4245967e-08
1.1036052e-09
4.4854835e-08
1.0882305e-09
4.5312044e-08
1.0439515e-09
4.5647146e-08
9.7642591e-10
4.5886275e-08
8.8939244e-10
4.6052259e-08
7.8553956e-10
4.6164487e-08
6.6693622e-10
4.6238987e-08
5.3496426e-10
4.628691e-08
3.9164178e-10
4.6315382e-08
2.3831638e-10
7.2263092e-11
-4.8539884e-09
-7.4387136e-10
-5.5061735e-09
-9.7733767e-10
-5.8370618e-09
-1.0701116e-09
-5.7796955e-09
-1.1149953e-09
-5.2729374e-09
-1.1165678e-09
-4.4771004e-09
-1.0848547e-09
-3.4630387e-09
-1.0269571e-09
-2.2852674e-09
-9.4865171e-10
-1.0596334e-09
-8.579316e-10
1.7575946e-10
-7.6173325e-10
1.4318125e-09
-6.630761e-10
2.8724821e-09
-5.6006931e-10
4.3557649e-09
-4.5919859e-10
5.8071568e-09
-3.6534275e-10
7.1913518e-09
-2.8057424e-10
8.4891512e-09
-2.0955162e-10
9.6988604e-09
-1.6573916e-10
1.0803591e-08
-1.2828472e-10
1.1790647e-08
-9.7642995e-11
1.2649898e-08
-7.3690432e-11
1.3372716e-08
-5.5860584e-11
1.3950819e-08
-4.311682e-11
1.4376515e-08
-3.4032886e-11
1.4641137e-08
-2.6284704e-11
-1.6375752e-11
-2.1130633e-09
-1.7778821e-10
-2.8569776e-09
-2.3342508e-10
-3.643537e-09
-2.8355641e-10
-4.4182413e-09
-3.402977e-10
-5.1212859e-09
-4.1353171e-10
-5.6535504e-09
-5.5259983e-10
-6.0681658e-09
-6.1235213e-10
-6.3688522e-09
-6.4797602e-10
-6.5592695e-09
-6.6752498e-10
-6.646963e-09
-6.7405019e-10
-6.6394168e-09
-6.7063249e-10
-6.5406769e-09
-6.5881872e-10
-6.3613881e-09
-6.3849627e-10
-6.1166962e-09
-6.1004273e-10
-5.8225076e-09
-5.7477014e-10
-5.4985925e-09
-5.3347332e-10
-5.1748299e-09
-4.8950753e-10
-4.8606641e-09
-4.4245571e-10
-4.5660155e-09
-3.9229618e-10
-4.3005576e-09
-3.3915227e-10
-4.0732925e-09
-2.8312927e-10
-3.8921214e-09
-2.2429114e-10
-3.7634345e-09
-1.6272281e-10
-3.6910484e-09
-9.8673745e-11
-3.3418279e-11
-5.3888831e-10
4.1950502e-13
-7.4941866e-10
-2.289219e-11
-9.9309643e-10
-3.9876689e-11
-1.2714475e-09
-6.1945405e-11
-1.5993156e-09
-8.5663253e-11
-2.043001e-09
-1.0891518e-10
-2.5210649e-09
-1.3429022e-10
-3.0088476e-09
-1.6019644e-10
-3.4915813e-09
-1.8479541e-10
-3.95916e-09
-2.0647665e-10
-4.4045043e-09
-2.2529403e-10
-4.8215029e-09
-2.4182659e-10
-5.1990065e-09
-2.6099977e-10
-5.5205021e-09
-2.885545e-10
-5.8057063e-09
-2.8957376e-10
-6.0570172e-09
-2.8217036e-10
-6.2783891e-09
-2.6814369e-10
-6.4722022e-09
-2.4865075e-10
-6.6402764e-09
-2.2423016e-10
-6.7840632e-09
-1.9537368e-10
-6.9046399e-09
-1.6256079e-10
-7.002562e-09
-1.2637716e-10
-7.0776408e-09
-8.7652129e-11
-7.1296228e-09
-4.6699781e-11
-1.0425557e-11
-1.1048758e-10
4.8705873e-11
-1.8066979e-10
4.7291359e-11
-2.6680714e-10
4.6261905e-11
-3.7173034e-10
4.2978876e-11
-4.963143e-10
3.892156e-11
-6.3905078e-10
3.3821836e-11
-7.990041e-10
2.5663265e-11
-9.7547058e-10
1.6269808e-11
-1.1656778e-09
5.4111979e-12
-1.3661448e-09
-6.0106952e-12
-1.5744604e-09
-1.6979886e-11
-1.7891822e-09
-2.710671e-11
-2.0157339e-09
-3.4450318e-11
-2.2651652e-09
-3.9125835e-11
-2.512757e-09
-4.1984974e-11
-2.7512867e-09
-4.3644084e-11
-2.9758464e-09
-4.3587669e-11
-3.1823582e-09
-4.2142972e-11
-3.3672839e-09
-3.9308702e-11
-3.5274472e-09
-3.5214772e-11
-3.6599919e-09
-3.0020557e-11
-3.7624516e-09
-2.3922139e-11
-3.8329674e-09
-1.7140856e-11
-3.8697941e-09
-9.8776808e-12
-2.5767291e-12
2.0790094e-11
4.7970515e-11
1.9421624e-11
4.8659655e-11
1.4191858e-11
5.1491424e-11
1.5676229e-12
5.560281e-11
-1.6945929e-11
5.7434769e-11
-4.212422e-11
5.899974e-11
-7.5729579e-11
5.9268188e-11
-1.1683959e-10
5.737934e-11
-1.6519415e-10
5.3765212e-11
-2.2013078e-10
4.8925343e-11
-2.8048023e-10
4.3368897e-11
-3.4528836e-10
3.7700684e-11
-4.1231986e-10
3.2580379e-11
-4.7938826e-10
2.7941667e-11
-5.4639401e-10
2.5019797e-11
-6.1201171e-10
2.1972535e-11
-6.7468217e-10
1.9081636e-11
-7.3315369e-10
1.6327317e-11
-7.8616853e-10
1.3704841e-11
-8.3257164e-10
1.1187002e-11
-8.713733e-10
8.7797525e-12
-9.0172629e-10
6.4294913e-12
-9.2304282e-10
4.1743274e-12
-9.3509271e-10
2.1709308e-12
7.1870854e-13
5.7643194e-11
3.3606731e-11
7.1637093e-11
3.4665506e-11
8.74969e-11
3.5631328e-11
1.0425997e-10
3.8839444e-11
1.203213e-10
4.1373162e-11
1.3562303e-10
4.3697761e-11
1.4936715e-10
4.5523846e-11
1.6048774e-10
4.6258564e-11
1.6845951e-10
4.5793284e-11
1.732539e-10
4.4130829e-11
1.7538936e-10
4.1233331e-11
1.7545322e-10
3.7636743e-11
1.7438757e-10
3.3645962e-11
1.7258255e-10
2.9746637e-11
1.7119509e-10
2.6407227e-11
1.699392e-10
2.3228411e-11
1.6877156e-10
2.0249277e-11
1.6776105e-10
1.7337843e-11
1.6691143e-10
1.4554492e-11
1.6615608e-10
1.1942395e-11
1.6545196e-10
9.4839263e-12
1.6473009e-10
7.1514301e-12
1.6400249e-10
4.9020101e-12
1.6344734e-10
2.7261797e-12
7.8763742e-13
4.408316e-11
2.1793228e-11
5.7012734e-11
2.1735895e-11
7.0367311e-11
2.2276686e-11
8.5970867e-11
2.3235814e-11
1.0299756e-10
2.4346404e-11
1.2136268e-10
2.5332599e-11
1.4030054e-10
2.6585974e-11
1.5895111e-10
2.7608023e-11
1.7660984e-10
2.8134616e-11
1.9285455e-10
2.7886216e-11
2.071812e-10
2.6906806e-11
2.1949677e-10
2.5321325e-11
2.2989533e-10
2.3247586e-11
2.3872246e-10
2.0919713e-11
2.4653333e-10
1.8596579e-11
2.5371586e-10
1.604613e-11
2.5998547e-10
1.3979931e-11
2.65665e-10
1.1658592e-11
2.707293e-10
9.4904735e-12
2.750963e-10
7.5756998e-12
2.7866228e-10
5.9182557e-12
2.8136074e-10
4.4532835e-12
2.8312798e-10
3.1350765e-12
2.8404321e-10
1.8112644e-12
5.9323572e-13
2.076479e-11
1.7306458e-11
2.6115622e-11
1.6385139e-11
3.2615238e-11
1.5777125e-11
4.0294496e-11
1.5556602e-11
4.8982871e-11
1.5658074e-11
5.7872279e-11
1.6443239e-11
6.7003545e-11
1.7454769e-11
7.6856865e-11
1.7754777e-11
8.6769185e-11
1.8222386e-11
9.6214657e-11
1.8440851e-11
1.0466221e-10
1.8459374e-11
1.1182888e-10
1.815479e-11
1.1765453e-10
1.7422076e-11
1.2223858e-10
1.6335819e-11
1.258008e-10
1.503452e-11
1.2834286e-10
1.3504235e-11
1.3022181e-10
1.2101154e-11
1.3157605e-10
1.0304515e-11
1.3249237e-10
8.5743216e-12
1.3312738e-10
6.9408599e-12
1.3359541e-10
5.4503917e-12
1.3392817e-10
4.1206873e-12
1.3426995e-10
2.7934526e-12
1.3455035e-10
1.5310245e-12
3.387905e-13
6.448812e-12
1.6274335e-11
7.080968e-12
1.5753069e-11
7.6515087e-12
1.5206657e-11
8.5491482e-12
1.4659024e-11
9.9642718e-12
1.4243006e-11
1.2002648e-11
1.4404915e-11
1.4431963e-11
1.5025506e-11
1.6809953e-11
1.5376838e-11
1.9400095e-11
1.5632296e-11
2.1995483e-11
1.5845516e-11
2.4392333e-11
1.6062577e-11
2.6299669e-11
1.6247506e-11
2.7575371e-11
1.6146424e-11
2.8194827e-11
1.571641e-11
2.8192782e-11
1.503661e-11
2.7544305e-11
1.4152752e-11
2.6505187e-11
1.3140307e-11
2.4851738e-11
1.1957994e-11
2.3005902e-11
1.0420183e-11
2.1027597e-11
8.9191839e-12
1.9160563e-11
7.3174411e-12
1.7507589e-11
5.7736715e-12
1.6113197e-11
4.1878512e-12
1.4959819e-11
2.6844058e-12
9.6957112e-13
2.1278528e-12
1.5841121e-11
1.2870253e-12
1.6593941e-11
7.1991109e-14
1.6421726e-11
-1.0051552e-12
1.5736196e-11
-2.3711665e-12
1.5609035e-11
-3.2786386e-12
1.5312398e-11
-3.6243388e-12
1.5371212e-11
-3.6064527e-12
1.5358953e-11
-3.7495365e-12
1.5775377e-11
-3.8369682e-12
1.5932942e-11
-3.9464807e-12
1.6172079e-11
-4.1554458e-12
1.6456457e-11
-4.5548232e-12
1.6545784e-11
-5.2283259e-12
1.6389891e-11
-6.1837801e-12
1.5992038e-11
-7.4000341e-12
1.5368975e-11
-8.7705704e-12
1.4510808e-11
-1.0236933e-11
1.3424317e-11
-1.1890967e-11
1.2074173e-11
-1.3522907e-11
1.0551078e-11
-1.5074901e-11
8.8693867e-12
-1.6388846e-11
7.0875653e-12
-1.7418464e-11
5.2174168e-12
-1.7861147e-11
3.1270364e-12
9.3305299e-13
2.648472e-12
1.5362752e-11
2.6410102e-12
1.6601412e-11
2.2880013e-12
1.6774738e-11
1.27081e-12
1.6753383e-11
3.4377624e-13
1.6536058e-11
-4.0608379e-13
1.6062243e-11
-8.4810029e-13
1.5813207e-11
-1.3992778e-12
1.5910106e-11
-1.619039e-12
1.5995111e-11
-1.3411232e-12
1.5654995e-11
-1.379331e-12
1.6210254e-11
-1.4020596e-12
1.647915e-11
-1.3894465e-12
1.6533133e-11
-1.4242943e-12
1.6424699e-11
-1.5706288e-12
1.613833e-11
-1.8076274e-12
1.5605929e-11
-2.117222e-12
1.4820356e-11
-2.4841699e-12
1.3791217e-11
-2.943974e-12
1.2533927e-11
-3.450198e-12
1.1057251e-11
-3.9566105e-12
9.375748e-12
-4.3496294e-12
7.4805329e-12
-4.8681658e-12
5.7359018e-12
-5.1793213e-12
3.4381421e-12
9.6293247e-13
5.0880488e-12
1.4141335e-11
5.9374798e-12
1.5751971e-11
6.3573126e-12
1.6354891e-11
6.7172914e-12
1.6393388e-11
6.9871427e-12
1.6266186e-11
7.1202533e-12
1.5929108e-11
7.3571929e-12
1.5576241e-11
7.870024e-12
1.5397245e-11
8.3727964e-12
1.5492307e-11
8.959619e-12
1.506814e-11
1.0107106e-11
1.5062734e-11
1.1210688e-11
1.5375535e-11
1.2291771e-11
1.5452016e-11
1.3327744e-11
1.5388692e-11
1.434895e-11
1.511709e-11
1.5308437e-11
1.4646408e-11
1.618134e-11
1.3947418e-11
1.6961767e-11
1.3010755e-11
1.7628296e-11
1.1867364e-11
1.8157377e-11
1.0528137e-11
1.8523456e-11
9.0096361e-12
1.8702714e-11
7.3012435e-12
1.9323165e-11
5.11542e-12
1.9553897e-11
3.2073807e-12
1.2664227e-12
6.3395807e-12
1.255274e-11
7.9152842e-12
1.4176248e-11
9.2558773e-12
1.5014278e-11
1.0385902e-11
1.5263342e-11
1.1520523e-11
1.5131541e-11
1.2527483e-11
1.4922123e-11
1.3515011e-11
1.4588686e-11
1.4662609e-11
1.424962e-11
1.5992246e-11
1.4162642e-11
1.7092645e-11
1.3967714e-11
1.8464393e-11
1.3690959e-11
2.0410324e-11
1.3429577e-11
2.2261176e-11
1.3601139e-11
2.4135528e-11
1.3514314e-11
2.5994031e-11
1.3258563e-11
2.7812334e-11
1.2828082e-11
2.9481565e-11
1.2278166e-11
3.0980228e-11
1.1512072e-11
3.2311121e-11
1.0536452e-11
3.3474513e-11
9.3647274e-12
3.4479183e-11
8.0049499e-12
3.5326213e-11
6.4541991e-12
3.5756725e-11
4.6848949e-12
3.607901e-11
2.8850837e-12
1.0638498e-12
6.2441898e-12
1.1014649e-11
8.0276755e-12
1.2392738e-11
9.749707e-12
1.3292223e-11
1.1306277e-11
1.3706749e-11
1.2789511e-11
1.3648283e-11
1.4211067e-11
1.3500542e-11
1.5559527e-11
1.3240202e-11
1.6901664e-11
1.2907457e-11
1.8480516e-11
1.2583765e-11
2.0134967e-11
1.2313238e-11
2.1728216e-11
1.2097686e-11
2.3296793e-11
1.1860977e-11
2.5496805e-11
1.1401105e-11
2.7779343e-11
1.1231757e-11
2.9854905e-11
1.1182982e-11
3.1889567e-11
1.0793403e-11
3.386235e-11
1.0305368e-11
3.5715359e-11
9.6590499e-12
3.7406233e-11
8.8455673e-12
3.8919847e-11
7.8511036e-12
4.020464e-11
6.7201491e-12
4.122462e-11
5.4342144e-12
4.1906633e-11
4.0028761e-12
4.2320088e-11
2.4716267e-12
8.3025763e-13
5.4893139e-12
9.5843163e-12
7.1219244e-12
1.0760099e-11
8.7829621e-12
1.1631159e-11
1.0403109e-11
1.2086575e-11
1.1876529e-11
1.2174838e-11
1.3370383e-11
1.2006663e-11
1.4758328e-11
1.1852232e-11
1.6131048e-11
1.1534712e-11
1.7544424e-11
1.1170364e-11
1.9103286e-11
1.0754354e-11
2.0803768e-11
1.0397181e-11
2.2565343e-11
1.009938e-11
2.419828e-11
9.7681476e-12
2.5979066e-11
9.4509523e-12
2.8131539e-11
9.0304934e-12
3.0260444e-11
8.6644832e-12
3.2194537e-11
8.3712628e-12
3.4056094e-11
7.7974821e-12
3.5779973e-11
7.1216792e-12
3.7287351e-11
6.3437186e-12
3.8573237e-11
5.4342581e-12
3.9608852e-11
4.3985963e-12
4.0385204e-11
3.226521e-12
4.0859916e-11
1.9969152e-12
6.5987141e-13
4.5897928e-12
8.35699e-12
5.9489951e-12
9.4008663e-12
7.429423e-12
1.0150702e-11
8.8895104e-12
1.062646e-11
1.0274027e-11
1.0790294e-11
1.1566727e-11
1.0713937e-11
1.2859183e-11
1.0559749e-11
1.414845e-11
1.0245421e-11
1.5458739e-11
9.8600508e-12
1.6773136e-11
9.4399329e-12
1.8141655e-11
9.0286401e-12
1.9609663e-11
8.6313512e-12
2.1181675e-11
8.1961164e-12
2.2865878e-11
7.7667312e-12
2.445088e-11
7.4454757e-12
2.6073771e-11
7.0415781e-12
2.7807901e-11
6.6371203e-12
2.9549232e-11
6.0561399e-12
3.1146295e-11
5.5246073e-12
3.2528859e-11
4.9611477e-12
3.371721e-11
4.2459026e-12
3.4688054e-11
3.427749e-12
3.5355127e-11
2.5594448e-12
3.581987e-11
1.532173e-12
4.4748307e-13
3.8177092e-12
7.3125828e-12
4.9771865e-12
8.2413576e-12
6.2563031e-12
8.8715558e-12
7.5049708e-12
9.3777639e-12
8.7207072e-12
9.5745307e-12
9.8720467e-12
9.5625709e-12
1.101969e-11
9.4120806e-12
1.2142123e-11
9.1229636e-12
1.3257799e-11
8.744352e-12
1.4386918e-11
8.310791e-12
1.5544814e-11
7.870724e-12
1.6772873e-11
7.4032725e-12
1.8026024e-11
6.9429464e-12
1.9300932e-11
6.4918067e-12
2.0660627e-11
6.085766e-12
2.2040473e-11
5.6617188e-12
2.3499707e-11
5.1778744e-12
2.4803786e-11
4.7520505e-12
2.6052978e-11
4.2754064e-12
2.7245668e-11
3.7684508e-12
2.8292847e-11
3.1987184e-12
2.9162525e-11
2.5580675e-12
2.9940678e-11
1.7812892e-12
3.0312838e-11
1.1600119e-12
4.2363726e-13
3.2582889e-12
6.3845083e-12
4.2912054e-12
7.2084105e-12
5.3346717e-12
7.8280607e-12
6.4510001e-12
8.2614083e-12
7.5305297e-12
8.4949753e-12
8.5730021e-12
8.5200741e-12
9.5777714e-12
8.407288e-12
1.0556884e-11
8.1438289e-12
1.1522735e-11
7.77848e-12
1.2480392e-11
7.3531142e-12
1.3464246e-11
6.8868518e-12
1.4455238e-11
6.4122633e-12
1.5468393e-11
5.9297749e-12
1.650028e-11
5.4599058e-12
1.7581943e-11
5.00409e-12
1.8687518e-11
4.5561317e-12
1.97652e-11
4.100182e-12
2.0849395e-11
3.6678468e-12
2.186701e-11
3.2577845e-12
2.2799298e-11
2.8361564e-12
2.3611028e-11
2.3869838e-12
2.4256847e-11
1.912246e-12
2.4638379e-11
1.3997542e-12
2.4942255e-11
8.5613511e-13
2.5071851e-13
2.844418e-12
5.5666745e-12
3.743123e-12
6.3096772e-12
4.684854e-12
6.8863032e-12
5.6662248e-12
7.2800126e-12
6.6469072e-12
7.5142697e-12
7.58928e-12
7.5776795e-12
8.5081886e-12
7.488359e-12
9.3849597e-12
7.2670388e-12
1.022656e-11
6.9368617e-12
1.1050347e-11
6.5293111e-12
1.1865734e-11
6.0714494e-12
1.2692205e-11
5.5857782e-12
1.3515171e-11
5.1067963e-12
1.4347106e-11
4.6279585e-12
1.5186473e-11
4.164713e-12
1.6039574e-11
3.7030211e-12
1.6921071e-11
3.2186775e-12
1.7760321e-11
2.8285901e-12
1.8534416e-11
2.4836836e-12
1.923701e-11
2.1335576e-12
1.9858665e-11
1.765326e-12
2.0383583e-11
1.387325e-12
2.0831879e-11
9.514559e-13
2.1073227e-11
6.1478707e-13
2.094301e-13
2.5053881e-12
4.8363337e-12
3.3049675e-12
5.5100723e-12
4.1505392e-12
6.0407079e-12
5.017324e-12
6.4132059e-12
5.9078554e-12
6.623718e-12
6.7757168e-12
6.7097994e-12
7.611531e-12
6.6525275e-12
8.4070329e-12
6.471521e-12
9.1639066e-12
6.1799734e-12
9.8862515e-12
5.8069529e-12
1.0579e-11
5.3786893e-12
1.1248611e-11
4.9161561e-12
1.1915342e-11
4.4400553e-12
1.2576032e-11
3.9672594e-12
1.3233477e-11
3.5072605e-12
1.3885327e-11
3.0511654e-12
1.4527308e-11
2.5766903e-12
1.5147566e-11
2.2083278e-12
1.5711965e-11
1.9192809e-12
1.6230078e-11
1.6154413e-12
1.6681459e-11
1.3139423e-12
1.705035e-11
1.0184333e-12
1.727803e-11
7.2377421e-13
1.7454479e-11
4.3833791e-13
1.392721e-13
2.1779535e-12
4.2069767e-12
2.89817e-12
4.7898334e-12
3.6600646e-12
5.2787926e-12
4.4389735e-12
5.6342781e-12
5.2103054e-12
5.8523688e-12
5.9876611e-12
5.9324279e-12
6.7454282e-12
5.894746e-12
7.4715138e-12
5.7454225e-12
8.1454099e-12
5.5060656e-12
8.7752491e-12
5.1771034e-12
9.3666052e-12
4.7873239e-12
9.9238289e-12
4.3589242e-12
1.0454041e-11
3.9098358e-12
1.096359e-11
3.457704e-12
1.1456615e-11
3.0142307e-12
1.1922249e-11
2.5855266e-12
1.2349069e-11
2.1498664e-12
1.2774495e-11
1.7828986e-12
1.3191125e-11
1.5026475e-12
1.356266e-11
1.2439049e-12
1.3881097e-11
9.9550383e-13
1.4137288e-11
7.6224151e-13