/*--------------------------------*- C++ -*----------------------------------*\
| =========                 |                                                 |
| \\      /  F ield         | OpenFOAM: The Open Source CFD Toolbox           |
|  \\    /   O peration     | Version:  4.0                                   |
|   \\  /    A nd           | Web:      www.OpenFOAM.org                      |
|    \\/     M anipulation  |                                                 |
\*---------------------------------------------------------------------------*/
FoamFile
{
    version     2.0;
    format      ascii;
    class       volScalarField;
    location    "0.37";
    object      k;
}
// * * * * * * * * * * * * * * * * * * * * * * * * * * * * * * * * * * * * * //

dimensions      [0 2 -2 0 0 0 0];

internalField   nonuniform List<scalar> 
1740
(
0.0085844094
0.0092304727
0.018161508
0.0092318872
0.0098304618
0.02716289
0.0096230292
0.010424745
0.034321139
0.0098811472
0.010777187
0.041481837
0.010063746
0.011021042
0.047553395
0.010153909
0.011334391
0.052095106
0.010152295
0.011669815
0.056293573
0.010111982
0.012016543
0.059290534
0.010097512
0.012289409
0.062274078
0.01005027
0.012863131
0.064767521
0.010000079
0.013011267
0.065872071
0.0099490183
0.013135924
0.067432285
0.0099057164
0.013382805
0.069360005
0.0098424146
0.014049588
0.070283465
0.0097775573
0.014423726
0.070556924
0.0096859631
0.014372566
0.070874069
0.0095810784
0.01421033
0.071682952
0.0094732418
0.014436565
0.071778747
0.0093711495
0.014514873
0.071651821
0.0092142592
0.014346853
0.072088738
0.0090668551
0.014367846
0.072326071
0.0089338466
0.014483661
0.072605443
0.0088217869
0.014428871
0.072884536
0.0086746833
0.014424941
0.072828757
0.0085518791
0.014632924
0.072853018
0.0084861761
0.014888214
0.07295803
0.0083991202
0.014911454
0.072726009
0.0083849253
0.015197675
0.072249278
0.0084178579
0.015166511
0.071524116
0.0090078149
0.016166277
0.066273522
0.012779303
0.018149766
0.047008927
0.023934556
0.031197218
0.03976224
0.010280115
0.012543022
0.013737288
0.0042659791
0.0046016641
0.0046618839
0.0020680676
0.0021117539
0.0020874782
0.0011350162
0.0011363782
0.001119211
0.00068360228
0.00068126069
0.00067356473
0.00044017077
0.00043885099
0.0004361226
0.00029643584
0.000296014
0.00029545153
0.00020494024
0.00020494311
0.00020518252
0.00014312041
0.00014326319
0.0001436988
9.9585326e-05
9.9738852e-05
0.00010013581
6.8278325e-05
6.8397696e-05
6.868831e-05
4.5760437e-05
4.5838831e-05
4.6024344e-05
2.985471e-05
2.9899748e-05
3.0004965e-05
1.8970897e-05
1.8993616e-05
1.9046532e-05
1.1814845e-05
1.182467e-05
1.1847738e-05
7.3088976e-06
7.3122776e-06
7.3205029e-06
4.5972571e-06
4.5980348e-06
4.6001602e-06
3.039384e-06
3.0394288e-06
3.0397243e-06
2.1873923e-06
2.1874319e-06
2.1876141e-06
1.7494924e-06
1.7497381e-06
1.750325e-06
1.5456231e-06
1.5460727e-06
1.547084e-06
1.4694978e-06
1.4700854e-06
1.471388e-06
1.4608219e-06
1.4614803e-06
1.4629323e-06
1.4866147e-06
1.4872944e-06
1.4887895e-06
1.5294373e-06
1.530107e-06
1.5315781e-06
1.5803501e-06
1.5809925e-06
1.5824021e-06
1.6348864e-06
1.635493e-06
1.6368232e-06
1.6908419e-06
1.6914095e-06
1.6926535e-06
1.7471054e-06
1.7476335e-06
1.7487904e-06
1.8030604e-06
1.8035499e-06
1.8046218e-06
1.8582833e-06
1.8587357e-06
1.8597262e-06
1.9123875e-06
1.9128046e-06
1.9137176e-06
1.9649283e-06
1.965312e-06
1.9661517e-06
2.0153232e-06
2.0156753e-06
2.016446e-06
2.0627581e-06
2.0630807e-06
2.0637865e-06
2.1060614e-06
2.1063564e-06
2.1070017e-06
2.143529e-06
2.1437983e-06
2.1443875e-06
2.172691e-06
2.1729367e-06
2.1734739e-06
2.1900185e-06
2.1902423e-06
2.1907319e-06
2.1905835e-06
2.1907874e-06
2.1912335e-06
2.1677191e-06
2.1679049e-06
2.1683113e-06
2.1127679e-06
2.1129372e-06
2.1133076e-06
2.0150807e-06
2.0152354e-06
2.0155736e-06
1.8624894e-06
1.862632e-06
1.8629425e-06
1.642518e-06
1.6426523e-06
1.642941e-06
1.3445897e-06
1.3447186e-06
1.3449885e-06
9.6399057e-07
9.6410769e-07
9.6434407e-07
5.0905731e-07
5.091351e-07
5.0928754e-07
0.056129033
0.060892458
0.046124111
0.046616583
0.012482406
0.011348313
0.0043546478
0.0041210151
0.0019972267
0.0019381231
0.0010904342
0.0010755344
0.00066470308
0.00066266267
0.00043418035
0.00043584505
0.00029582302
0.00029822478
0.00020615407
0.00020832222
0.00014465233
0.0001463274
0.00010087747
0.00010205558
6.9195242e-05
6.9960653e-05
4.6336964e-05
4.6796131e-05
3.0179465e-05
3.0432362e-05
1.9133987e-05
1.9260403e-05
1.1886273e-05
1.1942531e-05
7.3348051e-06
7.3563604e-06
4.6043135e-06
4.6111171e-06
3.0406326e-06
3.042483e-06
2.1881222e-06
2.1891228e-06
1.7513309e-06
1.752834e-06
1.5486734e-06
1.5508709e-06
1.4733882e-06
1.4760881e-06
1.4651424e-06
1.4680975e-06
1.4910557e-06
1.494072e-06
1.5338026e-06
1.5367557e-06
1.5845307e-06
1.5873515e-06
1.6388298e-06
1.6414859e-06
1.6945285e-06
1.6970084e-06
1.7505333e-06
1.7528368e-06
1.806236e-06
1.8083683e-06
1.8612171e-06
1.8631858e-06
1.9150915e-06
1.9169049e-06
1.9674149e-06
1.9690818e-06
2.017605e-06
2.019134e-06
2.0648479e-06
2.0662476e-06
2.1079719e-06
2.1092511e-06
2.145273e-06
2.1464403e-06
2.1742814e-06
2.1753454e-06
2.1914677e-06
2.192437e-06
2.1919038e-06
2.1927866e-06
2.1689219e-06
2.1697259e-06
2.113864e-06
2.1145964e-06
2.0160809e-06
2.016748e-06
1.8634059e-06
1.8640125e-06
1.6433645e-06
1.6439122e-06
1.3453701e-06
1.3458528e-06
9.6466237e-07
9.6506173e-07
5.0948733e-07
5.097611e-07
5.5064962e-06
2.7002804e-05
0.000134503
0.0003051483
0.00046244574
0.00057343861
0.00064374388
0.00068734118
0.00071600828
0.0007368759
0.00075398352
0.00077035622
0.00078563978
0.00079960031
0.00081192974
0.00082208286
0.00082908568
0.00083128951
0.00082600225
0.00080897837
0.00077371288
0.00071058025
0.00060613489
0.0004432482
0.00020146181
2.5729759e-06
5.4748707e-05
0.00025105614
0.00051594774
0.0007279226
0.00085947669
0.0009354289
0.0009799232
0.0010083911
0.0010288622
0.0010455768
0.0010610742
0.0010752154
0.0010877357
0.0010982416
0.0011061148
0.0011102351
0.001108707
0.0010983619
0.0010741172
0.0010280291
0.00094790951
0.0008155731
0.00060553808
0.00028654516
7.9937096e-06
0.00015989901
0.0006156666
0.001079251
0.0013621866
0.0015049352
0.0015724284
0.0016040338
0.0016197126
0.0016279182
0.0016330282
0.0016359515
0.0016378968
0.0016382089
0.001636394
0.0016319826
0.0016239264
0.0016104483
0.0015881674
0.0015515307
0.0014915758
0.0013936709
0.001233219
0.00096741799
0.00052082589
3.7711382e-05
0.00057926992
0.0016851638
0.0024355842
0.0027719366
0.0028855903
0.0028949141
0.002864773
0.0028248259
0.0027800148
0.0027354283
0.0026929266
0.0026529899
0.0026124197
0.0025706761
0.0025281578
0.0024843668
0.0024378943
0.002386024
0.002324026
0.0022440532
0.0021329028
0.0019663503
0.0016915891
0.0011519594
0.00028209719
0.0024478736
0.0049152976
0.0060353928
0.0063808118
0.0063185719
0.0060891136
0.0058264213
0.0055768374
0.0053259824
0.0050858143
0.0048616685
0.0046583118
0.00446102
0.0042694787
0.0040882634
0.0039182496
0.0037588612
0.003608305
0.0034631249
0.0033177192
0.0031639092
0.0029907563
0.0027899715
0.0025799023
0.0023592412
0.010524963
0.016584217
0.018538107
0.018077905
0.016518147
0.014700228
0.013010306
0.011527645
0.010250498
0.0091583057
0.0082283335
0.0074351338
0.0067549987
0.0061703389
0.0056677426
0.0052357202
0.004863864
0.0045427344
0.0042635123
0.0040173976
0.0037954877
0.0035892578
0.0033980808
0.0032374256
0.044987436
0.03411991
0.026602281
0.021426215
0.017765141
0.015057471
0.012966147
0.011308395
0.0099777128
0.0088979588
0.0080097403
0.0072677866
0.0066386236
0.0060981302
0.0056289446
0.0052188835
0.0048593087
0.0045435743
0.0042660522
0.0040214473
0.0038041912
0.0036083756
0.0034283557
0.0032655545
0.0031351808
0.037279028
0.030995135
0.027795456
0.025163945
0.022285872
0.0193034
0.016579251
0.014277556
0.012394919
0.010853016
0.0095818277
0.0085243968
0.0076373029
0.0068907875
0.0062610676
0.0057285827
0.0052769174
0.0048922976
0.0045629652
0.0042784264
0.004028681
0.0038040233
0.0035953586
0.003401873
0.0032393397
0.010214748
0.0095432018
0.0092040435
0.0088835754
0.0084202416
0.0078545448
0.0072976817
0.0068008391
0.0063497085
0.0059514296
0.0056032023
0.0052986298
0.0050125527
0.0047481128
0.0045066784
0.0042875313
0.0040885758
0.0039069059
0.0037386975
0.0035789845
0.0034211218
0.003256236
0.0030729053
0.0028625618
0.0026435552
0.0039632954
0.0038902525
0.0038673875
0.0038262241
0.0037315048
0.00359639
0.0034567916
0.0033273765
0.0032107072
0.0031088714
0.0030209031
0.002943654
0.0028715477
0.0028040211
0.0027409049
0.002681409
0.0026239032
0.0025658397
0.0025035091
0.0024314902
0.0023415523
0.0022203639
0.0020436636
0.0017578945
0.0012011672
0.0019211544
0.0019343964
0.0019592622
0.0019737542
0.0019670658
0.0019426937
0.0019115231
0.0018804849
0.0018526448
0.0018293154
0.0018102921
0.0017943419
0.0017798203
0.0017660871
0.0017528288
0.0017388791
0.0017224163
0.0017007116
0.0016697722
0.0016237031
0.0015535314
0.0014449658
0.0012739383
0.00099778451
0.00053973049
0.0010799277
0.0010981697
0.0011215353
0.0011412792
0.0011528529
0.0011570037
0.001157327
0.0011567967
0.0011571422
0.0011591193
0.0011627061
0.0011673577
0.0011723243
0.0011769667
0.0011805864
0.0011820359
0.0011795635
0.0011706131
0.0011515324
0.0011171063
0.0010598095
0.00096863388
0.00082740229
0.00061302394
0.00029559468
0.00066976159
0.00068375777
0.00070063796
0.00071657912
0.0007294528
0.00073920875
0.00074706251
0.00075430592
0.00076183883
0.00077010208
0.00077912551
0.00078864017
0.00079820413
0.0008072793
0.00081514204
0.00082071948
0.00082247057
0.0008182383
0.00080506771
0.00077897121
0.00073464561
0.00066519129
0.00056197442
0.00041457678
0.00020680231
0.0004420949
0.00045198649
0.00046367953
0.00047538614
0.00048602131
0.00049537982
0.00050385771
0.00051200731
0.00052027258
0.00052889105
0.00053788441
0.00054709035
0.00055620365
0.00056478563
0.00057221372
0.00057759746
0.00057969655
0.00057683595
0.00056682736
0.00054692138
0.00051386395
0.00046425838
0.00039579299
0.0003109304
0.00022228168
0.00030306554
0.00030992956
0.00031795284
0.0003262633
0.00033427485
0.00034179783
0.00034893877
0.00035592553
0.00036296447
0.00037017124
0.0003775467
0.00038497627
0.00039223413
0.00039897458
0.0004046996
0.00040871158
0.00041006511
0.00040752908
0.00039957586
0.00038443483
0.00036029128
0.00032581376
0.00028142194
0.00023215762
0.00019302339
0.00021185744
0.00021656221
0.00022201696
0.00022777809
0.00023352108
0.0002391016
0.00024452572
0.00024987725
0.00025524479
0.00026067659
0.00026615792
0.00027160025
0.0002768345
0.00028159828
0.00028551419
0.00028806204
0.00028855413
0.00028612423
0.00027974633
0.00026831146
0.00025081195
0.00022671878
0.0001967058
0.00016394227
0.00013254174
0.00014879353
0.00015195314
0.00015559303
0.00015947966
0.00016342763
0.0001673354
0.00017117851
0.00017497858
0.000178767
0.00018255751
0.00018632818
0.00019001073
0.00019348149
0.00019655014
0.00019894509
0.00020029764
0.00020013026
0.0001978563
0.00019280181
0.00018426133
0.00017159725
0.00015436795
0.00013236797
0.00010504232
6.7304032e-05
0.00010369667
0.00010575008
0.00010810421
0.00011063108
0.00011322269
0.00011580992
0.00011836339
0.00012087981
0.00012336469
0.00012581564
0.00012821076
0.00013049963
0.00013259577
0.00013436839
0.00013563313
0.00013614294
0.00013558235
0.00013356934
0.00012966916
0.0001234214
0.0001143711
0.00010206522
8.5898579e-05
6.4510335e-05
3.4272859e-05
7.0994388e-05
7.2268424e-05
7.37231e-05
7.5286828e-05
7.6895465e-05
7.8503005e-05
8.0083659e-05
8.1626516e-05
8.3126838e-05
8.4576723e-05
8.5957856e-05
8.723525e-05
8.8352104e-05
8.9224299e-05
8.9734611e-05
8.9727571e-05
8.9006262e-05
8.7333003e-05
8.4434833e-05
8.0011415e-05
7.3735582e-05
6.5223956e-05
5.393771e-05
3.8975959e-05
1.8986792e-05
4.7405996e-05
4.8150487e-05
4.8997016e-05
4.9905159e-05
5.0837068e-05
5.1762775e-05
5.2662503e-05
5.3524839e-05
5.4342533e-05
5.5107429e-05
5.5806007e-05
5.6415874e-05
5.6902265e-05
5.7214852e-05
5.7284317e-05
5.7019389e-05
5.6304635e-05
5.4999748e-05
5.2939971e-05
4.9935549e-05
4.5765532e-05
4.0160544e-05
3.2778076e-05
2.3214728e-05
1.1223825e-05
3.0765239e-05
3.1169312e-05
3.1626676e-05
3.21147e-05
3.261094e-05
3.3096936e-05
3.3558882e-05
3.3987587e-05
3.4376472e-05
3.4719109e-05
3.5006754e-05
3.5226083e-05
3.5357416e-05
3.5372895e-05
3.5234516e-05
3.4892274e-05
3.4282597e-05
3.332688e-05
3.1929962e-05
2.9977517e-05
2.7331569e-05
2.3826703e-05
1.9280911e-05
1.3564496e-05
6.8138987e-06
1.9426343e-05
1.962719e-05
1.9853275e-05
2.009213e-05
2.0330914e-05
2.0558423e-05
2.076596e-05
2.0947132e-05
2.1097137e-05
2.1211616e-05
2.1285377e-05
2.1311201e-05
2.1278797e-05
2.1173786e-05
2.0976684e-05
2.0661715e-05
2.0195565e-05
1.9535929e-05
1.8629749e-05
1.7411011e-05
1.5798941e-05
1.3700422e-05
1.1027047e-05
7.7487874e-06
3.9928854e-06
1.2016788e-05
1.2106674e-05
1.2207149e-05
1.2311533e-05
1.2412747e-05
1.2504318e-05
1.2581003e-05
1.2638847e-05
1.2674791e-05
1.2686182e-05
1.2670182e-05
1.2623126e-05
1.2539956e-05
1.2413668e-05
1.2234728e-05
1.199026e-05
1.1663138e-05
1.1230871e-05
1.0664218e-05
9.9258099e-06
8.9699006e-06
7.7459104e-06
6.2109598e-06
4.3588656e-06
2.2598532e-06
7.385374e-06
7.4206805e-06
7.4597772e-06
7.4991864e-06
7.5351484e-06
7.5641247e-06
7.5831423e-06
7.5899021e-06
7.5826392e-06
7.559886e-06
7.5201494e-06
7.4616391e-06
7.3819291e-06
7.2776318e-06
7.1439645e-06
6.9743302e-06
6.7595259e-06
6.4871398e-06
6.1406243e-06
5.6984315e-06
5.1343661e-06
4.4204821e-06
3.5346338e-06
2.475009e-06
1.2830713e-06
4.6207221e-06
4.6325928e-06
4.6455182e-06
4.657751e-06
4.6673671e-06
4.6725067e-06
4.6715691e-06
4.6632891e-06
4.6466872e-06
4.6209692e-06
4.5853615e-06
4.5389442e-06
4.4804668e-06
4.4081346e-06
4.3192878e-06
4.2101339e-06
4.0752776e-06
3.9070588e-06
3.6949628e-06
3.4256985e-06
3.0833006e-06
2.6512073e-06
2.1167236e-06
1.4789804e-06
7.6281694e-07
3.0453791e-06
3.0490849e-06
3.0530225e-06
3.0563451e-06
3.0580784e-06
3.0572657e-06
3.0530619e-06
3.0447778e-06
3.0318629e-06
3.0138559e-06
2.990296e-06
2.9606178e-06
2.9240248e-06
2.8793241e-06
2.8247195e-06
2.7575483e-06
2.6740103e-06
2.5686424e-06
2.4339846e-06
2.260549e-06
2.0373945e-06
1.7534572e-06
1.4004374e-06
9.7768823e-07
5.0107202e-07
2.1906795e-06
2.192688e-06
2.1948715e-06
2.1968147e-06
2.1980261e-06
2.1980035e-06
2.1962896e-06
2.1924905e-06
2.1862662e-06
2.1773006e-06
2.1652457e-06
2.1496437e-06
2.1298292e-06
2.1047945e-06
2.0730181e-06
2.0322387e-06
1.9792118e-06
1.9094146e-06
1.8168164e-06
1.6937165e-06
1.5314469e-06
1.3214736e-06
1.0576013e-06
7.3970814e-07
3.8167792e-07
1.7548641e-06
1.7573677e-06
1.7602025e-06
1.7631516e-06
1.7659513e-06
1.7683222e-06
1.7699925e-06
1.7707084e-06
1.770224e-06
1.7682786e-06
1.7645519e-06
1.7586019e-06
1.7497767e-06
1.7370941e-06
1.7190834e-06
1.6935868e-06
1.6575306e-06
1.6067036e-06
1.535586e-06
1.4373155e-06
1.3041705e-06
1.1287142e-06
9.0577632e-07
6.3585917e-07
3.3119567e-07
1.5536805e-06
1.5570641e-06
1.5609348e-06
1.5651627e-06
1.5695873e-06
1.5740312e-06
1.578309e-06
1.5822296e-06
1.5855864e-06
1.5881352e-06
1.589556e-06
1.5893945e-06
1.5869784e-06
1.5813007e-06
1.5708672e-06
1.5535066e-06
1.5261549e-06
1.4846562e-06
1.4236218e-06
1.3364695e-06
1.2158203e-06
1.0546519e-06
8.4824667e-07
5.9750178e-07
3.1378629e-07
1.4794754e-06
1.4835131e-06
1.4881355e-06
1.4932493e-06
1.4987392e-06
1.5044732e-06
1.510305e-06
1.516072e-06
1.5215836e-06
1.5265999e-06
1.5307942e-06
1.5336965e-06
1.5346088e-06
1.5324898e-06
1.5258012e-06
1.5123205e-06
1.4889308e-06
1.4514255e-06
1.3943845e-06
1.3112373e-06
1.1946589e-06
1.0377097e-06
8.3578043e-07
5.8974451e-07
3.1125343e-07
1.471775e-06
1.4761358e-06
1.4811215e-06
1.4866544e-06
1.4926391e-06
1.4989645e-06
1.5055032e-06
1.512106e-06
1.5185906e-06
1.5247181e-06
1.5301566e-06
1.5344224e-06
1.5367956e-06
1.5362017e-06
1.5310565e-06
1.5190759e-06
1.4970664e-06
1.4607283e-06
1.4045383e-06
1.3218209e-06
1.2051634e-06
1.0475486e-06
8.4430781e-07
5.9611789e-07
3.1489332e-07
1.4978097e-06
1.5022282e-06
1.5072717e-06
1.5128698e-06
1.5189371e-06
1.5253736e-06
1.5320623e-06
1.5388624e-06
1.5455968e-06
1.552028e-06
1.5578203e-06
1.5624804e-06
1.5652698e-06
1.5650844e-06
1.5602955e-06
1.5485559e-06
1.5265868e-06
1.4899787e-06
1.4330727e-06
1.3490395e-06
1.2303114e-06
1.0697217e-06
8.6248362e-07
6.0917515e-07
3.2164148e-07
1.5404058e-06
1.5447116e-06
1.5496193e-06
1.5550628e-06
1.5609633e-06
1.5672279e-06
1.5737469e-06
1.5803859e-06
1.586972e-06
1.59327e-06
1.5989418e-06
1.603486e-06
1.6061487e-06
1.6057981e-06
1.600763e-06
1.588633e-06
1.5660411e-06
1.5284602e-06
1.4700831e-06
1.383907e-06
1.2621829e-06
1.0975684e-06
8.8512286e-07
6.2522566e-07
3.2924139e-07
1.5908325e-06
1.5949323e-06
1.5995995e-06
1.6047717e-06
1.6103749e-06
1.6163223e-06
1.6225099e-06
1.6288089e-06
1.6350506e-06
1.6410017e-06
1.6463227e-06
1.6505053e-06
1.6527807e-06
1.6519912e-06
1.6464235e-06
1.6336046e-06
1.6100779e-06
1.5711953e-06
1.5109967e-06
1.4222987e-06
1.2971648e-06
1.1280777e-06
9.0994905e-07
6.4299917e-07
3.3854917e-07
1.6447596e-06
1.6486108e-06
1.6529906e-06
1.65784e-06
1.6630897e-06
1.6686577e-06
1.6744455e-06
1.6803291e-06
1.6861438e-06
1.6916578e-06
1.6965304e-06
1.7002467e-06
1.7020234e-06
1.7006771e-06
1.6944529e-06
1.680815e-06
1.6562166e-06
1.6158881e-06
1.5537137e-06
1.4623268e-06
1.3336024e-06
1.1598601e-06
9.3590934e-07
6.6189501e-07
3.4903422e-07
1.7000622e-06
1.7036516e-06
1.7077301e-06
1.7122423e-06
1.7171229e-06
1.7222949e-06
1.7276642e-06
1.7331114e-06
1.7384751e-06
1.7435251e-06
1.7479189e-06
1.7511349e-06
1.7523752e-06
1.750431e-06
1.7435056e-06
1.7290005e-06
1.703279e-06
1.661449e-06
1.5972386e-06
1.5030956e-06
1.370701e-06
1.1922109e-06
9.623712e-07
6.8141683e-07
3.6064213e-07
1.7556714e-06
1.7590007e-06
1.762781e-06
1.7669602e-06
1.771477e-06
1.7762584e-06
1.7812149e-06
1.7862308e-06
1.7911478e-06
1.7957366e-06
1.7996528e-06
1.8023676e-06
1.8030687e-06
1.8005211e-06
1.7928869e-06
1.7775049e-06
1.7506487e-06
1.7073046e-06
1.6410443e-06
1.5441283e-06
1.4080364e-06
1.2247477e-06
9.8895038e-07
7.0105464e-07
3.7237403e-07
1.8109908e-06
1.8140691e-06
1.8175622e-06
1.8214211e-06
1.8255882e-06
1.8299945e-06
1.8345543e-06
1.8391554e-06
1.8436418e-06
1.8477853e-06
1.8512387e-06
1.8534659e-06
1.8536397e-06
1.8504993e-06
1.8421653e-06
1.825914e-06
1.7979304e-06
1.7530801e-06
1.6847795e-06
1.5851016e-06
1.4453189e-06
1.2572123e-06
1.0153546e-06
7.2023561e-07
3.833034e-07
1.8656058e-06
1.8684451e-06
1.8716649e-06
1.8752195e-06
1.8790546e-06
1.8831048e-06
1.8872879e-06
1.8914947e-06
1.8955715e-06
1.8992901e-06
1.9023006e-06
1.9040595e-06
1.9037242e-06
1.900008e-06
1.8909901e-06
1.8738854e-06
1.8447906e-06
1.7984523e-06
1.7281335e-06
1.6257209e-06
1.4822792e-06
1.289378e-06
1.0414136e-06
7.3879646e-07
3.9318986e-07
1.9191332e-06
1.9217461e-06
1.9247077e-06
1.9279748e-06
1.9314964e-06
1.9352104e-06
1.9390377e-06
1.9428719e-06
1.9465609e-06
1.9498765e-06
1.9524659e-06
1.9537773e-06
1.9529532e-06
1.9486807e-06
1.9389984e-06
1.9210596e-06
1.8908748e-06
1.8430726e-06
1.7707655e-06
1.6656576e-06
1.5186119e-06
1.3209968e-06
1.0670413e-06
7.5706833e-07
4.0291817e-07
1.9711291e-06
1.9735288e-06
1.9762471e-06
1.9792436e-06
1.9824702e-06
1.9858677e-06
1.9893599e-06
1.9928429e-06
1.996166e-06
1.9991007e-06
2.0012906e-06
2.002176e-06
2.0008839e-06
1.9960759e-06
1.9857498e-06
1.966999e-06
1.9357485e-06
1.8865122e-06
1.8122547e-06
1.7045039e-06
1.5539305e-06
1.3517161e-06
1.0919347e-06
7.7481713e-07
4.1236201e-07
2.0210112e-06
2.0232106e-06
2.0257003e-06
2.0284428e-06
2.0313924e-06
2.0344928e-06
2.0376704e-06
2.0408234e-06
2.0438021e-06
2.0463774e-06
2.0481894e-06
2.0486701e-06
2.0469311e-06
2.0416087e-06
2.0306609e-06
2.0111223e-06
1.9788349e-06
1.9282009e-06
1.8520429e-06
1.7417204e-06
1.5877226e-06
1.3810533e-06
1.1156147e-06
7.9148979e-07
4.2091778e-07
2.0679656e-06
2.0699773e-06
2.0722532e-06
2.074758e-06
2.0774485e-06
2.0802709e-06
2.083154e-06
2.0859976e-06
2.0886532e-06
2.0908905e-06
2.0923459e-06
2.0924431e-06
2.0902787e-06
2.0844637e-06
2.0729177e-06
2.0526185e-06
2.0193288e-06
1.9673445e-06
1.8893544e-06
1.7765614e-06
1.6192896e-06
1.4083824e-06
1.1375709e-06
8.0673039e-07
4.2832791e-07
2.1108205e-06
2.1126573e-06
2.114734e-06
2.1170173e-06
2.1194665e-06
2.1220298e-06
2.1246382e-06
2.1271932e-06
2.1295467e-06
2.1314673e-06
2.1325875e-06
2.1323225e-06
2.1297543e-06
2.1234697e-06
2.1113514e-06
2.090324e-06
2.0560758e-06
2.0028053e-06
1.9230799e-06
1.807964e-06
1.6476409e-06
1.432827e-06
1.157136e-06
8.2030323e-07
4.3311571e-07
2.1478719e-06
2.1495466e-06
2.1514386e-06
2.1535166e-06
2.155742e-06
2.1580652e-06
2.1604188e-06
2.1627058e-06
2.1647782e-06
2.1664034e-06
2.1672097e-06
2.1666044e-06
2.163655e-06
2.1569259e-06
2.1442656e-06
2.1225502e-06
2.0874023e-06
2.0329357e-06
1.9516161e-06
1.8343955e-06
1.6713514e-06
1.4531227e-06
1.1732989e-06
8.3166479e-07
4.3914632e-07
2.1766499e-06
2.1781751e-06
2.1798969e-06
2.1817857e-06
2.1838049e-06
2.1859066e-06
2.1880252e-06
2.1900645e-06
2.1918768e-06
2.193228e-06
2.1937424e-06
2.1928195e-06
2.1895137e-06
2.182369e-06
2.1692045e-06
2.1468552e-06
2.1108908e-06
2.0553599e-06
1.9726551e-06
1.853656e-06
1.6883853e-06
1.4674694e-06
1.1845577e-06
8.3958977e-07
4.4365667e-07
2.1936249e-06
2.1950131e-06
2.1965787e-06
2.1982941e-06
2.2001241e-06
2.2020227e-06
2.2039254e-06
2.2057371e-06
2.2073102e-06
2.208409e-06
2.2086541e-06
2.2074382e-06
2.2038047e-06
2.196281e-06
2.1826634e-06
2.159758e-06
2.1231e-06
2.0667023e-06
1.9829261e-06
1.8626358e-06
1.6958719e-06
1.4733351e-06
1.1888277e-06
8.4247899e-07
4.4535472e-07
2.1938681e-06
2.1951311e-06
2.1965542e-06
2.198111e-06
2.199768e-06
2.2014805e-06
2.2031855e-06
2.2047888e-06
2.2061428e-06
2.2070108e-06
2.2070106e-06
2.20553e-06
2.2016046e-06
2.1937517e-06
2.1797558e-06
2.1564115e-06
2.1192478e-06
2.0622833e-06
1.9779086e-06
1.8570526e-06
1.6898724e-06
1.4672515e-06
1.1832469e-06
8.3823734e-07
4.4319044e-07
2.1707105e-06
2.1718594e-06
2.1731522e-06
2.1745638e-06
2.1760621e-06
2.1776038e-06
2.1791272e-06
2.1805393e-06
2.1816932e-06
2.1823522e-06
2.1821332e-06
2.1804223e-06
2.1762536e-06
2.1681443e-06
2.1538837e-06
2.1302818e-06
2.0929019e-06
2.0358285e-06
1.9515649e-06
1.8312153e-06
1.6651863e-06
1.444684e-06
1.1641377e-06
8.2424143e-07
4.3580426e-07
2.1154926e-06
2.116537e-06
2.11771e-06
2.1189875e-06
2.1203386e-06
2.1217214e-06
2.123076e-06
2.1243112e-06
2.1252822e-06
2.1257542e-06
2.1253468e-06
2.1234505e-06
2.1191077e-06
2.1108516e-06
2.096502e-06
2.0729232e-06
2.0357712e-06
1.9792796e-06
1.8961785e-06
1.7778948e-06
1.6152602e-06
1.3999861e-06
1.1270241e-06
7.9745576e-07
4.2178168e-07
2.0175629e-06
2.0185104e-06
2.0195713e-06
2.0207223e-06
2.0219336e-06
2.0231652e-06
2.0243593e-06
2.0254281e-06
2.026231e-06
2.0265387e-06
2.0259795e-06
2.0239587e-06
2.0195426e-06
2.0113049e-06
1.9971341e-06
1.9740052e-06
1.9377472e-06
1.8828558e-06
1.8024381e-06
1.6884328e-06
1.5323137e-06
1.3265085e-06
1.0666176e-06
7.5404149e-07
3.9879738e-07
1.8647509e-06
1.865606e-06
1.8665584e-06
1.8675856e-06
1.8686599e-06
1.8697437e-06
1.870781e-06
1.8716905e-06
1.8723392e-06
1.8725067e-06
1.8718402e-06
1.869778e-06
1.8654342e-06
1.8574578e-06
1.8438616e-06
1.8218094e-06
1.7874103e-06
1.7355686e-06
1.6599592e-06
1.5532623e-06
1.4078447e-06
1.2170859e-06
9.7737602e-07
6.9040625e-07
3.6553237e-07
1.6445748e-06
1.6453395e-06
1.6461814e-06
1.6470818e-06
1.6480201e-06
1.6489599e-06
1.6498442e-06
1.6506026e-06
1.651115e-06
1.6511696e-06
1.6504486e-06
1.6484565e-06
1.6443895e-06
1.6370136e-06
1.6245489e-06
1.6044516e-06
1.5732416e-06
1.5264143e-06
1.4584412e-06
1.3630102e-06
1.2336451e-06
1.0649063e-06
8.5410325e-07
6.0317424e-07
3.2043129e-07
1.3464393e-06
1.3471324e-06
1.3478608e-06
1.3486301e-06
1.3494543e-06
1.3502704e-06
1.351016e-06
1.3516439e-06
1.3520537e-06
1.3520299e-06
1.3513142e-06
1.3495378e-06
1.3460185e-06
1.3396779e-06
1.3290768e-06
1.3121031e-06
1.2858014e-06
1.246475e-06
1.1896519e-06
1.110336e-06
1.0034443e-06
8.6487406e-07
6.9286338e-07
4.8933607e-07
2.6070275e-07
9.6559617e-07
9.6633566e-07
9.6697099e-07
9.6763196e-07
9.6852273e-07
9.6927255e-07
9.699032e-07
9.7043e-07
9.7078524e-07
9.7073012e-07
9.7009694e-07
9.6871501e-07
9.6605873e-07
9.6123826e-07
9.5338427e-07
9.4103808e-07
9.2167372e-07
8.9268256e-07
8.5093265e-07
7.9312317e-07
7.1571892e-07
6.1597997e-07
4.9296639e-07
3.4869577e-07
1.8759032e-07
5.1026533e-07
5.1120719e-07
5.1176756e-07
5.1240754e-07
5.1399261e-07
5.1472164e-07
5.1518451e-07
5.1556256e-07
5.1584012e-07
5.1580398e-07
5.1538684e-07
5.1459561e-07
5.1310206e-07
5.1032452e-07
5.061633e-07
5.0015081e-07
4.8975495e-07
4.7384676e-07
4.5096488e-07
4.1975655e-07
3.783058e-07
3.2512964e-07
2.5981037e-07
1.8475837e-07
1.0236599e-07
)
;

boundaryField
{
    Walls
    {
        type            kqRWallFunction;
        value           nonuniform List<scalar> 
38
(
5.5064962e-06
2.5729759e-06
7.9937096e-06
3.7711382e-05
0.00028209719
0.0023592412
0.056129033
0.060892458
0.018161508
0.02716289
0.034321139
0.041481837
0.047553395
0.052095106
0.056293573
0.059290534
0.062274078
0.064767521
0.065872071
0.067432285
0.069360005
0.070283465
0.070556924
0.070874069
0.071682952
0.071778747
0.071651821
0.072088738
0.072326071
0.072605443
0.072884536
0.072828757
0.072853018
0.07295803
0.072726009
0.072249278
0.071524116
0.066273522
)
;
    }
    Inlet
    {
        type            turbulentIntensityKineticEnergyInlet;
        intensity       0.05;
        value           nonuniform List<scalar> 3(0.0081732219 0.0094347241 0.0088466299);
    }
    Outlet
    {
        type            inletOutlet;
        inletValue      uniform 0;
        value           nonuniform List<scalar> 
86
(
0
0
0
0
0
0
0
0
0
0
0
0
0
0
0
0
0
0
0
0
0
0
0
0
0
0
0
0
0
0
0.0031351808
0.0032393397
0.0026435552
0
0
0
0
0
0.00019302339
0.00013254174
0
0
0
0
6.8138987e-06
3.9928854e-06
2.2598532e-06
1.2830713e-06
7.6281694e-07
5.0107202e-07
3.8167792e-07
3.3119567e-07
3.1378629e-07
3.1125343e-07
3.1489332e-07
3.2164148e-07
3.2924139e-07
3.3854917e-07
3.4903422e-07
3.6064213e-07
3.7237403e-07
3.833034e-07
3.9318986e-07
4.0291817e-07
4.1236201e-07
4.2091778e-07
4.2832791e-07
0
0
0
0
0
0
0
0
0
0
0
0
0
0
0
0
0
0.0025799023
0.0032374256
)
;
    }
    Front
    {
        type            wedge;
    }
    Back
    {
        type            wedge;
    }
    defaultFaces
    {
        type            empty;
    }
}


// ************************************************************************* //
