/*--------------------------------*- C++ -*----------------------------------*\
| =========                 |                                                 |
| \\      /  F ield         | OpenFOAM: The Open Source CFD Toolbox           |
|  \\    /   O peration     | Version:  4.0                                   |
|   \\  /    A nd           | Web:      www.OpenFOAM.org                      |
|    \\/     M anipulation  |                                                 |
\*---------------------------------------------------------------------------*/
FoamFile
{
    version     2.0;
    format      ascii;
    class       volScalarField;
    location    "0.37";
    object      nut;
}
// * * * * * * * * * * * * * * * * * * * * * * * * * * * * * * * * * * * * * //

dimensions      [0 2 -1 0 0 0 0];

internalField   nonuniform List<scalar> 
1740
(
1.2946515e-05
1.457719e-05
1.2173319e-06
1.1634337e-05
7.4825817e-06
1.8074236e-06
2.4433441e-05
5.5940369e-06
2.2707188e-06
2.5363533e-05
4.834825e-06
2.7290212e-06
1.4000635e-05
4.3703341e-06
3.1135991e-06
1.2382661e-05
4.0459056e-06
3.398629e-06
1.1554046e-05
3.8372432e-06
3.6606264e-06
1.192868e-05
3.6983372e-06
3.8466287e-06
1.0457833e-05
3.6093826e-06
4.0312761e-06
9.5491334e-06
3.5742966e-06
4.1844875e-06
8.7203341e-06
3.5392589e-06
4.2519816e-06
7.996666e-06
3.5169483e-06
4.3467858e-06
7.4111427e-06
3.5102686e-06
4.4652935e-06
6.9427005e-06
3.5443206e-06
4.5220807e-06
6.5389701e-06
3.5612774e-06
4.5381724e-06
6.188518e-06
3.5516264e-06
4.5569795e-06
5.9018001e-06
3.5348532e-06
4.6068262e-06
5.6288993e-06
3.5447884e-06
4.6132857e-06
5.3901018e-06
3.5436292e-06
4.6046742e-06
5.2162845e-06
3.5275506e-06
4.6308873e-06
5.0519231e-06
3.5274881e-06
4.6456851e-06
4.9018587e-06
3.5341755e-06
4.6629691e-06
4.7590393e-06
3.5245398e-06
4.6797693e-06
4.6321199e-06
3.5195195e-06
4.6764062e-06
4.5164959e-06
3.5342598e-06
4.6775565e-06
4.4079297e-06
3.552197e-06
4.6845366e-06
4.3028739e-06
3.5555968e-06
4.6706281e-06
4.2105216e-06
3.5787595e-06
4.6418317e-06
4.1561519e-06
3.5851999e-06
4.5976593e-06
3.0211517e-06
3.401503e-06
4.2766649e-06
1.9396928e-06
2.159636e-06
4.3977934e-06
7.1772582e-06
7.3681182e-06
6.7223042e-06
6.5369524e-06
6.7423081e-06
6.3745757e-06
5.1758119e-06
5.1156294e-06
4.8685304e-06
4.328659e-06
4.2576865e-06
4.1240057e-06
3.7798305e-06
3.7376919e-06
3.6786965e-06
3.3956976e-06
3.3784382e-06
3.363225e-06
3.0928102e-06
3.0904153e-06
3.0979034e-06
2.8148587e-06
2.8196469e-06
2.8367966e-06
2.5243181e-06
2.5315689e-06
2.5508439e-06
2.201025e-06
2.2081834e-06
2.2255921e-06
1.843168e-06
1.8490546e-06
1.8628512e-06
1.4669675e-06
1.4712309e-06
1.4810549e-06
1.1018345e-06
1.1045878e-06
1.1108854e-06
7.7969765e-07
7.8127578e-07
7.8488286e-07
5.2255363e-07
5.233463e-07
5.2517054e-07
3.3589765e-07
3.3623549e-07
3.3703161e-07
2.1134823e-07
2.114634e-07
2.1175357e-07
1.3433644e-07
1.3437106e-07
1.3446237e-07
8.9532226e-08
8.9540435e-08
8.9565483e-08
6.4876814e-08
6.4881871e-08
6.4896841e-08
5.22168e-08
5.2226187e-08
5.2249542e-08
4.6413937e-08
4.6428207e-08
4.6462109e-08
4.4390891e-08
4.4408492e-08
4.444984e-08
4.4377876e-08
4.4397193e-08
4.4442331e-08
4.5391784e-08
4.5411662e-08
4.545782e-08
4.690467e-08
4.6924376e-08
4.6969778e-08
4.8643219e-08
4.8662308e-08
4.870593e-08
5.0471429e-08
5.0489646e-08
5.0530959e-08
5.2324129e-08
5.2341341e-08
5.2380118e-08
5.4170729e-08
5.4186878e-08
5.4223062e-08
5.5996323e-08
5.6011398e-08
5.6045026e-08
5.7792336e-08
5.7806351e-08
5.7837506e-08
5.9552163e-08
5.956515e-08
5.9593936e-08
6.1269297e-08
6.1281295e-08
6.130783e-08
6.2936637e-08
6.2947693e-08
6.2972101e-08
6.4546358e-08
6.4556524e-08
6.4578934e-08
6.6090037e-08
6.6099368e-08
6.6119916e-08
6.7558917e-08
6.7567476e-08
6.7586303e-08
6.8944249e-08
6.89521e-08
6.8969356e-08
7.0237623e-08
7.0244835e-08
7.0260675e-08
7.1431227e-08
7.143787e-08
7.1452456e-08
7.2517903e-08
7.2524052e-08
7.2537547e-08
7.3490882e-08
7.3496614e-08
7.3509186e-08
7.4343017e-08
7.4348417e-08
7.4360236e-08
7.5058554e-08
7.5063681e-08
7.5074895e-08
7.5618903e-08
7.5623822e-08
7.5634572e-08
7.5991791e-08
7.5996563e-08
7.600698e-08
7.6112024e-08
7.6116698e-08
7.6126884e-08
7.5797613e-08
7.5802188e-08
7.5812169e-08
4.1640159e-06
4.4987896e-06
6.7529861e-06
8.4558974e-06
5.9911703e-06
6.0325974e-06
4.7234415e-06
4.8274418e-06
4.0775327e-06
4.1861382e-06
3.6814812e-06
3.782175e-06
3.3909035e-06
3.4815779e-06
3.1360688e-06
3.2158688e-06
2.8765784e-06
2.9447773e-06
2.5870309e-06
2.6431324e-06
2.2555312e-06
2.2995417e-06
1.885628e-06
1.9181998e-06
1.4969616e-06
1.5194094e-06
1.121e-06
1.1352028e-06
7.9067651e-07
7.9882307e-07
5.2812506e-07
5.3231343e-07
3.3835101e-07
3.4025722e-07
2.1225995e-07
2.1301883e-07
1.3463262e-07
1.3490239e-07
8.9619471e-08
8.9713929e-08
6.4928419e-08
6.4983013e-08
5.2290542e-08
5.2352798e-08
4.6517686e-08
4.6596992e-08
4.4516121e-08
4.4608463e-08
4.4513971e-08
4.4612663e-08
4.5530553e-08
4.563003e-08
4.7040836e-08
4.7137456e-08
4.8773761e-08
4.886552e-08
5.0594822e-08
5.0680827e-08
5.2439756e-08
5.2519767e-08
5.4278481e-08
5.4352594e-08
5.6096354e-08
5.616482e-08
5.7884929e-08
5.7948053e-08
5.9637659e-08
5.9695759e-08
6.1348062e-08
6.140145e-08
6.3009054e-08
6.3058035e-08
6.4612821e-08
6.4657699e-08
6.6150957e-08
6.6192032e-08
6.7614723e-08
6.7652302e-08
6.8995386e-08
6.9029785e-08
7.0284555e-08
7.0316097e-08
7.1474434e-08
7.1503448e-08
7.2557873e-08
7.2584693e-08
7.3528109e-08
7.3553066e-08
7.4378005e-08
7.4401419e-08
7.5091738e-08
7.5113915e-08
7.5650702e-08
7.5671924e-08
7.6022587e-08
7.6043101e-08
7.6142119e-08
7.6162133e-08
7.5827089e-08
7.5846753e-08
4.5666017e-10
1.3215042e-08
1.9312705e-07
8.2682902e-07
1.6441481e-06
2.2308044e-06
2.5757549e-06
2.784033e-06
2.9279647e-06
3.0431432e-06
3.1466827e-06
3.2525039e-06
3.3574781e-06
3.4605259e-06
3.5608621e-06
3.6571409e-06
3.7469226e-06
3.8261016e-06
3.8880266e-06
3.9221834e-06
3.9120526e-06
3.8315106e-06
3.6381493e-06
3.2549912e-06
2.4448319e-06
2.1338096e-10
2.6874118e-08
3.5985018e-07
1.3771765e-06
2.5704947e-06
3.3791412e-06
3.8523905e-06
4.159043e-06
4.3935991e-06
4.5987956e-06
4.795141e-06
4.9950859e-06
5.1964238e-06
5.3981345e-06
5.5985468e-06
5.794921e-06
5.9825349e-06
6.1536577e-06
6.2956668e-06
6.3883954e-06
6.3996952e-06
6.2774618e-06
5.9342513e-06
5.2096057e-06
3.6753604e-06
6.629284e-10
7.8749921e-08
8.5676355e-07
2.5060537e-06
3.7916374e-06
4.5284708e-06
4.9923815e-06
5.3382489e-06
5.6386141e-06
5.9258378e-06
6.2151897e-06
6.5133555e-06
6.8188561e-06
7.1305061e-06
7.4468428e-06
7.7647741e-06
8.0780788e-06
8.3768307e-06
8.6434726e-06
8.8494577e-06
8.9484119e-06
8.8631221e-06
8.4587408e-06
7.4777369e-06
5.2784521e-06
3.1273621e-09
2.8510968e-07
2.0611926e-06
4.0006225e-06
5.0407458e-06
5.6283484e-06
6.0352238e-06
6.3779931e-06
6.7067539e-06
7.0400704e-06
7.3887259e-06
7.7557038e-06
8.1374464e-06
8.5325807e-06
8.9408717e-06
9.3608616e-06
9.7875134e-06
1.0211288e-05
1.0615589e-05
1.0972669e-05
1.1236583e-05
1.132933e-05
1.1107929e-05
1.0264608e-05
7.8730719e-06
2.3388159e-08
1.1381104e-06
3.9874806e-06
5.594848e-06
6.4457038e-06
6.9661749e-06
7.3494658e-06
7.6957479e-06
8.0452709e-06
8.3999617e-06
8.7734134e-06
9.1722188e-06
9.586244e-06
1.0010585e-05
1.0447999e-05
1.090288e-05
1.1374336e-05
1.1857619e-05
1.2342751e-05
1.2811567e-05
1.3233164e-05
1.3557736e-05
1.370921e-05
1.3592569e-05
1.318008e-05
1.9518425e-07
2.7546286e-06
5.9025613e-06
7.7067639e-06
8.621259e-06
9.0376337e-06
9.2332908e-06
9.3698477e-06
9.5083726e-06
9.6668709e-06
9.8533288e-06
1.0074034e-05
1.0329576e-05
1.0620301e-05
1.094745e-05
1.131188e-05
1.1713418e-05
1.2149725e-05
1.2615476e-05
1.3100714e-05
1.3587841e-05
1.4048318e-05
1.4439527e-05
1.4713555e-05
1.4813868e-05
4.3416502e-06
4.3168224e-06
4.361284e-06
4.4728015e-06
4.6498739e-06
4.8806227e-06
5.1540407e-06
5.4677002e-06
5.8245389e-06
6.226603e-06
6.6727769e-06
7.1591047e-06
7.6793117e-06
8.2263272e-06
8.7938042e-06
9.3772787e-06
9.9741767e-06
1.0582655e-05
1.1200216e-05
1.1821873e-05
1.2437304e-05
1.3027751e-05
1.3563157e-05
1.400759e-05
1.4294463e-05
9.1095126e-06
9.3699738e-06
9.7719643e-06
1.0191661e-05
1.0367426e-05
1.032952e-05
1.0210808e-05
1.0112761e-05
1.0075139e-05
1.009942e-05
1.018125e-05
1.0315935e-05
1.0501553e-05
1.0737905e-05
1.1024852e-05
1.136165e-05
1.1746069e-05
1.2173887e-05
1.2637891e-05
1.3125926e-05
1.3617812e-05
1.4082164e-05
1.4473488e-05
1.4742527e-05
1.4835678e-05
6.405238e-06
6.8158283e-06
7.2475055e-06
7.6472313e-06
7.9484157e-06
8.1647923e-06
8.3565604e-06
8.5632007e-06
8.7931018e-06
9.0608508e-06
9.3628084e-06
9.6901135e-06
1.0037672e-05
1.0411662e-05
1.0815799e-05
1.1250563e-05
1.1712941e-05
1.2195756e-05
1.2685809e-05
1.3160882e-05
1.3585188e-05
1.3903453e-05
1.4034319e-05
1.3879854e-05
1.3418081e-05
5.1398461e-06
5.4960782e-06
5.846011e-06
6.1620742e-06
6.4275653e-06
6.6551024e-06
6.8748436e-06
7.1070549e-06
7.3627403e-06
7.6484028e-06
7.9618532e-06
8.3003727e-06
8.6636877e-06
9.0528454e-06
9.4674377e-06
9.9039304e-06
1.0354456e-05
1.0805179e-05
1.1233708e-05
1.1604958e-05
1.1864207e-05
1.1923887e-05
1.1631864e-05
1.0670817e-05
8.0898906e-06
4.4287476e-06
4.7177634e-06
5.0074558e-06
5.2773288e-06
5.5215848e-06
5.7482009e-06
5.9714746e-06
6.2040306e-06
6.4542951e-06
6.7263376e-06
7.0197939e-06
7.3334545e-06
7.6670034e-06
8.019544e-06
8.3885176e-06
8.767398e-06
9.1446729e-06
9.5019511e-06
9.8112275e-06
1.0030759e-05
1.00985e-05
9.9206013e-06
9.3480861e-06
8.1176208e-06
5.5969332e-06
3.9692594e-06
4.1972184e-06
4.4333963e-06
4.6619853e-06
4.8790775e-06
5.0891744e-06
5.3002767e-06
5.5200021e-06
5.7539476e-06
6.004916e-06
6.2731606e-06
6.5578994e-06
6.8580724e-06
7.1713397e-06
7.4929394e-06
7.8145559e-06
8.1229282e-06
8.3981896e-06
8.6117157e-06
8.7232158e-06
8.6766211e-06
8.3936264e-06
7.7611e-06
6.594596e-06
4.419843e-06
3.629171e-06
3.8096386e-06
4.0018715e-06
4.1941015e-06
4.3827229e-06
4.569674e-06
4.7593953e-06
4.9565699e-06
5.1648559e-06
5.3862503e-06
5.6211235e-06
5.8687745e-06
6.1276595e-06
6.3947513e-06
6.6646077e-06
6.9284453e-06
7.1731327e-06
7.379978e-06
7.5233797e-06
7.5693457e-06
7.4738642e-06
7.1807411e-06
6.6164396e-06
5.6658995e-06
3.9747965e-06
3.3342267e-06
3.4781595e-06
3.63453e-06
3.7948693e-06
3.9558229e-06
4.1177692e-06
4.2830261e-06
4.45438e-06
4.6341389e-06
4.8236072e-06
5.022982e-06
5.2314766e-06
5.4472838e-06
5.6671268e-06
5.8856002e-06
6.0944683e-06
6.2819383e-06
6.4319321e-06
6.5234824e-06
6.5304515e-06
6.4219554e-06
6.1643603e-06
5.727584e-06
5.1074061e-06
4.3827877e-06
3.0398146e-06
3.1545124e-06
3.2807372e-06
3.4125274e-06
3.5469108e-06
3.6834231e-06
3.8230842e-06
3.9674473e-06
4.1178793e-06
4.2751373e-06
4.4392e-06
4.6092016e-06
4.7832917e-06
4.9583101e-06
5.1293339e-06
5.2891919e-06
5.428003e-06
5.5328356e-06
5.5876323e-06
5.5736674e-06
5.4710566e-06
5.2625405e-06
4.9430439e-06
4.5457446e-06
4.2061044e-06
2.7182926e-06
2.808419e-06
2.9084334e-06
3.0141563e-06
3.1230924e-06
3.2343728e-06
3.3482373e-06
3.4654333e-06
3.5866912e-06
3.7123777e-06
3.8423051e-06
3.9756039e-06
4.1105726e-06
4.2444421e-06
4.3730793e-06
4.4906819e-06
4.5895359e-06
4.6599261e-06
4.6903385e-06
4.6681647e-06
4.5812805e-06
4.4212381e-06
4.1898752e-06
3.9135658e-06
3.6344863e-06
2.3571284e-06
2.4259137e-06
2.5026763e-06
2.5844947e-06
2.6693451e-06
2.7562298e-06
2.8449506e-06
2.935744e-06
3.0289198e-06
3.1245891e-06
3.2224803e-06
3.3218127e-06
3.4211717e-06
3.5183511e-06
3.6101767e-06
3.6923443e-06
3.7593288e-06
3.8044301e-06
3.8200485e-06
3.7982809e-06
3.7318937e-06
3.6155032e-06
3.4456487e-06
3.2126098e-06
2.82914e-06
1.9602682e-06
2.0104396e-06
2.066666e-06
2.1269102e-06
2.1895952e-06
2.253761e-06
2.3189998e-06
2.3852468e-06
2.4525518e-06
2.5208698e-06
2.5899193e-06
2.6590739e-06
2.7272726e-06
2.7929331e-06
2.8538666e-06
2.9072171e-06
2.9494611e-06
2.9765082e-06
2.9839308e-06
2.9673043e-06
2.9224823e-06
2.8451599e-06
2.7274833e-06
2.5431008e-06
2.170093e-06
1.5482348e-06
1.5826194e-06
1.6212782e-06
1.6628233e-06
1.7060754e-06
1.7502092e-06
1.7947577e-06
1.8395108e-06
1.8843745e-06
1.9292286e-06
1.9738253e-06
2.0177115e-06
2.0601796e-06
2.1002296e-06
2.1365434e-06
2.1674896e-06
2.1911672e-06
2.2055056e-06
2.2084053e-06
2.1978397e-06
2.1716689e-06
2.1265313e-06
2.0541345e-06
1.9294998e-06
1.6579603e-06
1.1534301e-06
1.1752065e-06
1.1997448e-06
1.2261338e-06
1.2535454e-06
1.2813324e-06
1.3090653e-06
1.3364937e-06
1.363468e-06
1.3898511e-06
1.4154493e-06
1.4399723e-06
1.4630062e-06
1.484009e-06
1.5023193e-06
1.517188e-06
1.5278293e-06
1.5334909e-06
1.533512e-06
1.5272809e-06
1.513885e-06
1.4910259e-06
1.4523131e-06
1.3804892e-06
1.2209507e-06
8.0930623e-07
8.2186754e-07
8.3604166e-07
8.5126195e-07
8.669746e-07
8.8272523e-07
8.981738e-07
9.1309572e-07
9.2734195e-07
9.4079324e-07
9.5332064e-07
9.6475912e-07
9.7490352e-07
9.8351702e-07
9.9034971e-07
9.9517085e-07
9.9780774e-07
9.9817746e-07
9.9629158e-07
9.9216961e-07
9.8553147e-07
9.7504452e-07
9.5677245e-07
9.2106026e-07
8.4294314e-07
5.3773851e-07
5.4426982e-07
5.5164595e-07
5.5953333e-07
5.6758915e-07
5.7551366e-07
5.8307387e-07
5.9010153e-07
5.964798e-07
6.0212252e-07
6.0695406e-07
6.1089749e-07
6.1387456e-07
6.1581442e-07
6.166723e-07
6.1645359e-07
6.1523124e-07
6.1315057e-07
6.1040892e-07
6.0718551e-07
6.0345416e-07
5.9858231e-07
5.9063112e-07
5.7525245e-07
5.4290011e-07
3.4276021e-07
3.4579818e-07
3.4923291e-07
3.5287892e-07
3.5653822e-07
3.6002891e-07
3.6320369e-07
3.6595404e-07
3.6820289e-07
3.69897e-07
3.7099891e-07
3.7148154e-07
3.7132934e-07
3.705451e-07
3.6915733e-07
3.6724117e-07
3.6492085e-07
3.6235975e-07
3.5972982e-07
3.571789e-07
3.5474984e-07
3.5220974e-07
3.4881102e-07
3.4303057e-07
3.3185759e-07
2.1403996e-07
2.1529509e-07
2.1671538e-07
2.1820291e-07
2.1965086e-07
2.2095832e-07
2.2204102e-07
2.2283584e-07
2.2329916e-07
2.2340355e-07
2.2313363e-07
2.2248557e-07
2.214675e-07
2.2010393e-07
2.1842915e-07
2.1651718e-07
2.1447497e-07
2.1242146e-07
2.1045044e-07
2.0863952e-07
2.0703333e-07
2.0557078e-07
2.0401613e-07
2.0192245e-07
1.9839553e-07
1.3527875e-07
1.3574877e-07
1.3627929e-07
1.3682095e-07
1.3731884e-07
1.3771969e-07
1.3797813e-07
1.380598e-07
1.3794131e-07
1.376095e-07
1.3705991e-07
1.3629636e-07
1.3533106e-07
1.3418686e-07
1.3289817e-07
1.3151767e-07
1.301498e-07
1.2886306e-07
1.2766395e-07
1.2656409e-07
1.2559876e-07
1.2476315e-07
1.2398603e-07
1.2312719e-07
1.2186718e-07
8.9853783e-08
9.003388e-08
9.0238728e-08
9.0444605e-08
9.0623791e-08
9.0749016e-08
9.0796585e-08
9.0748253e-08
9.059162e-08
9.0320024e-08
8.9931856e-08
8.9430284e-08
8.8823616e-08
8.8126321e-08
8.7361122e-08
8.6555591e-08
8.5760139e-08
8.5035995e-08
8.4448292e-08
8.3906568e-08
8.3423462e-08
8.3005389e-08
8.2623749e-08
8.2208171e-08
8.1581469e-08
6.5063986e-08
6.5169646e-08
6.5292976e-08
6.5422626e-08
6.5544829e-08
6.5645492e-08
6.5712076e-08
6.5734524e-08
6.570558e-08
6.5620817e-08
6.5478403e-08
6.5279027e-08
6.5026321e-08
6.4727616e-08
6.4395051e-08
6.4046165e-08
6.3702909e-08
6.3401881e-08
6.3192913e-08
6.3027888e-08
6.2872761e-08
6.2730739e-08
6.2584079e-08
6.2380636e-08
6.1974273e-08
5.2438476e-08
5.2547243e-08
5.2675867e-08
5.2818691e-08
5.2968515e-08
5.3117653e-08
5.3258779e-08
5.3385538e-08
5.3492712e-08
5.3576327e-08
5.3633643e-08
5.3663337e-08
5.3665905e-08
5.3644262e-08
5.3604413e-08
5.3556106e-08
5.350886e-08
5.3482751e-08
5.350617e-08
5.3572619e-08
5.3619037e-08
5.3646617e-08
5.3641675e-08
5.3563664e-08
5.3301658e-08
4.6701338e-08
4.6830797e-08
4.6983658e-08
4.7156679e-08
4.7345532e-08
4.7545306e-08
4.775094e-08
4.7957551e-08
4.8160617e-08
4.8356118e-08
4.8540704e-08
4.8711943e-08
4.8868689e-08
4.9011496e-08
4.9143029e-08
4.92685e-08
4.9391943e-08
4.9524144e-08
4.9680225e-08
4.9873462e-08
5.0031042e-08
5.0153303e-08
5.0227808e-08
5.0221309e-08
5.0046383e-08
4.4727596e-08
4.4873596e-08
4.504524e-08
4.5240187e-08
4.5455221e-08
4.5686527e-08
4.5929947e-08
4.6181198e-08
4.6436052e-08
4.6690528e-08
4.6941114e-08
4.7185023e-08
4.7420474e-08
4.7646955e-08
4.7865422e-08
4.8078359e-08
4.828948e-08
4.8502963e-08
4.8728618e-08
4.8980339e-08
4.9192085e-08
4.9361534e-08
4.9475445e-08
4.9502492e-08
4.9362438e-08
4.4738717e-08
4.4892058e-08
4.5071532e-08
4.5275066e-08
4.5499849e-08
4.5742512e-08
4.5999311e-08
4.6266317e-08
4.6539591e-08
4.6815394e-08
4.7090397e-08
4.7361913e-08
4.7628109e-08
4.7888167e-08
4.8142389e-08
4.8392225e-08
4.8640406e-08
4.8889016e-08
4.914467e-08
4.9418022e-08
4.9651853e-08
4.9841228e-08
4.9971289e-08
5.0009649e-08
4.9874715e-08
4.5756245e-08
4.5908922e-08
4.6086848e-08
4.628803e-08
4.6509846e-08
4.6749189e-08
4.7002632e-08
4.7266582e-08
4.7537467e-08
4.7811922e-08
4.8086988e-08
4.8360302e-08
4.8630255e-08
4.8896102e-08
4.9157988e-08
4.9416918e-08
4.967471e-08
4.9933936e-08
5.0197744e-08
5.0474254e-08
5.0713535e-08
5.0908576e-08
5.1042747e-08
5.1081763e-08
5.0939802e-08
4.725939e-08
4.7406172e-08
4.7576527e-08
4.7768523e-08
4.79797e-08
4.8207203e-08
4.8447916e-08
4.8698617e-08
4.895614e-08
4.9217548e-08
4.9480309e-08
4.974246e-08
5.0002729e-08
5.0260605e-08
5.051632e-08
5.0770781e-08
5.1025485e-08
5.1282603e-08
5.1543805e-08
5.1814865e-08
5.2051737e-08
5.224567e-08
5.2378341e-08
5.2413279e-08
5.2258821e-08
4.8980783e-08
4.911893e-08
4.9278663e-08
4.9458135e-08
4.9655066e-08
4.9866858e-08
5.0090718e-08
5.0323796e-08
5.0563328e-08
5.08068e-08
5.1052102e-08
5.1297672e-08
5.1542598e-08
5.1786658e-08
5.2030277e-08
5.2274407e-08
5.2520391e-08
5.2769961e-08
5.302404e-08
5.3286294e-08
5.3517512e-08
5.370743e-08
5.383617e-08
5.3865322e-08
5.3698664e-08
5.0788429e-08
5.0916901e-08
5.1064956e-08
5.1230857e-08
5.1412511e-08
5.1607576e-08
5.1813567e-08
5.202798e-08
5.2248426e-08
5.2472775e-08
5.2699307e-08
5.2926833e-08
5.3154789e-08
5.3383253e-08
5.3612875e-08
5.3844705e-08
5.4079979e-08
5.4319915e-08
5.4565653e-08
5.4818333e-08
5.504289e-08
5.5227683e-08
5.5351343e-08
5.5373711e-08
5.5194774e-08
5.2619528e-08
5.2738251e-08
5.2874686e-08
5.3027211e-08
5.319392e-08
5.3372707e-08
5.3561367e-08
5.3757706e-08
5.3959664e-08
5.4165457e-08
5.4373708e-08
5.4583568e-08
5.4794797e-08
5.5007765e-08
5.5223352e-08
5.5442747e-08
5.5667158e-08
5.5897542e-08
5.6134559e-08
5.6377908e-08
5.6595765e-08
5.6775137e-08
5.6893104e-08
5.6907713e-08
5.6715472e-08
5.4444743e-08
5.4554107e-08
5.467949e-08
5.4819389e-08
5.4972067e-08
5.5135631e-08
5.5308124e-08
5.5487621e-08
5.5672352e-08
5.5860832e-08
5.6051989e-08
5.6245281e-08
5.6440766e-08
5.6639086e-08
5.6841356e-08
5.704891e-08
5.726297e-08
5.7484283e-08
5.7712959e-08
5.7947684e-08
5.8159206e-08
5.8333236e-08
5.8445257e-08
5.8451119e-08
5.82429e-08
5.6249751e-08
5.6350324e-08
5.6465401e-08
5.6593593e-08
5.6733319e-08
5.6882872e-08
5.7040509e-08
5.7204543e-08
5.7373454e-08
5.7546018e-08
5.7721437e-08
5.7899444e-08
5.8080367e-08
5.8265109e-08
5.8455005e-08
5.8651541e-08
5.885596e-08
5.9068814e-08
5.9289607e-08
5.9516623e-08
5.9722267e-08
5.9891141e-08
5.9997142e-08
5.9993532e-08
5.9766539e-08
5.8026211e-08
5.8118593e-08
5.8224126e-08
5.8341527e-08
5.8469351e-08
5.8606061e-08
5.8750099e-08
5.8899983e-08
5.9054413e-08
5.9212398e-08
5.9373381e-08
5.9537345e-08
5.9704868e-08
5.9877094e-08
6.0055567e-08
6.0241923e-08
6.0437441e-08
6.064252e-08
6.0856224e-08
6.1076034e-08
6.1276129e-08
6.1439994e-08
6.1540036e-08
6.1527023e-08
6.1281064e-08
5.9767585e-08
5.9852354e-08
5.9949059e-08
6.0056514e-08
6.0173399e-08
6.0298325e-08
6.0429897e-08
6.0566815e-08
6.0707972e-08
6.0852586e-08
6.1000314e-08
6.1151368e-08
6.1306556e-08
6.1467244e-08
6.1635176e-08
6.1812128e-08
6.1999421e-08
6.2197326e-08
6.2404514e-08
6.2617659e-08
6.2812469e-08
6.297141e-08
6.3065549e-08
6.3043472e-08
6.2779749e-08
6.1467367e-08
6.1545064e-08
6.1633599e-08
6.1731876e-08
6.1838689e-08
6.1952778e-08
6.2072896e-08
6.2197903e-08
6.2326866e-08
6.2459186e-08
6.2594719e-08
6.2733881e-08
6.2877693e-08
6.3027727e-08
6.318591e-08
6.3354151e-08
6.3533813e-08
6.3725051e-08
6.3926178e-08
6.4133122e-08
6.4322846e-08
6.4476863e-08
6.4564921e-08
6.4533338e-08
6.4250946e-08
6.3118448e-08
6.318958e-08
6.3270553e-08
6.3360356e-08
6.3457884e-08
6.3561994e-08
6.3671572e-08
6.378562e-08
6.3903361e-08
6.4024362e-08
6.4148658e-08
6.4276852e-08
6.4410158e-08
6.4550336e-08
6.4699482e-08
6.4859629e-08
6.5032173e-08
6.5217167e-08
6.5412594e-08
6.5613709e-08
6.5798485e-08
6.5947529e-08
6.6029263e-08
6.5987585e-08
6.5685114e-08
6.4712999e-08
6.477805e-08
6.4852035e-08
6.4934021e-08
6.5022996e-08
6.5117923e-08
6.5217806e-08
6.5321774e-08
6.5429191e-08
6.5539774e-08
6.5653719e-08
6.5771797e-08
6.5895399e-08
6.6026454e-08
6.6167211e-08
6.631981e-08
6.6485678e-08
6.666477e-08
6.6854773e-08
6.7050333e-08
6.7230236e-08
6.7374235e-08
6.7449505e-08
6.7397647e-08
6.707503e-08
6.6242607e-08
6.630205e-08
6.6369603e-08
6.6444403e-08
6.6525523e-08
6.6612024e-08
6.6703013e-08
6.6797736e-08
6.6895681e-08
6.69967e-08
6.7101132e-08
6.7209902e-08
6.7324554e-08
6.744717e-08
6.7580131e-08
6.7725671e-08
6.7885238e-08
6.8058696e-08
6.824346e-08
6.8433642e-08
6.8608651e-08
6.8747472e-08
6.8816168e-08
6.8754428e-08
6.8412688e-08
6.7698541e-08
6.7752848e-08
6.7814516e-08
6.788275e-08
6.7956701e-08
6.8035512e-08
6.8118388e-08
6.8204676e-08
6.8293976e-08
6.838626e-08
6.8481993e-08
6.8582234e-08
6.8688661e-08
6.8803488e-08
6.8929205e-08
6.9068122e-08
6.9221698e-08
6.9389706e-08
6.9569318e-08
6.9754172e-08
6.9924157e-08
7.0057584e-08
7.0119548e-08
7.0048162e-08
6.9689621e-08
6.9072084e-08
6.9121729e-08
6.9178063e-08
6.9240351e-08
6.9307811e-08
6.9379665e-08
6.9455201e-08
6.9533857e-08
6.961533e-08
6.9699697e-08
6.9787533e-08
6.9880009e-08
6.9978918e-08
7.0086579e-08
7.0205571e-08
7.0338254e-08
7.0486083e-08
7.0648743e-08
7.0823182e-08
7.1002613e-08
7.1167304e-08
7.1295003e-08
7.1349985e-08
7.1268971e-08
7.089426e-08
7.035486e-08
7.0400326e-08
7.0451882e-08
7.0508847e-08
7.0570499e-08
7.0636129e-08
7.0705097e-08
7.0776922e-08
7.0851384e-08
7.0928649e-08
7.1009384e-08
7.1094853e-08
7.1186939e-08
7.1288039e-08
7.1400791e-08
7.1527584e-08
7.1669851e-08
7.1827185e-08
7.1996342e-08
7.2170058e-08
7.2328996e-08
7.2450467e-08
7.2498097e-08
7.2407425e-08
7.2016887e-08
7.1539086e-08
7.1580861e-08
7.1628199e-08
7.1680465e-08
7.1736994e-08
7.1797131e-08
7.1860302e-08
7.1926094e-08
7.1994357e-08
7.2065331e-08
7.2139756e-08
7.2218966e-08
7.2304909e-08
7.2400033e-08
7.2507005e-08
7.2628211e-08
7.2765046e-08
7.2917039e-08
7.3080934e-08
7.3248176e-08
7.3400653e-08
7.351521e-08
7.355503e-08
7.3454932e-08
7.3050735e-08
7.2617619e-08
7.265619e-08
7.2699867e-08
7.2748056e-08
7.2800135e-08
7.2855501e-08
7.2913634e-08
7.2974176e-08
7.3037038e-08
7.3102514e-08
7.3171402e-08
7.3245085e-08
7.3325546e-08
7.3415255e-08
7.3516873e-08
7.3632753e-08
7.3764237e-08
7.3910826e-08
7.4069153e-08
7.4229037e-08
7.4374108e-08
7.448089e-08
7.4512463e-08
7.4404091e-08
7.3995882e-08
7.3583686e-08
7.3619531e-08
7.3660089e-08
7.3704801e-08
7.3753081e-08
7.3804369e-08
7.3858189e-08
7.391423e-08
7.3972448e-08
7.4033182e-08
7.4097266e-08
7.4166112e-08
7.4241713e-08
7.4326529e-08
7.442318e-08
7.4533946e-08
7.4660087e-08
7.4801218e-08
7.4952633e-08
7.5104408e-08
7.5241057e-08
7.5339013e-08
7.5361642e-08
7.5245789e-08
7.4841502e-08
7.4430124e-08
7.4463695e-08
7.4501644e-08
7.4543435e-08
7.4588517e-08
7.4636362e-08
7.468653e-08
7.4738749e-08
7.479301e-08
7.4849682e-08
7.490962e-08
7.4974246e-08
7.504554e-08
7.5125922e-08
7.5217937e-08
7.5323732e-08
7.544431e-08
7.5578582e-08
7.5721943e-08
7.5864912e-08
7.5992092e-08
7.6079962e-08
7.6092215e-08
7.5966414e-08
7.5553748e-08
7.5141084e-08
7.5172831e-08
7.5208685e-08
7.5248131e-08
7.5290642e-08
7.5335717e-08
7.5382942e-08
7.5432072e-08
7.5483122e-08
7.5536473e-08
7.5592984e-08
7.5654065e-08
7.5721655e-08
7.5798091e-08
7.5885803e-08
7.5986764e-08
7.610173e-08
7.6229266e-08
7.636457e-08
7.6498249e-08
7.6615019e-08
7.6691593e-08
7.6692163e-08
7.6555105e-08
7.6132739e-08
7.5697904e-08
7.5728244e-08
7.5762475e-08
7.5800103e-08
7.5840625e-08
7.5883557e-08
7.5928495e-08
7.5975216e-08
7.6023749e-08
7.607446e-08
7.6128204e-08
7.6186375e-08
7.6250848e-08
7.6323847e-08
7.6407678e-08
7.650414e-08
7.6613746e-08
7.6734756e-08
7.6862013e-08
7.6986046e-08
7.7091694e-08
7.7156047e-08
7.7144083e-08
7.6995566e-08
7.6565656e-08
7.606821e-08
7.609754e-08
7.6130575e-08
7.6166858e-08
7.6205938e-08
7.6247308e-08
7.6290559e-08
7.6335492e-08
7.6382138e-08
7.643081e-08
7.6482353e-08
7.6538179e-08
7.660008e-08
7.6670119e-08
7.6750546e-08
7.6843049e-08
7.6947955e-08
7.706323e-08
7.7182868e-08
7.7297315e-08
7.7391615e-08
7.7443394e-08
7.7418664e-08
7.7259052e-08
7.6822429e-08
7.6186694e-08
7.6215518e-08
7.6247769e-08
7.6283167e-08
7.6321515e-08
7.6361917e-08
7.6404044e-08
7.6447769e-08
7.6493117e-08
7.6540267e-08
7.6590075e-08
7.6644052e-08
7.6703862e-08
7.677134e-08
7.6848934e-08
7.6938552e-08
7.7040626e-08
7.7153157e-08
7.7266707e-08
7.7372409e-08
7.7455977e-08
7.7495793e-08
7.7459221e-08
7.7291709e-08
7.6859876e-08
7.5871256e-08
7.5900678e-08
7.5932702e-08
7.596796e-08
7.6007828e-08
7.6048122e-08
7.6089663e-08
7.6132711e-08
7.6177314e-08
7.6223378e-08
7.6271805e-08
7.6324333e-08
7.6382388e-08
7.6447433e-08
7.6522939e-08
7.6612425e-08
7.6719425e-08
7.6845051e-08
7.6956759e-08
7.7055536e-08
7.7130048e-08
7.7159756e-08
7.7113473e-08
7.6946901e-08
7.6550102e-08
)
;

boundaryField
{
    Walls
    {
        type            nutUWallFunction;
        Cmu             0.09;
        kappa           0.41;
        E               9.8;
        value           uniform 0;
    }
    Inlet
    {
        type            calculated;
        value           nonuniform List<scalar> 3(1.6699455e-05 9.4197784e-05 7.3321475e-07);
    }
    Outlet
    {
        type            calculated;
        value           nonuniform List<scalar> 
86
(
0
0
0
0
0
0
0
0
0
0
0
0
0
0
0
0
0
0
0
0
0
0
0
0
0
0
0
0
0
0
1.4294463e-05
1.4835678e-05
1.3418081e-05
0
0
0
0
0
4.2061044e-06
3.6344863e-06
0
0
0
0
8.4294314e-07
5.4290011e-07
3.3185759e-07
1.9839553e-07
1.2186718e-07
8.1581469e-08
6.1974273e-08
5.3301658e-08
5.0046383e-08
4.9362438e-08
4.9874715e-08
5.0939802e-08
5.2258821e-08
5.3698664e-08
5.5194774e-08
5.6715472e-08
5.82429e-08
5.9766539e-08
6.1281064e-08
6.2779749e-08
6.4250946e-08
6.5685114e-08
6.707503e-08
0
0
0
0
0
0
0
0
0
0
0
0
0
0
0
0
0
1.318008e-05
1.4813868e-05
)
;
    }
    Front
    {
        type            wedge;
    }
    Back
    {
        type            wedge;
    }
    defaultFaces
    {
        type            empty;
    }
}


// ************************************************************************* //
