/*--------------------------------*- C++ -*----------------------------------*\
| =========                 |                                                 |
| \\      /  F ield         | OpenFOAM: The Open Source CFD Toolbox           |
|  \\    /   O peration     | Version:  4.0                                   |
|   \\  /    A nd           | Web:      www.OpenFOAM.org                      |
|    \\/     M anipulation  |                                                 |
\*---------------------------------------------------------------------------*/
FoamFile
{
    version     2.0;
    format      ascii;
    class       volScalarField;
    location    "0.37";
    object      p;
}
// * * * * * * * * * * * * * * * * * * * * * * * * * * * * * * * * * * * * * //

dimensions      [0 2 -2 0 0 0 0];

internalField   nonuniform List<scalar> 
1740
(
491.60774
491.63426
491.61251
475.0312
474.97455
474.79212
458.39552
458.29299
458.08371
441.48663
441.68648
441.70042
424.75381
425.25633
425.50091
408.39409
408.75907
409.04504
391.9711
391.94695
392.12304
375.35501
375.13727
375.13337
358.73926
358.66352
358.66934
342.57063
342.43414
342.63538
326.72035
326.49975
326.49216
310.47642
310.27432
309.86177
293.58247
293.41781
293.16342
276.73881
276.75474
276.97169
260.52124
260.59867
260.67683
244.52285
244.62722
244.15805
228.19941
228.14251
227.88034
211.54698
211.44079
211.83351
195.205
195.34125
195.71313
178.98213
179.21406
179.17668
162.31922
162.46308
162.37943
145.54024
145.34912
145.43854
128.66013
128.4057
128.51203
111.80781
111.80565
111.84695
95.383456
95.255275
95.022037
79.13857
78.965715
78.404215
62.694932
62.639985
62.435959
46.413423
46.280772
46.550196
30.711727
30.713603
30.871751
15.996374
16.069071
15.574219
3.9845928
3.5372883
1.4985029
-0.63145018
-0.55734263
-0.45753447
-0.15522183
-0.15154022
-0.160729
-0.062815683
-0.065629266
-0.072593422
-0.059581959
-0.058649369
-0.056020896
-0.054269461
-0.052189856
-0.047429346
-0.050906092
-0.048707375
-0.043968224
-0.047444983
-0.045485895
-0.04137566
-0.043789037
-0.042139695
-0.038718065
-0.040089269
-0.038735958
-0.035935615
-0.036591261
-0.035493963
-0.033217629
-0.033486506
-0.032598383
-0.030748612
-0.030830278
-0.030108671
-0.028598313
-0.028573697
-0.027983525
-0.026742151
-0.026635734
-0.026149536
-0.02512241
-0.024946158
-0.02454265
-0.023686844
-0.023453759
-0.023116237
-0.022397839
-0.022120903
-0.021836281
-0.021228575
-0.020918095
-0.020676177
-0.020158215
-0.019821109
-0.019613933
-0.019169258
-0.018809733
-0.018631035
-0.01824665
-0.017867206
-0.017712028
-0.017377598
-0.01697987
-0.016844261
-0.016551506
-0.016136809
-0.0160176
-0.015759853
-0.015329443
-0.015224079
-0.014995953
-0.014551153
-0.014457566
-0.014254689
-0.013796952
-0.01371346
-0.013532264
-0.013063172
-0.012988396
-0.012825955
-0.012347187
-0.012279995
-0.012133899
-0.011647188
-0.011586644
-0.011454902
-0.010961992
-0.010907322
-0.010788278
-0.010290873
-0.010241431
-0.010133703
-0.009633421
-0.0095886666
-0.0094910991
-0.0089894319
-0.0089489104
-0.0088605279
-0.0083588091
-0.008322136
-0.0082421129
-0.0077414911
-0.0077083392
-0.0076359722
-0.007137386
-0.0071074757
-0.0070421631
-0.0065463175
-0.006519409
-0.0064606338
-0.0059680004
-0.0059438868
-0.0058912032
-0.0054020409
-0.0053805438
-0.0053335666
-0.0048479303
-0.0048288959
-0.0047872925
-0.004305026
-0.0042883216
-0.0042518049
-0.0037725486
-0.0037580598
-0.0037263821
-0.0032495964
-0.0032372255
-0.0032101754
-0.0027351633
-0.002724828
-0.0027022267
-0.0022281432
-0.0022197753
-0.0022014748
-0.0017273141
-0.0017208588
-0.0017067401
-0.0012312695
-0.0012266854
-0.0012166579
-0.00073868338
-0.00073594266
-0.00072994275
-0.00024671675
-0.00024580417
-0.00024380289
-1.3725644
-0.961728
-0.35930624
-0.27758813
-0.14763392
-0.13037235
-0.067570048
-0.053911261
-0.047577756
-0.035479867
-0.039460609
-0.030096091
-0.037071481
-0.029242484
-0.035671695
-0.029220871
-0.034043046
-0.028743269
-0.032118729
-0.027754757
-0.030099804
-0.026494451
-0.028194821
-0.025203753
-0.026494897
-0.024000722
-0.024998782
-0.022907306
-0.023668659
-0.021905521
-0.022466971
-0.020972696
-0.021367297
-0.020093712
-0.020351885
-0.019259942
-0.019407252
-0.018465454
-0.018521708
-0.017704671
-0.017684718
-0.016971895
-0.016887004
-0.016261689
-0.016120727
-0.015569299
-0.015379552
-0.014890878
-0.014658537
-0.014223496
-0.013953965
-0.013565057
-0.013263155
-0.012914191
-0.012584282
-0.012270137
-0.011916209
-0.011632626
-0.011258328
-0.011001761
-0.010610432
-0.010377913
-0.0099725892
-0.0097616259
-0.009345039
-0.0091535297
-0.0087281049
-0.0085542688
-0.0081221238
-0.0079644441
-0.0075273904
-0.0073845686
-0.0069441083
-0.0068150273
-0.006372348
-0.0062560435
-0.0058120316
-0.0057076682
-0.0052629426
-0.0051697954
-0.0047247259
-0.0046421661
-0.0041968716
-0.0041243544
-0.0036787163
-0.0036157706
-0.0031694638
-0.0031156855
-0.0026682047
-0.0026232516
-0.0021739227
-0.0021375107
-0.0016854811
-0.0016573814
-0.0012015576
-0.0011815955
-0.00072090581
-0.00070895802
-0.00024078776
-0.00023680109
-0.013253897
-0.011850664
-0.0096713063
-0.0073095763
-0.0052004916
-0.0035225813
-0.0022735002
-0.0014263088
-0.00092137314
-0.00066327973
-0.000552252
-0.00053676442
-0.00057746747
-0.00063709317
-0.00068762018
-0.00071442846
-0.00072048966
-0.00070345049
-0.00066182412
-0.00059694178
-0.00051304168
-0.0004155328
-0.0003087741
-0.00019500995
-7.0495381e-05
-0.014062206
-0.012435719
-0.01009973
-0.0076807952
-0.0056441525
-0.0041464284
-0.0031406688
-0.0025008098
-0.002109233
-0.001892478
-0.0018069018
-0.0017823038
-0.0017742785
-0.001764157
-0.0017404369
-0.0016946256
-0.0016125359
-0.001492384
-0.0013412623
-0.0011634929
-0.00096751097
-0.00076192963
-0.00055069561
-0.00033337796
-0.00010686362
-0.018762276
-0.016782556
-0.014280948
-0.012323489
-0.011148411
-0.010533281
-0.01025462
-0.010113679
-0.0099322227
-0.0096899221
-0.0093831411
-0.0090168191
-0.0085870452
-0.0080966318
-0.0075453538
-0.0069363145
-0.0062758274
-0.0055736071
-0.0048336388
-0.0040630988
-0.0032822838
-0.0025074504
-0.001745029
-0.0010023045
-0.00029300143
-0.033880993
-0.032000272
-0.031053111
-0.030968385
-0.031086367
-0.030982124
-0.03045253
-0.02949654
-0.028267522
-0.026831619
-0.025249976
-0.023589146
-0.021868533
-0.02008227
-0.018254474
-0.016403707
-0.014543497
-0.01268462
-0.010836176
-0.009001756
-0.0072156423
-0.0054932525
-0.0038225146
-0.0022111175
-0.00068374969
-0.084329846
-0.0844604
-0.083356731
-0.079911491
-0.075828263
-0.07080998
-0.065430163
-0.059893555
-0.054388325
-0.049019879
-0.044016846
-0.039401222
-0.035072141
-0.030787785
-0.026832394
-0.02321184
-0.019906134
-0.016889329
-0.014130897
-0.011602898
-0.0092463337
-0.0070218635
-0.0049217626
-0.002920143
-0.00099817503
-0.2534576
-0.21054876
-0.1881388
-0.15457662
-0.12719316
-0.10305308
-0.082330074
-0.065253268
-0.051374005
-0.040200673
-0.031138428
-0.023843512
-0.018060867
-0.01366139
-0.010169289
-0.0074551458
-0.0053679674
-0.0037875582
-0.0026174413
-0.0017775941
-0.001188569
-0.00078406703
-0.00051817809
-0.00034354779
-0.00025807608
-0.36881265
-0.16024688
-0.10543361
-0.064383094
-0.027713102
0.0013533136
0.020214913
0.030081716
0.034324226
0.035537841
0.035066885
0.033537434
0.031328952
0.028723311
0.025934367
0.023099724
0.020298389
0.017569068
0.014932121
0.012392375
0.0099470795
0.0075873872
0.0052919604
0.0030532356
0.00078737826
-0.22771444
-0.19748147
-0.16936008
-0.14190184
-0.11575034
-0.09274248
-0.073355685
-0.057542575
-0.044756244
-0.034629473
-0.026563627
-0.020179824
-0.015173364
-0.011233679
-0.0081547493
-0.0057681937
-0.0039492139
-0.002606015
-0.0016411785
-0.00097737737
-0.00055000485
-0.00030242783
-0.00018682498
-0.00015472594
-0.00020545524
-0.1142898
-0.10527433
-0.0986196
-0.092213845
-0.08526847
-0.078056244
-0.071023798
-0.064299373
-0.057985017
-0.052001647
-0.046464001
-0.041204518
-0.03628811
-0.031784798
-0.027671975
-0.023881562
-0.020408373
-0.017266684
-0.014397298
-0.011765289
-0.0093377067
-0.0070815105
-0.0049661989
-0.0029569304
-0.0010237745
-0.044758329
-0.041887
-0.041088919
-0.040904773
-0.040619026
-0.039862688
-0.03862799
-0.036991372
-0.035077039
-0.03293736
-0.030689407
-0.028389306
-0.026043284
-0.023675599
-0.021321447
-0.019038426
-0.016812286
-0.014606674
-0.01245148
-0.010350026
-0.0083035384
-0.0063145714
-0.0043882436
-0.0025336276
-0.00078075886
-0.024871264
-0.017726079
-0.014519213
-0.01372985
-0.014277565
-0.014917609
-0.015280581
-0.015361764
-0.015198159
-0.014808039
-0.014248693
-0.013549433
-0.012733765
-0.011826909
-0.010859723
-0.0098544926
-0.0088157044
-0.0077417135
-0.0066513526
-0.0055573112
-0.0044695201
-0.0033977345
-0.0023523577
-0.0013436807
-0.00039273606
-0.021846121
-0.014972321
-0.010332566
-0.0073917293
-0.005628245
-0.0048777722
-0.0046687456
-0.0046901384
-0.0047835791
-0.0048659423
-0.004900871
-0.0048377849
-0.0046892501
-0.0044730932
-0.0041970703
-0.0038760164
-0.0035192823
-0.0031283204
-0.0027153002
-0.0022905051
-0.0018615022
-0.0014341381
-0.0010124756
-0.00059683745
-0.00018452033
-0.021915434
-0.015790658
-0.011285616
-0.0082067678
-0.0059374782
-0.0044455001
-0.0035297415
-0.0029784034
-0.0026968708
-0.002527978
-0.0023839307
-0.0022675906
-0.0021570831
-0.0020413295
-0.0019139135
-0.0017738945
-0.001620718
-0.001451111
-0.0012695564
-0.0010811133
-0.00088948571
-0.00069683482
-0.0005040146
-0.00030990385
-0.00010742998
-0.0229647
-0.017504798
-0.013131759
-0.0097977996
-0.0072827253
-0.0054842605
-0.0042692699
-0.0034812545
-0.0029215353
-0.0025146057
-0.0022157393
-0.0019910109
-0.001817069
-0.0016832371
-0.0015609543
-0.001439354
-0.00131601
-0.0011811773
-0.0010365894
-0.00088493184
-0.00072891561
-0.00057046718
-0.0004107678
-0.00025114632
-8.8919815e-05
-0.023463745
-0.018674624
-0.014615906
-0.011327588
-0.008730665
-0.0067394289
-0.0052484243
-0.0041521269
-0.0033374914
-0.0027367128
-0.0022915009
-0.0019648768
-0.0017240059
-0.0015353769
-0.0013737896
-0.0012276369
-0.001084558
-0.00095304563
-0.00082652883
-0.00070080579
-0.00057473824
-0.0004483903
-0.00032215631
-0.00019630477
-7.0656445e-05
-0.023309902
-0.019147503
-0.015475008
-0.01236854
-0.0098149785
-0.0077602237
-0.0061326346
-0.0048576649
-0.0038627585
-0.0030914831
-0.0024959231
-0.0020377584
-0.0016817927
-0.0013989535
-0.0011874664
-0.0010155582
-0.00087374004
-0.00075035253
-0.00063885095
-0.0005331806
-0.00043221279
-0.00033482327
-0.00024002974
-0.00014646006
-5.3851488e-05
-0.022750106
-0.019148141
-0.015869829
-0.013003059
-0.010564145
-0.0085293259
-0.0068553326
-0.0054934095
-0.004393045
-0.0035087357
-0.0028011087
-0.0022361048
-0.0017838303
-0.0014194305
-0.001127863
-0.00090507274
-0.00073347928
-0.00059761875
-0.00048763639
-0.00039712138
-0.00031681253
-0.00024206609
-0.00017186653
-0.0001045117
-3.9628949e-05
-0.022040606
-0.0189277
-0.01601968
-0.013405489
-0.011118955
-0.0091564037
-0.0074953547
-0.0061043322
-0.0049484608
-0.0039939879
-0.0032095085
-0.0025673619
-0.0020432968
-0.00161702
-0.0012730206
-0.0010001752
-0.00078488315
-0.00061429539
-0.00047819786
-0.00036888077
-0.00028073821
-0.00020842387
-0.00014670937
-9.188208e-05
-3.6542937e-05
-0.021318934
-0.018626085
-0.016054013
-0.013686992
-0.011566871
-0.0097041128
-0.0080906388
-0.0067074777
-0.0055309319
-0.004535893
-0.00369913
-0.002999259
-0.0024168095
-0.0019347905
-0.0015390723
-0.0012173234
-0.00095746284
-0.00074822759
-0.00057986151
-0.00044423547
-0.00033460012
-0.00024492538
-0.00016979009
-0.00010376198
-3.9872759e-05
-0.020624848
-0.018291999
-0.016019842
-0.013885486
-0.011934117
-0.010184446
-0.0086380064
-0.0072856033
-0.0061122482
-0.0051001845
-0.0042316998
-0.0034906392
-0.0028616534
-0.0023311677
-0.0018866039
-0.0015167658
-0.0012108069
-0.00095864683
-0.00075120344
-0.00058044516
-0.00043943646
-0.00032179768
-0.00022208625
-0.00013337593
-4.8153227e-05
-0.019955238
-0.017930371
-0.015923766
-0.014004344
-0.012216745
-0.010585182
-0.0091172287
-0.0078106801
-0.0066572207
-0.0056452108
-0.0047622091
-0.0039953142
-0.0033325418
-0.0027629564
-0.0022762198
-0.0018623548
-0.0015120562
-0.0012164396
-0.00096728459
-0.0007570351
-0.00057877938
-0.00042617503
-0.00029350363
-0.0001737717
-6.089629e-05
-0.019299352
-0.017537522
-0.015764649
-0.014041107
-0.012409345
-0.010895396
-0.0095117484
-0.0082610376
-0.0071398808
-0.0061413911
-0.0052569925
-0.0044770928
-0.0037925565
-0.003194103
-0.0026732605
-0.0022217211
-0.0018315366
-0.0014950948
-0.0012050496
-0.00095445804
-0.00073682691
-0.00054603842
-0.00037633883
-0.00022150089
-7.6414838e-05
-0.018651728
-0.017114325
-0.015546063
-0.01399937
-0.012513284
-0.011113947
-0.0098165208
-0.008627399
-0.0075469637
-0.0065718415
-0.0056964376
-0.004914013
-0.0042174541
-0.0035994248
-0.0030528525
-0.0025708325
-0.002146646
-0.0017737803
-0.0014458516
-0.0011566796
-0.00090036321
-0.00067122992
-0.00046380119
-0.00027236942
-9.2207312e-05
-0.018011588
-0.016665708
-0.015276004
-0.013887668
-0.01253595
-0.011246085
-0.01003433
-0.0089095213
-0.0078748731
-0.006929736
-0.0060709792
-0.0052940361
-0.0045935407
-0.0039638149
-0.0033990606
-0.0028935285
-0.002441554
-0.0020375636
-0.0016760825
-0.0013517317
-0.0010592833
-0.00079366762
-0.00054991624
-0.00032282387
-0.000107887
-0.017379557
-0.016197208
-0.014962987
-0.013715636
-0.012486597
-0.011299573
-0.010171
-0.009111059
-0.0081249238
-0.0072140364
-0.0063772409
-0.0056117476
-0.004913723
-0.0042788151
-0.0037023852
-0.0031796753
-0.0027059273
-0.0022763981
-0.0018863862
-0.001531259
-0.0012064656
-0.00090758581
-0.00063035526
-0.00037040936
-0.00012378132
-0.016755513
-0.015712922
-0.014613923
-0.01349161
-0.012373761
-0.011282219
-0.010233001
-0.0092369029
-0.0083003268
-0.0074262479
-0.006615078
-0.0058654703
-0.0051749028
-0.0045401558
-0.0039575942
-0.0034233412
-0.0029334417
-0.0024838805
-0.0020706412
-0.0016897576
-0.0013373087
-0.0010094827
-0.00070265094
-0.00041316161
-0.00013751975
-0.016138234
-0.015215295
-0.014233889
-0.013222226
-0.012204668
-0.011201072
-0.010226656
-0.0092923148
-0.0084051794
-0.0075692606
-0.006786175
-0.0060557499
-0.0053765673
-0.0047463808
-0.0041624126
-0.003621602
-0.0031206906
-0.0026563212
-0.0022251036
-0.0018236533
-0.0014486123
-0.0010967118
-0.00076484533
-0.00045002078
-0.00014891338
-0.015525972
-0.014705741
-0.013826703
-0.012912881
-0.011985531
-0.011062521
-0.010158057
-0.0092827955
-0.0084441871
-0.007646945
-0.0068935496
-0.00618476
-0.0055200748
-0.0048980901
-0.0043168016
-0.0037738367
-0.0032665653
-0.0027922309
-0.0023480074
-0.0019310323
-0.0015384402
-0.0011674243
-0.0008153577
-0.00048011402
-0.0001587402
-0.014917031
-0.014185268
-0.013395515
-0.01256824
-0.011721937
-0.010872548
-0.010033172
-0.0092140068
-0.0084225487
-0.007663911
-0.0069411967
-0.0062558846
-0.0056082064
-0.004997486
-0.0044223957
-0.0038811672
-0.003371748
-0.0028919183
-0.0024393581
-0.0020116912
-0.0016065376
-0.0012215397
-0.0008544134
-0.00050315643
-0.00016555897
-0.014310076
-0.013654821
-0.012943165
-0.012192557
-0.01141907
-0.010636866
-0.0098578801
-0.0090917323
-0.0083457744
-0.0076252953
-0.0069338126
-0.006273348
-0.0056447307
-0.0050478774
-0.0044820414
-0.0039460076
-0.0034382388
-0.0029569938
-0.0025004175
-0.0020665874
-0.0016535714
-0.0012594635
-0.00088238244
-0.00051964256
-0.00016998166
-0.013704231
-0.013115451
-0.012472346
-0.011789822
-0.011081842
-0.010360946
-0.0096379414
-0.0089217746
-0.0082195332
-0.007536531
-0.0068765267
-0.0062419293
-0.0056340376
-0.005053269
-0.0044993739
-0.0039716114
-0.0034689012
-0.0029899386
-0.0025332812
-0.0020974084
-0.0016807596
-0.0012817751
-0.00089897221
-0.00052958368
-0.00017295119
-0.01309909
-0.01256835
-0.011985671
-0.011363814
-0.010714908
-0.01005003
-0.0093789239
-0.0087098406
-0.0080494997
-0.0074031496
-0.0067746502
-0.0061666733
-0.005580875
-0.0050180815
-0.0044784626
-0.0039616911
-0.0034670883
-0.0029937315
-0.002540535
-0.0021063244
-0.0016898625
-0.0012898464
-0.00090488944
-0.00053331275
-0.00017440088
-0.012494658
-0.012014872
-0.011485715
-0.010918131
-0.010322663
-0.0097090853
-0.0090861521
-0.0084614285
-0.0078412252
-0.0072306146
-0.0066334869
-0.0060526752
-0.0054900932
-0.0049468834
-0.004423566
-0.003920167
-0.0034363568
-0.0029715406
-0.0025249439
-0.0020956829
-0.0016828011
-0.0012852645
-0.00090188309
-0.00053169382
-0.00017388033
-0.011891313
-0.011456518
-0.010975009
-0.010456195
-0.0099092478
-0.0093427897
-0.0087646646
-0.0081817781
-0.0076000122
-0.0070242085
-0.0064582097
-0.0059049306
-0.0053664629
-0.0048441907
-0.0043389114
-0.0038509496
-0.0033802699
-0.002926559
-0.0024893093
-0.0020678783
-0.0016615353
-0.0012695146
-0.00089114965
-0.00052548833
-0.00017177494
-0.011289725
-0.010894894
-0.010456035
-0.0099812555
-0.0094785465
-0.0089555155
-0.0084191785
-0.0078758138
-0.0073308705
-0.006788933
-0.0062537357
-0.0057282101
-0.005214557
-0.0047143363
-0.0042285616
-0.0037578041
-0.0033022677
-0.0028618841
-0.0024363767
-0.0020253177
-0.0016281754
-0.0012444012
-0.00087373346
-0.00051529187
-0.00016863954
-0.010690774
-0.01033166
-0.0099311918
-0.0094963717
-0.0090341751
-0.0085513149
-0.0080540606
-0.0075481032
-0.0070384649
-0.0065294541
-0.0060246596
-0.0055269772
-0.0050386609
-0.0045613886
-0.0040963383
-0.0036442687
-0.0032055879
-0.0027804335
-0.0023687343
-0.0019702668
-0.001584707
-0.0012117014
-0.00085094547
-0.0005016488
-0.00016359055
-0.010095468
-0.009768476
-0.0094027621
-0.0090043925
-0.008579464
-0.0081339035
-0.0076733096
-0.0072028296
-0.0067270732
-0.0062500623
-0.0057752139
-0.0053053504
-0.0048427325
-0.0043891076
-0.0039457686
-0.0035136156
-0.0030932214
-0.0026848938
-0.0022887354
-0.0019046968
-0.001532625
-0.0011723002
-0.00082335887
-0.00048536986
-0.00015817638
-0.009504874
-0.0092069502
-0.0088728801
-0.008507932
-0.0081174418
-0.0077066464
-0.0072805431
-0.0068437783
-0.0064005686
-0.005954648
-0.0055092438
-0.0050670756
-0.004630374
-0.0042009146
-0.0037800621
-0.0033688199
-0.0029678852
-0.0025777011
-0.0021985077
-0.0018303897
-0.0014733139
-0.0011271578
-0.00079171325
-0.00046684284
-0.00015236049
-0.0089200576
-0.0086485987
-0.0083435015
-0.0080093513
-0.0076508244
-0.0072725515
-0.0068789906
-0.0064743292
-0.0060624125
-0.0056466908
-0.005230191
-0.0048155075
-0.0044048112
-0.0039998715
-0.0036020894
-0.0032125369
-0.0028320003
-0.002461025
-0.0020999582
-0.0017489906
-0.0014081909
-0.0010775439
-0.00075699941
-0.0004464565
-0.00014581685
-0.0083420229
-0.0080948006
-0.007816374
-0.0075107418
-0.0071820085
-0.0068342675
-0.0064714942
-0.0060974577
-0.0057156545
-0.0053292583
-0.00494109
-0.0045536031
-0.0041688855
-0.0037886728
-0.0034143723
-0.0030470933
-0.0026876814
-0.0023367552
-0.0019947435
-0.0016619215
-0.0013384451
-0.0010243916
-0.00071980702
-0.00042458379
-0.00013869401
-0.0077716678
-0.0075467666
-0.0072930184
-0.0070139161
-0.0067130647
-0.0063940828
-0.0060605128
-0.0057157416
-0.0053629391
-0.0050050128
-0.0046445756
-0.0042839298
-0.0039250627
-0.003569654
-0.0032190921
-0.0028744971
-0.0025367474
-0.0022065103
-0.001884273
-0.0015703756
-0.0012650427
-0.00096842035
-0.00068061103
-0.0004015102
-0.00013115219
-0.0072097516
-0.0070055163
-0.006774715
-0.0065204008
-0.0062457417
-0.0059539349
-0.0056481328
-0.0053313727
-0.00500652
-0.0046762268
-0.0043428998
-0.0040086836
-0.0036754524
-0.0033448124
-0.0030181126
-0.002696461
-0.0023807465
-0.0020716627
-0.0017697358
-0.0014753521
-0.0011887862
-0.00091023228
-0.00063982928
-0.00037748788
-0.00012329367
-0.006656866
-0.0064718608
-0.0062624952
-0.006031438
-0.0057814714
-0.0055154186
-0.0052360802
-0.0049461727
-0.004648278
-0.0043448036
-0.0040379544
-0.0037297137
-0.0034218335
-0.0031158333
-0.0028130057
-0.0025144283
-0.0022209805
-0.0019333649
-0.0016521286
-0.0013776871
-0.0011103485
-0.00085033922
-0.00059782359
-0.00035273379
-0.00011519474
-0.0061134078
-0.0059463824
-0.0057571293
-0.0055479791
-0.0053213707
-0.0050797951
-0.0048257346
-0.004561611
-0.0042897407
-0.0040122991
-0.0037312935
-0.0034485452
-0.0031656774
-0.0028841122
-0.0026050732
-0.0023295931
-0.0020585275
-0.0017925714
-0.0015322772
-0.0012780743
-0.00103029
-0.000789171
-0.00055489944
-0.00032743046
-0.0001069176
-0.005579575
-0.0054294361
-0.0052591312
-0.0050706935
-0.0048662579
-0.0046480148
-0.004418156
-0.0041788318
-0.0039321109
-0.0036799479
-0.0034241587
-0.0031664027
-0.0029081706
-0.0026507794
-0.0023953735
-0.0021429302
-0.001894269
-0.0016500636
-0.0014108577
-0.0011770819
-0.00094907095
-0.00072708212
-0.00051130892
-0.00030172815
-9.8512723e-05
-0.0050553888
-0.0049211801
-0.0047687998
-0.0046000174
-0.0044166989
-0.0042207587
-0.0040141234
-0.0037986923
-0.0035763023
-0.0033486989
-0.0031175127
-0.0028842431
-0.0026502463
-0.0024167298
-0.0021847511
-0.001955222
-0.0017289147
-0.0015064708
-0.0012884148
-0.001075168
-0.00086706303
-0.00066435931
-0.00046725571
-0.00027574786
-9.0020087e-05
-0.0045407019
-0.0044215896
-0.0042862378
-0.0041361786
-0.0039730324
-0.0037984664
-0.0036141646
-0.0034217936
-0.0032229732
-0.0030192494
-0.0028120742
-0.0026027897
-0.0023926174
-0.0021826516
-0.001973858
-0.0017670743
-0.0015630161
-0.0013622845
-0.001165376
-0.00097269385
-0.00078456018
-0.00060122979
-0.00042290128
-0.00024958543
-8.1470901e-05
-0.0040351858
-0.0039304424
-0.0038113332
-0.003679175
-0.0035353628
-0.0033813407
-0.00321857
-0.0030485014
-0.0028725495
-0.0026920708
-0.0025083448
-0.0023225596
-0.0021358022
-0.001949052
-0.0017631781
-0.0015789392
-0.0013969879
-0.0012178771
-0.0010420673
-0.00086993633
-0.0007017891
-0.0005378696
-0.00037837102
-0.00022331551
-7.2889235e-05
-0.0035383366
-0.0034473284
-0.0033437739
-0.0032287944
-0.003103581
-0.0029693701
-0.0028274163
-0.0026789686
-0.0025252487
-0.0023674321
-0.0022066316
-0.0020438853
-0.0018801467
-0.0017162789
-0.0015530514
-0.0013911404
-0.0012311307
-0.0010735207
-0.00091872883
-0.00076710099
-0.00061891907
-0.0004744109
-0.0003337593
-0.00019699424
-6.429312e-05
-0.0030495036
-0.0029716843
-0.00288309
-0.0027846633
-0.0026774077
-0.0025623662
-0.0024406001
-0.0023131687
-0.0021811107
-0.0020454288
-0.0019070753
-0.0017669412
-0.0016258482
-0.0014845428
-0.0013436936
-0.0012038906
-0.001065647
-0.00092940249
-0.00079552819
-0.00066433308
-0.00053607093
-0.00041094869
-0.00028913426
-0.00017066204
-5.5695485e-05
-0.0025679128
-0.0025028182
-0.0024286777
-0.0023462687
-0.0022564196
-0.0021599928
-0.0020578679
-0.0019509243
-0.0018400269
-0.0017260123
-0.0016096773
-0.0014917695
-0.0013729805
-0.0012539403
-0.0011352156
-0.0010173083
-0.00090065664
-0.00078563796
-0.00067257228
-0.00056172752
-0.00045332519
-0.00034754718
-0.00024454244
-0.00014434675
-4.7105189e-05
-0.0020926745
-0.0020399176
-0.0019798078
-0.0019129674
-0.0018400606
-0.0017617798
-0.0016788319
-0.0015919256
-0.0015017588
-0.0014090078
-0.0013143186
-0.0012182986
-0.0011215107
-0.0010244696
-0.00092763919
-0.00083143161
-0.00073620814
-0.00064228083
-0.00054991551
-0.00045933576
-0.00037072737
-0.00028424378
-0.00020001147
-0.00011806509
-3.8527186e-05
-0.0016227733
-0.0015820412
-0.001535619
-0.0014839826
-0.0014276403
-0.0013671224
-0.0013029714
-0.0012357316
-0.0011659399
-0.0010941176
-0.0010207633
-0.00094634669
-0.00087130399
-0.00079603488
-0.0007209003
-0.00064622187
-0.00057228211
-0.00049932576
-0.00042756202
-0.00035716747
-0.00028828947
-0.00022105028
-0.00015555125
-9.1822773e-05
-2.9963167e-05
-0.0011570061
-0.0011280603
-0.0010950639
-0.0010583524
-0.0010182849
-0.00097523612
-0.00092958961
-0.0008817307
-0.00083203995
-0.00078088724
-0.00072862671
-0.00067559254
-0.00062209558
-0.000568421
-0.00051482684
-0.00046154339
-0.00040877332
-0.00035669261
-0.00030545206
-0.00025517924
-0.00020598098
-0.00015794616
-0.00011114874
-6.5612787e-05
-2.1410402e-05
-0.00069423906
-0.00067691014
-0.00065715336
-0.0006351686
-0.00061116967
-0.00058538022
-0.00055802914
-0.0005293465
-0.00049955965
-0.00046888978
-0.00043754878
-0.00040573685
-0.0003736404
-0.00034143061
-0.00030926256
-0.00027727483
-0.00024558955
-0.0002143129
-0.00018353603
-0.00015333622
-0.00012377832
-9.4916445e-05
-6.6795618e-05
-3.9430752e-05
-1.2866458e-05
-0.00023188941
-0.00022610642
-0.00021951281
-0.00021217514
-0.0002041645
-0.00019555551
-0.00018642455
-0.00017684829
-0.00016690255
-0.00015666109
-0.00014619461
-0.00013556995
-0.00012484937
-0.00011409007
-0.0001033439
-9.2657206e-05
-8.2070851e-05
-7.1620397e-05
-6.133637e-05
-5.12447e-05
-4.1367163e-05
-3.1721982e-05
-2.2324412e-05
-1.3178344e-05
-4.2994439e-06
)
;

boundaryField
{
    Walls
    {
        type            zeroGradient;
    }
    Inlet
    {
        type            fixedValue;
        value           uniform 500;
    }
    Outlet
    {
        type            fixedValue;
        value           uniform 0;
    }
    Front
    {
        type            wedge;
    }
    Back
    {
        type            wedge;
    }
    defaultFaces
    {
        type            empty;
    }
}


// ************************************************************************* //
