/*--------------------------------*- C++ -*----------------------------------*\
| =========                 |                                                 |
| \\      /  F ield         | OpenFOAM: The Open Source CFD Toolbox           |
|  \\    /   O peration     | Version:  4.0                                   |
|   \\  /    A nd           | Web:      www.OpenFOAM.org                      |
|    \\/     M anipulation  |                                                 |
\*---------------------------------------------------------------------------*/
FoamFile
{
    version     2.0;
    format      ascii;
    class       volScalarField;
    location    "0.27";
    object      k;
}
// * * * * * * * * * * * * * * * * * * * * * * * * * * * * * * * * * * * * * //

dimensions      [0 2 -2 0 0 0 0];

internalField   nonuniform List<scalar> 
1740
(
0.008603314
0.008993953
0.018464402
0.0091750301
0.01002327
0.027370006
0.0095865363
0.010534762
0.034284279
0.0098569255
0.010717069
0.04133513
0.010034747
0.010971276
0.047553339
0.010173702
0.011268509
0.051735889
0.010245333
0.011609107
0.056027708
0.010256728
0.011951174
0.059876237
0.010260057
0.012465473
0.062982244
0.010272874
0.01333869
0.065135516
0.010201876
0.013429689
0.06617266
0.010077713
0.013188937
0.067186257
0.0099047759
0.013246668
0.068484299
0.0098021854
0.013477848
0.06987387
0.0096788119
0.013760145
0.070778014
0.0095390342
0.013891124
0.071049846
0.009411448
0.013925644
0.071419337
0.009331375
0.01403187
0.072018554
0.0092450874
0.014198622
0.072696449
0.009148229
0.014484097
0.073179389
0.009110878
0.014809454
0.073149944
0.0090649847
0.014737819
0.072805268
0.0088811634
0.014500836
0.072801152
0.0087033139
0.014687884
0.072980249
0.0085439568
0.014626743
0.072722739
0.0084218971
0.01435093
0.072538064
0.0083423914
0.014263869
0.072082135
0.0082821066
0.014496612
0.072283274
0.0082837512
0.014808578
0.071884811
0.0089627663
0.016038377
0.066926078
0.012805461
0.018147639
0.047500386
0.02392097
0.031142719
0.039805537
0.010269709
0.012534081
0.013738596
0.0042713031
0.0046036776
0.0046648818
0.0020691568
0.002111162
0.0020847501
0.0011303014
0.0011309456
0.0011127822
0.00067400082
0.00067128478
0.00066291159
0.00042574256
0.00042413566
0.00042082229
0.0002773056
0.00027661653
0.00027548224
0.00018201691
0.0001817596
0.00018143693
0.00011810073
0.00011800482
0.0001179242
7.4634615e-05
7.4586693e-05
7.4547002e-05
4.5524511e-05
4.5488699e-05
4.5442207e-05
2.6763625e-05
2.6733764e-05
2.668368e-05
1.5288637e-05
1.5265627e-05
1.5222572e-05
8.6620166e-06
8.6463585e-06
8.6156555e-06
5.0556799e-06
5.0464342e-06
5.0278837e-06
3.2081557e-06
3.2035069e-06
3.1940947e-06
2.32382e-06
2.3220354e-06
2.3184784e-06
1.9405384e-06
1.9403718e-06
1.9401701e-06
1.8062396e-06
1.8069023e-06
1.8084315e-06
1.7905411e-06
1.7915799e-06
1.7938936e-06
1.8291672e-06
1.8303418e-06
1.8329344e-06
1.8918229e-06
1.893015e-06
1.8956361e-06
1.9648215e-06
1.9659769e-06
1.9685128e-06
2.0422106e-06
2.0433071e-06
2.045711e-06
2.1214677e-06
2.1224978e-06
2.1247547e-06
2.2015124e-06
2.2024749e-06
2.2045831e-06
2.28183e-06
2.2827266e-06
2.2846898e-06
2.3621039e-06
2.3629371e-06
2.3647611e-06
2.4420679e-06
2.4428405e-06
2.4445316e-06
2.5214489e-06
2.5221638e-06
2.5237283e-06
2.5999435e-06
2.6006035e-06
2.6020476e-06
2.6772031e-06
2.677811e-06
2.679141e-06
2.752814e-06
2.7533724e-06
2.7545943e-06
2.82626e-06
2.8267718e-06
2.8278915e-06
2.8968534e-06
2.8973213e-06
2.898345e-06
2.9636109e-06
2.9640376e-06
2.9649712e-06
3.0250417e-06
3.0254301e-06
3.0262798e-06
3.0788083e-06
3.0791613e-06
3.0799334e-06
3.1212104e-06
3.1215308e-06
3.1222317e-06
3.1464536e-06
3.1467443e-06
3.1473803e-06
3.1456968e-06
3.1459603e-06
3.1465371e-06
3.1059571e-06
3.1061954e-06
3.1067172e-06
3.0091274e-06
3.0093406e-06
3.0098088e-06
2.8316817e-06
2.8318677e-06
2.8322791e-06
2.546156e-06
2.5463101e-06
2.5466577e-06
2.126054e-06
2.1261715e-06
2.1264495e-06
1.5556329e-06
1.555713e-06
1.5559207e-06
8.43554e-07
8.435978e-07
8.4372454e-07
0.056459435
0.061044305
0.046124421
0.046594976
0.012480146
0.011344218
0.0043558948
0.004119663
0.0019937684
0.0019350645
0.0010835089
0.0010683398
0.00065345281
0.00065076593
0.00041811034
0.00041886929
0.00027501795
0.00027638658
0.00018158226
0.00018270318
0.00011811531
0.00011881365
7.4640933e-05
7.4982006e-05
4.5447384e-05
4.5560121e-05
2.6644818e-05
2.6645046e-05
1.5175405e-05
1.5138152e-05
8.577935e-06
8.5402156e-06
5.0039644e-06
4.9781304e-06
3.1817716e-06
3.1682011e-06
2.3139733e-06
2.3092892e-06
1.9402604e-06
1.9409737e-06
1.8109198e-06
1.8144878e-06
1.7974673e-06
1.8023234e-06
1.8368827e-06
1.8421648e-06
1.8996057e-06
1.9048827e-06
1.9723427e-06
1.9774188e-06
2.0493365e-06
2.0541339e-06
2.1281554e-06
2.1326512e-06
2.2077579e-06
2.2119527e-06
2.2876452e-06
2.2915487e-06
2.3675063e-06
2.371131e-06
2.4470762e-06
2.4504355e-06
2.5260821e-06
2.529189e-06
2.6042202e-06
2.6070874e-06
2.6811416e-06
2.6837815e-06
2.7564321e-06
2.7588568e-06
2.8295756e-06
2.8317971e-06
2.8998843e-06
2.9019147e-06
2.966375e-06
2.9682264e-06
3.0275574e-06
3.0292421e-06
3.0810942e-06
3.0826248e-06
3.1232854e-06
3.1246748e-06
3.1483365e-06
3.1495974e-06
3.1474047e-06
3.1485491e-06
3.1075031e-06
3.108541e-06
3.0105164e-06
3.0114546e-06
2.8329074e-06
2.8337501e-06
2.5472045e-06
2.5479602e-06
2.1269187e-06
2.1276108e-06
1.5563169e-06
1.5569616e-06
8.4399825e-07
8.4448188e-07
5.2657761e-06
2.6951636e-05
0.00013428398
0.00030462955
0.00046159547
0.00057226333
0.00064216515
0.00068528306
0.00071335423
0.00073345622
0.00074953265
0.00076432735
0.00077788073
0.00078989504
0.0008000544
0.00080785614
0.00081242002
0.00081224753
0.00080485965
0.00078628725
0.00075036611
0.00068788456
0.00058595035
0.00042834234
0.00019554297
2.5710359e-06
5.4761115e-05
0.00025108668
0.00051587144
0.00072760822
0.00085882418
0.00093432759
0.00097827265
0.0010060477
0.0010256316
0.0010411836
0.0010550693
0.001067392
0.0010778243
0.0010859756
0.0010912747
0.0010926999
0.0010885142
0.0010757801
0.0010497195
0.0010027639
0.000923179
0.00079334303
0.00058853591
0.00027838215
8.0001203e-06
0.00016007807
0.00061635066
0.0010802489
0.0013631354
0.0015055801
0.001572641
0.001603652
0.0016185502
0.0016257447
0.0016295644
0.0016311043
0.0016312582
0.0016294591
0.0016252217
0.0016181131
0.0016071695
0.001590751
0.0015657041
0.0015267767
0.0014653847
0.0013673606
0.0012086894
0.00094738645
0.00050939727
3.7649844e-05
0.00057944293
0.0016862092
0.0024373037
0.0027740388
0.0028878107
0.0028969867
0.0028664294
0.002825872
0.00278025
0.0027345705
0.0026907166
0.0026491157
0.0026066024
0.0025625605
0.0025173907
0.0024706486
0.0024210221
0.0023659691
0.0023010167
0.0022186588
0.0021061173
0.0019396851
0.0016672877
0.0011340698
0.00028159411
0.0024461023
0.0049130665
0.0060336197
0.006380098
0.0063190418
0.0060903598
0.0058278502
0.0055784646
0.0053276787
0.0050870879
0.0048621107
0.0046575493
0.0044590554
0.0042657395
0.0040822553
0.0039095283
0.0037470329
0.0035930906
0.0034444338
0.0032957307
0.0031391556
0.0029641621
0.0027628161
0.0025534096
0.0023616317
0.010520077
0.016565578
0.018514746
0.01805566
0.016501358
0.014688683
0.013002818
0.011523139
0.010248135
0.009157403
0.0082284385
0.0074359216
0.0067559728
0.0061707425
0.0056668245
0.0052327864
0.0048583042
0.0045340364
0.0042512922
0.0040014621
0.0037759176
0.0035664632
0.0033728288
0.0032107427
0.045058479
0.034152093
0.026623464
0.02143814
0.017766444
0.015052749
0.01296156
0.01130644
0.0099772292
0.0088971213
0.0080079998
0.0072657847
0.0066372177
0.0060976399
0.0056289855
0.0052185998
0.0048576966
0.0045397111
0.0042591963
0.0040110629
0.0037899669
0.0035902713
0.0034066447
0.0032408446
0.003108463
0.037250072
0.030956291
0.027752805
0.025122944
0.022251296
0.019278609
0.016563021
0.014266946
0.012387817
0.010848021
0.0095780834
0.0085214127
0.0076346106
0.00688775
0.0062569455
0.0057226335
0.0052684631
0.0048807777
0.0045479737
0.0042597492
0.0040063478
0.0037783672
0.0035670254
0.0033717726
0.0032084098
0.010207553
0.0095352927
0.0091967154
0.0088777846
0.0084165558
0.0078525654
0.0072962676
0.0067997147
0.0063482274
0.0059490142
0.0055993894
0.0052932157
0.0050052988
0.0047385362
0.0044942806
0.0042718386
0.0040692357
0.0038837376
0.0037117361
0.0035485348
0.0033878143
0.0032210643
0.0030371977
0.0028278326
0.0026108338
0.0039609814
0.0038881294
0.0038657939
0.0038249194
0.003730184
0.0035945684
0.0034539735
0.0033232453
0.0032048858
0.003101001
0.0030106558
0.0029307241
0.0028556177
0.0027847393
0.0027179548
0.0026545729
0.0025931362
0.0025313284
0.0024657247
0.0023912382
0.0023000114
0.0021791147
0.0020047271
0.0017239257
0.0011767952
0.0019178311
0.0019307726
0.0019551815
0.0019690793
0.0019613977
0.001935646
0.0019027559
0.001869691
0.0018394979
0.0018134725
0.0017914174
0.0017721003
0.001753896
0.0017361833
0.0017187751
0.0017006892
0.0016803427
0.0016552982
0.0016218965
0.0015746046
0.0015048322
0.0013987052
0.0012326827
0.00096498706
0.00052087388
0.001072287
0.0010899233
0.0011124244
0.0011310149
0.0011411332
0.0011435211
0.0011417374
0.0011387748
0.0011363304
0.0011351351
0.0011351618
0.001135881
0.0011365889
0.0011367385
0.001135799
0.0011328649
0.001126484
0.0011144445
0.0010934631
0.0010586971
0.0010029874
0.00091570921
0.00078118415
0.00057721714
0.00027603731
0.00065706206
0.00067005067
0.00068571281
0.0007002092
0.00071136069
0.00071907164
0.00072453808
0.00072903752
0.00073344502
0.00073817703
0.00074326149
0.0007484564
0.00075338687
0.00075763961
0.00076068877
0.00076173425
0.00075956872
0.00075240956
0.00073768663
0.00071177346
0.00066967986
0.00060477555
0.00050872088
0.00037172661
0.00018036823
0.00042404802
0.00043268044
0.00044291806
0.0004529421
0.00046162828
0.00046873062
0.00047461514
0.00047980993
0.00048473797
0.00048962262
0.0004944902
0.00049921384
0.00050356614
0.00050724531
0.00050983835
0.00051073787
0.00050904855
0.00050347775
0.00049221873
0.00047285564
0.00044237177
0.00039745968
0.00033564129
0.00025869846
0.00018206641
0.0002800128
0.00028547362
0.00029189872
0.00029838836
0.00030432651
0.00030948807
0.00031395202
0.00031792241
0.00032158945
0.00032506276
0.00032835283
0.00033138455
0.0003340141
0.0003360348
0.00033715642
0.0003369594
0.00033483681
0.00032993182
0.00032108536
0.00030683619
0.0002855592
0.00025591811
0.00021798447
0.00017572264
0.00014180313
0.00018499334
0.00018826482
0.00019209557
0.00019602255
0.0001997002
0.00020296008
0.00020578714
0.00020824726
0.00021041736
0.00021234498
0.00021403023
0.00021542567
0.00021644179
0.00021694753
0.00021675887
0.00021561431
0.00021314257
0.00020882948
0.00020199931
0.00019184291
0.00017754857
0.00015862234
0.00013550474
0.00011054392
8.6541189e-05
0.00012011004
0.00012191949
0.00012403289
0.00012620752
0.00012824665
0.00013003517
0.00013153601
0.00013276014
0.00013373402
0.00013447437
0.00013497693
0.00013521324
0.00013513173
0.00013465785
0.00013368872
0.00013208107
0.00012963466
0.00012607576
0.00012105068
0.00011414645
0.00010495999
9.3220519e-05
7.8875369e-05
6.1705405e-05
3.857179e-05
7.5615427e-05
7.6502554e-05
7.7539987e-05
7.8600388e-05
7.9572529e-05
8.0382884e-05
8.0997481e-05
8.1409935e-05
8.1626194e-05
8.1651026e-05
8.1480858e-05
8.1100873e-05
8.0485319e-05
7.959809e-05
7.8390515e-05
7.6796038e-05
7.4722358e-05
7.204297e-05
6.8593147e-05
6.4176843e-05
5.8587308e-05
5.1622555e-05
4.3011592e-05
3.2037579e-05
1.667223e-05
4.5804831e-05
4.6164352e-05
4.6588477e-05
4.7011929e-05
4.7373973e-05
4.7630893e-05
4.7758646e-05
4.7748649e-05
4.7600715e-05
4.7316175e-05
4.6893758e-05
4.6327829e-05
4.5608479e-05
4.4721954e-05
4.3650142e-05
4.2368275e-05
4.0841118e-05
3.9018216e-05
3.6830131e-05
3.4187435e-05
3.0980603e-05
2.7067955e-05
2.2218416e-05
1.5978653e-05
7.6549708e-06
2.6697909e-05
2.6796648e-05
2.691789e-05
2.7029365e-05
2.7099756e-05
2.7104979e-05
2.7030601e-05
2.6870511e-05
2.662376e-05
2.6291213e-05
2.5873421e-05
2.5369596e-05
2.4777605e-05
2.4094273e-05
2.3315237e-05
2.2433887e-05
2.1439313e-05
2.0313409e-05
1.90277e-05
1.754023e-05
1.579132e-05
1.369382e-05
1.1112332e-05
7.8479658e-06
3.735854e-06
1.5118337e-05
1.5113979e-05
1.5114737e-05
1.5105624e-05
1.5071288e-05
1.4999554e-05
1.4882739e-05
1.4717432e-05
1.4503125e-05
1.4240736e-05
1.393145e-05
1.3576199e-05
1.3175543e-05
1.2729934e-05
1.2239449e-05
1.1703239e-05
1.1118304e-05
1.0477645e-05
9.7679942e-06
8.9671632e-06
8.0409886e-06
6.9395057e-06
5.5944106e-06
3.932322e-06
1.9477002e-06
8.5066283e-06
8.4769566e-06
8.4469892e-06
8.410149e-06
8.3593937e-06
8.2889483e-06
8.1951199e-06
8.0762558e-06
7.9322643e-06
7.7638907e-06
7.5721851e-06
7.3582067e-06
7.1228982e-06
6.8671105e-06
6.5914969e-06
6.2960364e-06
5.9792295e-06
5.6368698e-06
5.2604995e-06
4.8357653e-06
4.3410928e-06
3.7468828e-06
3.0182321e-06
2.1272162e-06
1.0821038e-06
4.9525864e-06
4.9275911e-06
4.9015858e-06
4.8718073e-06
4.8352116e-06
4.7892073e-06
4.7321207e-06
4.6632169e-06
4.5825185e-06
4.4904895e-06
4.3877765e-06
4.2750336e-06
4.1528283e-06
4.0215464e-06
3.8812767e-06
3.7314499e-06
3.5702221e-06
3.3936195e-06
3.1945027e-06
2.9616012e-06
2.6788416e-06
2.3261543e-06
1.8826877e-06
1.3349728e-06
6.8910309e-07
3.1545121e-06
3.1409906e-06
3.1270922e-06
3.1117055e-06
3.0935357e-06
3.0714426e-06
3.0446604e-06
3.0128327e-06
2.9759424e-06
2.9341752e-06
2.8877934e-06
2.8370316e-06
2.7820117e-06
2.7226352e-06
2.6583906e-06
2.5880692e-06
2.5092452e-06
2.4176161e-06
2.3062376e-06
2.1648681e-06
1.979679e-06
1.7344453e-06
1.4136583e-06
1.0086844e-06
5.2693393e-07
2.3049725e-06
2.3012044e-06
2.2977898e-06
2.2942698e-06
2.2900675e-06
2.2846492e-06
2.2776196e-06
2.2687487e-06
2.2579424e-06
2.2451868e-06
2.2304816e-06
2.2137726e-06
2.1948705e-06
2.1733306e-06
2.1482528e-06
2.1179814e-06
2.0796566e-06
2.0286281e-06
1.9578077e-06
1.8571464e-06
1.713582e-06
1.5121565e-06
1.2390748e-06
8.8721658e-07
4.6637279e-07
1.9425466e-06
1.9450553e-06
1.9484023e-06
1.9523586e-06
1.9566285e-06
1.9609126e-06
1.9649554e-06
1.9685581e-06
1.9715703e-06
1.9738619e-06
1.9752842e-06
1.9756185e-06
1.9744953e-06
1.9712682e-06
1.9648095e-06
1.9532009e-06
1.9333053e-06
1.9002084e-06
1.846611e-06
1.7623547e-06
1.6344502e-06
1.4481884e-06
1.190197e-06
8.5397607e-07
4.5167679e-07
1.8192135e-06
1.8250987e-06
1.8320607e-06
1.8399465e-06
1.8485609e-06
1.8576937e-06
1.8671404e-06
1.8767104e-06
1.8862229e-06
1.8954917e-06
1.9042962e-06
1.9123348e-06
1.9191458e-06
1.9239755e-06
1.9255702e-06
1.9218622e-06
1.9095351e-06
1.8834749e-06
1.8361666e-06
1.7572309e-06
1.6334732e-06
1.4500194e-06
1.1933947e-06
8.5724158e-07
4.5441383e-07
1.8084613e-06
1.8158398e-06
1.8243713e-06
1.8339264e-06
1.844347e-06
1.855458e-06
1.8670774e-06
1.8790207e-06
1.8910973e-06
1.9030997e-06
1.914778e-06
1.9257944e-06
1.9356432e-06
1.9435157e-06
1.9480866e-06
1.9471937e-06
1.9373935e-06
1.9134059e-06
1.8675037e-06
1.7890468e-06
1.6645377e-06
1.4787912e-06
1.2180774e-06
8.7606148e-07
4.6771651e-07
1.8487437e-06
1.8565565e-06
1.8655105e-06
1.8754859e-06
1.8863407e-06
1.8979178e-06
1.9100495e-06
1.9225593e-06
1.9352588e-06
1.9479372e-06
1.9603363e-06
1.9721053e-06
1.9827184e-06
1.9913368e-06
1.996589e-06
1.9962429e-06
1.9867505e-06
1.9626791e-06
1.916091e-06
1.8360694e-06
1.7087805e-06
1.5186731e-06
1.2516568e-06
9.0100918e-07
4.8301101e-07
1.9114144e-06
1.919129e-06
1.9279334e-06
1.9377137e-06
1.9483388e-06
1.9596642e-06
1.971534e-06
1.9837816e-06
1.9962261e-06
2.0086612e-06
2.02083e-06
2.0323787e-06
2.0427722e-06
2.051152e-06
2.056111e-06
2.0553563e-06
2.0452435e-06
2.0201902e-06
1.9720452e-06
1.8896043e-06
1.7586741e-06
1.5632912e-06
1.2889479e-06
9.287344e-07
4.9926415e-07
1.9836828e-06
1.9910611e-06
1.9994628e-06
2.0087805e-06
2.0188922e-06
2.029664e-06
2.040951e-06
2.0525968e-06
2.0644299e-06
2.0762512e-06
2.0878089e-06
2.0987499e-06
2.1085339e-06
2.1162868e-06
2.1205689e-06
2.1190295e-06
2.1079278e-06
2.0815308e-06
2.0314665e-06
1.9462298e-06
1.811241e-06
1.6100722e-06
1.327715e-06
9.5700831e-07
5.1444016e-07
2.0600446e-06
2.0669964e-06
2.0749024e-06
2.083662e-06
2.0931615e-06
2.1032766e-06
2.1138725e-06
2.1248029e-06
2.1359054e-06
2.146989e-06
2.1578074e-06
2.16801e-06
2.177052e-06
2.1840446e-06
2.1875165e-06
2.1850585e-06
2.1728314e-06
2.1449479e-06
2.0928068e-06
2.0045863e-06
1.865297e-06
1.6580238e-06
1.3672819e-06
9.8584029e-07
5.3094973e-07
2.1381853e-06
2.1446884e-06
2.1520788e-06
2.160262e-06
2.1691326e-06
2.1785747e-06
2.1884627e-06
2.1986599e-06
2.2090123e-06
2.2193367e-06
2.2293926e-06
2.238831e-06
2.2471031e-06
2.2533052e-06
2.2559337e-06
2.2525198e-06
2.2391234e-06
2.209698e-06
2.1554059e-06
2.0640955e-06
1.920349e-06
1.7067563e-06
1.4074321e-06
1.0153402e-06
5.4867763e-07
2.2171133e-06
2.2231744e-06
2.230059e-06
2.237679e-06
2.2459363e-06
2.2547231e-06
2.263922e-06
2.2734048e-06
2.2830258e-06
2.2926085e-06
2.3019177e-06
2.3106061e-06
2.3181199e-06
2.3235401e-06
2.3253299e-06
2.3209592e-06
2.3063851e-06
2.2753984e-06
2.2189197e-06
2.1244598e-06
1.9761628e-06
1.7561205e-06
1.4480758e-06
1.0453364e-06
5.6760301e-07
2.296349e-06
2.3019848e-06
2.3083842e-06
2.315465e-06
2.3231357e-06
2.3312959e-06
2.339836e-06
2.3486353e-06
2.3575556e-06
2.366427e-06
2.3750185e-06
2.382984e-06
2.3897645e-06
2.3944246e-06
2.3953935e-06
2.3900787e-06
2.3743325e-06
2.3417809e-06
2.283101e-06
2.1854648e-06
2.0325818e-06
1.8060495e-06
1.4891581e-06
1.0748709e-06
5.8271123e-07
2.3755873e-06
2.3808178e-06
2.3867553e-06
2.3933232e-06
2.4004364e-06
2.408001e-06
2.4159147e-06
2.4240638e-06
2.4323169e-06
2.4405098e-06
2.4484158e-06
2.4556889e-06
2.4617644e-06
2.46569e-06
2.4658601e-06
2.4596187e-06
2.4427121e-06
2.4086006e-06
2.3477178e-06
2.2469005e-06
2.0894354e-06
1.8564451e-06
1.5307541e-06
1.1047816e-06
5.9700609e-07
2.4545645e-06
2.4594098e-06
2.4649086e-06
2.4709897e-06
2.4775737e-06
2.4845731e-06
2.4918921e-06
2.4994235e-06
2.5070421e-06
2.5145891e-06
2.5218412e-06
2.5284525e-06
2.5338516e-06
2.5370691e-06
2.5364635e-06
2.5293149e-06
2.511263e-06
2.4756021e-06
2.4125236e-06
2.3085353e-06
2.1465178e-06
1.9071593e-06
1.5728897e-06
1.135726e-06
6.136988e-07
2.5330071e-06
2.5374865e-06
2.542569e-06
2.5481882e-06
2.5542702e-06
2.5607332e-06
2.5674876e-06
2.5744322e-06
2.5814477e-06
2.58838e-06
2.5950089e-06
2.6009881e-06
2.6057391e-06
2.6082746e-06
2.606917e-06
2.5988819e-06
2.5797023e-06
2.542507e-06
2.477247e-06
2.3701065e-06
2.2035737e-06
1.9579392e-06
1.6153607e-06
1.167819e-06
6.33209e-07
2.6106103e-06
2.6147427e-06
2.6194302e-06
2.6246113e-06
2.630217e-06
2.6361713e-06
2.6423898e-06
2.6487773e-06
2.6552197e-06
2.6615675e-06
2.667603e-06
2.6729788e-06
2.6771093e-06
2.6789887e-06
2.6769032e-06
2.6680038e-06
2.6477167e-06
2.6090066e-06
2.5415865e-06
2.4313217e-06
2.2603152e-06
2.0084685e-06
1.6576952e-06
1.2002687e-06
6.5825071e-07
2.6870246e-06
2.6908279e-06
2.6951412e-06
2.6999071e-06
2.7050615e-06
2.7105333e-06
2.7162439e-06
2.7221029e-06
2.7280014e-06
2.7337938e-06
2.7392647e-06
2.7440655e-06
2.7476028e-06
2.7488523e-06
2.7460636e-06
2.7363233e-06
2.714952e-06
2.6747517e-06
2.6052011e-06
2.4918526e-06
2.3164291e-06
2.0584316e-06
1.6994306e-06
1.2315237e-06
6.7704442e-07
2.7618351e-06
2.7653272e-06
2.7692863e-06
2.7736593e-06
2.7783866e-06
2.783402e-06
2.7886316e-06
2.7939903e-06
2.7993733e-06
2.8046391e-06
2.809574e-06
2.8138278e-06
2.8167992e-06
2.8174451e-06
2.8139788e-06
2.8034229e-06
2.7809936e-06
2.7393331e-06
2.6676908e-06
2.5513135e-06
2.3715538e-06
2.1075123e-06
1.7403807e-06
1.2620649e-06
6.9281367e-07
2.8345254e-06
2.8377236e-06
2.8413485e-06
2.8453508e-06
2.849675e-06
2.8542595e-06
2.859035e-06
2.8639209e-06
2.8688169e-06
2.8735846e-06
2.878012e-06
2.8817468e-06
2.8841798e-06
2.8842491e-06
2.8801318e-06
2.8687874e-06
2.8453299e-06
2.8022449e-06
2.7285587e-06
2.6092223e-06
2.4252302e-06
2.1552887e-06
1.7801591e-06
1.2911795e-06
7.0829579e-07
2.9044079e-06
2.9073296e-06
2.9106401e-06
2.9142937e-06
2.9182388e-06
2.9224179e-06
2.9267662e-06
2.9312073e-06
2.9356446e-06
2.939943e-06
2.9438915e-06
2.9471358e-06
2.9490583e-06
2.9485784e-06
2.9438378e-06
2.9317342e-06
2.9072816e-06
2.8628142e-06
2.7871418e-06
2.6649298e-06
2.4768246e-06
2.2011411e-06
1.8182086e-06
1.3189084e-06
7.232494e-07
2.9704993e-06
2.9731623e-06
2.9761785e-06
2.9795056e-06
2.9830959e-06
2.9868956e-06
2.9908439e-06
2.9948683e-06
2.9988759e-06
3.0027341e-06
3.0062329e-06
3.0090155e-06
3.010456e-06
3.0094553e-06
3.0041203e-06
2.9912888e-06
2.9658785e-06
2.9200777e-06
2.8424893e-06
2.717503e-06
2.5254238e-06
2.2441652e-06
1.8535986e-06
1.344226e-06
7.3658037e-07
3.0313099e-06
3.0337321e-06
3.0364745e-06
3.039498e-06
3.0427583e-06
3.0462051e-06
3.0497814e-06
3.0534181e-06
3.0570256e-06
3.0604735e-06
3.0635525e-06
3.0659031e-06
3.0668908e-06
3.0653985e-06
3.0594993e-06
3.0459737e-06
3.0196479e-06
2.9725729e-06
2.8931571e-06
2.7655314e-06
2.5696772e-06
2.283128e-06
1.8853511e-06
1.3666194e-06
7.4815994e-07
3.0845033e-06
3.086703e-06
3.0891927e-06
3.0919361e-06
3.0948919e-06
3.0980133e-06
3.1012464e-06
3.1045255e-06
3.1077636e-06
3.1108322e-06
3.1135222e-06
3.1154712e-06
3.1160363e-06
3.1140826e-06
3.1076512e-06
3.093469e-06
3.0662776e-06
3.0180036e-06
2.9368812e-06
2.8068133e-06
2.6075028e-06
2.3161769e-06
1.9120304e-06
1.3852377e-06
7.5447633e-07
3.1263798e-06
3.128376e-06
3.1306346e-06
3.133122e-06
3.1357999e-06
3.1386244e-06
3.1415444e-06
3.1444969e-06
3.1473974e-06
3.1501188e-06
3.1524519e-06
3.154031e-06
3.1542048e-06
3.1518218e-06
3.1448934e-06
3.1300984e-06
3.1021054e-06
3.0527364e-06
2.9700856e-06
2.8378804e-06
2.6356236e-06
2.3403465e-06
1.9311066e-06
1.3980745e-06
7.6029903e-07
3.1511448e-06
3.1529565e-06
3.1550059e-06
3.1572621e-06
3.1596892e-06
3.162246e-06
3.1648838e-06
3.167542e-06
3.1701379e-06
3.1725453e-06
3.1745546e-06
3.1757968e-06
3.1756128e-06
3.172836e-06
3.1654528e-06
3.1501029e-06
3.1213998e-06
3.0710938e-06
2.9871944e-06
2.8533417e-06
2.6489671e-06
2.3510794e-06
1.9388059e-06
1.402372e-06
7.5963033e-07
3.1499541e-06
3.1515996e-06
3.1534614e-06
3.1555108e-06
3.1577142e-06
3.1600326e-06
3.1624193e-06
3.1648156e-06
3.16714e-06
3.1692672e-06
3.1709867e-06
3.1719269e-06
3.1714223e-06
3.168295e-06
3.1605139e-06
3.1446954e-06
3.1154277e-06
3.0644417e-06
2.9797511e-06
2.8450481e-06
2.6398955e-06
2.3415421e-06
1.9294821e-06
1.3943519e-06
7.5377546e-07
3.1098169e-06
3.1113128e-06
3.1130065e-06
3.1148715e-06
3.1168763e-06
3.1189836e-06
3.1211485e-06
3.1233136e-06
3.1253984e-06
3.1272781e-06
3.1287422e-06
3.1294178e-06
3.1286367e-06
3.1252171e-06
3.1171245e-06
3.1009795e-06
3.071393e-06
3.0201603e-06
2.9354356e-06
2.8011739e-06
2.5973714e-06
2.3018998e-06
1.8949956e-06
1.3679149e-06
7.3836331e-07
3.0126117e-06
3.0139713e-06
3.0155128e-06
3.0172109e-06
3.0190363e-06
3.0209537e-06
3.0229196e-06
3.0248781e-06
3.0267503e-06
3.0284119e-06
3.0296534e-06
3.0301047e-06
3.0291026e-06
3.0254754e-06
3.0172115e-06
3.0009814e-06
2.9714974e-06
2.9207487e-06
2.8372332e-06
2.705473e-06
2.5063195e-06
2.2187936e-06
1.8243871e-06
1.3151559e-06
7.0847548e-07
2.8347979e-06
2.8360318e-06
2.8374293e-06
2.8389652e-06
2.8406149e-06
2.8423478e-06
2.8441221e-06
2.8458844e-06
2.8475593e-06
2.8490235e-06
2.8500708e-06
2.8503409e-06
2.8491897e-06
2.8454812e-06
2.837272e-06
2.8213594e-06
2.7926813e-06
2.7436147e-06
2.6632954e-06
2.5372297e-06
2.3476828e-06
2.0755131e-06
1.7042434e-06
1.2274863e-06
6.6192417e-07
2.5489157e-06
2.5500328e-06
2.5512762e-06
2.5526183e-06
2.5540563e-06
2.5555746e-06
2.5571321e-06
2.5586788e-06
2.5601485e-06
2.5614193e-06
2.5622907e-06
2.5624232e-06
2.5612151e-06
2.5576078e-06
2.5498002e-06
2.5348387e-06
2.5080752e-06
2.462555e-06
2.3884541e-06
2.2728085e-06
2.0999825e-06
1.8534583e-06
1.5195853e-06
1.0942322e-06
5.9379909e-07
2.1285072e-06
2.1295075e-06
2.1305356e-06
2.1315589e-06
2.1326628e-06
2.1338707e-06
2.135132e-06
2.1363954e-06
2.1376124e-06
2.1386652e-06
2.1393615e-06
2.1393978e-06
2.1382477e-06
2.1349918e-06
2.1280798e-06
2.1149758e-06
2.0917323e-06
2.0524306e-06
1.9888045e-06
1.8900838e-06
1.7435048e-06
1.5359727e-06
1.2572982e-06
9.0557306e-07
4.9477304e-07
1.5578094e-06
1.5586424e-06
1.5593022e-06
1.5597533e-06
1.5603085e-06
1.5610521e-06
1.561895e-06
1.5627674e-06
1.5636433e-06
1.5644171e-06
1.5649166e-06
1.5648961e-06
1.5639482e-06
1.5613717e-06
1.5559823e-06
1.5456952e-06
1.5280158e-06
1.498331e-06
1.4505146e-06
1.3767277e-06
1.2678559e-06
1.1149141e-06
9.1152439e-07
6.5757015e-07
3.6440862e-07
8.4511402e-07
8.4562271e-07
8.458014e-07
8.4562246e-07
8.4560219e-07
8.4584079e-07
8.4621133e-07
8.4662914e-07
8.4708184e-07
8.4749924e-07
8.4776571e-07
8.4773189e-07
8.4716327e-07
8.4565418e-07
8.4232823e-07
8.3411415e-07
8.2403285e-07
8.0757549e-07
7.8116249e-07
7.4061716e-07
6.8111882e-07
5.9818264e-07
4.890413e-07
3.5399212e-07
2.0094788e-07
)
;

boundaryField
{
    Walls
    {
        type            kqRWallFunction;
        value           nonuniform List<scalar> 
38
(
5.2657761e-06
2.5710359e-06
8.0001203e-06
3.7649844e-05
0.00028159411
0.0023616317
0.056459435
0.061044305
0.018464402
0.027370006
0.034284279
0.04133513
0.047553339
0.051735889
0.056027708
0.059876237
0.062982244
0.065135516
0.06617266
0.067186257
0.068484299
0.06987387
0.070778014
0.071049846
0.071419337
0.072018554
0.072696449
0.073179389
0.073149944
0.072805268
0.072801152
0.072980249
0.072722739
0.072538064
0.072082135
0.072283274
0.071884811
0.066926078
)
;
    }
    Inlet
    {
        type            turbulentIntensityKineticEnergyInlet;
        intensity       0.05;
        value           nonuniform List<scalar> 3(0.0081193273 0.0082019743 0.0097144731);
    }
    Outlet
    {
        type            inletOutlet;
        inletValue      uniform 0;
        value           nonuniform List<scalar> 
86
(
0
0
0
0
0
0
0
0
0
0
0
0
0
0
0
0
0
0
0
0
0
0
0
0
0
0
0
0
0
0
0.003108463
0.0032084098
0.0026108338
0
0
0
0
0.00018206641
0.00014180313
8.6541189e-05
0
0
0
0
1.9477002e-06
1.0821038e-06
6.8910309e-07
5.2693393e-07
4.6637279e-07
4.5167679e-07
4.5441383e-07
4.6771651e-07
4.8301101e-07
4.9926415e-07
5.1444016e-07
5.3094973e-07
5.4867763e-07
5.6760301e-07
5.8271123e-07
5.9700609e-07
6.136988e-07
6.33209e-07
6.5825071e-07
6.7704442e-07
0
0
0
0
0
0
0
0
0
0
0
0
0
0
0
0
0
0
0
0
0.0025534096
0.0032107427
)
;
    }
    Front
    {
        type            wedge;
    }
    Back
    {
        type            wedge;
    }
    defaultFaces
    {
        type            empty;
    }
}


// ************************************************************************* //
