/*--------------------------------*- C++ -*----------------------------------*\
| =========                 |                                                 |
| \\      /  F ield         | OpenFOAM: The Open Source CFD Toolbox           |
|  \\    /   O peration     | Version:  4.0                                   |
|   \\  /    A nd           | Web:      www.OpenFOAM.org                      |
|    \\/     M anipulation  |                                                 |
\*---------------------------------------------------------------------------*/
FoamFile
{
    version     2.0;
    format      ascii;
    class       volScalarField;
    location    "0.27";
    object      nut;
}
// * * * * * * * * * * * * * * * * * * * * * * * * * * * * * * * * * * * * * //

dimensions      [0 2 -1 0 0 0 0];

internalField   nonuniform List<scalar> 
1740
(
1.8346169e-05
1.2255104e-05
1.2374706e-06
1.4757338e-05
6.5259654e-06
1.8210548e-06
2.6375995e-05
5.3966195e-06
2.2684198e-06
2.640178e-05
4.8937592e-06
2.7196911e-06
2.1012809e-05
4.4617719e-06
3.1135803e-06
1.7008783e-05
4.1385746e-06
3.3762757e-06
1.4047383e-05
3.9184997e-06
3.6445306e-06
1.2029553e-05
3.7649969e-06
3.883216e-06
1.0558451e-05
3.6658286e-06
4.0748924e-06
9.3281495e-06
3.6281791e-06
4.2079791e-06
8.5202187e-06
3.569731e-06
4.271323e-06
8.0156085e-06
3.5169425e-06
4.3327765e-06
7.4779985e-06
3.4965366e-06
4.4124834e-06
6.9448411e-06
3.4894823e-06
4.4971494e-06
6.5201008e-06
3.4920038e-06
4.5523653e-06
6.183914e-06
3.4897499e-06
4.5694438e-06
5.9014852e-06
3.4898331e-06
4.5909265e-06
5.645353e-06
3.5018418e-06
4.6271209e-06
5.422228e-06
3.5174388e-06
4.6686021e-06
5.2132867e-06
3.5409645e-06
4.697608e-06
5.0060217e-06
3.5626188e-06
4.6964976e-06
4.8345155e-06
3.5515518e-06
4.6759214e-06
4.716541e-06
3.5303805e-06
4.6755759e-06
4.6101878e-06
3.5415146e-06
4.6865413e-06
4.493717e-06
3.5313972e-06
4.670515e-06
4.3749104e-06
3.5031798e-06
4.6592714e-06
4.2741011e-06
3.4947973e-06
4.6311147e-06
4.1923616e-06
3.5169054e-06
4.6437082e-06
4.149187e-06
3.5523981e-06
4.6195508e-06
2.6378466e-06
3.6610315e-06
4.3169504e-06
1.8646676e-06
2.1852419e-06
4.43175e-06
7.1694738e-06
7.3555854e-06
6.7190954e-06
6.533125e-06
6.7382667e-06
6.3735271e-06
5.1778428e-06
5.1158601e-06
4.8686236e-06
4.3242887e-06
4.2520936e-06
4.1165874e-06
3.7570694e-06
3.7141405e-06
3.6533717e-06
3.3361236e-06
3.3177456e-06
3.2995726e-06
2.9678856e-06
2.9634079e-06
2.9658443e-06
2.590663e-06
2.5921803e-06
2.6018576e-06
2.1738293e-06
2.1767603e-06
2.1864686e-06
1.7204459e-06
1.7227056e-06
1.7294102e-06
1.2650109e-06
1.2660719e-06
1.2693653e-06
8.5791167e-07
8.5804238e-07
8.5887087e-07
5.3909604e-07
5.3877789e-07
5.3838158e-07
3.1949011e-07
3.1908268e-07
3.1835946e-07
1.8422397e-07
1.839026e-07
1.8329499e-07
1.0867473e-07
1.0848423e-07
1.0810781e-07
6.9548505e-08
6.9451441e-08
6.9257971e-08
5.076132e-08
5.0723287e-08
5.0650428e-08
4.2698363e-08
4.2693882e-08
4.269119e-08
4.0021269e-08
4.0034145e-08
4.0068092e-08
3.9926453e-08
3.9947538e-08
3.9998497e-08
4.1010482e-08
4.103496e-08
4.1092386e-08
4.26037e-08
4.2629112e-08
4.268767e-08
4.440298e-08
4.4428092e-08
4.4485226e-08
4.6278957e-08
4.6303169e-08
4.6357736e-08
4.8179802e-08
4.8202835e-08
4.8254382e-08
5.0085794e-08
5.0107532e-08
5.0155928e-08
5.1989143e-08
5.200955e-08
5.2054809e-08
5.3885605e-08
5.3904687e-08
5.3946884e-08
5.5771279e-08
5.5789063e-08
5.5828303e-08
5.7641531e-08
5.7658054e-08
5.7694453e-08
5.9490721e-08
5.9506029e-08
5.9539706e-08
6.1312216e-08
6.1326357e-08
6.1357437e-08
6.3098481e-08
6.3111508e-08
6.3140116e-08
6.4841205e-08
6.4853173e-08
6.4879438e-08
6.6531444e-08
6.654241e-08
6.6566464e-08
6.81598e-08
6.8169824e-08
6.8191803e-08
6.9716665e-08
6.9725811e-08
6.9745858e-08
7.1192529e-08
7.1200865e-08
7.121913e-08
7.2578325e-08
7.2585923e-08
7.2602567e-08
7.3865722e-08
7.3872658e-08
7.388785e-08
7.5047176e-08
7.505353e-08
7.5067446e-08
7.6115473e-08
7.6121327e-08
7.6134148e-08
7.7062458e-08
7.7067894e-08
7.7079799e-08
7.7876591e-08
7.7881691e-08
7.7892854e-08
7.8536152e-08
7.8540981e-08
7.8551556e-08
7.9005203e-08
7.900982e-08
7.9019945e-08
7.9213531e-08
7.9217981e-08
7.9227771e-08
7.8981513e-08
7.8985786e-08
7.8995282e-08
4.1874096e-06
4.5095136e-06
6.729596e-06
8.4361038e-06
5.9909324e-06
6.0317232e-06
4.7225865e-06
4.825443e-06
4.0690006e-06
4.1768083e-06
3.6537175e-06
3.7511151e-06
3.3223644e-06
3.4063369e-06
2.9958621e-06
3.0648798e-06
2.6300781e-06
2.6832667e-06
2.2082586e-06
2.2458135e-06
1.7434095e-06
1.7669166e-06
1.2765275e-06
1.2889354e-06
8.6137288e-07
8.6640092e-07
5.3848643e-07
5.3960075e-07
3.1765261e-07
3.1724983e-07
1.8258017e-07
1.8191026e-07
1.0763398e-07
1.0714024e-07
6.9011006e-08
6.8749104e-08
5.0563324e-08
5.0480736e-08
4.2700172e-08
4.2729713e-08
4.0127894e-08
4.0217561e-08
4.0081545e-08
4.0198276e-08
4.1183529e-08
4.1308763e-08
4.2779253e-08
4.29036e-08
4.4573699e-08
4.4692911e-08
4.6441631e-08
4.6554076e-08
4.8333218e-08
4.8438479e-08
5.0229658e-08
5.0327827e-08
5.212356e-08
5.2214912e-08
5.4010848e-08
5.4095707e-08
5.5887687e-08
5.5966379e-08
5.7749468e-08
5.7822304e-08
5.9590559e-08
5.9657838e-08
6.1404332e-08
6.1466338e-08
6.3183255e-08
6.3240269e-08
6.4919024e-08
6.497132e-08
6.6602701e-08
6.6650558e-08
6.8224903e-08
6.8268602e-08
6.9776039e-08
6.9815874e-08
7.1246622e-08
7.1282899e-08
7.2627613e-08
7.2660654e-08
7.3910706e-08
7.3940851e-08
7.5088379e-08
7.5115984e-08
7.6153431e-08
7.6178858e-08
7.7097705e-08
7.7121317e-08
7.7909646e-08
7.7931794e-08
7.8567479e-08
7.8588502e-08
7.9035226e-08
7.9055449e-08
7.9242614e-08
7.9262348e-08
7.9009819e-08
7.9029302e-08
4.3669708e-10
1.3189989e-08
1.9281903e-07
8.256033e-07
1.641947e-06
2.2279255e-06
2.5720982e-06
2.7795244e-06
2.9224417e-06
3.0363444e-06
3.1380094e-06
3.2397431e-06
3.3407725e-06
3.4396261e-06
3.5354302e-06
3.6269052e-06
3.7117858e-06
3.7862384e-06
3.8439829e-06
3.8749652e-06
3.8632116e-06
3.7832591e-06
3.5936368e-06
3.2193331e-06
2.4291508e-06
2.1322007e-10
2.6878813e-08
3.5988582e-07
1.3770133e-06
2.5696691e-06
3.3771319e-06
3.8489749e-06
4.1541692e-06
4.3869758e-06
4.5899484e-06
4.7830943e-06
4.977639e-06
5.1732888e-06
5.3685178e-06
5.5616622e-06
5.7500953e-06
5.9293449e-06
6.0920966e-06
6.2263503e-06
6.3127727e-06
6.3202699e-06
6.1980911e-06
5.8605689e-06
5.1497437e-06
3.64264e-06
6.6346004e-10
7.8836683e-08
8.5768665e-07
2.5080387e-06
3.7932428e-06
4.5290739e-06
4.9916025e-06
5.3357153e-06
5.633816e-06
5.918043e-06
6.2033448e-06
6.4959684e-06
6.7948421e-06
7.0985551e-06
7.405526e-06
7.712697e-06
8.0140537e-06
8.3000687e-06
8.5539686e-06
8.7483472e-06
8.8384271e-06
8.7492318e-06
8.34915e-06
7.3856402e-06
5.2256489e-06
3.1222591e-09
2.8518398e-07
2.0624825e-06
4.0035074e-06
5.0442824e-06
5.6319442e-06
6.0383781e-06
6.3801647e-06
6.707341e-06
7.038303e-06
7.3836011e-06
7.7460878e-06
8.1220513e-06
8.5098742e-06
8.9090373e-06
9.3179209e-06
9.7314715e-06
1.0140345e-05
1.0528496e-05
1.0869223e-05
1.1118267e-05
1.1200197e-05
1.0975955e-05
1.0144445e-05
7.7942996e-06
2.3346461e-08
1.1372489e-06
3.9869085e-06
5.5955379e-06
6.447617e-06
6.9691985e-06
7.3533261e-06
7.6999962e-06
8.0496405e-06
8.4039184e-06
8.7759747e-06
9.1723961e-06
9.5827849e-06
1.0002197e-05
1.0432683e-05
1.0878419e-05
1.1338307e-05
1.1807482e-05
1.2276072e-05
1.2726425e-05
1.3128773e-05
1.3435296e-05
1.3572857e-05
1.3450045e-05
1.3040879e-05
1.9538157e-07
2.7529233e-06
5.898647e-06
7.702449e-06
8.6176276e-06
9.0356168e-06
9.2329048e-06
9.3708148e-06
9.5105843e-06
9.670231e-06
9.8576123e-06
1.0078799e-05
1.0334057e-05
1.0623118e-05
1.0946649e-05
1.1305098e-05
1.1697985e-05
1.2122731e-05
1.2573832e-05
1.3041325e-05
1.3508032e-05
1.3946562e-05
1.431638e-05
1.4572603e-05
1.4662152e-05
4.3481393e-06
4.3218354e-06
4.3668291e-06
4.4781892e-06
4.6539453e-06
4.8836279e-06
5.1572718e-06
5.4718425e-06
5.8289343e-06
6.2301405e-06
6.6751239e-06
7.1609475e-06
7.6815511e-06
8.2290409e-06
8.7957048e-06
9.3758033e-06
9.965934e-06
1.0563881e-05
1.1167068e-05
1.1770616e-05
1.2364612e-05
1.2931306e-05
1.3442527e-05
1.3865251e-05
1.4137153e-05
9.1067666e-06
9.3623154e-06
9.7625197e-06
1.0182454e-05
1.0359577e-05
1.0324173e-05
1.0207823e-05
1.0111394e-05
1.0074828e-05
1.0099679e-05
1.0181553e-05
1.0315568e-05
1.0499318e-05
1.0731972e-05
1.1012786e-05
1.1340549e-05
1.1712722e-05
1.2124934e-05
1.2570035e-05
1.3036277e-05
1.3504471e-05
1.3945066e-05
1.4315269e-05
1.4569014e-05
1.465491e-05
6.4026496e-06
6.8126273e-06
7.2448619e-06
7.6454666e-06
7.9477295e-06
8.1649052e-06
8.3566936e-06
8.5627714e-06
8.7911163e-06
9.0560304e-06
9.3537299e-06
9.6752278e-06
1.0015006e-05
1.0378626e-05
1.0769418e-05
1.118764e-05
1.1630297e-05
1.2090555e-05
1.2556037e-05
1.300603e-05
1.340713e-05
1.370741e-05
1.3829601e-05
1.3679528e-05
1.3233797e-05
5.1370586e-06
5.4932003e-06
5.8431562e-06
6.1588075e-06
6.423157e-06
6.6485334e-06
6.8649542e-06
7.0925726e-06
7.3421208e-06
7.6198371e-06
7.9232992e-06
8.2495376e-06
8.597817e-06
8.9688226e-06
9.3620139e-06
9.7740716e-06
1.0197786e-05
1.0620551e-05
1.1021923e-05
1.1369599e-05
1.1612562e-05
1.1667921e-05
1.1389372e-05
1.0467721e-05
7.9692469e-06
4.4176815e-06
4.7047332e-06
4.9919375e-06
5.2584918e-06
5.4981006e-06
5.7184633e-06
5.9337356e-06
6.1563312e-06
6.3943526e-06
6.6515307e-06
6.9271865e-06
7.2197986e-06
7.5287383e-06
7.8530372e-06
8.190578e-06
8.535774e-06
8.8786935e-06
9.203253e-06
9.4845214e-06
9.684582e-06
9.745925e-06
9.5799421e-06
9.0437547e-06
7.8816051e-06
5.4728251e-06
3.9338986e-06
4.1567449e-06
4.3869319e-06
4.6081693e-06
4.8161076e-06
5.0148424e-06
5.2120199e-06
5.4149628e-06
5.628861e-06
5.856115e-06
6.0966245e-06
6.3493404e-06
6.6131139e-06
6.8859713e-06
7.164174e-06
7.4411481e-06
7.7061671e-06
7.9426811e-06
8.1260579e-06
8.2204829e-06
8.1746453e-06
7.9152322e-06
7.3348262e-06
6.2576282e-06
4.2305832e-06
3.5457373e-06
3.7167867e-06
3.8983082e-06
4.0780376e-06
4.2517217e-06
4.4207205e-06
4.5890558e-06
4.7610212e-06
4.9398711e-06
5.1272007e-06
5.3230612e-06
5.5266186e-06
5.7365111e-06
5.9504597e-06
6.1645679e-06
6.3724749e-06
6.5643627e-06
6.7256339e-06
6.8352929e-06
6.8640463e-06
6.7721916e-06
6.5071097e-06
5.9984913e-06
5.1381073e-06
3.6082362e-06
3.1703611e-06
3.2996909e-06
3.4396476e-06
3.581221e-06
3.7203393e-06
3.8567323e-06
3.9922188e-06
4.1291678e-06
4.2695078e-06
4.4142127e-06
4.563264e-06
4.7158933e-06
4.8707205e-06
5.0255543e-06
5.1769481e-06
5.3195992e-06
5.445602e-06
5.5435252e-06
5.5973956e-06
5.5857685e-06
5.481264e-06
5.2513431e-06
4.8625075e-06
4.2983448e-06
3.648379e-06
2.7605419e-06
2.8551423e-06
2.9589037e-06
3.0653593e-06
3.1708449e-06
3.2742358e-06
3.3760409e-06
3.4774061e-06
3.5793692e-06
3.682443e-06
3.7864916e-06
3.8908113e-06
3.9941745e-06
4.0947453e-06
4.1898367e-06
4.2755323e-06
4.3461988e-06
4.3939236e-06
4.4079656e-06
4.3744676e-06
4.2769162e-06
4.0984314e-06
3.8288358e-06
3.4863312e-06
3.1811976e-06
2.2990135e-06
2.3642604e-06
2.4365324e-06
2.511267e-06
2.5854019e-06
2.6574936e-06
2.7273163e-06
2.7952545e-06
2.8617624e-06
2.9270389e-06
2.9908802e-06
3.0526818e-06
3.1114756e-06
3.1659181e-06
3.2141974e-06
3.2538484e-06
3.2815027e-06
3.2926095e-06
3.2812304e-06
3.2401301e-06
3.1615883e-06
3.0397357e-06
2.8760295e-06
2.6907693e-06
2.5195436e-06
1.8001253e-06
1.841172e-06
1.8870176e-06
1.9345524e-06
1.9813914e-06
2.0261295e-06
2.0682132e-06
2.1075956e-06
2.1443897e-06
2.1786016e-06
2.2100169e-06
2.2381792e-06
2.2624266e-06
2.2819329e-06
2.2957141e-06
2.302583e-06
2.3010724e-06
2.2893563e-06
2.2652572e-06
2.2265037e-06
2.171492e-06
2.1008104e-06
2.0191634e-06
1.9332261e-06
1.8112936e-06
1.3068849e-06
1.3294633e-06
1.3549117e-06
1.3812297e-06
1.406712e-06
1.4302077e-06
1.4511161e-06
1.4692137e-06
1.4844458e-06
1.4967467e-06
1.505951e-06
1.5117725e-06
1.5138451e-06
1.5117875e-06
1.5052514e-06
1.493948e-06
1.477659e-06
1.4562481e-06
1.4297358e-06
1.3985256e-06
1.363873e-06
1.3284979e-06
1.2963699e-06
1.2671868e-06
1.2018225e-06
8.742497e-07
8.845101e-07
8.9623154e-07
9.0822974e-07
9.1940868e-07
9.2895889e-07
9.3639545e-07
9.4148749e-07
9.441436e-07
9.4430291e-07
9.4187578e-07
9.3673209e-07
9.2873403e-07
9.1779407e-07
9.0392928e-07
8.8729855e-07
8.6822771e-07
8.4722881e-07
8.250431e-07
8.0274534e-07
7.8191062e-07
7.6466376e-07
7.5288124e-07
7.441852e-07
7.1407122e-07
5.4195636e-07
5.4540025e-07
5.4946272e-07
5.5350332e-07
5.5689561e-07
5.5914476e-07
5.5993338e-07
5.5909807e-07
5.5657245e-07
5.5232744e-07
5.4633756e-07
5.3857323e-07
5.2902027e-07
5.1772368e-07
5.0482513e-07
4.9058746e-07
4.7540652e-07
4.5981287e-07
4.4447083e-07
4.3018928e-07
4.179288e-07
4.0866828e-07
4.0274785e-07
3.9777469e-07
3.8186013e-07
3.1730687e-07
3.1778725e-07
3.1847846e-07
3.190678e-07
3.1922983e-07
3.1869909e-07
3.172981e-07
3.1493416e-07
3.1157312e-07
3.0721132e-07
3.0185543e-07
2.955188e-07
2.8822651e-07
2.8004679e-07
2.7111195e-07
2.6163123e-07
2.5189193e-07
2.4224959e-07
2.3310582e-07
2.2488866e-07
2.1802462e-07
2.1283192e-07
2.0917806e-07
2.0568278e-07
1.9791685e-07
1.8137698e-07
1.8098051e-07
1.8063308e-07
1.8019443e-07
1.7951212e-07
1.7845812e-07
1.769465e-07
1.7493321e-07
1.7240669e-07
1.6937348e-07
1.6584852e-07
1.6185247e-07
1.574168e-07
1.525812e-07
1.4743107e-07
1.4209591e-07
1.3674446e-07
1.3157069e-07
1.267698e-07
1.2253214e-07
1.1901214e-07
1.1629544e-07
1.1426096e-07
1.1237187e-07
1.093984e-07
1.0667702e-07
1.0625251e-07
1.0583481e-07
1.0536497e-07
1.0477676e-07
1.0401253e-07
1.0303338e-07
1.0181997e-07
1.0036892e-07
9.8686353e-08
9.6782909e-08
9.467184e-08
9.2371107e-08
8.9907776e-08
8.7319331e-08
8.4673927e-08
8.2056867e-08
7.9566101e-08
7.7305418e-08
7.5381971e-08
7.3790866e-08
7.2552806e-08
7.1610943e-08
7.0783224e-08
6.9730343e-08
6.8498996e-08
6.8268849e-08
6.8048193e-08
6.7813585e-08
6.7536929e-08
6.7192847e-08
6.6763495e-08
6.6239342e-08
6.5617658e-08
6.4899723e-08
6.4088805e-08
6.3189749e-08
6.2210585e-08
6.1165487e-08
6.0070691e-08
5.8959219e-08
5.7871763e-08
5.6853846e-08
5.5953065e-08
5.5220893e-08
5.4648682e-08
5.4211936e-08
5.388426e-08
5.3594154e-08
5.3199999e-08
5.0416425e-08
5.0376071e-08
5.0356583e-08
5.0348577e-08
5.0339589e-08
5.0317586e-08
5.0272999e-08
5.0199266e-08
5.0092254e-08
4.9949396e-08
4.9769158e-08
4.9551273e-08
4.9297664e-08
4.9013598e-08
4.8708005e-08
4.8392319e-08
4.8085946e-08
4.7809609e-08
4.7584287e-08
4.7431638e-08
4.7358126e-08
4.7316176e-08
4.7290888e-08
4.7241851e-08
4.7077177e-08
4.2786605e-08
4.2874162e-08
4.2991234e-08
4.3133222e-08
4.329356e-08
4.3465086e-08
4.3641071e-08
4.3815543e-08
4.3983302e-08
4.4139801e-08
4.4281215e-08
4.4404798e-08
4.4509419e-08
4.4596135e-08
4.4668652e-08
4.4730399e-08
4.479032e-08
4.485828e-08
4.4944112e-08
4.5057313e-08
4.5207031e-08
4.5343532e-08
4.5453964e-08
4.5504437e-08
4.541401e-08
4.0340196e-08
4.0497383e-08
4.068804e-08
4.090893e-08
4.1155368e-08
4.1421861e-08
4.1702629e-08
4.1991914e-08
4.2284173e-08
4.2574249e-08
4.285759e-08
4.3130561e-08
4.3390787e-08
4.3637454e-08
4.3871441e-08
4.4095018e-08
4.4310803e-08
4.452451e-08
4.4741577e-08
4.4967204e-08
4.5207433e-08
4.5418051e-08
4.558504e-08
4.567523e-08
4.5609193e-08
4.0349836e-08
4.0536643e-08
4.0757252e-08
4.1008703e-08
4.1286918e-08
4.1587067e-08
4.1903902e-08
4.2232012e-08
4.2566066e-08
4.2901032e-08
4.3232409e-08
4.3556484e-08
4.3870589e-08
4.4173321e-08
4.4464682e-08
4.47461e-08
4.5018395e-08
4.5285393e-08
4.5550671e-08
4.5817454e-08
4.6089415e-08
4.6327201e-08
4.6515285e-08
4.6619436e-08
4.6559036e-08
4.1468174e-08
4.1661428e-08
4.1886777e-08
4.2141338e-08
4.2421359e-08
4.2722471e-08
4.3039922e-08
4.3368799e-08
4.3704238e-08
4.4041629e-08
4.4376829e-08
4.4706379e-08
4.5027733e-08
4.5339453e-08
4.5641365e-08
4.5934626e-08
4.6219857e-08
4.6499937e-08
4.6777592e-08
4.7054925e-08
4.733381e-08
4.7578705e-08
4.7772342e-08
4.7878428e-08
4.7813748e-08
4.3060216e-08
4.3248303e-08
4.3465964e-08
4.3710433e-08
4.3978265e-08
4.4265525e-08
4.4567965e-08
4.4881197e-08
4.5200885e-08
4.5522908e-08
4.5843553e-08
4.6159717e-08
4.6469123e-08
4.6770509e-08
4.7063767e-08
4.7349908e-08
4.7630669e-08
4.7907659e-08
4.8183319e-08
4.8458995e-08
4.8735038e-08
4.8978815e-08
4.9171121e-08
4.9273278e-08
4.9198701e-08
4.4842055e-08
4.5020062e-08
4.5225013e-08
4.5454305e-08
4.57048e-08
4.5972974e-08
4.6255044e-08
4.6547116e-08
4.6845333e-08
4.7146038e-08
4.744593e-08
4.7742269e-08
4.8033088e-08
4.8317389e-08
4.8595276e-08
4.8867948e-08
4.9137486e-08
4.940547e-08
4.967393e-08
4.9943563e-08
5.0213346e-08
5.0452853e-08
5.0640928e-08
5.0736393e-08
5.0647855e-08
4.6694106e-08
4.6860512e-08
4.7051419e-08
4.7264406e-08
4.7496627e-08
4.7744917e-08
4.8005899e-08
4.8276103e-08
4.8552091e-08
4.8830604e-08
4.9108711e-08
4.9384017e-08
4.9654862e-08
4.9920536e-08
5.0181405e-08
5.0438895e-08
5.0695208e-08
5.0952643e-08
5.1212427e-08
5.1474792e-08
5.1737486e-08
5.1971795e-08
5.2154786e-08
5.2243257e-08
5.2142531e-08
4.8569131e-08
4.8723908e-08
4.8901011e-08
4.9098201e-08
4.9312888e-08
4.9542213e-08
4.9783142e-08
5.0032562e-08
5.0287387e-08
5.0544698e-08
5.0801896e-08
5.1056889e-08
5.1308322e-08
5.155577e-08
5.1799882e-08
5.204235e-08
5.2285605e-08
5.2532184e-08
5.2783147e-08
5.303821e-08
5.3294006e-08
5.3523148e-08
5.3701073e-08
5.378272e-08
5.3670484e-08
5.0449382e-08
5.0593054e-08
5.0757132e-08
5.0939546e-08
5.113793e-08
5.1349682e-08
5.1572056e-08
5.1802236e-08
5.2037438e-08
5.2275035e-08
5.2512716e-08
5.2748675e-08
5.2981834e-08
5.3212052e-08
5.3440262e-08
5.3668428e-08
5.3899218e-08
5.4135322e-08
5.437784e-08
5.4625994e-08
5.4875439e-08
5.5099846e-08
5.5273124e-08
5.5348e-08
5.5222053e-08
5.2327824e-08
5.2461053e-08
5.2612985e-08
5.27817e-08
5.2965024e-08
5.316058e-08
5.3365865e-08
5.3578313e-08
5.3795399e-08
5.4014755e-08
5.4234324e-08
5.4452561e-08
5.4668651e-08
5.4882726e-08
5.5095996e-08
5.5310695e-08
5.5529712e-08
5.5755825e-08
5.5990486e-08
5.6232235e-08
5.6475934e-08
5.6696112e-08
5.6865215e-08
5.6933187e-08
5.6789101e-08
5.4200455e-08
5.4323889e-08
5.4464494e-08
5.4620487e-08
5.4789864e-08
5.4970442e-08
5.5159926e-08
5.5355971e-08
5.5556275e-08
5.5758699e-08
5.5961419e-08
5.6163128e-08
5.6363262e-08
5.6562211e-08
5.6761458e-08
5.6963502e-08
5.7171467e-08
5.7388287e-08
5.7615477e-08
5.7851264e-08
5.8089743e-08
5.8306101e-08
5.8471467e-08
5.8533385e-08
5.8373738e-08
5.6063415e-08
5.6177646e-08
5.6307652e-08
5.6451777e-08
5.6608168e-08
5.6774814e-08
5.6949603e-08
5.7130385e-08
5.7315057e-08
5.7501686e-08
5.7688661e-08
5.7874899e-08
5.8060067e-08
5.8244808e-08
5.8430865e-08
5.8621e-08
5.8818569e-08
5.9026663e-08
5.9246813e-08
5.9477048e-08
5.9710733e-08
5.9923539e-08
6.0085414e-08
6.0142095e-08
5.9971074e-08
5.7912047e-08
5.8017609e-08
5.8137661e-08
5.8270664e-08
5.8414904e-08
5.8568522e-08
5.8729572e-08
5.8896076e-08
5.9066115e-08
5.9237943e-08
5.9410145e-08
5.9581845e-08
5.9752934e-08
5.9924292e-08
6.0097917e-08
6.0276822e-08
6.0464591e-08
6.066446e-08
6.0877932e-08
6.1103021e-08
6.1332258e-08
6.1541637e-08
6.1699947e-08
6.1751352e-08
6.1570858e-08
5.9740679e-08
5.9838059e-08
5.9948736e-08
6.0071283e-08
6.020411e-08
6.0345499e-08
6.0493652e-08
6.0646751e-08
6.0803044e-08
6.0960956e-08
6.1119256e-08
6.1277261e-08
6.1435074e-08
6.1593805e-08
6.1755691e-08
6.1923995e-08
6.2102517e-08
6.2294643e-08
6.2501888e-08
6.2722081e-08
6.2947133e-08
6.3153153e-08
6.3307657e-08
6.3352912e-08
6.3164321e-08
6.1542648e-08
6.1632299e-08
6.1734136e-08
6.1846834e-08
6.1968918e-08
6.2098801e-08
6.2234823e-08
6.237531e-08
6.2518663e-08
6.2663468e-08
6.2808665e-08
6.2953754e-08
6.3099037e-08
6.3245842e-08
6.3396639e-08
6.3554927e-08
6.3724719e-08
6.3909543e-08
6.4110927e-08
6.4326491e-08
6.4547594e-08
6.4750322e-08
6.4900848e-08
6.4939061e-08
6.4735378e-08
6.3310402e-08
6.3392755e-08
6.3486257e-08
6.3589674e-08
6.3701643e-08
6.3820696e-08
6.3945298e-08
6.4073912e-08
6.4205079e-08
6.4337536e-08
6.4470382e-08
6.4603289e-08
6.4736748e-08
6.4872293e-08
6.5012618e-08
6.5161445e-08
6.5322991e-08
6.550092e-08
6.5696765e-08
6.5907941e-08
6.612529e-08
6.632478e-08
6.647128e-08
6.6502436e-08
6.6284095e-08
6.5035625e-08
6.51111e-08
6.5196751e-08
6.5291436e-08
6.5393891e-08
6.5502758e-08
6.5616622e-08
6.573407e-08
6.5853775e-08
6.5974612e-08
6.6095831e-08
6.6217264e-08
6.6339581e-08
6.6464511e-08
6.6594959e-08
6.673486e-08
6.688862e-08
6.706003e-08
6.7250622e-08
6.7457605e-08
6.7671333e-08
6.7867547e-08
6.8009798e-08
6.8033318e-08
6.7798439e-08
6.6709381e-08
6.6778394e-08
6.6856674e-08
6.6943165e-08
6.7036695e-08
6.7136009e-08
6.7239802e-08
6.7346777e-08
6.7455729e-08
6.7565663e-08
6.7675966e-08
6.7786624e-08
6.7898471e-08
6.8013421e-08
6.8134576e-08
6.826607e-08
6.8412485e-08
6.8577723e-08
6.8763306e-08
6.8966214e-08
6.9176392e-08
6.9369166e-08
6.9506733e-08
6.9522024e-08
6.9271251e-08
6.8322298e-08
6.8385269e-08
6.8456661e-08
6.8535497e-08
6.8620693e-08
6.8711089e-08
6.8805479e-08
6.8902676e-08
6.9001586e-08
6.9101335e-08
6.9201439e-08
6.9302022e-08
6.9404075e-08
6.950968e-08
6.9622122e-08
6.9745716e-08
6.9885206e-08
7.0044592e-08
7.0225374e-08
7.0424321e-08
7.0630877e-08
7.0819945e-08
7.0952336e-08
7.0958714e-08
7.0691358e-08
6.9864805e-08
6.9922166e-08
6.9987165e-08
7.0058899e-08
7.0136365e-08
7.021849e-08
7.0304162e-08
7.0392291e-08
7.0481886e-08
7.0572185e-08
7.066282e-08
7.0754046e-08
7.0846993e-08
7.0943898e-08
7.1048208e-08
7.1164404e-08
7.1297366e-08
7.1451175e-08
7.16273e-08
7.1822293e-08
7.2025098e-08
7.2210194e-08
7.2337139e-08
7.2334647e-08
7.2051324e-08
7.1327446e-08
7.1379645e-08
7.1438767e-08
7.1503973e-08
7.1574337e-08
7.1648862e-08
7.1726524e-08
7.1806321e-08
7.1887357e-08
7.1968969e-08
7.2050896e-08
7.2133507e-08
7.2218059e-08
7.2306924e-08
7.2403692e-08
7.2512979e-08
7.2639782e-08
7.2788236e-08
7.2959762e-08
7.3150697e-08
7.3349518e-08
7.3530302e-08
7.3651523e-08
7.3640142e-08
7.3337067e-08
7.2701215e-08
7.2748727e-08
7.2802511e-08
7.2861792e-08
7.2925709e-08
7.2993339e-08
7.3063733e-08
7.3135969e-08
7.3209237e-08
7.3282961e-08
7.3356975e-08
7.3431748e-08
7.3508645e-08
7.3590152e-08
7.3679974e-08
7.3782834e-08
7.3903809e-08
7.4047058e-08
7.4213935e-08
7.4400566e-08
7.4595001e-08
7.4770948e-08
7.4885912e-08
7.4865186e-08
7.4545587e-08
7.3977848e-08
7.4021168e-08
7.4070182e-08
7.412417e-08
7.4182329e-08
7.4243801e-08
7.4307705e-08
7.437319e-08
7.4439518e-08
7.4506192e-08
7.4573126e-08
7.4640873e-08
7.4710886e-08
7.4785738e-08
7.4869218e-08
7.4966119e-08
7.5081551e-08
7.5219661e-08
7.5381708e-08
7.5563607e-08
7.5753024e-08
7.5923366e-08
7.6031343e-08
7.6000757e-08
7.5662829e-08
7.5149854e-08
7.51895e-08
7.5234334e-08
7.5283686e-08
7.5336804e-08
7.5392886e-08
7.5451109e-08
7.5510683e-08
7.5570934e-08
7.5631428e-08
7.5692146e-08
7.5753709e-08
7.5817632e-08
7.588655e-08
7.5964296e-08
7.6055682e-08
7.6165806e-08
7.6298746e-08
7.6455634e-08
7.66322e-08
7.6815625e-08
7.6979252e-08
7.7079207e-08
7.7038251e-08
7.6684407e-08
7.6210051e-08
7.6246551e-08
7.6287811e-08
7.6333197e-08
7.6382006e-08
7.6433481e-08
7.6486848e-08
7.6541368e-08
7.6596418e-08
7.6651619e-08
7.6707001e-08
7.6763234e-08
7.6821874e-08
7.6885582e-08
7.6958192e-08
7.7044485e-08
7.7149479e-08
7.7277122e-08
7.7428389e-08
7.7598838e-08
7.7774868e-08
7.7930236e-08
7.8020716e-08
7.7968705e-08
7.7603745e-08
7.715028e-08
7.7184163e-08
7.7222447e-08
7.7264534e-08
7.7309757e-08
7.7357397e-08
7.7406722e-08
7.7457034e-08
7.7507751e-08
7.7558533e-08
7.7609446e-08
7.7661191e-08
7.771534e-08
7.7774544e-08
7.7842596e-08
7.7924182e-08
7.8024169e-08
7.81463e-08
7.8291365e-08
7.8454372e-08
7.8621436e-08
7.8766616e-08
7.884569e-08
7.8781257e-08
7.8403885e-08
7.7958965e-08
7.7990741e-08
7.8026624e-08
7.8066042e-08
7.8108359e-08
7.8152893e-08
7.8198941e-08
7.824584e-08
7.8293041e-08
7.8340227e-08
7.838749e-08
7.8435537e-08
7.8485936e-08
7.8541296e-08
7.8605321e-08
7.8682547e-08
7.8777605e-08
7.8893915e-08
7.903177e-08
7.9185846e-08
7.9342243e-08
7.9475067e-08
7.9540492e-08
7.9462275e-08
7.9073346e-08
7.8614305e-08
7.8644464e-08
7.8678487e-08
7.8715815e-08
7.8755858e-08
7.8797968e-08
7.8841468e-08
7.8885715e-08
7.8930189e-08
7.8974585e-08
7.9018994e-08
7.9064121e-08
7.9111497e-08
7.9163663e-08
7.922419e-08
7.9297408e-08
7.9387643e-08
7.9497914e-08
7.9628035e-08
7.9772227e-08
7.9916394e-08
8.0034778e-08
8.0084342e-08
7.9991052e-08
7.9594754e-08
7.9080294e-08
7.9109281e-08
7.9141885e-08
7.917756e-08
7.9215815e-08
7.9256059e-08
7.9297618e-08
7.9339861e-08
7.938229e-08
7.9424595e-08
7.9466851e-08
7.9509736e-08
7.9554731e-08
7.9604278e-08
7.966179e-08
7.9731346e-08
7.9816946e-08
7.9921163e-08
8.0043308e-08
8.017699e-08
8.030782e-08
8.041029e-08
8.0442573e-08
8.0333708e-08
7.9931123e-08
7.9286619e-08
7.9314795e-08
7.9346251e-08
7.9380454e-08
7.9417183e-08
7.9455939e-08
7.9496013e-08
7.9536759e-08
7.9577693e-08
7.9618487e-08
7.9659178e-08
7.97004e-08
7.9743564e-08
7.9790994e-08
7.9845916e-08
7.9912014e-08
7.9993305e-08
8.009186e-08
8.0206708e-08
8.0330163e-08
8.0447624e-08
8.0534129e-08
8.0549676e-08
8.0427614e-08
8.0029957e-08
7.9053299e-08
7.9080871e-08
7.911117e-08
7.9143686e-08
7.9178851e-08
7.9216303e-08
7.9255211e-08
7.9294851e-08
7.9334746e-08
7.9374537e-08
7.9414199e-08
7.94543e-08
7.9496161e-08
7.9541955e-08
7.959443e-08
7.9654837e-08
7.9732028e-08
7.9826009e-08
7.9938694e-08
8.0054195e-08
8.0160018e-08
8.0232985e-08
8.0236018e-08
8.0107329e-08
7.9733639e-08
)
;

boundaryField
{
    Walls
    {
        type            nutUWallFunction;
        Cmu             0.09;
        kappa           0.41;
        E               9.8;
        value           uniform 0;
    }
    Inlet
    {
        type            calculated;
        value           nonuniform List<scalar> 3(3.3755849e-05 2.4058283e-05 7.9665838e-07);
    }
    Outlet
    {
        type            calculated;
        value           nonuniform List<scalar> 
86
(
0
0
0
0
0
0
0
0
0
0
0
0
0
0
0
0
0
0
0
0
0
0
0
0
0
0
0
0
0
0
1.4137153e-05
1.465491e-05
1.3233797e-05
0
0
0
0
3.648379e-06
3.1811976e-06
2.5195436e-06
0
0
0
0
1.9791685e-07
1.093984e-07
6.9730343e-08
5.3199999e-08
4.7077177e-08
4.541401e-08
4.5609193e-08
4.6559036e-08
4.7813748e-08
4.9198701e-08
5.0647855e-08
5.2142531e-08
5.3670484e-08
5.5222053e-08
5.6789101e-08
5.8373738e-08
5.9971074e-08
6.1570858e-08
6.3164321e-08
6.4735378e-08
0
0
0
0
0
0
0
0
0
0
0
0
0
0
0
0
0
0
0
0
1.3040879e-05
1.4662152e-05
)
;
    }
    Front
    {
        type            wedge;
    }
    Back
    {
        type            wedge;
    }
    defaultFaces
    {
        type            empty;
    }
}


// ************************************************************************* //
