/*--------------------------------*- C++ -*----------------------------------*\
| =========                 |                                                 |
| \\      /  F ield         | OpenFOAM: The Open Source CFD Toolbox           |
|  \\    /   O peration     | Version:  4.0                                   |
|   \\  /    A nd           | Web:      www.OpenFOAM.org                      |
|    \\/     M anipulation  |                                                 |
\*---------------------------------------------------------------------------*/
FoamFile
{
    version     2.0;
    format      ascii;
    class       volScalarField;
    location    "0.27";
    object      omega;
}
// * * * * * * * * * * * * * * * * * * * * * * * * * * * * * * * * * * * * * //

dimensions      [0 0 -1 0 0 0 0];

internalField   nonuniform List<scalar> 
1740
(
63.851772
733.89447
14921.083
169.22746
1535.906
15029.754
276.42919
1952.1039
15113.728
373.34322
2189.9462
15198.465
477.55382
2458.9505
15272.88
598.14404
2722.7995
15323.36
729.34104
2962.6407
15373.093
852.6275
3174.2851
15419.239
971.73889
3400.4516
15456.174
1101.2768
3676.4144
15479.049
1197.3726
3762.1012
15492.31
1257.2611
3750.1145
15506.514
1324.5223
3788.5112
15520.579
1411.4341
3862.4204
15537.369
1484.4574
3940.4724
15547.525
1542.5561
3980.55
15548.905
1594.7592
3990.3467
15556.628
1652.9303
4006.9972
15564.442
1705.0348
4036.6364
15571.353
1754.7911
4090.4383
15578.011
1819.9837
4156.9012
15575.425
1875.0555
4149.6843
15570.25
1882.9823
4107.4427
15570.521
1887.8437
4147.3453
15572.305
1901.3117
4141.9137
15570.604
1925.0445
4096.544
15568.542
1951.847
4081.4583
15564.748
1975.5229
4121.9794
15565.852
1996.4757
4168.6146
15560.996
2132.7575
4264.9731
15503.092
3212.2554
4557.1302
10718.201
3336.5028
4233.8872
5924.2405
1571.9443
1860.1342
2155.572
824.91943
899.8834
958.15206
478.49646
496.49941
506.42678
300.84656
304.49726
304.59046
202.03113
202.3316
200.90832
143.44979
143.12429
141.88954
107.0404
106.71192
105.87906
83.731002
83.500051
82.981719
68.64542
68.499702
68.187525
58.999189
58.911895
58.727777
53.064334
53.014513
52.909242
49.645375
49.619267
49.562766
47.853238
47.842231
47.815673
47.018943
47.015966
47.004315
46.521209
46.517677
46.50805
46.128321
46.125852
46.118802
45.779345
45.778489
45.774114
45.447606
45.448474
45.446615
45.131993
45.134029
45.133956
44.845985
44.848318
44.849026
44.602431
44.60445
44.605206
44.405131
44.406624
44.407112
44.249767
44.250761
44.250933
44.128276
44.128882
44.128795
44.032305
44.032634
44.032367
43.954826
43.954967
43.954586
43.890509
43.890527
43.890081
43.835528
43.835467
43.834989
43.787196
43.787087
43.7866
43.743615
43.743477
43.742997
43.703345
43.703193
43.702729
43.665086
43.664928
43.664486
43.627262
43.627106
43.626691
43.587406
43.587255
43.586868
43.541118
43.540974
43.540618
43.480334
43.480201
43.479877
43.390511
43.39039
43.390101
43.246228
43.246122
43.245872
43.004718
43.004631
43.004426
42.596939
42.596874
42.596723
41.916258
41.916221
41.916134
40.805857
40.805849
40.805832
39.047904
39.047915
39.047959
36.361141
36.361148
36.361219
32.420178
32.420147
32.420207
26.910304
26.910218
26.910289
19.638475
19.638382
19.638578
10.680398
10.680375
10.680695
13483.141
13536.783
5991.7846
5330.5329
2083.1725
1880.7591
922.35363
853.73779
489.9897
463.28784
296.54972
284.80593
196.68306
191.04567
139.56261
136.66744
104.56646
103.00377
82.22871
81.352786
67.749608
67.243494
58.471857
58.173594
52.761569
52.585494
49.480946
49.379186
47.773588
47.716817
46.981747
46.947412
46.490565
46.463684
46.105277
46.083526
45.763868
45.745949
45.439171
45.424448
45.128703
45.116804
44.84526
44.835837
44.602362
44.595013
44.404836
44.399135
44.249025
44.244574
44.127144
44.123611
44.030906
44.028038
43.953274
43.950889
43.888891
43.886863
43.833903
43.832147
43.785606
43.784063
43.742085
43.740716
43.701893
43.700669
43.663721
43.662622
43.625991
43.625002
43.586231
43.585341
43.540041
43.539242
43.479358
43.478646
43.389642
43.389016
43.245477
43.244942
43.004104
43.00367
42.596488
42.596174
41.916003
41.915834
40.805818
40.805823
39.048067
39.048278
36.361446
36.361925
32.420597
32.421539
26.911021
26.912893
19.639899
19.643142
10.682194
10.685681
12058.19
2043.3403
696.42491
368.97812
281.12689
256.85927
249.66587
246.54688
244.09528
241.55896
238.85609
235.92221
232.84457
229.64561
226.29619
222.7398
218.87578
214.52625
209.38169
202.91466
194.23376
181.82328
163.05219
133.05313
80.49849
12058.133
2037.3338
697.68428
374.6307
283.15249
254.30578
242.74712
235.49177
229.32603
223.45165
217.67992
211.96179
206.32754
200.76758
195.26097
189.78375
184.28678
178.67645
172.7786
166.28501
158.65841
148.9457
135.36963
114.28451
76.423184
12058.18
2030.5023
718.61987
430.71459
359.35887
332.42559
315.05733
300.55052
287.29199
274.70985
262.69124
251.09486
240.07302
229.54799
219.46066
209.79861
200.54389
191.65516
183.03833
174.52173
165.797
156.28351
144.76795
128.27411
97.480195
12058.527
2031.8215
817.56295
608.7921
549.93725
512.75555
479.76239
449.272
421.31033
395.0171
370.35728
347.36458
326.16338
306.30328
287.63608
270.16656
253.88232
238.75146
224.72052
211.7002
199.55078
188.04288
176.72131
164.35474
145.4999
12061.533
2150.8943
1232.2998
1078.2913
989.52807
906.70998
828.24556
756.86404
693.00791
633.95174
579.66073
530.08076
486.03296
445.80758
408.88232
375.26181
344.80705
317.34395
292.69058
270.65212
251.03113
233.64991
218.38897
205.41315
195.80042
12087.28
3821.4204
2808.3691
2403.7479
2095.2007
1826.257
1590.9059
1387.5867
1211.6121
1059.7612
928.96765
816.41058
719.55493
635.96893
563.71063
501.26276
447.32373
400.75987
360.59305
325.98621
296.22835
270.74182
249.11767
231.44999
218.98168
10362.704
7902.2198
6096.7496
4787.234
3817.5017
3082.2884
2513.2591
2066.2948
1711.6729
1428.0772
1199.6781
1014.6401
864.04656
740.99035
639.96981
556.60296
487.43013
429.73892
381.40686
340.76916
306.51724
277.64182
253.42293
233.73861
219.879
4090.373
3306.4781
2842.7912
2467.278
2147.8962
1867.3273
1622.5811
1410.9772
1229.581
1074.0957
940.72916
826.07304
727.15301
641.79723
568.15281
504.61696
449.80688
402.54054
361.81075
326.76118
296.66824
270.94654
249.17628
231.43451
218.9307
1594.2701
1399.6498
1269.4121
1161.1828
1058.9887
961.74606
873.1046
794.10209
722.11846
656.91191
598.62637
547.08952
499.77991
456.56682
417.31878
381.83554
349.88236
321.22078
295.61366
272.83765
252.68751
234.98708
219.61571
206.72004
197.28532
771.0602
707.80768
661.59346
621.0487
580.73997
540.65583
503.13133
468.55288
436.50683
406.96421
379.97502
355.25919
332.13288
310.49107
290.31733
271.59335
254.28424
238.34247
223.71093
210.31859
198.06236
186.76117
176.01735
164.68969
147.66705
434.12616
410.38939
391.66786
374.45704
356.74097
338.49058
320.66745
303.70215
287.6754
272.63988
258.60677
245.4501
232.96015
221.08431
209.84784
199.24253
189.25562
179.86012
171.00457
162.5888
154.4063
146.00351
136.3021
122.43535
95.17459
272.57616
262.20597
253.57685
245.43693
236.94096
228.02732
219.05853
210.3015
201.87573
193.83756
186.19512
178.89747
171.86895
165.08035
158.53872
152.24329
146.17955
140.31087
134.56255
128.7877
122.69492
115.68949
106.50343
92.242158
65.248051
185.31042
180.27687
175.9001
171.70249
167.31121
162.65938
157.88391
153.12629
148.47453
143.97272
139.63046
135.42755
131.3319
127.32455
123.39693
119.53507
115.71096
111.87192
107.92319
103.6959
98.886726
92.940733
84.808138
72.346992
49.987923
133.75385
131.12757
128.76844
126.47701
124.08231
121.53569
118.88505
116.20016
113.53486
110.91958
108.36327
105.85775
103.38638
100.93321
98.482413
96.010593
93.478838
90.822667
87.937098
84.653642
80.70616
75.687242
69.026381
60.185599
49.903372
101.434
99.985776
98.650971
97.342049
95.976471
94.52223
92.99414
91.425159
89.845286
88.27367
86.716904
85.171066
83.625315
82.064884
80.470062
78.811099
77.041302
75.088202
72.842076
70.142523
66.767545
62.44294
56.932311
50.403311
44.575392
80.4664
79.629477
78.839734
78.057234
77.241452
76.372746
75.454082
74.500287
73.527196
72.546008
71.560951
70.569317
69.562425
68.525946
67.437946
66.264398
64.952735
63.423699
61.562064
59.208397
56.158029
52.182937
47.115213
41.082645
34.347962
66.723159
66.218412
65.729589
65.238616
64.725551
64.179103
63.598863
62.991275
62.364609
61.725086
61.075066
60.412157
59.728669
59.010432
58.234047
57.362132
56.336627
55.070397
53.43794
51.267128
48.335428
44.373599
39.06339
31.91836
21.295162
57.859287
57.543939
57.228814
56.906096
56.566325
56.203644
55.817367
55.410549
54.987657
54.552334
54.105917
53.646213
53.166151
52.651639
52.078023
51.404759
50.568067
49.471631
47.976098
45.888929
42.956571
38.857838
33.178488
25.282444
13.872456
52.393305
52.192001
51.982635
51.762155
51.526567
51.273414
51.002646
50.716181
50.416817
50.106988
49.787624
49.456861
49.108224
48.727656
48.289333
47.74974
47.039639
46.053929
44.640251
42.588145
39.621668
35.398507
29.511183
21.47134
10.720178
49.262102
49.132079
48.989474
48.833248
48.662182
48.475781
48.274674
48.060461
47.83521
47.600773
47.357939
47.105193
46.836778
46.538865
46.184778
45.72862
45.096801
44.177557
42.809783
40.773285
37.784714
33.508399
27.591289
19.729676
9.7833046
47.645793
47.560055
47.459213
47.342992
47.211404
47.06494
46.904596
46.731775
46.548062
46.354856
46.152722
45.940221
45.71246
45.456454
45.145368
44.731811
44.139182
43.251446
41.90369
39.873791
36.881104
32.605568
26.74473
19.118382
9.8410027
46.900265
46.839058
46.763247
46.672635
46.567294
46.447584
46.314111
46.167653
46.009028
45.838881
45.657237
45.462431
45.248652
45.00627
44.709008
44.308357
43.725569
42.842898
41.496473
39.465279
36.476051
32.218657
26.415252
18.930149
9.8914042
46.425993
46.376233
46.313548
46.237446
46.147747
46.044524
45.928037
45.798649
45.656747
45.502639
45.336274
45.156338
44.958087
44.729684
44.449226
44.068464
43.50912
42.651575
41.323141
39.287925
36.303159
32.061534
26.290503
18.860016
9.8823993
46.051946
46.009134
45.954082
45.886167
45.805099
45.710857
45.603671
45.484038
45.352767
45.210905
45.059249
44.897023
44.719266
44.512605
44.254371
43.89592
43.358713
42.523351
41.21736
39.203786
36.225557
31.99379
26.235087
18.820792
9.9047733
45.718681
45.680505
45.630376
45.567719
45.492376
45.404586
45.305027
45.194858
45.07568
44.949228
44.816542
44.676403
44.52281
44.341381
44.104718
43.766892
43.248741
42.431388
41.143997
39.15417
36.183484
31.958553
26.201133
18.78031
9.9065583
45.400813
45.366608
45.320921
45.263454
45.194447
45.11466
45.02537
44.928306
44.825428
44.718413
44.607725
44.491104
44.361291
44.202668
43.986317
43.666074
43.163463
42.360259
41.086829
39.113621
36.154778
31.938148
26.184669
18.766875
9.9457587
45.096793
45.067077
45.027007
44.976646
44.916642
44.848147
44.772726
44.692185
44.608249
44.522022
44.433114
44.338279
44.229337
44.090004
43.8912
43.584565
43.094122
42.301979
41.03938
39.078055
36.132845
31.926059
26.179526
18.768194
9.963207
44.819545
44.795023
44.761881
44.720421
44.671463
44.616225
44.556172
44.492805
44.427346
44.360232
44.290338
44.213726
44.12166
43.9975
43.811998
43.5165
43.035597
42.252164
40.99838
39.047277
36.1154
31.920583
26.186605
18.791765
10.045666
44.582231
44.562958
44.53698
44.504659
44.466767
44.424345
44.378553
44.33047
44.280806
44.229454
44.174773
44.112392
44.033272
43.920618
43.745163
43.458347
42.984782
42.20821
40.961727
39.019709
36.100632
31.919176
26.200449
18.818688
10.101927
44.389335
44.374667
44.355013
44.33069
44.302312
44.270665
44.236573
44.200728
44.163431
44.124184
44.081007
44.029271
43.959775
43.855671
43.68777
43.407821
42.939634
42.168418
40.927964
38.993882
36.086442
31.917703
26.213514
18.848643
10.147913
44.237107
44.226085
44.211436
44.193404
44.172432
44.149069
44.123857
44.097186
44.069062
44.038721
44.003961
43.959995
43.89753
43.799692
43.637346
43.362359
42.898568
42.131585
40.896029
38.968581
36.070908
31.912411
26.218221
18.862364
10.157195
44.117872
44.109555
44.098616
44.085225
44.069688
44.052368
44.033599
44.013555
43.992037
43.968102
43.939403
43.901047
43.843683
43.750424
43.592173
43.320903
42.860687
42.096892
40.865215
38.943068
36.053105
31.902376
26.215847
18.870192
10.182661
44.023544
44.017168
44.008882
43.998802
43.987134
43.974109
43.959916
43.944579
43.927762
43.908398
43.884043
43.849734
43.796075
43.70617
43.550943
43.282438
42.824853
42.063699
40.835116
38.917142
36.033114
31.888191
26.20864
18.878558
10.223079
43.947284
43.942285
43.935874
43.92813
43.919188
43.909192
43.898231
43.886229
43.872755
43.856661
43.835434
43.804059
43.753108
43.665674
43.512696
43.246268
42.790697
42.031676
40.805587
38.891004
36.011791
31.871604
26.198551
18.886615
10.278557
43.8839
43.879883
43.8748
43.868708
43.861696
43.853846
43.845181
43.835559
43.824484
43.810751
43.791797
43.76257
43.713617
43.628018
43.476725
43.211874
42.757876
42.00065
40.776589
38.864982
35.990229
31.85491
26.187505
18.879514
10.260969
43.829656
43.826351
43.822225
43.817318
43.811688
43.805379
43.798368
43.790468
43.781138
43.769132
43.751853
43.724219
43.676756
43.592532
43.442507
43.178854
42.726071
41.970248
40.74804
38.839264
35.969094
31.839638
26.179505
18.874385
10.227306
43.781931
43.779153
43.77573
43.771691
43.767071
43.761889
43.756092
43.74946
43.741422
43.730702
43.714676
43.68824
43.641901
43.558717
43.409652
43.146909
42.695072
41.940405
40.719888
38.813885
35.94861
31.826546
26.177563
18.884044
10.233247
43.738862
43.736489
43.733596
43.730207
43.726343
43.722005
43.717117
43.711439
43.704376
43.694631
43.679559
43.654037
43.608556
43.526164
43.377826
43.115776
42.664678
41.910981
40.692035
38.788696
35.928462
31.81487
26.180909
18.911635
10.284232
43.69904
43.696984
43.694503
43.691614
43.68833
43.684638
43.680448
43.675503
43.669191
43.6602
43.645868
43.621054
43.576236
43.494451
43.346664
43.085137
42.634612
41.881717
40.664155
38.76341
35.908152
31.80314
26.18475
18.945755
10.421242
43.661179
43.65938
43.657227
43.654734
43.651907
43.648722
43.645081
43.640712
43.634993
43.626596
43.612847
43.588591
43.54429
43.462972
43.315602
43.054464
42.604378
41.852148
40.635836
38.73758
35.887149
31.790291
26.185029
18.964298
10.458646
43.623718
43.622132
43.620249
43.618077
43.615619
43.612844
43.609643
43.605739
43.600497
43.592579
43.579299
43.555488
43.511596
43.430639
43.28358
43.022725
42.572969
41.821293
40.606121
38.710259
35.864551
31.77564
26.182446
18.977725
10.452186
43.584196
43.582793
43.581137
43.579234
43.577082
43.574646
43.57181
43.568288
43.563439
43.555915
43.543019
43.51957
43.476003
43.395325
43.248495
42.987839
42.538325
41.787111
40.572988
38.679438
35.838369
31.757281
26.175039
18.978635
10.447081
43.538222
43.53698
43.535521
43.53385
43.531961
43.529813
43.527287
43.524091
43.519575
43.512383
43.499807
43.476657
43.433353
43.35289
43.206224
42.945701
42.496361
41.745541
40.5324
38.641092
35.804477
31.730828
26.15874
18.971087
10.440831
43.477743
43.476648
43.475367
43.473904
43.472249
43.470358
43.468106
43.465195
43.46097
43.454067
43.441768
43.41887
43.375781
43.295485
43.148933
42.888495
42.43929
41.688839
40.47667
38.587564
35.755238
31.688321
26.12456
18.943776
10.419666
43.388226
43.387273
43.386162
43.384896
43.383461
43.381809
43.379812
43.377166
43.373209
43.366569
43.354518
43.331841
43.288934
43.208769
43.0623
42.801929
42.352868
41.602856
40.391821
38.505195
35.677525
31.617807
26.063391
18.893012
10.383708
43.244269
43.243462
43.242525
43.241458
43.240245
43.238835
43.237094
43.234711
43.231017
43.224632
43.212818
43.190347
43.147605
43.067558
42.921171
42.6609
42.212098
41.462793
40.253438
38.370288
35.549011
31.499624
25.960501
18.810904
10.28779
43.003129
43.002484
43.001739
43.000891
42.999923
42.998778
42.997315
42.995218
42.991807
42.985693
42.974127
42.951871
42.909304
42.829396
42.683151
42.423125
41.974906
41.226978
40.020592
38.143264
35.332442
31.300212
25.787315
18.674561
10.199115
42.595789
42.595335
42.594818
42.594232
42.593557
42.592728
42.591597
42.589837
42.58676
42.580962
42.569687
42.54769
42.505356
42.425683
42.279763
42.020354
41.573459
40.828338
39.627576
37.760792
34.968467
30.966479
25.500087
18.45208
10.039677
41.915639
41.915423
41.91519
41.914935
41.914629
41.914201
41.91349
41.912157
41.909499
41.904104
41.893207
41.871573
41.829614
41.750416
41.605255
41.347277
40.903233
40.163723
38.973597
37.126013
34.366647
30.417834
25.03246
18.099475
9.8295793
40.805863
40.805947
40.80608
40.80625
40.806421
40.80651
40.806343
40.805562
40.803453
40.798592
40.788223
40.767144
40.725858
40.647635
40.504129
40.249207
39.810936
39.082205
37.911619
36.098143
33.396025
29.537955
24.288365
17.54441
9.5145319
39.048617
39.04909
39.049692
39.050399
39.051168
39.051904
39.052417
39.052336
39.050937
39.046792
39.037173
39.016975
38.976895
38.900587
38.760418
38.511555
38.08432
37.375393
36.239415
34.484669
31.878322
28.169214
23.138704
16.693766
9.0362292
36.362693
36.363699
36.364886
36.366199
36.367616
36.369066
36.37034
36.371063
36.370529
36.367312
36.358746
36.339916
36.301914
36.22911
36.095165
35.8575
35.450192
34.775999
33.699048
32.041454
29.589317
26.115274
21.426111
15.447409
8.3710151
32.423052
32.424823
32.426605
32.428277
32.430048
32.431986
32.433848
32.435262
32.435606
32.433464
32.426263
32.409431
32.374752
32.307851
32.184616
31.966224
31.592766
30.976348
29.99514
28.491226
26.277243
23.158161
18.974812
13.679432
7.4602793
26.915772
26.918555
26.920455
26.92125
26.922184
26.923755
26.925551
26.927137
26.928077
26.926989
26.921433
26.907369
26.877694
26.820064
26.713934
26.526278
26.206619
25.68069
24.846605
23.573893
21.710274
19.101693
15.629761
11.272641
6.1899923
19.647823
19.651345
19.65187
19.649085
19.646989
19.646764
19.647463
19.648367
19.649266
19.648917
19.645151
19.634734
19.612219
19.568269
19.487313
19.342463
19.101797
18.707656
18.084704
17.138366
15.760017
13.843995
11.316301
8.1759251
4.5534027
10.690433
10.693139
10.691302
10.684648
10.679647
10.67761
10.677043
10.676975
10.677312
10.677218
10.675241
10.669427
10.656656
10.631549
10.582754
10.471607
10.335029
10.116696
9.7720196
9.2514472
8.4969893
7.45557
6.0950346
4.4189729
2.5202397
)
;

boundaryField
{
    Walls
    {
        Cmu             0.09;
        kappa           0.41;
        E               9.8;
        beta1           0.075;
        type            omegaWallFunction;
        value           nonuniform List<scalar> 
38
(
12058.19
12058.133
12058.18
12058.527
12061.533
12087.28
13483.141
13536.783
14921.083
15029.754
15113.728
15198.465
15272.88
15323.36
15373.093
15419.239
15456.174
15479.049
15492.31
15506.514
15520.579
15537.369
15547.525
15548.905
15556.628
15564.442
15571.353
15578.011
15575.425
15570.25
15570.521
15572.305
15570.604
15568.542
15564.748
15565.852
15560.996
15503.092
)
;
    }
    Inlet
    {
        type            turbulentMixingLengthDissipationRateInlet;
        mixingLength    0.03;
        phi             phi;
        k               k;
        value           nonuniform List<scalar> 3(0.0042335914 0.0042794935 0.0052152106);
    }
    Outlet
    {
        type            inletOutlet;
        inletValue      uniform 1e-05;
        value           nonuniform List<scalar> 
86
(
1e-05
1e-05
1e-05
1e-05
1e-05
1e-05
1e-05
1e-05
1e-05
1e-05
1e-05
1e-05
1e-05
1e-05
1e-05
1e-05
1e-05
1e-05
1e-05
1e-05
1e-05
1e-05
1e-05
1e-05
1e-05
1e-05
1e-05
1e-05
1e-05
1e-05
219.879
218.9307
197.28532
1e-05
1e-05
1e-05
1e-05
49.903372
44.575392
34.347962
1e-05
1e-05
1e-05
1e-05
9.8410027
9.8914042
9.8823993
9.9047733
9.9065583
9.9457587
9.963207
10.045666
10.101927
10.147913
10.157195
10.182661
10.223079
10.278557
10.260969
10.227306
10.233247
10.284232
10.421242
10.458646
1e-05
1e-05
1e-05
1e-05
1e-05
1e-05
1e-05
1e-05
1e-05
1e-05
1e-05
1e-05
1e-05
1e-05
1e-05
1e-05
1e-05
1e-05
1e-05
1e-05
195.80042
218.98168
)
;
    }
    Front
    {
        type            wedge;
    }
    Back
    {
        type            wedge;
    }
    defaultFaces
    {
        type            empty;
    }
}


// ************************************************************************* //
