/*--------------------------------*- C++ -*----------------------------------*\
| =========                 |                                                 |
| \\      /  F ield         | OpenFOAM: The Open Source CFD Toolbox           |
|  \\    /   O peration     | Version:  4.0                                   |
|   \\  /    A nd           | Web:      www.OpenFOAM.org                      |
|    \\/     M anipulation  |                                                 |
\*---------------------------------------------------------------------------*/
FoamFile
{
    version     2.0;
    format      ascii;
    class       volScalarField;
    location    "0.27";
    object      p;
}
// * * * * * * * * * * * * * * * * * * * * * * * * * * * * * * * * * * * * * //

dimensions      [0 2 -2 0 0 0 0];

internalField   nonuniform List<scalar> 
1740
(
491.60285
491.69899
491.66058
475.03429
474.95705
474.9891
458.57621
458.33689
458.35116
442.07589
442.1242
441.96667
425.48639
425.64287
425.62357
408.92361
408.98605
409.01072
392.31526
392.42871
392.47109
375.5816
375.72882
375.8801
359.35739
359.33492
359.24025
343.31606
343.05681
342.9702
326.41628
326.33762
326.48222
309.51093
309.67834
309.8517
293.46543
293.55354
293.63969
277.49648
277.53378
277.39309
261.05513
261.16668
260.95712
244.38621
244.56388
244.70157
227.68798
227.86681
228.10229
210.92004
210.97854
211.10616
194.57857
194.45658
194.58579
178.55823
178.42801
178.1726
162.13586
162.12222
161.75165
145.82856
145.78119
145.63989
129.8148
129.52764
129.48711
113.26452
113.03788
113.2016
96.561608
96.604176
96.754301
80.397579
80.319494
80.267911
63.90255
63.7942
63.648201
46.998571
47.1142
47.101344
30.889159
30.989818
31.131757
16.18598
15.948816
15.65729
4.0927983
3.4441511
1.5575217
-0.65591881
-0.60504048
-0.43512533
-0.18399063
-0.17367875
-0.15296314
-0.069319565
-0.067096582
-0.06054917
-0.050716009
-0.047998965
-0.04197471
-0.041191764
-0.038935855
-0.034078659
-0.035848873
-0.034173429
-0.030564537
-0.031993154
-0.030747318
-0.02807619
-0.028711476
-0.027754223
-0.025711824
-0.025691324
-0.024942538
-0.02334792
-0.023010744
-0.022418229
-0.021158157
-0.020756317
-0.020283845
-0.019277855
-0.018913991
-0.018533106
-0.017721852
-0.017417128
-0.017107024
-0.016446297
-0.016183205
-0.015928534
-0.015384999
-0.015137117
-0.014926394
-0.01447561
-0.014227533
-0.014051749
-0.013674942
-0.013423041
-0.013275099
-0.01295737
-0.01270201
-0.012576396
-0.0123061
-0.012046895
-0.011939312
-0.011707384
-0.01144282
-0.011349907
-0.011149263
-0.010877593
-0.010796723
-0.010621816
-0.01034171
-0.010270824
-0.010117296
-0.0098281111
-0.0097655836
-0.0096299886
-0.0093317572
-0.0092762913
-0.009155876
-0.0088491821
-0.0087997373
-0.0086922861
-0.0083781307
-0.0083338684
-0.008237576
-0.0079172482
-0.0078774796
-0.0077908752
-0.0074658265
-0.0074299798
-0.0073518734
-0.0070236026
-0.0069912142
-0.0069206116
-0.0065905986
-0.0065612868
-0.0064973522
-0.0061670102
-0.0061404534
-0.0060824922
-0.0057531222
-0.0057290497
-0.0056764798
-0.0053492371
-0.005327417
-0.0052797487
-0.0049556211
-0.0049358572
-0.0048926712
-0.0045724709
-0.0045545974
-0.0045155314
-0.0041998857
-0.0041837587
-0.0041485004
-0.0038378471
-0.0038233413
-0.0037916197
-0.0034862104
-0.0034732167
-0.0034447954
-0.0031446965
-0.0031331194
-0.0031077922
-0.002812892
-0.0028026484
-0.0027802352
-0.0024902588
-0.0024812763
-0.0024616198
-0.002176146
-0.0021683615
-0.0021513248
-0.0018698041
-0.0018631631
-0.0018486279
-0.0015703978
-0.0015648538
-0.001552719
-0.0012770083
-0.0012725226
-0.0012627035
-0.00098862175
-0.00098516296
-0.0009775913
-0.00070408707
-0.00070163145
-0.00069625504
-0.00042218738
-0.00042071912
-0.00041750198
-0.00014100809
-0.00014051919
-0.00013944583
-1.3393431
-0.93886893
-0.3386278
-0.26099464
-0.13349363
-0.11676384
-0.051769576
-0.042263383
-0.033729311
-0.024297009
-0.027442754
-0.02037588
-0.02552254
-0.019900217
-0.024320133
-0.020000777
-0.02283093
-0.019459303
-0.021093886
-0.018425016
-0.019371805
-0.01723278
-0.017846194
-0.016116435
-0.016563427
-0.015152256
-0.015499461
-0.014336909
-0.014603193
-0.013636247
-0.013824414
-0.013013271
-0.013128242
-0.012442792
-0.012494591
-0.011910972
-0.011910984
-0.011410061
-0.011367206
-0.010933832
-0.01085406
-0.01047632
-0.010363765
-0.010032274
-0.0098902322
-0.0095975394
-0.0094290049
-0.0091691284
-0.0089770356
-0.0087451448
-0.0085324097
-0.0083245771
-0.0080940759
-0.0079071015
-0.0076616374
-0.0074929188
-0.0072351612
-0.0070825251
-0.0068149813
-0.0066766078
-0.0064015986
-0.0062759795
-0.0059956075
-0.0058814777
-0.0055976147
-0.005493904
-0.0052081838
-0.0051139804
-0.0048277935
-0.0047423161
-0.0044568111
-0.0043793856
-0.0040954776
-0.0040255181
-0.0037438953
-0.0036808902
-0.0034020207
-0.003345521
-0.003069662
-0.0030192743
-0.0027464825
-0.0027018624
-0.0024320114
-0.0023928573
-0.0021256576
-0.0020917055
-0.0018267256
-0.0017977467
-0.0015344309
-0.0015102292
-0.0012479036
-0.0012283147
-0.00096617751
-0.00095106834
-0.00068814964
-0.0006774188
-0.00041265124
-0.00040622871
-0.00013782703
-0.00013568349
-0.0060185248
-0.0052434526
-0.0040251577
-0.0027000023
-0.0015100255
-0.00053660442
0.00018467108
0.00066496725
0.00093440562
0.001034955
0.0010119358
0.00090910211
0.00076316754
0.00060189427
0.00044459789
0.00030371965
0.00018604575
9.3549641e-05
2.5494074e-05
-1.9706406e-05
-4.4086195e-05
-5.427859e-05
-5.3895633e-05
-4.3970071e-05
-2.0453301e-05
-0.0066613474
-0.0057405857
-0.0044091741
-0.0030484572
-0.001918914
-0.0010762599
-0.00050823326
-0.00017706837
-3.2367745e-05
-1.8287378e-05
-8.6474498e-05
-0.00019585561
-0.00031772679
-0.00043416371
-0.00053286651
-0.00060571205
-0.00064618348
-0.00064969008
-0.0006218307
-0.00056637168
-0.00048896183
-0.00039623183
-0.0002929229
-0.00017957501
-5.5380545e-05
-0.011012768
-0.0098945923
-0.0086748793
-0.0077217266
-0.0071859087
-0.0070114023
-0.0070734142
-0.0072397858
-0.0073463948
-0.007367277
-0.0072990761
-0.0071401153
-0.0068969519
-0.0065787954
-0.0061882828
-0.0057310686
-0.0052168664
-0.004657645
-0.0040575483
-0.0034245166
-0.0027724845
-0.0021189089
-0.0014720517
-0.00084034031
-0.00023919572
-0.026716396
-0.025909905
-0.025624546
-0.025981373
-0.026468931
-0.026730916
-0.026574076
-0.025999536
-0.02513203
-0.024031214
-0.022767941
-0.021380568
-0.01990097
-0.018337519
-0.016714129
-0.015052026
-0.013368254
-0.011676504
-0.0099877095
-0.0083108148
-0.0066649202
-0.005073644
-0.0035282048
-0.0020371589
-0.00062564559
-0.078326376
-0.078072021
-0.077088711
-0.074008999
-0.070276812
-0.065724891
-0.060813226
-0.05578477
-0.050763917
-0.045835321
-0.041264009
-0.036980294
-0.032942214
-0.028934337
-0.025226201
-0.021827805
-0.018721672
-0.01588409
-0.013287015
-0.010900942
-0.0086853016
-0.0065954117
-0.0046226676
-0.0027425246
-0.00093898612
-0.24521234
-0.20169681
-0.17965653
-0.14715132
-0.12044717
-0.097015803
-0.077055716
-0.060673388
-0.047423862
-0.03680547
-0.028193225
-0.021342386
-0.015950989
-0.011871982
-0.0086571248
-0.0061824971
-0.0043032377
-0.0029029601
-0.0018889596
-0.0011843413
-0.00072004477
-0.00043108727
-0.00027241499
-0.0001982134
-0.00020854412
-0.35420352
-0.14800221
-0.095446556
-0.056145142
-0.020905522
0.0069923664
0.02489401
0.034004181
0.03762083
0.038336696
0.037463654
0.035576224
0.03305534
0.030182054
0.027160927
0.024122597
0.021144111
0.018263381
0.015496943
0.012845719
0.010301197
0.0078518042
0.0054746729
0.0031610122
0.00082506694
-0.21498301
-0.18695984
-0.16003434
-0.13346622
-0.10845756
-0.086514654
-0.068040861
-0.053004091
-0.040910292
-0.031314326
-0.023716618
-0.017745241
-0.013094832
-0.0094634095
-0.006656207
-0.0045147395
-0.0029092845
-0.001746259
-0.0009365941
-0.00040852684
-0.00010230329
3.5211808e-05
4.903919e-05
-1.4445222e-05
-0.00015684919
-0.10429592
-0.096958766
-0.091042799
-0.085169016
-0.078876682
-0.072330003
-0.065944415
-0.059805727
-0.053978479
-0.048491384
-0.043386887
-0.038508376
-0.03393521
-0.029738073
-0.025903965
-0.022393157
-0.019158923
-0.016217092
-0.013525821
-0.011054833
-0.0087745201
-0.0066547381
-0.004667218
-0.0027791568
-0.00096272348
-0.036923777
-0.035299867
-0.035161893
-0.03539693
-0.035450025
-0.035060387
-0.034230059
-0.033010365
-0.031490615
-0.029740934
-0.027853067
-0.025884302
-0.023844299
-0.021758083
-0.019656247
-0.017573571
-0.015542808
-0.013530252
-0.011553576
-0.0096166773
-0.0077227457
-0.0058761884
-0.0040836842
-0.0023554255
-0.00072347916
-0.016663083
-0.011967733
-0.0099129553
-0.0096156952
-0.010284996
-0.011097995
-0.011697643
-0.012045526
-0.012150565
-0.012035629
-0.011749451
-0.011315462
-0.010752639
-0.010082678
-0.0093320448
-0.0085189186
-0.0076587084
-0.0067561331
-0.0058270337
-0.0048834603
-0.0039360691
-0.0029955936
-0.0020733967
-0.0011805407
-0.00033983447
-0.014053937
-0.0091799847
-0.0058910898
-0.0037458041
-0.0025235983
-0.0020512376
-0.0020070671
-0.0021819128
-0.0024153825
-0.0026430934
-0.0028564177
-0.0029864353
-0.0030295156
-0.0029949016
-0.0028889434
-0.0027263414
-0.0025181494
-0.0022701526
-0.0019934566
-0.0016973401
-0.0013895265
-0.0010762849
-0.00076240287
-0.00044908453
-0.00013566891
-0.014582849
-0.010174433
-0.0069077548
-0.0046521879
-0.0030208432
-0.0019596289
-0.0013488512
-0.0010142854
-0.00085330259
-0.00081389244
-0.00080036997
-0.00081150716
-0.00082954013
-0.00084037686
-0.00083839094
-0.00081999567
-0.00078351598
-0.0007278696
-0.00065671957
-0.00057429344
-0.00048380743
-0.00038738549
-0.00028628016
-0.00017991438
-6.3385504e-05
-0.015700397
-0.011899706
-0.0087999398
-0.0063863204
-0.0045369219
-0.0031893393
-0.0022698997
-0.0016762835
-0.0013201391
-0.0010828753
-0.0009131778
-0.00080566534
-0.00073997295
-0.00069698685
-0.00066961665
-0.0006435744
-0.00060979944
-0.00056359925
-0.00050739401
-0.00044344929
-0.00037346109
-0.00029871416
-0.00021983889
-0.00013747835
-5.0544814e-05
-0.016006815
-0.012812214
-0.010044482
-0.007750117
-0.0058930551
-0.004437979
-0.0033336322
-0.002512608
-0.0019186915
-0.0014854807
-0.001171255
-0.00094790033
-0.00079661457
-0.00070066088
-0.00062143157
-0.00055373817
-0.00049025918
-0.00043522067
-0.00038286663
-0.00032948028
-0.00027439447
-0.00021739421
-0.00015868937
-9.8419463e-05
-3.7031003e-05
-0.015630978
-0.012953831
-0.010539655
-0.0084524962
-0.0066968566
-0.0052527888
-0.0040881529
-0.0031631238
-0.0024409146
-0.0018811783
-0.0014492058
-0.0011181319
-0.00086598074
-0.00067410014
-0.00053947838
-0.00043654248
-0.00036187928
-0.00030371186
-0.00025522643
-0.00021079733
-0.00017092327
-0.0001333494
-9.6735468e-05
-5.9832414e-05
-2.3402747e-05
-0.014950762
-0.01270482
-0.010615072
-0.0087477685
-0.0071282478
-0.0057527095
-0.0046026663
-0.0036526135
-0.002874939
-0.0022440752
-0.0017359518
-0.0013293016
-0.0010055891
-0.00074786896
-0.00054570274
-0.00039791513
-0.00029183715
-0.00021553935
-0.0001611633
-0.00012399233
-9.5586234e-05
-7.1647374e-05
-5.0790034e-05
-3.173084e-05
-1.3983075e-05
-0.014237822
-0.012346355
-0.01054141
-0.0088857569
-0.0074110925
-0.0061242682
-0.0050177746
-0.004077209
-0.003284257
-0.0026212563
-0.0020704738
-0.0016166197
-0.0012463062
-0.00094553237
-0.00070529941
-0.00051880983
-0.00037694226
-0.0002705149
-0.00019170084
-0.00013436857
-9.2837804e-05
-6.3950322e-05
-4.3891496e-05
-2.8983114e-05
-1.3725975e-05
-0.01359649
-0.011998129
-0.010438597
-0.0089744552
-0.007639379
-0.0064471733
-0.005398775
-0.0044876871
-0.0037022039
-0.0030290881
-0.0024558352
-0.0019709475
-0.0015665404
-0.0012288007
-0.00095228273
-0.00072931674
-0.00055215726
-0.00041318047
-0.00030530543
-0.00022245368
-0.00015941196
-0.00011186118
-7.5771275e-05
-4.6426752e-05
-1.8722621e-05
-0.013038284
-0.011681367
-0.010331874
-0.0090388984
-0.007835317
-0.0067394474
-0.0057575367
-0.0048868483
-0.0041206575
-0.0034504012
-0.0028676675
-0.0023644629
-0.0019332206
-0.0015660887
-0.0012569259
-0.00099928431
-0.00078665267
-0.00061265107
-0.00047143587
-0.00035735233
-0.00026546849
-0.00019123313
-0.00013085054
-7.8068157e-05
-2.7438172e-05
-0.012543977
-0.011386424
-0.010216414
-0.0090759687
-0.0079946533
-0.0069916734
-0.0060757369
-0.0052476958
-0.0045057214
-0.0038457497
-0.0032623523
-0.0027496369
-0.0023017865
-0.0019127293
-0.001577197
-0.00128985
-0.0010453672
-0.00083845941
-0.0006641796
-0.00051762933
-0.00039397049
-0.00028876558
-0.00019793544
-0.00011649463
-4.0236532e-05
-0.012088223
-0.0110958
-0.010078503
-0.0090716871
-0.0081014269
-0.0071847292
-0.0063321453
-0.0055485792
-0.0048357891
-0.0041926599
-0.0036158831
-0.0031011765
-0.0026441523
-0.0022401545
-0.0018847239
-0.0015735008
-0.0013021653
-0.0010663891
-0.00086175857
-0.00068401963
-0.00052888799
-0.00039222665
-0.00026995908
-0.0001582403
-5.3457504e-05
-0.011653971
-0.010798417
-0.009910309
-0.0090189043
-0.0081471431
-0.007310811
-0.0065210804
-0.0057850936
-0.0051063721
-0.0044854552
-0.0039208492
-0.00340992
-0.0029494988
-0.0025360822
-0.0021661517
-0.0018362076
-0.0015426767
-0.0012819331
-0.0010502785
-0.00084402147
-0.00065953016
-0.0004931738
-0.0003413384
-0.00019974679
-6.581555e-05
-0.011233902
-0.010492163
-0.0097133767
-0.0089218261
-0.008137449
-0.0073754816
-0.0066466675
-0.0059588061
-0.0053162381
-0.0047206788
-0.0041720829
-0.0036691836
-0.0032099496
-0.0027919042
-0.0024123367
-0.0020684482
-0.0017573312
-0.0014759555
-0.0012212351
-0.00099006517
-0.00077939621
-0.00058618498
-0.00040758418
-0.00023868526
-7.7595321e-05
-0.010824876
-0.010178153
-0.0094922262
-0.0087873268
-0.0080806785
-0.0073862523
-0.0067144805
-0.0060732683
-0.0054670946
-0.0048984423
-0.0043683828
-0.0038767083
-0.0034223358
-0.0030036454
-0.0026186452
-0.0022651337
-0.0019407543
-0.0016430474
-0.0013694699
-0.0011174476
-0.00088440254
-0.00066777851
-0.00046505983
-0.00027318598
-8.9931959e-05
-0.010424411
-0.0098571958
-0.0092502966
-0.0086205438
-0.0079827332
-0.0073493335
-0.0067301934
-0.0061330985
-0.0055624998
-0.0050214065
-0.0045115337
-0.004033458
-0.0035868643
-0.0031708159
-0.0027839507
-0.0024246177
-0.002090964
-0.0017810281
-0.00149275
-0.0012240133
-0.00097267718
-0.0007365984
-0.00051365037
-0.00030224469
-0.00010003151
-0.010029816
-0.0095293728
-0.0089898453
-0.0084253057
-0.0078484394
-0.0072702073
-0.0066995117
-0.0061433188
-0.0056068528
-0.0050932824
-0.0046045518
-0.0041417859
-0.0037052613
-0.003294596
-0.0029089483
-0.002547171
-0.0022078802
-0.0018895428
-0.0015905269
-0.001309136
-0.0010436434
-0.00079233201
-0.00055357571
-0.00032594672
-0.00010760098
-0.009638487
-0.0091945111
-0.0087126558
-0.0082048075
-0.007681811
-0.0071532578
-0.0066270513
-0.0061090275
-0.0056048445
-0.0051181641
-0.0046509871
-0.0042047066
-0.00378004
-0.003377029
-0.0029952819
-0.0026340851
-0.0022924566
-0.001969252
-0.0016632249
-0.0013730594
-0.0010974021
-0.00083491147
-0.00058431872
-0.00034417883
-0.00011320269
-0.0092483036
-0.0088524675
-0.0084202802
-0.0079617698
-0.0074862987
-0.0070021917
-0.0065165023
-0.006034686
-0.0055613061
-0.0051005219
-0.004654856
-0.0042258355
-0.0038144048
-0.0034209288
-0.003045415
-0.0026874833
-0.0023464952
-0.0020216514
-0.0017120499
-0.0014167051
-0.0011345846
-0.0008646464
-0.00060588752
-0.00035712821
-0.0001174108
-0.00885783
-0.0085033212
-0.0081141645
-0.0076988068
-0.0072653748
-0.0068210475
-0.0063721345
-0.0059239358
-0.005480393
-0.0050449277
-0.0046206253
-0.0042093386
-0.0038121141
-0.0034297608
-0.0030624858
-0.00271017
-0.0023724707
-0.0020488957
-0.0017388289
-0.0014415601
-0.0011563298
-0.00088235982
-0.00061890168
-0.00036498714
-0.00011991069
-0.0084663712
-0.0081475714
-0.0077959172
-0.0074186172
-0.0070225524
-0.0066140181
-0.0061986488
-0.0057812951
-0.0053659013
-0.0049554553
-0.0045526679
-0.0041595652
-0.0037775311
-0.0034075972
-0.00305017
-0.0027053991
-0.0023732767
-0.0020535489
-0.0017457832
-0.0014494924
-0.0011641548
-0.0008892357
-0.00062418764
-0.00036820549
-0.00012083677
-0.0080739219
-0.0077862147
-0.0074674869
-0.0071238719
-0.0067612372
-0.0063851166
-0.0060005096
-0.005611811
-0.0052227287
-0.0048363119
-0.0044549093
-0.0040805094
-0.0037147144
-0.0033583856
-0.0030122842
-0.0026768413
-0.0023522824
-0.0020385525
-0.0017354187
-0.0014425996
-0.0011597726
-0.00088658739
-0.0006226626
-0.0003673552
-0.00012040588
-0.007680987
-0.0074205503
-0.0071309072
-0.006817266
-0.0064847252
-0.006138118
-0.0057818755
-0.0054199651
-0.0050558162
-0.0046923122
-0.0043317965
-0.0039762047
-0.0036270666
-0.0032854064
-0.0029520963
-0.002627707
-0.0023124959
-0.0020066122
-0.0017101151
-0.0014229226
-0.0011448699
-0.00087574343
-0.00061530239
-0.00036304576
-0.00011886471
-0.0072883571
-0.0070520035
-0.0067882185
-0.0065014675
-0.0061961696
-0.0058765626
-0.0055465825
-0.0052097945
-0.0048693444
-0.0045279334
-0.0041878254
-0.0038508941
-0.0035186272
-0.0031922704
-0.0028726904
-0.0025605218
-0.0022561449
-0.0019598546
-0.0016718569
-0.001392221
-0.0011209238
-0.00085787943
-0.00060296701
-0.00035580187
-0.0001164007
-0.006897019
-0.0066820948
-0.0064414748
-0.0061790014
-0.0058985122
-0.0056037344
-0.0052981643
-0.0049850029
-0.0046671209
-0.0043470319
-0.0040268903
-0.0037085098
-0.0033933833
-0.003082745
-0.0027775306
-0.0024784541
-0.0021860627
-0.0019007405
-0.0016227433
-0.0013522434
-0.0010893343
-0.00083404704
-0.00058636967
-0.00034603052
-0.00011312432
-0.0065080894
-0.0063123717
-0.0060926456
-0.0058522289
-0.0055944651
-0.0053226345
-0.0050398417
-0.0047489633
-0.004452614
-0.0041531221
-0.0038525193
-0.0035525474
-0.0032546736
-0.0029601172
-0.0026698565
-0.0023846658
-0.0021051636
-0.0018318093
-0.0015649371
-0.0013047979
-0.0010515704
-0.00080537955
-0.00056631357
-0.0003342096
-0.00010920024
-0.0061227161
-0.0059443314
-0.0057435721
-0.0055233154
-0.0052864826
-0.0050359562
-0.0047744982
-0.0045046975
-0.0042289356
-0.0039493605
-0.0036678719
-0.0033861197
-0.0031055196
-0.0028272705
-0.0025523676
-0.0022816248
-0.0020157018
-0.0017551146
-0.0015002626
-0.0012514565
-0.0010089393
-0.00077290519
-0.0005435335
-0.00032077491
-0.00010476637
-0.0057420086
-0.0055793698
-0.0053959335
-0.0051942031
-0.0049767364
-0.0047460703
-0.0045046661
-0.0042548551
-0.0039988017
-0.0037384751
-0.0034756361
-0.0032118368
-0.0029484307
-0.0026865857
-0.0024272943
-0.0021713869
-0.0019195496
-0.0016723378
-0.0014301967
-0.0011934836
-0.00096248862
-0.0007374531
-0.00051862624
-0.00030606633
-9.9923774e-05
-0.0053669884
-0.0052187397
-0.0050512135
-0.0048665917
-0.0046671168
-0.0044550314
-0.0042325287
-0.0040017026
-0.0037645083
-0.0035227428
-0.0032780346
-0.003031843
-0.0027854578
-0.0025400057
-0.0022964583
-0.0020556429
-0.0018182553
-0.0015848729
-0.0013559714
-0.0011319424
-0.00091311249
-0.00069976367
-0.00049217135
-0.00029045247
-9.4757356e-05
-0.0049985555
-0.004863529
-0.0047106876
-0.0045419363
-0.0043592447
-0.0041645956
-0.003959942
-0.003747155
-0.0035279971
-0.0033041109
-0.0030770036
-0.0028480419
-0.0026184465
-0.002389293
-0.0021615192
-0.0019359343
-0.0017132298
-0.0014939904
-0.0012787073
-0.0010677932
-0.00086159825
-0.00066043046
-0.00046458426
-0.00027415384
-8.933765e-05
-0.004637467
-0.0045146519
-0.0043754279
-0.0042214601
-0.0040544789
-0.0038762374
-0.0036884661
-0.003492839
-0.0032909505
-0.0030843035
-0.0028742885
-0.0026621721
-0.0024490971
-0.0022360802
-0.0020240173
-0.0018136907
-0.001605777
-0.0014008567
-0.001199424
-0.0010018989
-0.00080863969
-0.00061996022
-0.00043615905
-0.00025734679
-8.3761125e-05
-0.0042843209
-0.0041728395
-0.0040462982
-0.0039061539
-0.0037539263
-0.0035911616
-0.0034193942
-0.0032401269
-0.0030548064
-0.0028647978
-0.0026713722
-0.0024756957
-0.0022788286
-0.0020817236
-0.0018852294
-0.0016900941
-0.0014969715
-0.0013064285
-0.0011189528
-0.00093496166
-0.00075480951
-0.00057880123
-0.00040722108
-0.00024023358
-7.8078904e-05
-0.0039395481
-0.0038386306
-0.0037239473
-0.0035967732
-0.0034584425
-0.0033103166
-0.003153763
-0.0029901292
-0.0028207199
-0.0026467649
-0.0024694186
-0.0022897503
-0.0021087375
-0.0019272668
-0.0017461341
-0.0015660471
-0.0013876301
-0.0012114293
-0.0010379187
-0.00086750674
-0.0007005404
-0.00053731451
-0.00037807363
-0.00022298904
-7.2296235e-05
-0.0036034086
-0.0035123746
-0.0034088178
-0.0032938524
-0.00316865
-0.0030344133
-0.0028923585
-0.0027436863
-0.0025895588
-0.0024310836
-0.0022693055
-0.0021051991
-0.0019396598
-0.0017735063
-0.001607478
-0.0014422374
-0.0012783733
-0.001116405
-0.00095678728
-0.00079991532
-0.00064612778
-0.00049570934
-0.00034891933
-0.00020570131
-6.6429625e-05
-0.0032759944
-0.0031942432
-0.0031011639
-0.0029977296
-0.0028849687
-0.0027639437
-0.0026357267
-0.0025013804
-0.0023619359
-0.0022183872
-0.0020716748
-0.0019226801
-0.0017722192
-0.0016210407
-0.0014698249
-0.0013191853
-0.0011696708
-0.0010217686
-0.00087590881
-0.00073246869
-0.00059177496
-0.00045410161
-0.00031974695
-0.00018839865
-6.065047e-05
-0.0029572339
-0.0028842363
-0.0028010605
-0.002708555
-0.0026076191
-0.0024991838
-0.0023841901
-0.0022635729
-0.0021382475
-0.0020090975
-0.0018769638
-0.0017426374
-0.0016068557
-0.0014702968
-0.001333581
-0.0011972699
-0.0010618685
-0.00092782804
-0.00079554892
-0.00066538459
-0.00053764332
-0.00041258838
-0.00029046939
-0.00017113078
-5.5078134e-05
-0.0026468968
-0.0025821865
-0.0025084057
-0.0024262901
-0.0023366209
-0.0022402079
-0.0021378728
-0.0020304354
-0.0019187019
-0.0018034523
-0.0016854318
-0.0015653444
-0.0014438484
-0.0013215534
-0.0011990178
-0.0010767501
-0.00095520911
-0.00083480636
-0.00071590883
-0.00059884138
-0.0004838884
-0.0003712985
-0.00026128739
-0.00015401827
-4.9723731e-05
-0.002344605
-0.0022877701
-0.002222932
-0.0021507238
-0.0020718187
-0.0019869165
-0.0018967293
-0.0018019707
-0.0017033432
-0.0016015297
-0.0014971842
-0.0013909267
-0.0012833389
-0.0011749612
-0.0010662909
-0.00095778192
-0.00084984588
-0.00074285308
-0.00063713504
-0.00053298689
-0.0004306705
-0.00033042265
-0.00023249034
-0.00013709995
-4.4375459e-05
-0.0020498493
-0.002000527
-0.0019442317
-0.0018815028
-0.0018129151
-0.001739067
-0.0016605697
-0.0015780364
-0.0014920734
-0.0014032707
-0.0013121953
-0.0012193865
-0.0011253513
-0.0010305623
-0.00093545578
-0.00084043126
-0.00074585241
-0.00065204795
-0.00055931366
-0.00046791598
-0.00037809665
-0.00029008378
-0.00020412873
-0.00012039261
-3.9008013e-05
-0.0017620105
-0.0017198844
-0.0016717825
-0.0016181579
-0.0015594947
-0.0014962977
-0.0014290838
-0.0013583723
-0.0012846778
-0.0012085025
-0.0011303302
-0.001050622
-0.00096981247
-0.00088830777
-0.000806484
-0.0007246866
-0.00064323112
-0.0005624044
-0.00048246648
-0.00040365412
-0.0003261861
-0.00025027231
-0.00017614018
-0.00010389584
-3.3674633e-05
-0.0014803763
-0.0014451748
-0.0014049653
-0.0013601215
-0.001311043
-0.0012581472
-0.0012018621
-0.0011426188
-0.0010808446
-0.001016958
-0.00095136276
-0.0008844443
-0.00081656699
-0.00074807187
-0.00067927567
-0.0006104702
-0.00054192298
-0.00047387847
-0.0004065599
-0.00034017222
-0.00027490642
-0.0002109455
-0.00014848226
-8.758966e-05
-2.8392855e-05
-0.0012041467
-0.0011756412
-0.001143071
-0.001106735
-0.0010669537
-0.001024062
-0.00097840406
-0.00093032666
-0.00088017448
-0.00082828509
-0.00077498513
-0.00072058689
-0.00066538606
-0.00060966002
-0.00055366686
-0.00049764521
-0.00044181449
-0.00038637608
-0.00033151495
-0.00027740188
-0.00022419633
-0.0001720496
-0.0001211171
-7.1451901e-05
-2.3162267e-05
-0.0009324241
-0.00091042939
-0.00088529243
-0.00085724199
-0.00082652317
-0.00079339273
-0.00075811445
-0.00072095468
-0.0006821783
-0.00064204521
-0.00060080709
-0.00055870496
-0.00051596739
-0.00047280918
-0.0004294305
-0.00038601694
-0.0003427397
-0.00029975635
-0.00025721228
-0.00021524226
-0.00017397196
-0.00013351927
-9.4001414e-05
-5.545727e-05
-1.797619e-05
-0.00066417558
-0.00064855009
-0.00063068917
-0.00061075426
-0.00058891843
-0.0005653631
-0.00054027479
-0.00051384201
-0.00048625242
-0.0004576903
-0.00042833429
-0.00039835564
-0.00036791697
-0.00033717124
-0.00030626127
-0.00027531967
-0.00024446909
-0.00021382273
-0.00018348539
-0.00015355448
-0.00012412079
-9.5268733e-05
-6.7079636e-05
-3.9573286e-05
-1.2821728e-05
-0.00039830168
-0.00038894765
-0.00037825413
-0.00036631736
-0.00035324053
-0.00033913182
-0.00032410257
-0.00030826534
-0.00029173229
-0.00027461359
-0.00025701618
-0.00023904262
-0.00022079027
-0.00020235081
-0.00018381
-0.00016524755
-0.00014673729
-0.00012834757
-0.00011014173
-9.21788e-05
-7.451384e-05
-5.7197842e-05
-4.0279118e-05
-2.3760401e-05
-7.6899143e-06
-0.00013303767
-0.00012991537
-0.00012634577
-0.00012236094
-0.00011799528
-0.00011328485
-0.00010826677
-0.00010297859
-9.7457736e-05
-9.1740973e-05
-8.5864018e-05
-7.9861121e-05
-7.3764749e-05
-6.760551e-05
-6.1412058e-05
-5.5211049e-05
-4.9027183e-05
-4.288336e-05
-3.6800824e-05
-3.0799391e-05
-2.4897598e-05
-1.9112608e-05
-1.3460028e-05
-7.9411292e-06
-2.5719777e-06
)
;

boundaryField
{
    Walls
    {
        type            zeroGradient;
    }
    Inlet
    {
        type            fixedValue;
        value           uniform 500;
    }
    Outlet
    {
        type            fixedValue;
        value           uniform 0;
    }
    Front
    {
        type            wedge;
    }
    Back
    {
        type            wedge;
    }
    defaultFaces
    {
        type            empty;
    }
}


// ************************************************************************* //
