/*--------------------------------*- C++ -*----------------------------------*\
| =========                 |                                                 |
| \\      /  F ield         | OpenFOAM: The Open Source CFD Toolbox           |
|  \\    /   O peration     | Version:  4.0                                   |
|   \\  /    A nd           | Web:      www.OpenFOAM.org                      |
|    \\/     M anipulation  |                                                 |
\*---------------------------------------------------------------------------*/
FoamFile
{
    version     2.0;
    format      ascii;
    class       surfaceScalarField;
    location    "0.27";
    object      phi;
}
// * * * * * * * * * * * * * * * * * * * * * * * * * * * * * * * * * * * * * //

dimensions      [0 3 -1 0 0 0 0];

internalField   nonuniform List<scalar> 
3364
(
-4.0883933e-10
1.6457236e-08
-6.171048e-10
4.8597964e-08
8.7154103e-08
-4.1066969e-10
1.686788e-08
-1.9225531e-09
5.0109905e-08
8.5231595e-08
1.1166739e-10
1.6756196e-08
-1.1573304e-09
5.1378983e-08
8.4074291e-08
4.0119042e-11
1.6716051e-08
1.0232785e-09
5.0395814e-08
8.5097547e-08
-2.4315294e-10
1.6959158e-08
5.6275362e-10
4.9589822e-08
8.5660259e-08
-1.8006158e-10
1.7139188e-08
-5.2039314e-12
4.9414896e-08
8.5655018e-08
-9.0365196e-11
1.7229527e-08
2.479943e-10
4.9076509e-08
8.5902986e-08
-1.7039634e-10
1.7399878e-08
2.2486574e-10
4.8681181e-08
8.6127796e-08
2.8540283e-11
1.7371313e-08
4.3503199e-10
4.8274623e-08
8.6562773e-08
3.7182909e-10
1.699944e-08
-3.9644816e-10
4.9042883e-08
8.6166311e-08
-1.233651e-10
1.7122758e-08
-1.1776721e-09
5.009718e-08
8.4988636e-08
-3.1561382e-12
1.7125887e-08
-3.7305305e-10
5.0467044e-08
8.4615556e-08
3.0103638e-10
1.6824818e-08
4.2222146e-10
5.0345789e-08
8.5037733e-08
-1.784708e-10
1.7003225e-08
5.0966206e-10
4.9657609e-08
8.5547366e-08
-4.6906294e-10
1.7472235e-08
3.3729227e-10
4.8851226e-08
8.5884628e-08
-4.8317307e-10
1.7955372e-08
-1.0224773e-09
4.9390501e-08
8.486212e-08
-3.2664553e-10
1.8281982e-08
-9.7142023e-10
5.0035225e-08
8.3890663e-08
1.7605304e-10
1.8105881e-08
-2.5514206e-10
5.0466359e-08
8.3635477e-08
5.7091684e-10
1.7534922e-08
3.3432555e-10
5.0702906e-08
8.3969756e-08
1.8484176e-10
1.7350054e-08
1.2054854e-09
4.968222e-08
8.5175198e-08
-4.8618732e-10
1.7836192e-08
7.9421257e-10
4.8401802e-08
8.5969388e-08
-5.5750513e-10
1.839369e-08
-1.7957841e-10
4.8023878e-08
8.5789788e-08
3.5394533e-10
1.8039746e-08
-1.4278465e-10
4.8520591e-08
8.5646967e-08
6.1057809e-10
1.7429134e-08
-1.0271955e-09
5.015833e-08
8.4619726e-08
3.8154652e-10
1.7047518e-08
-8.2405174e-10
5.1363873e-08
8.3795638e-08
1.1708863e-10
1.6930364e-08
2.1983395e-10
5.1261092e-08
8.4015439e-08
-6.3441898e-11
1.6993774e-08
7.4424973e-10
5.0453372e-08
8.4759641e-08
-4.3236595e-10
1.7426142e-08
-1.0531807e-10
5.0126289e-08
8.4654279e-08
-1.6447604e-10
1.7590658e-08
-6.9050621e-10
5.0652369e-08
8.3963772e-08
1.7618763e-09
1.5828984e-08
4.5093914e-09
4.7904966e-08
8.847315e-08
1.1546365e-08
4.2819666e-09
4.8804473e-08
1.0644972e-08
1.0479313e-08
1.2679572e-07
4.8136613e-09
-5.3216628e-10
1.6918562e-08
-1.4614116e-09
-1.586105e-09
2.898211e-08
-4.0466931e-10
-1.274624e-10
-1.5001386e-09
-3.6587045e-10
-4.9109829e-10
-2.5950431e-09
-1.0582296e-10
-2.1624855e-11
-4.0479087e-10
-6.6867843e-11
-1.080849e-10
-7.8776492e-10
-1.2027513e-11
-9.5960214e-12
-5.3387004e-11
-2.5504623e-11
-3.1265004e-11
-1.3020095e-10
-3.5734362e-12
-6.0224476e-12
-1.3930917e-11
-1.5146681e-11
-1.5962656e-11
-2.9233484e-11
-1.7578929e-12
-4.2646709e-12
-5.2821611e-12
-1.1622728e-11
-1.3828897e-11
-7.4161669e-12
-1.5232638e-13
-4.112273e-12
-4.8179846e-13
-1.1293306e-11
-1.5930727e-11
1.6201982e-12
-1.1642492e-13
-3.9957052e-12
-4.2801494e-14
-1.1366749e-11
-1.6461665e-11
4.8845617e-13
-5.0628032e-13
-3.4892681e-12
-1.8763479e-12
-9.9964151e-12
-1.4682484e-11
-3.6551194e-12
-6.7251699e-13
-2.8166106e-12
-2.6714738e-12
-7.9972142e-12
-1.1845301e-11
-5.5082798e-12
-6.2113573e-13
-2.1953609e-12
-2.3565302e-12
-6.2616381e-12
-9.2976457e-12
-4.9039243e-12
-4.798128e-13
-1.7154669e-12
-1.7890196e-12
-4.9523093e-12
-7.4741127e-12
-3.6123954e-12
-3.1155995e-13
-1.403852e-12
-1.2263947e-12
-4.0373913e-12
-6.1687687e-12
-2.5316494e-12
-1.9831045e-13
-1.205505e-12
-7.6575141e-13
-3.4698966e-12
-5.2731915e-12
-1.6612779e-12
-1.4273268e-13
-1.0627482e-12
-5.4009144e-13
-3.0725026e-12
-4.693845e-12
-1.1194074e-12
-1.1623723e-13
-9.4649534e-13
-4.3789081e-13
-2.750826e-12
-4.2371677e-12
-8.945491e-13
-9.7274505e-14
-8.4921104e-13
-3.6876103e-13
-2.4793258e-12
-3.8515305e-12
-7.5438752e-13
-7.9317824e-14
-7.6988759e-13
-3.0336821e-13
-2.2552694e-12
-3.532379e-12
-6.2251662e-13
-6.2303486e-14
-7.0758146e-13
-2.3725119e-13
-2.0803216e-12
-3.2821143e-12
-4.8751982e-13
-4.6867564e-14
-6.6071338e-13
-1.8005393e-13
-1.9471397e-12
-3.0931319e-12
-3.6904627e-13
-3.4833426e-14
-6.2588095e-13
-1.3312208e-13
-1.8488587e-12
-2.9559591e-12
-2.7030935e-13
-2.6146365e-14
-5.9973662e-13
-9.9534328e-14
-1.7754806e-12
-2.8541815e-12
-2.0132949e-13
-2.0216562e-14
-5.7952277e-13
-7.6292101e-14
-1.7194162e-12
-2.7763262e-12
-1.5416701e-13
-1.5814415e-14
-5.6371152e-13
-5.9847397e-14
-1.6753951e-12
-2.716595e-12
-1.1959933e-13
-1.3248666e-14
-5.5046624e-13
-5.0030584e-14
-1.6386253e-12
-2.6656749e-12
-1.0097158e-13
-1.1891652e-14
-5.3857804e-13
-4.5313747e-14
-1.6052152e-12
-2.6189553e-12
-9.2053876e-14
-1.1186795e-14
-5.2739468e-13
-4.2712528e-14
-1.5737011e-12
-2.5731217e-12
-8.8566013e-14
-1.0843624e-14
-5.1655439e-13
-4.2077586e-14
-1.5424783e-12
-2.527207e-12
-8.8011296e-14
-1.0809564e-14
-5.0574801e-13
-4.2102456e-14
-1.5111959e-12
-2.4799008e-12
-8.9426392e-14
-1.1018459e-14
-4.9473255e-13
-4.3104105e-14
-1.4791201e-12
-2.4304653e-12
-9.2556178e-14
-1.1328105e-14
-4.8340723e-13
-4.4618267e-14
-1.445839e-12
-2.3783011e-12
-9.6797685e-14
-1.1720275e-14
-4.7168952e-13
-4.6293394e-14
-1.4112742e-12
-2.3239033e-12
-1.0070526e-13
-1.1989356e-14
-4.5970251e-13
-4.7325744e-14
-1.3759454e-12
-2.2672064e-12
-1.040353e-13
-1.2191853e-14
-4.475128e-13
-4.8171196e-14
-1.3399729e-12
-2.2093718e-12
-1.0601736e-13
-1.229005e-14
-4.3522468e-13
-4.8634274e-14
-1.303635e-12
-2.1508417e-12
-1.0717471e-13
-1.228361e-14
-4.229428e-13
-4.8598036e-14
-1.2673262e-12
-2.0920026e-12
-1.074464e-13
-1.2229077e-14
-4.1071528e-13
-4.854014e-14
-1.2310201e-12
-2.0329315e-12
-1.0761935e-13
-1.1911919e-14
-3.9880476e-13
-4.7418389e-14
-1.1955181e-12
-1.9748875e-12
-1.0546971e-13
-1.1418648e-14
-3.8738735e-13
-4.5431666e-14
-1.1615091e-12
-1.9192413e-12
-1.0108432e-13
-1.0778633e-14
-3.7660983e-13
-4.2921904e-14
-1.1293693e-12
-1.8666296e-12
-9.5539369e-14
-1.0009481e-14
-3.6660135e-13
-3.9899826e-14
-1.0994821e-12
-1.8176243e-12
-8.8910206e-14
-9.1169117e-15
-3.5748534e-13
-3.6372737e-14
-1.0722292e-12
-1.7728731e-12
-8.1128545e-14
-8.1006466e-15
-3.493855e-13
-3.2337654e-14
-1.0479947e-12
-1.7330778e-12
-7.2137037e-14
-6.9709724e-15
-3.4241527e-13
-2.7822239e-14
-1.0271457e-12
-1.6988081e-12
-6.2095641e-14
-5.7448623e-15
-3.3667108e-13
-2.2889851e-14
-1.0100029e-12
-1.6706377e-12
-5.1063649e-14
-4.4417933e-15
-3.3222991e-13
-1.7617074e-14
-9.9682952e-13
-1.6490339e-12
-3.922407e-14
-3.0566541e-15
-3.2917384e-13
-1.2074481e-14
-9.8781353e-13
-1.6342747e-12
-2.6836673e-14
-1.5582677e-15
-3.2761615e-13
-6.370341e-15
-9.8300328e-13
-1.6263064e-12
-1.4341491e-14
-2.3048192e-16
-1.0624515e-15
-2.4856395e-15
1.3637884e-07
-9.5883943e-09
-8.7216589e-09
1.4509422e-07
2.1011026e-08
-1.618508e-09
-1.4574513e-09
1.3746285e-08
-3.6276989e-09
-5.8572142e-10
-6.3613296e-10
-4.4488728e-09
-1.2273861e-09
-1.4604836e-10
-1.8577241e-10
-1.6776842e-09
-2.4752314e-10
-2.8716848e-11
-2.8106804e-11
-4.0517354e-10
-5.1740834e-11
-6.2071453e-12
5.9371118e-12
-8.5781008e-11
-5.5028268e-12
-8.1194947e-12
2.717718e-12
-2.2825078e-12
8.1033795e-12
-1.4602109e-11
-8.8426148e-12
1.9663971e-11
3.6279765e-12
-1.7741155e-11
-1.4971522e-11
9.7572705e-12
-4.8377498e-12
-1.6557973e-11
-1.5954491e-11
-3.8541778e-12
-8.3807793e-12
-1.3684958e-11
-1.3373585e-11
-1.0961065e-11
-7.8295464e-12
-1.0758967e-11
-1.0282017e-11
-1.0920635e-11
-5.8196715e-12
-8.5514791e-12
-8.2346517e-12
-7.8667559e-12
-3.7697123e-12
-7.3133172e-12
-7.0963926e-12
-4.907849e-12
-2.4831136e-12
-6.4914399e-12
-6.5880005e-12
-2.9914676e-12
-1.8509414e-12
-5.759886e-12
-6.1933605e-12
-2.2455755e-12
-1.4068817e-12
-5.2475458e-12
-5.7046977e-12
-1.895549e-12
-1.1679389e-12
-4.833993e-12
-5.3460566e-12
-1.5265901e-12
-9.646111e-13
-4.4919031e-12
-5.057826e-12
-1.2528561e-12
-7.5536582e-13
-4.2240681e-12
-4.8413746e-12
-9.7183708e-13
-5.6501592e-13
-4.0281156e-12
-4.6901577e-12
-7.1625837e-13
-4.1115053e-13
-3.8872966e-12
-4.5855119e-12
-5.1582712e-13
-3.065018e-13
-3.7821502e-12
-4.5184588e-12
-3.7358929e-13
-2.3027698e-13
-3.7060685e-12
-4.4722672e-12
-2.7650562e-13
-1.7799168e-13
-3.6477057e-12
-4.4360519e-12
-2.1424528e-13
-1.514029e-13
-3.5973041e-12
-4.405128e-12
-1.823652e-13
-1.3992486e-13
-3.5494623e-12
-4.3698654e-12
-1.7522506e-13
-1.3839411e-13
-3.4996623e-12
-4.330055e-12
-1.7824065e-13
-1.4029945e-13
-3.4474009e-12
-4.2820826e-12
-1.8830607e-13
-1.458325e-13
-3.3910198e-12
-4.2254364e-12
-2.0251072e-13
-1.5350696e-13
-3.3300922e-12
-4.1602413e-12
-2.1873166e-13
-1.6270463e-13
-3.2642066e-12
-4.0867428e-12
-2.3623039e-13
-1.7131179e-13
-3.1936196e-12
-4.0053204e-12
-2.527591e-13
-1.7852805e-13
-3.1191446e-12
-3.9183173e-12
-2.6555356e-13
-1.8234757e-13
-3.0428303e-12
-3.8275933e-12
-2.7309163e-13
-1.8517375e-13
-2.9648455e-12
-3.7343301e-12
-2.7845493e-13
-1.8660279e-13
-2.8857017e-12
-3.6372132e-12
-2.837355e-13
-1.8746372e-13
-2.8058685e-12
-3.5388812e-12
-2.8580981e-13
-1.8435661e-13
-2.7269916e-12
-3.4418326e-12
-2.8141758e-13
-1.7679294e-13
-2.6512917e-12
-3.3482077e-12
-2.7042891e-13
-1.672754e-13
-2.5795635e-12
-3.2590803e-12
-2.5641262e-13
-1.5591887e-13
-2.5125618e-12
-3.1756905e-12
-2.3931735e-13
-1.4234356e-13
-2.451353e-12
-3.0994135e-12
-2.1862833e-13
-1.2663344e-13
-2.3968623e-12
-3.0314291e-12
-1.9462493e-13
-1.0902513e-13
-2.3499379e-12
-2.9728547e-12
-1.676059e-13
-8.9661164e-14
-2.311345e-12
-2.9246258e-12
-1.3789584e-13
-6.8844298e-14
-2.281729e-12
-2.8875862e-12
-1.0588925e-13
-4.7087892e-14
-2.2614818e-12
-2.8622387e-12
-7.2440488e-14
-2.5239876e-14
-2.2505874e-12
-2.8486751e-12
-3.8808453e-14
-4.4466073e-15
-6.8872301e-15
-8.1942171e-12
8.1896383e-12
-1.5713044e-11
7.508684e-12
-2.2393072e-11
6.6688427e-12
-2.9225105e-11
6.8216686e-12
-3.8142452e-11
8.9120616e-12
-5.113174e-11
1.2986613e-11
-6.9395558e-11
1.8262814e-11
-9.3526617e-11
2.4131288e-11
-1.234593e-10
2.9933776e-11
-1.5849582e-10
3.503823e-11
-1.9756535e-10
3.9071632e-11
-2.3941181e-10
4.1848798e-11
-2.8283377e-10
4.3424375e-11
-3.2683648e-10
4.4005103e-11
-3.705965e-10
4.3762272e-11
-4.1339908e-10
4.2804645e-11
-4.5447792e-10
4.1080613e-11
-4.9286916e-10
3.8392692e-11
-5.2779114e-10
3.4923079e-11
-5.5853632e-10
3.0745928e-11
-5.8457641e-10
2.6040506e-11
-6.05379e-10
2.0802737e-11
-6.2047204e-10
1.5092981e-11
-6.2934942e-10
8.8772328e-12
2.367812e-12
-4.681889e-11
5.5012501e-11
-1.0141811e-10
6.211417e-11
-1.6403089e-10
6.9288954e-11
-2.3662282e-10
7.9421307e-11
-3.2291092e-10
9.5207884e-11
-4.2495582e-10
1.1503905e-10
-5.4393262e-10
1.372468e-10
-6.8023003e-10
1.6043543e-10
-8.3161797e-10
1.8132789e-10
-9.9536119e-10
1.98787e-10
-1.1687268e-09
2.1244219e-10
-1.3490049e-09
2.2213112e-10
-1.5336899e-09
2.281131e-10
-1.7207953e-09
2.3111365e-10
-1.9083752e-09
2.3134464e-10
-2.0953203e-09
2.2975176e-10
-2.2912709e-09
2.3703263e-10
-2.478786e-09
2.2590875e-10
-2.6496613e-09
2.0579882e-10
-2.7988889e-09
1.7997358e-10
-2.9226864e-09
1.4983765e-10
-3.0184827e-09
1.1659827e-10
-3.0840032e-09
8.0612391e-11
-3.1153741e-09
4.024682e-11
1.0347598e-11
-1.2791922e-10
1.8294004e-10
-2.7437423e-10
2.0858225e-10
-4.466387e-10
2.4156858e-10
-6.5189744e-10
2.8469558e-10
-8.9336964e-10
3.3669517e-10
-1.1724583e-09
3.9414181e-10
-1.4923894e-09
4.5719076e-10
-1.91614e-09
5.8419736e-10
-2.3751716e-09
6.4036931e-10
-2.8429918e-09
6.666154e-10
-3.3055359e-09
6.7499294e-10
-3.7542925e-09
6.7089304e-10
-4.1831111e-09
6.5693575e-10
-4.5862772e-09
6.3428258e-10
-4.9578468e-09
6.0291608e-10
-5.2923932e-09
5.6429902e-10
-5.5749237e-09
5.1956312e-10
-5.8183687e-09
4.6935296e-10
-6.0273757e-09
4.1480431e-10
-6.2041508e-09
3.567466e-10
-6.3506082e-09
2.962924e-10
-6.4679221e-09
2.3390906e-10
-6.5562241e-09
1.6891084e-10
-6.6176449e-09
1.0166384e-10
3.3714082e-11
-3.7369469e-10
5.5665079e-10
-7.9430855e-10
6.2922032e-10
-1.2849707e-09
7.3225709e-10
-2.0808571e-09
1.0806058e-09
-2.9433926e-09
1.1992509e-09
-3.7655697e-09
1.2163353e-09
-4.4962967e-09
1.1879307e-09
-5.0415244e-09
1.1294352e-09
-5.4509864e-09
1.049839e-09
-5.7399241e-09
9.5555901e-10
-5.9242443e-09
8.5931744e-10
-6.0159236e-09
7.6257544e-10
-6.0251698e-09
6.6618394e-10
-5.9539497e-09
5.6306364e-10
-5.8181752e-09
4.6714207e-10
-5.6350797e-09
3.8120342e-10
-5.4217689e-09
3.0625184e-10
-5.1950946e-09
2.4267779e-10
-4.9708058e-09
1.9051434e-10
-4.7633613e-09
1.4930062e-10
-4.584451e-09
1.1738043e-10
-4.4424201e-09
9.1876197e-11
-4.3420518e-09
6.8540502e-11
-4.2870697e-09
4.6679451e-11
2.4884499e-11
-2.2133617e-09
2.7700383e-09
-3.9704751e-09
2.386362e-09
-5.4779618e-09
2.2397712e-09
-6.1654173e-09
1.7680803e-09
-6.2435262e-09
1.2773752e-09
-5.7779907e-09
7.508121e-10
-5.0168347e-09
4.2678485e-10
-4.0270106e-09
1.3961972e-10
-2.8742389e-09
-1.0292519e-10
-1.6198014e-09
-2.9887222e-10
-3.7783928e-10
-3.8264042e-10
8.5794392e-10
-4.7320844e-10
2.1552007e-09
-6.3107368e-10
3.5684299e-09
-8.5016504e-10
4.9500166e-09
-9.1444258e-10
6.2595463e-09
-9.2832232e-10
7.474344e-09
-9.0854024e-10
8.5796518e-09
-8.6262258e-10
9.5652187e-09
-7.9504364e-10
1.0423336e-08
-7.0880595e-10
1.1146424e-08
-6.0569585e-10
1.1726024e-08
-4.8771033e-10
1.2151865e-08
-3.5728497e-10
1.2415353e-08
-2.1679359e-10
-6.4894099e-11
9.9668042e-10
1.7734433e-09
4.1805532e-09
-7.9745939e-10
7.8955873e-09
-1.4751918e-09
1.1584347e-08
-1.9206486e-09
1.5311021e-08
-2.4492733e-09
1.8965444e-08
-2.9035832e-09
2.2561357e-08
-3.1690955e-09
2.5938985e-08
-3.2379704e-09
2.9008267e-08
-3.1721648e-09
3.1745602e-08
-3.0361601e-09
3.422074e-08
-2.8577291e-09
3.6393903e-08
-2.6463183e-09
3.8191107e-08
-2.4282234e-09
3.9562412e-08
-2.2214148e-09
4.0654439e-08
-2.0064142e-09
4.151811e-08
-1.7919375e-09
4.2193393e-08
-1.5837671e-09
4.2713798e-08
-1.3829719e-09
4.3108493e-08
-1.1896829e-09
4.3402846e-08
-1.0031041e-09
4.3618596e-08
-8.213915e-10
4.3773072e-08
-6.4213142e-10
4.3878394e-08
-4.6255285e-10
4.3941782e-08
-2.8012795e-10
-8.896832e-11
1.4916809e-07
-2.2992076e-09
1.4779392e-07
5.7763509e-10
1.4521355e-07
1.1059624e-09
1.4173264e-07
1.5609579e-09
1.3716945e-07
2.1145304e-09
1.3168095e-07
2.5854345e-09
1.256376e-07
2.8747086e-09
1.194315e-07
2.9685078e-09
1.1333261e-07
2.927061e-09
1.0749027e-07
2.8064639e-09
1.0197519e-07
2.6575964e-09
9.6837665e-08
2.4914344e-09
9.2107616e-08
2.3020238e-09
8.778489e-08
2.1014885e-09
8.3880215e-08
1.8984215e-09
8.0391197e-08
1.6972266e-09
7.7306832e-08
1.5007316e-09
7.4613433e-08
1.3105501e-09
7.2296867e-08
1.1269971e-09
7.0344357e-08
9.4951112e-10
6.8746216e-08
7.7684829e-10
6.7497026e-08
6.0715197e-10
6.6597015e-08
4.3754652e-10
6.6051611e-08
2.6536099e-10
8.4758927e-11
1.3071265e-08
-1.6240645e-09
1.5421048e-08
-1.7720345e-09
1.8065791e-08
-1.5386657e-09
2.0802075e-08
-1.1752153e-09
2.3625881e-08
-7.0916898e-10
2.6551584e-08
-3.4016699e-10
2.9481643e-08
-5.5257828e-11
3.225639e-08
1.9384991e-10
3.4839176e-08
3.4436287e-10
3.7192683e-08
4.5304484e-10
3.9276549e-08
5.7381623e-10
4.0905986e-08
8.6208283e-10
4.2199809e-08
1.0082844e-09
4.3228544e-08
1.0728345e-09
4.403441e-08
1.0926352e-09
4.4653681e-08
1.078032e-09
4.5120095e-08
1.034393e-09
4.5462992e-08
9.6772519e-10
4.5708581e-08
8.8147801e-10
4.5879749e-08
7.7841085e-10
4.5995987e-08
6.6067636e-10
4.6073316e-08
5.298858e-10
4.6123127e-08
3.8779767e-10
4.6152644e-08
2.3590336e-10
7.1648749e-11
-5.2367869e-09
-8.3616168e-10
-5.9345614e-09
-1.0742699e-09
-6.2917197e-09
-1.1815179e-09
-6.2338026e-09
-1.2331422e-09
-5.7151909e-09
-1.2277889e-09
-4.8775693e-09
-1.1777945e-09
-3.8294814e-09
-1.1033489e-09
-2.6240803e-09
-1.0115516e-09
-1.3697232e-09
-9.0999192e-10
-1.1153955e-10
-8.0513403e-10
1.162969e-09
-7.0068533e-10
2.6172531e-09
-5.9219191e-10
4.1122526e-09
-4.8670352e-10
5.5748332e-09
-3.8973233e-10
6.9699711e-09
-3.0248714e-10
8.2736403e-09
-2.2562005e-10
9.4854815e-09
-1.7742975e-10
1.0591146e-08
-1.3791931e-10
1.1578354e-08
-1.0571011e-10
1.2437132e-08
-8.0345931e-11
1.3158977e-08
-6.1147223e-11
1.3735905e-08
-4.702131e-11
1.4160285e-08
-3.6560446e-11
1.4423726e-08
-2.7516714e-11
-1.6605687e-11
-2.2871031e-09
-2.267442e-10
-3.0830256e-09
-2.7835025e-10
-3.9123821e-09
-3.5216661e-10
-4.7179381e-09
-4.2759392e-10
-5.4417293e-09
-5.0400716e-10
-5.9782443e-09
-6.4129013e-10
-6.3858517e-09
-6.9575279e-10
-6.6736366e-09
-7.2377822e-10
-6.8486908e-09
-7.3494913e-10
-6.9210524e-09
-7.3278367e-10
-6.9015172e-09
-7.202312e-10
-6.7931312e-09
-7.0058807e-10
-6.6068671e-09
-6.7297691e-10
-6.3583409e-09
-6.3826711e-10
-6.0632481e-09
-5.9758773e-10
-5.7361768e-09
-5.5269831e-10
-5.4079051e-09
-5.0570776e-10
-5.0901314e-09
-4.5569849e-10
-4.7928492e-09
-4.0299719e-10
-4.5255439e-09
-3.4765561e-10
-4.2969908e-09
-2.8970425e-10
-4.114869e-09
-2.2914666e-10
-3.985425e-09
-1.660078e-10
-3.9124564e-09
-1.0048851e-10
-3.3823199e-11
-5.9844901e-10
-3.346621e-11
-8.351899e-10
-4.1607039e-11
-1.1184426e-09
-6.8912256e-11
-1.4413467e-09
-1.046891e-10
-1.8098167e-09
-1.355374e-10
-2.2779225e-09
-1.7318568e-10
-2.7664118e-09
-2.0726611e-10
-3.2555503e-09
-2.346435e-10
-3.7348141e-09
-2.556902e-10
-4.1970465e-09
-2.7055693e-10
-4.6375676e-09
-2.7971659e-10
-5.0514023e-09
-2.8676042e-10
-5.4297431e-09
-2.9464369e-10
-5.7489874e-09
-3.1903077e-10
-6.0292876e-09
-3.172957e-10
-6.2756264e-09
-3.0636788e-10
-6.4922982e-09
-2.8904447e-10
-6.6816729e-09
-2.663323e-10
-6.845671e-09
-2.3900758e-10
-6.9857927e-09
-2.0754252e-10
-7.1031228e-09
-1.7238261e-10
-7.1982043e-09
-1.3407355e-10
-7.2708897e-09
-9.3330717e-11
-7.3209608e-09
-5.0425707e-11
-1.160196e-11
-1.4025654e-10
2.1010785e-11
-2.1250953e-10
3.0647474e-11
-3.1259328e-10
3.11729e-11
-4.3669613e-10
1.9414921e-11
-5.8297113e-10
1.0738434e-11
-7.5399064e-10
-2.1657528e-12
-9.4407519e-10
-1.7181607e-11
-1.1454792e-09
-3.3239961e-11
-1.3530772e-09
-4.8093164e-11
-1.5630996e-09
-6.0535983e-11
-1.776327e-09
-6.6491001e-11
-1.9916687e-09
-7.1420911e-11
-2.2116138e-09
-7.4701125e-11
-2.4545215e-09
-7.6125968e-11
-2.6961718e-09
-7.5648698e-11
-2.9290294e-09
-7.351387e-11
-3.1481311e-09
-6.9946621e-11
-3.3495226e-09
-6.4944985e-11
-3.5298402e-09
-5.8694279e-11
-3.6860182e-09
-5.1369021e-11
-3.8152969e-09
-4.3108459e-11
-3.9152902e-09
-3.4084929e-11
-3.9841552e-09
-2.4470409e-11
-4.02021e-09
-1.437552e-11
-4.0561041e-12
2.2971643e-12
1.643165e-11
2.1897644e-12
3.0755338e-11
-5.9293396e-12
3.929237e-11
-2.8105793e-11
4.1591638e-11
-5.888438e-11
4.1517175e-11
-1.0005641e-10
3.9006318e-11
-1.5104865e-10
3.381055e-11
-2.1026994e-10
2.5981126e-11
-2.7386619e-10
1.5502756e-11
-3.4331776e-10
8.9151491e-12
-4.1382186e-10
4.0125442e-12
-4.8504398e-10
-1.9944599e-13
-5.5618176e-10
-3.5641084e-12
-6.2625716e-10
-6.0514128e-12
-6.9438918e-10
-7.5176351e-12
-7.5963387e-10
-8.2702143e-12
-8.2103128e-10
-8.5503292e-12
-8.7750631e-10
-8.471146e-12
-9.2815113e-10
-8.0506957e-12
-9.7216255e-10
-7.3588753e-12
-1.0088108e-09
-6.4615402e-12
-1.0375007e-09
-5.3963138e-12
-1.0577772e-09
-4.1951602e-12
-1.0693777e-09
-2.7762409e-12
-8.7129914e-13
3.3030135e-11
3.0658913e-12
5.1236854e-11
1.2548972e-11
6.9631343e-11
2.0898173e-11
8.4595897e-11
2.6627327e-11
9.5405448e-11
3.0707828e-11
1.0258938e-10
3.1822564e-11
1.065335e-10
2.9866577e-11
1.0571292e-10
2.6801843e-11
9.9541617e-11
2.1674166e-11
9.1768134e-11
1.6688727e-11
8.3055992e-11
1.2724767e-11
7.4572647e-11
8.2839667e-12
6.6889177e-11
4.1194212e-12
6.0515557e-11
3.2226305e-13
5.516087e-11
-2.1628936e-12
5.0839841e-11
-3.9491286e-12
4.7445253e-11
-5.1556772e-12
4.5044671e-11
-6.0704927e-12
4.3370524e-11
-6.3764687e-12
4.2198295e-11
-6.1865553e-12
4.132504e-11
-5.5881857e-12
4.0593628e-11
-4.6647917e-12
3.9889674e-11
-3.4910854e-12
3.9395256e-11
-2.2816895e-12
-1.0616566e-12
2.1674897e-11
-8.8513769e-12
3.6092852e-11
-1.8686332e-12
5.2160227e-11
4.8311256e-12
6.8582849e-11
1.0205012e-11
8.4730264e-11
1.4560703e-11
9.9410582e-11
1.7142528e-11
1.1147267e-10
1.7804766e-11
1.2113798e-10
1.71368e-11
1.2803878e-10
1.4773627e-11
1.3317986e-10
1.1547911e-11
1.3767698e-10
8.2279091e-12
1.4129591e-10
4.6652969e-12
1.4426485e-10
1.1507416e-12
1.4578669e-10
-1.1993178e-12
1.4735604e-10
-3.7319788e-12
1.4897764e-10
-5.5704519e-12
1.5124759e-10
-7.4253508e-12
1.5356781e-10
-8.3904364e-12
1.5585051e-10
-8.6588771e-12
1.5808766e-10
-8.4234144e-12
1.6014181e-10
-7.6420386e-12
1.6191154e-10
-6.4342259e-12
1.6332293e-10
-4.9021868e-12
1.642054e-10
-3.1638724e-12
-1.1715678e-12
-7.562224e-14
-1.2629695e-11
5.8554153e-12
-7.799422e-12
1.3313462e-11
-2.6266749e-12
2.141292e-11
2.1057933e-12
2.9987653e-11
5.9862023e-12
3.8154247e-11
8.976159e-12
4.4935113e-11
1.1024116e-11
5.0038659e-11
1.2033462e-11
5.2933899e-11
1.1878586e-11
5.4383063e-11
1.0098937e-11
5.463519e-11
7.9759618e-12
5.3644585e-11
5.6560726e-12
5.1462356e-11
3.3331332e-12
4.8949873e-11
1.3133186e-12
4.5258459e-11
-4.0418777e-14
4.1572247e-11
-1.8841e-12
3.7665177e-11
-3.5181467e-12
3.3884511e-11
-4.6096418e-12
3.0360419e-11
-5.1346618e-12
2.7474307e-11
-5.5371855e-12
2.5087218e-11
-5.2548372e-12
2.3231968e-11
-4.5788718e-12
2.1907414e-11
-3.5775355e-12
2.1019249e-11
-2.2756152e-12
-7.8746637e-13
-1.2298602e-11
-1.1292047e-11
-1.2284146e-11
-7.8137505e-12
-1.1187772e-11
-3.7229169e-12
-9.4667032e-12
3.8485514e-13
-7.590649e-12
4.1102734e-12
-5.7487971e-12
7.1344247e-12
-4.132164e-12
9.4075916e-12
-2.9768881e-12
1.0878285e-11
-3.549115e-12
1.24509e-11
-5.7084144e-12
1.2258311e-11
-9.3017324e-12
1.1569341e-11
-1.3705593e-11
1.0059981e-11
-1.8908098e-11
8.5356731e-12
-2.4755584e-11
7.1608263e-12
-3.06794e-11
5.8834078e-12
-3.6985689e-11
4.4221889e-12
-4.3502347e-11
2.998501e-12
-4.9887569e-11
1.7755618e-12
-5.58333e-11
8.110427e-13
-6.143592e-11
6.54016e-14
-6.6397335e-11
-2.9346131e-13
-7.0487666e-11
-4.885877e-13
-7.3615291e-11
-4.4996194e-13
-7.5605725e-11
-2.8523392e-13
6.8531016e-14
-1.3527384e-11
-8.6852777e-12
-1.5399495e-11
-5.9415981e-12
-1.6617101e-11
-2.5052588e-12
-1.7311106e-11
1.0789152e-12
-1.7651265e-11
4.4504861e-12
-1.7963565e-11
7.4467721e-12
-1.8389692e-11
9.8337589e-12
-1.9279807e-11
1.1768431e-11
-2.0086646e-11
1.3257761e-11
-2.1853528e-11
1.4025203e-11
-2.4631536e-11
1.434735e-11
-2.8773035e-11
1.4201468e-11
-3.3457285e-11
1.3219901e-11
-3.8575603e-11
1.2279111e-11
-4.4045344e-11
1.1353107e-11
-4.9654346e-11
1.0031139e-11
-5.5378231e-11
8.7223253e-12
-6.1059278e-11
7.4565417e-12
-6.643587e-11
6.1875606e-12
-7.1338866e-11
4.9683181e-12
-7.5504451e-11
3.8720398e-12
-7.8868703e-11
2.8755758e-12
-8.1290454e-11
1.9716957e-12
-8.2665284e-11
1.0895045e-12
3.7513652e-13
-9.7289141e-12
-6.8231637e-12
-1.1188536e-11
-4.4819899e-12
-1.2142063e-11
-1.551727e-12
-1.2644452e-11
1.5813189e-12
-1.2836476e-11
4.6425285e-12
-1.2787814e-11
7.3981282e-12
-1.2583862e-11
9.6298215e-12
-1.2559992e-11
1.1744572e-11
-1.2725556e-11
1.342333e-11
-1.3329629e-11
1.4629273e-11
-1.447826e-11
1.5495971e-11
-1.6034837e-11
1.5758027e-11
-1.8307451e-11
1.549249e-11
-2.1110412e-11
1.5082039e-11
-2.4122823e-11
1.4365478e-11
-2.7464033e-11
1.3372302e-11
-3.0902079e-11
1.216032e-11
-3.4450649e-11
1.1005054e-11
-3.7864414e-11
9.6012638e-12
-4.1008406e-11
8.112244e-12
-4.3732975e-11
6.5965394e-12
-4.5986748e-11
5.1292762e-12
-4.7718594e-11
3.7034649e-12
-4.8836614e-11
2.2074518e-12
6.3276809e-13
-5.7530012e-12
-5.9781071e-12
-6.2212236e-12
-4.0138252e-12
-6.2112277e-12
-1.5617545e-12
-5.8660983e-12
1.2361743e-12
-5.0341608e-12
3.8105858e-12
-3.7739303e-12
6.1378979e-12
-2.6064116e-12
8.4623051e-12
-1.5738157e-12
1.0711978e-11
-5.98872e-13
1.2448387e-11
2.4366334e-13
1.3786735e-11
9.299095e-13
1.4809719e-11
1.2498429e-12
1.5438084e-11
1.0638095e-12
1.5678509e-11
5.1924942e-13
1.5626581e-11
-3.5282398e-13
1.5237529e-11
-1.5229499e-12
1.4542401e-11
-2.9485589e-12
1.3585898e-11
-4.3781005e-12
1.2434562e-11
-5.8512548e-12
1.1074381e-11
-7.3654021e-12
9.6263509e-12
-8.7904443e-12
8.0215386e-12
-9.9783552e-12
6.3171414e-12
-1.0784889e-11
4.5099505e-12
-1.125918e-11
2.6816999e-12
9.1758692e-13
-3.3079094e-12
-5.6617977e-12
-3.1807971e-12
-4.1410338e-12
-2.608864e-12
-2.1337546e-12
-1.5388368e-12
1.6610153e-13
-6.7258891e-14
2.3389771e-12
1.576214e-12
4.494404e-12
3.1729834e-12
6.8655212e-12
4.90739e-12
8.9775608e-12
6.7445143e-12
1.0611254e-11
8.5011388e-12
1.2030103e-11
1.0171119e-11
1.3139731e-11
1.1635427e-11
1.3973767e-11
1.2779899e-11
1.4534027e-11
1.3656784e-11
1.4749684e-11
1.4276062e-11
1.4618237e-11
1.4634332e-11
1.4184115e-11
1.4749066e-11
1.3471148e-11
1.4675868e-11
1.250774e-11
1.4420943e-11
1.1329285e-11
1.4095469e-11
9.9518009e-12
1.371235e-11
8.4046333e-12
1.3324847e-11
6.704617e-12
1.299433e-11
4.8404394e-12
1.276805e-11
2.9079568e-12
9.483673e-13
-2.278446e-12
-5.6290627e-12
-1.9377578e-12
-4.4818383e-12
-1.2183192e-12
-2.8532857e-12
-7.2141086e-14
-9.8014782e-13
1.3480458e-12
9.187357e-13
3.0592161e-12
2.7831919e-12
4.8477669e-12
5.0769378e-12
6.8580858e-12
6.9672158e-12
8.92071e-12
8.5486079e-12
1.0962086e-11
9.988708e-12
1.2917837e-11
1.1183964e-11
1.4751821e-11
1.2139768e-11
1.6496065e-11
1.2789769e-11
1.8124142e-11
1.3121594e-11
1.9607588e-11
1.3134778e-11
2.0848713e-11
1.2942977e-11
2.1857643e-11
1.2462205e-11
2.2670966e-11
1.1694403e-11
2.3276985e-11
1.0723251e-11
2.3714478e-11
9.514293e-12
2.4024146e-11
8.0949486e-12
2.421277e-11
6.5159749e-12
2.4227007e-11
4.8261835e-12
2.4229063e-11
2.9058879e-12
7.9551036e-13
-1.9338311e-12
-5.5909052e-12
-1.672634e-12
-4.7431493e-12
-1.0168214e-12
-3.5091978e-12
-2.7840066e-14
-1.9692125e-12
1.1932739e-12
-3.0244646e-13
2.6870477e-12
1.2893627e-12
4.4550777e-12
3.3088624e-12
6.423925e-12
4.998331e-12
8.4552418e-12
6.5172598e-12
1.0440493e-11
8.0034297e-12
1.2435746e-11
9.1886878e-12
1.4443621e-11
1.0131873e-11
1.6409285e-11
1.0824088e-11
1.8258855e-11
1.1272008e-11
1.9974078e-11
1.141954e-11
2.1570501e-11
1.134654e-11
2.3011542e-11
1.1021151e-11
2.426636e-11
1.0439573e-11
2.536272e-11
9.6268785e-12
2.6302814e-11
8.5741861e-12
2.7079971e-11
7.3177782e-12
2.7701135e-11
5.8947966e-12
2.8111251e-11
4.4160524e-12
2.8352728e-11
2.6644016e-12
8.4134355e-13
-1.7500414e-12
-5.3675689e-12
-1.6101714e-12
-4.8831258e-12
-1.0978288e-12
-4.0216366e-12
-3.1098514e-13
-2.7561402e-12
7.4072173e-13
-1.3542252e-12
2.0318982e-12
-1.8744707e-15
3.6731113e-12
1.6675982e-12
5.41302e-12
3.2583794e-12
7.2338782e-12
4.6963653e-12
9.1705521e-12
6.0667247e-12
1.1151714e-11
7.2074992e-12
1.315344e-11
8.1301247e-12
1.5147218e-11
8.8302886e-12
1.7102629e-11
9.31658e-12
1.8943955e-11
9.5781985e-12
2.0666425e-11
9.6240557e-12
2.2278978e-11
9.4085851e-12
2.3748532e-11
8.9700066e-12
2.5057973e-11
8.3174262e-12
2.6175244e-11
7.4569031e-12
2.7100681e-11
6.3923295e-12
2.7823139e-11
5.1723257e-12
2.8585053e-11
3.6541255e-12
2.8927643e-11
2.3218039e-12
9.5745373e-13
-1.424266e-12
-5.196268e-12
-1.353103e-12
-4.9543894e-12
-1.0553581e-12
-4.3194724e-12
-4.076281e-13
-3.4039506e-12
5.3864766e-13
-2.3005711e-12
1.6369438e-12
-1.1002311e-12
3.0094038e-12
2.9508644e-13
4.5744916e-12
1.6932473e-12
6.3685719e-12
2.9022472e-12
8.2134365e-12
4.2218278e-12
1.0142024e-11
5.2788841e-12
1.2105948e-11
6.1661765e-12
1.4062193e-11
6.8740235e-12
1.5992677e-11
7.3860779e-12
1.7867418e-11
7.703442e-12
1.9671703e-11
7.8197564e-12
2.1358504e-11
7.7217719e-12
2.2904747e-11
7.4237522e-12
2.4285649e-11
6.9365139e-12
2.5496824e-11
6.2457179e-12
2.6498761e-11
5.3903827e-12
2.7314242e-11
4.3568339e-12
2.7757727e-11
3.2106295e-12
2.8099858e-11
1.9796665e-12
6.3334283e-13
-1.0657805e-12
-5.1024151e-12
-1.0032681e-12
-5.0169895e-12
-7.2322369e-13
-4.5995997e-12
-2.05457e-13
-3.9217936e-12
5.3880066e-13
-3.0448958e-12
1.4888361e-12
-2.0503248e-12
2.7881129e-12
-1.0042408e-12
4.2215207e-12
2.5979606e-13
5.8490733e-12
1.2746572e-12
7.6149714e-12
2.4558975e-12
9.4473639e-12
3.446464e-12
1.1335183e-11
4.2783334e-12
1.3244654e-11
4.9645326e-12
1.5139003e-11
5.4917109e-12
1.6994165e-11
5.848265e-12
1.8786335e-11
6.0275738e-12
2.0475374e-11
6.0327221e-12
2.203975e-11
5.8593659e-12
2.3460569e-11
5.5156858e-12
2.4700901e-11
5.0053773e-12
2.5751139e-11
4.3401368e-12
2.6561533e-11
3.5464315e-12
2.717192e-11
2.6002328e-12
2.756358e-11
1.5880024e-12
5.9232787e-13
-7.6556618e-13
-5.053184e-12
-6.7884135e-13
-5.1037883e-12
-4.0670931e-13
-4.8718016e-12
5.6306981e-14
-4.3848746e-12
7.2884136e-13
-3.7174892e-12
1.5945717e-12
-2.9161082e-12
2.7268063e-12
-2.1365226e-12
4.0809194e-12
-1.0943587e-12
5.4845676e-12
-1.2902729e-13
7.1365096e-12
8.0392422e-13
8.8651059e-12
1.7178408e-12
1.0650213e-11
2.4932037e-12
1.2461712e-11
3.1530139e-12
1.4285061e-11
3.6683452e-12
1.6079825e-11
4.0534865e-12
1.7817221e-11
4.2901654e-12
1.9473092e-11
4.3768417e-12
2.1016426e-11
4.3160231e-12
2.242151e-11
4.1105943e-12
2.3659183e-11
3.7676981e-12
2.4703016e-11
3.2962975e-12
2.5547964e-11
2.7014767e-12
2.599365e-11
2.1545397e-12
2.6299414e-11
1.2822368e-12
3.0227314e-13
-5.4073708e-13
-5.0283416e-12
-4.3690378e-13
-5.2076864e-12
-1.7406348e-13
-5.1347031e-12
2.6444379e-13
-4.8234388e-12
8.8599768e-13
-4.3390953e-12
1.7026574e-12
-3.7328154e-12
2.60896e-12
-3.0428679e-12
3.8478149e-12
-2.3332517e-12
5.1570922e-12
-1.4383383e-12
6.679566e-12
-7.1857922e-13
8.2458492e-12
1.5153172e-13
9.8858981e-12
8.5313255e-13
1.1570745e-11
1.4681481e-12
1.3287243e-11
1.9518308e-12
1.4970181e-11
2.3705357e-12
1.6611353e-11
2.6489828e-12
1.8180972e-11
2.8072136e-12
1.9652131e-11
2.8448566e-12
2.0996571e-11
2.7661478e-12
2.2186562e-11
2.5777017e-12
2.3194607e-11
2.2882479e-12
2.3977147e-11
1.9189316e-12
2.4841228e-11
1.2904539e-12
2.5248037e-11
8.7542737e-13
3.8062888e-13