/*--------------------------------*- C++ -*----------------------------------*\
| =========                 |                                                 |
| \\      /  F ield         | OpenFOAM: The Open Source CFD Toolbox           |
|  \\    /   O peration     | Version:  4.0                                   |
|   \\  /    A nd           | Web:      www.OpenFOAM.org                      |
|    \\/     M anipulation  |                                                 |
\*---------------------------------------------------------------------------*/
FoamFile
{
    version     2.0;
    format      ascii;
    class       volVectorField;
    location    "0.27";
    object      U;
}
// * * * * * * * * * * * * * * * * * * * * * * * * * * * * * * * * * * * * * //

dimensions      [0 1 -1 0 0 0 0];

internalField   nonuniform List<vector> 
1740
(
(1.4616479 -0.0075526255 4.9178993e-06)
(1.4854188 -0.019425431 7.9914986e-07)
(1.608855 -0.0066049211 1.1198644e-08)
(1.5766242 -0.0061816917 7.3483417e-06)
(1.5006071 -0.040388672 1.3848286e-06)
(1.61477 -0.029696484 3.2150113e-07)
(1.5631885 0.0062962416 1.1213831e-05)
(1.5898827 -0.022672415 2.4738407e-06)
(1.4920496 -0.018435032 4.6409491e-07)
(1.5232189 -0.0020500852 1.3370716e-05)
(1.5824135 0.017941003 3.4510699e-06)
(1.589502 0.0084637953 5.3578508e-07)
(1.5218736 -0.0098543325 1.5334156e-05)
(1.4928964 0.0084354458 4.4387046e-06)
(1.5991926 0.0028577895 8.3946763e-07)
(1.5572211 -0.0091195079 1.6320384e-05)
(1.4969866 0.00060336615 5.16984e-06)
(1.4953572 -0.0018701328 9.9533206e-07)
(1.5741432 -0.0053611431 1.7249901e-05)
(1.5034843 0.0051726578 5.8158627e-06)
(1.5933318 0.0012759433 1.113082e-06)
(1.5792191 -0.0083456526 1.793598e-05)
(1.5106124 0.005317821 6.5203465e-06)
(1.5969989 0.0069788567 1.3640881e-06)
(1.6628147 -0.00034499954 1.8377522e-05)
(1.4904106 0.0083474033 7.2135229e-06)
(1.5938343 0.0041612658 1.4887742e-06)
(1.5733161 0.017132287 1.8770365e-05)
(1.4939265 -0.0055496864 7.6313001e-06)
(1.6237268 -0.009938226 1.7408131e-06)
(1.5178088 -0.0067094035 1.9382695e-05)
(1.5204508 -0.018462368 8.4145051e-06)
(1.5503035 -0.015915514 1.9135284e-06)
(1.5786986 -0.0006484472 1.9636124e-05)
(1.4860787 -0.0021573599 8.8788802e-06)
(1.5010586 -0.0041870802 2.1196969e-06)
(1.5411524 0.0090251131 1.9791268e-05)
(1.5608443 0.015694471 9.3209678e-06)
(1.5745375 0.0031826809 2.3146106e-06)
(1.5675883 -0.0035242851 1.9947214e-05)
(1.576937 0.0055235987 9.9416427e-06)
(1.5868241 0.0023733375 2.4761459e-06)
(1.5951584 -0.010283769 2.0566499e-05)
(1.487318 -0.0065078496 1.0388934e-05)
(1.580538 6.944342e-05 2.7088771e-06)
(1.6060142 -0.011663461 2.0905719e-05)
(1.496795 -0.023744893 1.0947921e-05)
(1.5878098 -0.012436574 2.9202438e-06)
(1.6643403 -0.0093387422 2.1027064e-05)
(1.5103848 -0.019375368 1.1259396e-05)
(1.5107002 -0.011790008 3.0876102e-06)
(1.6471811 0.0057986663 2.1138445e-05)
(1.5044018 0.002691965 1.1633893e-05)
(1.5087988 -0.0028475233 3.25215e-06)
(1.6862262 0.017862455 2.1292466e-05)
(1.5748924 0.01726243 1.2071761e-05)
(1.5574233 0.0061375767 3.406788e-06)
(1.5731093 0.0040546585 2.1256279e-05)
(1.5719644 0.020613081 1.2393686e-05)
(1.5575202 0.014004572 3.5895079e-06)
(1.5810033 -0.015937923 2.1486713e-05)
(1.4727295 0.0011641088 1.2890699e-05)
(1.5756792 0.006226302 3.7234007e-06)
(1.6790811 -0.025202508 2.2472688e-05)
(1.4597337 -0.0108679 1.3289592e-05)
(1.5589406 -0.0018561667 3.9225623e-06)
(1.699627 0.0070303716 2.2398721e-05)
(1.4704404 0.0047934096 1.3580904e-05)
(1.5673768 -0.0028037049 4.0582924e-06)
(1.6027309 0.024886617 2.2076698e-05)
(1.4842483 -0.008502625 1.3860067e-05)
(1.5864125 -0.010197495 4.2558015e-06)
(1.5779596 0.021678878 2.2150277e-05)
(1.5852542 -0.0090962202 1.4092707e-05)
(1.5293849 -0.013890551 4.3988694e-06)
(1.5690473 0.0037539388 2.2596358e-05)
(1.5874037 0.0051780243 1.4472773e-05)
(1.5356862 0.0036015718 4.573393e-06)
(1.4899025 -0.0080018873 2.255695e-05)
(1.4926437 0.010752126 1.4692493e-05)
(1.4945794 0.013324006 4.7148013e-06)
(1.4971109 -0.014959667 2.2704589e-05)
(1.4766016 -0.0097084963 1.4926714e-05)
(1.5363753 0.00057376042 4.844558e-06)
(1.5055617 -0.0043837954 2.2009343e-05)
(1.4433874 -0.014289717 1.5102386e-05)
(1.5111096 -0.0076283116 4.8938448e-06)
(1.3384488 0.048721038 2.3353537e-05)
(1.3028274 0.094590109 1.5693746e-05)
(1.3596478 0.051159989 5.5356433e-06)
(0.82375115 0.37506375 1.1721319e-05)
(0.80080837 0.93982624 9.9323945e-06)
(0.7448607 1.2516677 5.4094422e-06)
(0.21938995 0.11152207 1.4778925e-06)
(0.18459457 0.36475974 3.0885394e-06)
(0.085939177 0.49757684 7.0404499e-07)
(-0.030480689 -0.014048423 1.2366896e-06)
(-0.028150407 -0.028951739 1.7066144e-06)
(-0.019635792 -0.033791372 5.9993044e-07)
(-0.0069852737 -0.0031268252 4.6025257e-07)
(-0.0066216023 -0.0078431123 7.5468598e-07)
(-0.0058517583 -0.010468861 3.639203e-07)
(-0.0015052422 -0.00033238755 1.2857651e-07)
(-0.001513323 -0.00088815018 2.6443977e-07)
(-0.0014196677 -0.0014822114 1.4109577e-07)
(-0.00080507208 -9.7197501e-05 3.2197787e-08)
(-0.0007530778 -0.00023127497 7.52504e-08)
(-0.00062340549 -0.00035232033 2.5929976e-08)
(-0.00050204622 -5.6680652e-05 2.5769769e-09)
(-0.00045031291 -9.8950554e-05 6.847055e-09)
(-0.0003333876 -0.00010823288 -2.0913138e-08)
(-0.00038981084 -8.0832671e-06 -7.3649952e-09)
(-0.00035296725 -4.1006468e-06 -1.5783458e-08)
(-0.00026910177 1.2245885e-05 -3.4631966e-08)
(-0.00034281732 -6.3769083e-06 -8.1161358e-09)
(-0.00031754771 2.1037764e-08 -1.869203e-08)
(-0.00025985326 8.2506229e-06 -3.2402553e-08)
(-0.00030893609 -1.5916919e-05 -5.771217e-09)
(-0.00029057638 -3.1862936e-05 -1.4525783e-08)
(-0.00024863658 -4.3728928e-05 -2.4384808e-08)
(-0.00026701332 -2.0437649e-05 -3.326983e-09)
(-0.00025319103 -4.5380962e-05 -9.3089304e-09)
(-0.00022163693 -6.9880871e-05 -1.606275e-08)
(-0.00022168642 -1.9078027e-05 -1.7724861e-09)
(-0.00021112269 -4.2138434e-05 -5.4047593e-09)
(-0.00018705996 -6.178836e-05 -9.7109059e-09)
(-0.00018087832 -1.4706758e-05 -1.0325414e-09)
(-0.00017277785 -3.1955763e-05 -3.0844582e-09)
(-0.00015426246 -4.6085943e-05 -5.6029298e-09)
(-0.00014811544 -9.7359449e-06 -6.8598516e-10)
(-0.00014182159 -2.1551713e-05 -1.8113084e-09)
(-0.00012746012 -3.321136e-05 -3.17459e-09)
(-0.00012379285 -6.31089e-06 -5.0697011e-10)
(-0.0001188475 -1.3428102e-05 -1.1130555e-09)
(-0.00010758302 -2.1492804e-05 -1.7962926e-09)
(-0.00010623897 -4.5060477e-06 -3.6388987e-10)
(-0.00010233159 -9.4049747e-06 -6.8569213e-10)
(-9.3385271e-05 -1.4695156e-05 -1.0056673e-09)
(-9.3131461e-05 -3.6814912e-06 -2.386129e-10)
(-9.0044433e-05 -7.6672995e-06 -4.0316378e-10)
(-8.2903703e-05 -1.184576e-05 -5.4319131e-10)
(-8.2885542e-05 -3.1237036e-06 -1.4584223e-10)
(-8.0442263e-05 -6.5231843e-06 -2.218412e-10)
(-7.4724577e-05 -1.0036617e-05 -2.772778e-10)
(-7.4753743e-05 -2.5480256e-06 -8.8953392e-11)
(-7.2811756e-05 -5.3516948e-06 -1.1822792e-10)
(-6.820458e-05 -8.2537727e-06 -1.3449224e-10)
(-6.836805e-05 -1.9647818e-06 -6.0456795e-11)
(-6.6817922e-05 -4.1562395e-06 -6.903791e-11)
(-6.3077056e-05 -6.4593771e-06 -6.6238383e-11)
(-6.3438172e-05 -1.5220238e-06 -4.5953321e-11)
(-6.2195405e-05 -3.1527564e-06 -4.7890908e-11)
(-5.9132658e-05 -4.8795922e-06 -3.7237428e-11)
(-5.9675481e-05 -1.1671875e-06 -3.9683213e-11)
(-5.867425e-05 -2.3561842e-06 -4.1228611e-11)
(-5.614372e-05 -3.6118356e-06 -2.786794e-11)
(-5.6805501e-05 -8.953861e-07 -3.6214066e-11)
(-5.5995025e-05 -1.7724644e-06 -3.9407115e-11)
(-5.3884241e-05 -2.7152776e-06 -2.5498637e-11)
(-5.4589878e-05 -7.0234382e-07 -3.333757e-11)
(-5.3931409e-05 -1.3693425e-06 -3.8557967e-11)
(-5.2154528e-05 -2.0813048e-06 -2.5420905e-11)
(-5.2836923e-05 -5.6719374e-07 -3.2268791e-11)
(-5.230051e-05 -1.0547146e-06 -3.9506248e-11)
(-5.0791579e-05 -1.610788e-06 -2.6862229e-11)
(-5.1398056e-05 -4.8126312e-07 -3.011185e-11)
(-5.0959999e-05 -8.7827113e-07 -3.8318264e-11)
(-4.9668119e-05 -1.3551002e-06 -2.6810077e-11)
(-5.0160471e-05 -4.3005252e-07 -2.72974e-11)
(-4.980237e-05 -7.9478016e-07 -3.550305e-11)
(-4.8687502e-05 -1.2388432e-06 -2.5463306e-11)
(-4.9041362e-05 -3.967556e-07 -2.5224431e-11)
(-4.8749036e-05 -7.547152e-07 -3.2986243e-11)
(-4.7778126e-05 -1.1874385e-06 -2.416562e-11)
(-4.7982085e-05 -3.8469515e-07 -2.4088795e-11)
(-4.7743468e-05 -7.3608049e-07 -3.1398427e-11)
(-4.6890827e-05 -1.166323e-06 -2.3426769e-11)
(-4.6943225e-05 -3.8046629e-07 -2.3625404e-11)
(-4.6748035e-05 -7.3704273e-07 -3.0554364e-11)
(-4.5994474e-05 -1.1756787e-06 -2.3158951e-11)
(-4.5899828e-05 -3.8282389e-07 -2.3213747e-11)
(-4.5740222e-05 -7.5588613e-07 -2.9577266e-11)
(-4.506954e-05 -1.2115346e-06 -2.2836417e-11)
(-4.4837364e-05 -3.8786638e-07 -2.2977524e-11)
(-4.4707129e-05 -7.8268983e-07 -2.8683936e-11)
(-4.4105594e-05 -1.262304e-06 -2.2485396e-11)
(-4.3749606e-05 -3.9500532e-07 -2.2706624e-11)
(-4.3643658e-05 -8.1568448e-07 -2.7836452e-11)
(-4.3100163e-05 -1.3125386e-06 -2.2233651e-11)
(-4.2637001e-05 -4.0081501e-07 -2.2759429e-11)
(-4.2551089e-05 -8.3433638e-07 -2.7295452e-11)
(-4.2056779e-05 -1.3531496e-06 -2.19844e-11)
(-4.1504644e-05 -4.0524628e-07 -2.2712865e-11)
(-4.1435031e-05 -8.5073849e-07 -2.6605308e-11)
(-4.0982951e-05 -1.3779612e-06 -2.1687564e-11)
(-4.0360936e-05 -4.0591337e-07 -2.2713271e-11)
(-4.0304645e-05 -8.600189e-07 -2.5955037e-11)
(-3.988896e-05 -1.3929132e-06 -2.13372e-11)
(-3.9216841e-05 -4.0317188e-07 -2.2629782e-11)
(-3.917157e-05 -8.6071417e-07 -2.5290214e-11)
(-3.8787298e-05 -1.3945376e-06 -2.0957938e-11)
(-3.8084861e-05 -3.9853036e-07 -2.2337229e-11)
(-3.8048701e-05 -8.5954431e-07 -2.4481463e-11)
(-3.7691679e-05 -1.3951934e-06 -2.0467939e-11)
(-3.6978442e-05 -3.8613309e-07 -2.2353647e-11)
(-3.6949782e-05 -8.3898719e-07 -2.4074472e-11)
(-3.6616484e-05 -1.3654997e-06 -2.0242753e-11)
(-3.5911473e-05 -3.6872836e-07 -2.2341332e-11)
(-3.588897e-05 -8.049849e-07 -2.3737347e-11)
(-3.557634e-05 -1.3090503e-06 -2.0162772e-11)
(-3.4897354e-05 -3.468746e-07 -2.2351536e-11)
(-3.4879901e-05 -7.6094681e-07 -2.3450971e-11)
(-3.4585274e-05 -1.237496e-06 -2.0099658e-11)
(-3.3948395e-05 -3.2111382e-07 -2.2347074e-11)
(-3.3935086e-05 -7.0760632e-07 -2.31919e-11)
(-3.3656112e-05 -1.1518685e-06 -2.0048981e-11)
(-3.3075544e-05 -2.9172751e-07 -2.2353532e-11)
(-3.3065631e-05 -6.45129e-07 -2.3000952e-11)
(-3.2800211e-05 -1.0501771e-06 -2.0058954e-11)
(-3.2288356e-05 -2.5881826e-07 -2.2407969e-11)
(-3.2281215e-05 -5.7343929e-07 -2.2926792e-11)
(-3.2027427e-05 -9.3347592e-07 -2.0161211e-11)
(-3.159561e-05 -2.2252597e-07 -2.2536753e-11)
(-3.1590699e-05 -4.9341359e-07 -2.2997968e-11)
(-3.1346735e-05 -8.0335132e-07 -2.035285e-11)
(-3.10066e-05 -1.8342717e-07 -2.269979e-11)
(-3.1003443e-05 -4.0624196e-07 -2.3131231e-11)
(-3.0767555e-05 -6.6068122e-07 -2.0539499e-11)
(-3.0533451e-05 -1.4208081e-07 -2.281787e-11)
(-3.0531633e-05 -3.1325435e-07 -2.3131597e-11)
(-3.0302103e-05 -5.0783899e-07 -2.0455408e-11)
(-3.0186688e-05 -9.8217816e-08 -2.2775493e-11)
(-3.0185814e-05 -2.1481657e-07 -2.2602243e-11)
(-2.9960937e-05 -3.476951e-07 -1.9587299e-11)
(-3.0006748e-05 -5.0961017e-08 -2.2276755e-11)
(-3.0006555e-05 -1.1130301e-07 -2.066699e-11)
(-2.9784415e-05 -1.8494906e-07 -1.7031801e-11)
(-2.9968617e-05 -8.7278049e-09 -1.9654737e-11)
(-2.9968806e-05 -1.7221976e-08 -1.509755e-11)
(-2.9747655e-05 -3.1476073e-08 -1.1322855e-11)
(-0.046595173 1.9481569 -3.4694015e-07)
(-0.032979725 1.6941994 -3.4363209e-06)
(-0.06174142 0.3413271 -2.438002e-07)
(-0.042860945 0.15149716 -1.0009313e-06)
(-0.014999878 -0.041621925 -1.7729329e-07)
(-0.0114453 -0.04388897 -5.9186993e-07)
(-0.0052563189 -0.013284093 -6.4961071e-08)
(-0.0048633665 -0.014968657 -3.5370586e-07)
(-0.0012973037 -0.0023565976 -6.1936245e-08)
(-0.0011585283 -0.0032510048 -2.3544586e-07)
(-0.00044986177 -0.00049114115 -7.256721e-08)
(-0.00024313162 -0.00065546347 -1.7170274e-07)
(-0.0001788656 -7.4003906e-05 -7.3081127e-08)
(-3.0681336e-05 -3.2319763e-05 -1.3013181e-07)
(-0.00015319684 6.2277089e-05 -6.4501174e-08)
(-3.2077607e-05 0.0001388575 -9.8133182e-08)
(-0.00017922602 2.8311185e-05 -5.0776368e-08)
(-9.0423847e-05 6.3781258e-05 -7.1191305e-08)
(-0.00018989099 -5.2554728e-05 -3.6137371e-08)
(-0.00012362235 -4.7021475e-05 -4.8789924e-08)
(-0.00017751171 -8.8197869e-05 -2.3611458e-08)
(-0.00012705751 -9.8350648e-05 -3.1486385e-08)
(-0.00015337894 -7.9862431e-05 -1.4397819e-08)
(-0.00011430459 -9.4667993e-05 -1.9183947e-08)
(-0.00012826408 -5.8999039e-05 -8.3393985e-09)
(-9.7827693e-05 -6.889366e-05 -1.1115695e-08)
(-0.0001072666 -3.8531711e-05 -4.6664154e-09)
(-8.343516e-05 -4.2122128e-05 -6.1816487e-09)
(-9.1733354e-05 -2.6382488e-05 -2.5503812e-09)
(-7.2884652e-05 -2.6841821e-05 -3.3238212e-09)
(-8.0782898e-05 -1.8969923e-05 -1.3594805e-09)
(-6.5687145e-05 -1.9955488e-05 -1.7285627e-09)
(-7.2804637e-05 -1.470978e-05 -6.9760799e-10)
(-6.0605085e-05 -1.6311004e-05 -8.6238515e-10)
(-6.6599303e-05 -1.234632e-05 -3.3863945e-10)
(-5.6704814e-05 -1.3449292e-05 -4.0635263e-10)
(-6.163207e-05 -1.0207237e-05 -1.5368547e-10)
(-5.3574744e-05 -1.1138549e-05 -1.7704387e-10)
(-5.7720191e-05 -8.0097351e-06 -6.5887476e-11)
(-5.11131e-05 -8.6805326e-06 -6.9327053e-11)
(-5.472889e-05 -6.0215854e-06 -2.8581958e-11)
(-4.9263469e-05 -6.4310532e-06 -2.349069e-11)
(-5.2489763e-05 -4.407343e-06 -1.5718287e-11)
(-4.7927016e-05 -4.6454375e-06 -6.9265475e-12)
(-5.0824095e-05 -3.3272584e-06 -1.1956895e-11)
(-4.6981731e-05 -3.4285614e-06 -2.079407e-12)
(-4.956882e-05 -2.4915993e-06 -1.2325404e-11)
(-4.6306463e-05 -2.5619825e-06 -2.174369e-12)
(-4.8587772e-05 -1.9213714e-06 -1.4071358e-11)
(-4.5795375e-05 -1.9796827e-06 -3.8409597e-12)
(-4.7773935e-05 -1.6340296e-06 -1.4899531e-11)
(-4.5364052e-05 -1.7055532e-06 -5.1711699e-12)
(-4.7045808e-05 -1.5176555e-06 -1.4789371e-11)
(-4.4947508e-05 -1.6047203e-06 -5.9072946e-12)
(-4.6343309e-05 -1.4696449e-06 -1.4551352e-11)
(-4.4501576e-05 -1.6006743e-06 -6.4304446e-12)
(-4.5626949e-05 -1.4763457e-06 -1.4548783e-11)
(-4.3999694e-05 -1.6629819e-06 -6.9949821e-12)
(-4.4872976e-05 -1.5207151e-06 -1.4792379e-11)
(-4.3424545e-05 -1.7627853e-06 -7.6665519e-12)
(-4.4067019e-05 -1.5901266e-06 -1.5068378e-11)
(-4.2767644e-05 -1.8829573e-06 -8.3681309e-12)
(-4.3202926e-05 -1.6766032e-06 -1.524806e-11)
(-4.2029091e-05 -2.0184667e-06 -8.9468005e-12)
(-4.2281836e-05 -1.755731e-06 -1.5437576e-11)
(-4.1214562e-05 -2.1471086e-06 -9.4385609e-12)
(-4.1310101e-05 -1.8286227e-06 -1.5556086e-11)
(-4.0333852e-05 -2.2501215e-06 -9.8808676e-12)
(-4.029771e-05 -1.8646924e-06 -1.5689724e-11)
(-3.9399713e-05 -2.3039629e-06 -1.0320978e-11)
(-3.9256893e-05 -1.8910091e-06 -1.5677221e-11)
(-3.8426635e-05 -2.3445574e-06 -1.0584695e-11)
(-3.8201363e-05 -1.8993748e-06 -1.5596112e-11)
(-3.7430092e-05 -2.3769659e-06 -1.0709041e-11)
(-3.7145894e-05 -1.9070713e-06 -1.5408153e-11)
(-3.6426231e-05 -2.3929639e-06 -1.0765927e-11)
(-3.6105789e-05 -1.8741811e-06 -1.5395808e-11)
(-3.5431366e-05 -2.3559817e-06 -1.0951194e-11)
(-3.509632e-05 -1.7971105e-06 -1.555065e-11)
(-3.4461518e-05 -2.262e-06 -1.1272663e-11)
(-3.4132047e-05 -1.7001771e-06 -1.5703057e-11)
(-3.3531922e-05 -2.1433274e-06 -1.157439e-11)
(-3.3226257e-05 -1.5838526e-06 -1.5849609e-11)
(-3.2656464e-05 -1.9984114e-06 -1.1860701e-11)
(-3.2390662e-05 -1.4449054e-06 -1.6038366e-11)
(-3.1847289e-05 -1.8247759e-06 -1.217449e-11)
(-3.1635353e-05 -1.2850703e-06 -1.6288315e-11)
(-3.111476e-05 -1.623883e-06 -1.2527365e-11)
(-3.0969452e-05 -1.106355e-06 -1.6573161e-11)
(-3.0468164e-05 -1.3982568e-06 -1.2882333e-11)
(-3.040246e-05 -9.0971309e-07 -1.6789064e-11)
(-2.9917098e-05 -1.150194e-06 -1.3129089e-11)
(-2.9946609e-05 -6.9845265e-07 -1.6668169e-11)
(-2.94738e-05 -8.8311979e-07 -1.3037667e-11)
(-2.9612465e-05 -4.7769258e-07 -1.5737277e-11)
(-2.9148837e-05 -6.0399131e-07 -1.2221294e-11)
(-2.9440035e-05 -2.5592668e-07 -1.3283074e-11)
(-2.8981737e-05 -3.2372319e-07 -1.015568e-11)
(-2.9404695e-05 -4.4693711e-08 -8.4383597e-12)
(-2.8948208e-05 -5.7122939e-08 -6.3022618e-12)
(0.00069374498 -1.5607783e-05 -7.9784685e-08)
(0.00061501583 -9.2538993e-05 -1.8816365e-07)
(0.00047867549 -0.0001025303 -2.641009e-07)
(0.00033577249 -0.00014099339 -3.1006346e-07)
(0.00021232762 -0.00015948069 -3.3248643e-07)
(0.00011482771 -0.00019551007 -3.3861001e-07)
(4.4587699e-05 -0.00023933333 -3.341707e-07)
(-6.3024149e-07 -0.00029750136 -3.2331224e-07)
(-2.4851396e-05 -0.00036789241 -3.0888532e-07)
(-3.3139421e-05 -0.00044496181 -2.9280902e-07)
(-3.040267e-05 -0.00052557816 -2.7638169e-07)
(-2.1115105e-05 -0.00060621143 -2.6033187e-07)
(-8.7447642e-06 -0.0006833131 -2.4496186e-07)
(4.2793739e-06 -0.00075490948 -2.3027295e-07)
(1.6271856e-05 -0.00081957022 -2.1612787e-07)
(2.613446e-05 -0.00087614698 -2.023291e-07)
(3.3152318e-05 -0.00092540527 -1.8862321e-07)
(3.6967091e-05 -0.00096671178 -1.746456e-07)
(3.790207e-05 -0.00099779819 -1.59986e-07)
(3.6230373e-05 -0.0010190061 -1.4414647e-07)
(3.2350486e-05 -0.0010310257 -1.2654281e-07)
(2.6958144e-05 -0.0010336013 -1.0630405e-07)
(2.0494215e-05 -0.0010267314 -8.2623935e-08)
(1.3048353e-05 -0.0010146778 -5.4978223e-08)
(4.2601851e-06 -0.00096427749 -2.3012864e-08)
(0.00026338719 -0.00013471144 -9.6439346e-08)
(0.00024550967 -0.00054200561 -2.2394837e-07)
(0.00024501673 -0.0007673122 -3.0800956e-07)
(0.00026420152 -0.0010852139 -3.5362816e-07)
(0.00029827535 -0.0013417468 -3.7164463e-07)
(0.00034007065 -0.0016288425 -3.7277796e-07)
(0.00038114274 -0.0019186352 -3.6399015e-07)
(0.00041509842 -0.0022323877 -3.4972177e-07)
(0.00043485882 -0.0025650629 -3.3262277e-07)
(0.0004412435 -0.0028901418 -3.1439478e-07)
(0.00043645336 -0.0032034908 -2.9632525e-07)
(0.00042269129 -0.0035019402 -2.7903964e-07)
(0.00040223259 -0.0037807372 -2.6274361e-07)
(0.00037702497 -0.0040376367 -2.4729789e-07)
(0.00034822607 -0.0042712911 -2.3248348e-07)
(0.00031679012 -0.004482788 -2.1807609e-07)
(0.00028358744 -0.0046831169 -2.0385406e-07)
(0.00024935299 -0.0048664594 -1.8933711e-07)
(0.00021426777 -0.0050102166 -1.7413622e-07)
(0.00017864924 -0.0051063323 -1.5770002e-07)
(0.00014315509 -0.0051521328 -1.3961042e-07)
(0.00010834805 -0.0051500606 -1.1852304e-07)
(7.4443838e-05 -0.0051038699 -9.3344876e-08)
(4.1820414e-05 -0.0049993469 -6.2709448e-08)
(1.1497651e-05 -0.0047728087 -2.7318724e-08)
(0.0010559942 -0.00032008684 -1.3602428e-07)
(0.0010633412 -0.0015427733 -3.038115e-07)
(0.0011173009 -0.0020851024 -4.0038407e-07)
(0.0012060772 -0.002983986 -4.4000637e-07)
(0.0012897974 -0.0037319044 -4.4670067e-07)
(0.0013471001 -0.0045229916 -4.3714126e-07)
(0.001368298 -0.0053091408 -4.195703e-07)
(0.001355276 -0.0062452478 -3.9882442e-07)
(0.0013171606 -0.0072998665 -3.7672632e-07)
(0.0012599436 -0.0082705066 -3.5428697e-07)
(0.0011898894 -0.009115668 -3.3308081e-07)
(0.0011111655 -0.0098319887 -3.1344566e-07)
(0.0010269597 -0.01041864 -2.9546333e-07)
(0.00093866602 -0.010884151 -2.7863338e-07)
(0.0008481882 -0.011235496 -2.625793e-07)
(0.00075702051 -0.011474887 -2.4702704e-07)
(0.00066651535 -0.011594817 -2.320699e-07)
(0.00057758247 -0.011612415 -2.1666156e-07)
(0.0004904916 -0.011556361 -2.0073694e-07)
(0.00040551606 -0.011442593 -1.8376097e-07)
(0.00032335451 -0.011281039 -1.6502587e-07)
(0.00024491333 -0.011080741 -1.4336861e-07)
(0.00016946037 -0.010848717 -1.1712053e-07)
(9.7328616e-05 -0.010555532 -8.34298e-08)
(2.9926875e-05 -0.010152963 -4.1515311e-08)
(0.0035430187 -0.0010397794 -2.1990254e-07)
(0.0035931357 -0.0047007953 -4.5085995e-07)
(0.003600303 -0.0060330349 -5.5189505e-07)
(0.0034830608 -0.0092769662 -5.7071786e-07)
(0.0033124291 -0.012186884 -5.5576751e-07)
(0.0030811578 -0.014772133 -5.2912879e-07)
(0.0028183154 -0.016605027 -4.9840811e-07)
(0.0025431915 -0.017574545 -4.6980065e-07)
(0.0022749144 -0.017860177 -4.4200994e-07)
(0.0020162546 -0.017720255 -4.1351952e-07)
(0.0017798246 -0.017264455 -3.879997e-07)
(0.0015632861 -0.016615044 -3.6492479e-07)
(0.0013641109 -0.015791411 -3.4471339e-07)
(0.0011705332 -0.014845621 -3.2590741e-07)
(0.00099652646 -0.013830208 -3.0797434e-07)
(0.00084230891 -0.012791069 -2.9072577e-07)
(0.00070644858 -0.011767 -2.7391501e-07)
(0.00058704368 -0.010791489 -2.5729893e-07)
(0.00048247049 -0.0098873575 -2.4049553e-07)
(0.00039073028 -0.0090749939 -2.2301883e-07)
(0.00030897616 -0.0083667962 -2.0422514e-07)
(0.00023391625 -0.0077672473 -1.8313457e-07)
(0.00016466795 -0.0072770213 -1.5820623e-07)
(9.9453837e-05 -0.0068537987 -1.2678344e-07)
(3.6665573e-05 -0.0065446105 -8.0614701e-08)
(0.011479175 -0.0087045579 -4.0889636e-07)
(0.009246572 -0.025679024 -6.9952972e-07)
(0.0080767852 -0.02822676 -7.7125707e-07)
(0.006346715 -0.032562731 -7.5394802e-07)
(0.0049277916 -0.03003704 -7.1139406e-07)
(0.0036842244 -0.026260154 -6.6215105e-07)
(0.0026455257 -0.021553559 -6.1435911e-07)
(0.0018163299 -0.016583734 -5.7012809e-07)
(0.0011674843 -0.011618624 -5.314826e-07)
(0.00066891533 -0.007023216 -4.9619146e-07)
(0.00028403306 -0.0028699713 -4.6450743e-07)
(-1.9623793e-06 0.00069511523 -4.3508889e-07)
(-0.00020660802 0.0040075144 -4.1180186e-07)
(-0.00033810397 0.0071662914 -3.8974669e-07)
(-0.00042119918 0.010072003 -3.6846063e-07)
(-0.00046352444 0.012593829 -3.4822221e-07)
(-0.00047357906 0.014699936 -3.2881656e-07)
(-0.0004581914 0.01640812 -3.0998756e-07)
(-0.00042280044 0.017746701 -2.914205e-07)
(-0.00037190639 0.018745481 -2.7275828e-07)
(-0.00031012174 0.019429765 -2.5353874e-07)
(-0.00024212069 0.019825867 -2.3306965e-07)
(-0.00016960187 0.019932084 -2.101572e-07)
(-9.5756805e-05 0.019807445 -1.8817357e-07)
(-2.1836308e-05 0.019110872 -1.6634982e-07)
(0.014484618 0.023284529 -7.8220862e-07)
(0.0036719603 -0.0016507934 -1.1009646e-06)
(0.00096437776 0.048082791 -1.0996762e-06)
(-0.00093175713 0.05080545 -1.0241741e-06)
(-0.0025786474 0.065095911 -9.4645039e-07)
(-0.0038041929 0.075429407 -8.5969717e-07)
(-0.0044836975 0.082631792 -7.8174558e-07)
(-0.0046971972 0.088648761 -7.1362416e-07)
(-0.004623528 0.093085101 -6.540868e-07)
(-0.0044026603 0.095843658 -6.0292076e-07)
(-0.0041173739 0.09741644 -5.5961463e-07)
(-0.0037742503 0.097910624 -5.1446361e-07)
(-0.0034252732 0.097655466 -4.886235e-07)
(-0.0030829467 0.096364551 -4.6054612e-07)
(-0.0027374786 0.094215005 -4.3252367e-07)
(-0.0024004361 0.091794497 -4.0722455e-07)
(-0.0020819185 0.089169778 -3.836811e-07)
(-0.001782677 0.086425668 -3.6139555e-07)
(-0.0015021243 0.083639469 -3.3999855e-07)
(-0.0012387852 0.080869396 -3.1915911e-07)
(-0.00099011348 0.078152251 -2.9853454e-07)
(-0.00075314589 0.075530879 -2.7769461e-07)
(-0.00052623986 0.072976178 -2.5617223e-07)
(-0.00030761967 0.070680156 -2.3462284e-07)
(-9.2073271e-05 0.067197173 -2.1381107e-07)
(-0.0015639474 1.173443 -2.5133198e-06)
(-0.00076726544 0.96109506 -2.001383e-06)
(-0.0010247877 0.86556591 -1.6193682e-06)
(-0.0007149633 0.77343739 -1.3253739e-06)
(-0.0006270577 0.67746293 -1.1091226e-06)
(-0.00054966863 0.58614987 -9.5245329e-07)
(-0.00047219871 0.50782625 -8.3603922e-07)
(-0.00040194153 0.44415239 -7.4848859e-07)
(-0.00034155529 0.39163539 -6.7646406e-07)
(-0.00028801801 0.34681286 -6.2004268e-07)
(-0.00023482765 0.30812488 -5.7562898e-07)
(-0.00018871147 0.27483226 -5.3676913e-07)
(-0.00014983878 0.24636419 -5.0446077e-07)
(-0.00012632946 0.22199277 -4.7599885e-07)
(-0.00010492221 0.20106052 -4.4976656e-07)
(-8.7428903e-05 0.1830877 -4.2514539e-07)
(-7.3061589e-05 0.16764525 -4.0171905e-07)
(-6.0604958e-05 0.15437088 -3.7923517e-07)
(-4.9875991e-05 0.14296213 -3.5749707e-07)
(-4.0610919e-05 0.13316977 -3.3630941e-07)
(-3.2325267e-05 0.1247773 -3.1545754e-07)
(-2.4392657e-05 0.1176435 -2.9462426e-07)
(-1.6810752e-05 0.11152344 -2.7367351e-07)
(-9.608076e-06 0.1067091 -2.5244651e-07)
(-2.7033037e-06 0.10068901 -2.3007541e-07)
(-0.012978221 0.090301348 -1.2143406e-06)
(-0.00265004 0.098248096 -1.252948e-06)
(-0.00022841868 0.10409288 -1.2051536e-06)
(0.0015175888 0.10587415 -1.1138032e-06)
(0.0030299696 0.10796826 -1.0111385e-06)
(0.0041461056 0.10965933 -9.1102027e-07)
(0.0047485176 0.11130627 -8.2123271e-07)
(0.0049041966 0.11282049 -7.4319749e-07)
(0.0047888914 0.11360767 -6.6065426e-07)
(0.0045168236 0.11366646 -6.1572711e-07)
(0.0042049391 0.11294963 -5.7370999e-07)
(0.0038707435 0.11127454 -5.2947896e-07)
(0.0035011866 0.10875483 -4.9217755e-07)
(0.0031310938 0.10573525 -4.5983027e-07)
(0.0027722681 0.10246215 -4.3102809e-07)
(0.0024294852 0.099060416 -4.0487216e-07)
(0.0021043376 0.095614112 -3.8074627e-07)
(0.0017997313 0.092191225 -3.5816665e-07)
(0.0015143277 0.088842715 -3.3672103e-07)
(0.0012466057 0.08560649 -3.1603282e-07)
(0.00099458649 0.082504114 -2.9570122e-07)
(0.00075609919 0.079565702 -2.7519054e-07)
(0.0005284647 0.076752396 -2.5491437e-07)
(0.00030947545 0.074261584 -2.3382912e-07)
(9.3281027e-05 0.070559825 -2.130958e-07)
(-0.0093287133 -0.041541424 -8.1191825e-07)
(-0.0079431208 -0.039236383 -8.7496436e-07)
(-0.0065398605 -0.037474024 -8.6132597e-07)
(-0.0051362962 -0.033924784 -8.154078e-07)
(-0.0038239906 -0.028905101 -7.5751824e-07)
(-0.0026945507 -0.023234557 -6.9653015e-07)
(-0.001770899 -0.017414664 -6.4017332e-07)
(-0.0010474472 -0.011764623 -5.8859432e-07)
(-0.00049376764 -0.006719209 -5.4082287e-07)
(-8.3086815e-05 -0.0022566369 -5.0499931e-07)
(0.0002157128 0.0015757189 -4.7192775e-07)
(0.00042509202 0.0053112539 -4.4100817e-07)
(0.00056155201 0.0088751575 -4.1306024e-07)
(0.00064223836 0.012061696 -3.8776424e-07)
(0.00067896994 0.01480319 -3.6459749e-07)
(0.00068189802 0.017098266 -3.4311422e-07)
(0.00065956729 0.018983197 -3.2299363e-07)
(0.00061503212 0.020498601 -3.0385548e-07)
(0.00055393914 0.02166594 -2.8532719e-07)
(0.00048027379 0.022507209 -2.6699734e-07)
(0.00039734391 0.023043998 -2.4828318e-07)
(0.00030801191 0.023297152 -2.280685e-07)
(0.00021516753 0.023277673 -2.0909149e-07)
(0.00012190624 0.023029903 -1.86697e-07)
(2.9651525e-05 0.022178929 -1.6518666e-07)
(-0.0046010449 -0.016394589 -5.217891e-07)
(-0.0044594883 -0.018796182 -5.9404884e-07)
(-0.0042558124 -0.021503717 -6.0719909e-07)
(-0.0039609786 -0.023443303 -5.9002244e-07)
(-0.0035922336 -0.024642821 -5.6079249e-07)
(-0.0032073316 -0.02500356 -5.2953609e-07)
(-0.0028438996 -0.024702196 -4.9123052e-07)
(-0.0025036981 -0.023968232 -4.5553328e-07)
(-0.0021925528 -0.022970252 -4.2332017e-07)
(-0.0019106704 -0.021776787 -3.9591676e-07)
(-0.0016578396 -0.020472234 -3.7107809e-07)
(-0.0014246669 -0.019040355 -3.4822441e-07)
(-0.0012142975 -0.017549229 -3.2728846e-07)
(-0.0010292975 -0.016050702 -3.0809989e-07)
(-0.00086759333 -0.014579939 -2.9020248e-07)
(-0.00072609027 -0.013168664 -2.7322216e-07)
(-0.00060160847 -0.011853473 -2.5718341e-07)
(-0.00049475993 -0.010664407 -2.4160386e-07)
(-0.00040248219 -0.0096067814 -2.2608937e-07)
(-0.00032254568 -0.0086822049 -2.101791e-07)
(-0.00025283515 -0.007891015 -1.9323017e-07)
(-0.00019120417 -0.0072326853 -1.7434237e-07)
(-0.00013556893 -0.006703565 -1.5261749e-07)
(-8.359184e-05 -0.0062628398 -1.2353531e-07)
(-3.264094e-05 -0.0059606557 -7.9635187e-08)
(-0.0012036248 -0.004162817 -3.5353316e-07)
(-0.0013714441 -0.0050435509 -4.179089e-07)
(-0.0015357389 -0.0059945322 -4.4182172e-07)
(-0.0016604134 -0.0069124724 -4.408378e-07)
(-0.00172738 -0.0078357582 -4.2629888e-07)
(-0.0017318147 -0.0089125376 -4.0509178e-07)
(-0.0016906546 -0.010065968 -3.7958263e-07)
(-0.0016174351 -0.01106049 -3.5414347e-07)
(-0.0015253418 -0.011891944 -3.3053617e-07)
(-0.0014214165 -0.012561348 -3.0933504e-07)
(-0.0013109498 -0.013090106 -2.9003555e-07)
(-0.0012006163 -0.013482604 -2.7229327e-07)
(-0.0010909758 -0.013746832 -2.5591561e-07)
(-0.00098319639 -0.013863113 -2.4106366e-07)
(-0.00087848736 -0.013855359 -2.269576e-07)
(-0.0007776244 -0.0137641 -2.1370954e-07)
(-0.00068201067 -0.013614379 -2.0069123e-07)
(-0.00058946062 -0.013420549 -1.8775343e-07)
(-0.0005003534 -0.013191611 -1.7455087e-07)
(-0.00041441253 -0.012934543 -1.6062679e-07)
(-0.00033139757 -0.012654894 -1.4527577e-07)
(-0.00025120028 -0.012358116 -1.2744666e-07)
(-0.00017389628 -0.012047595 -1.0556943e-07)
(-9.9852442e-05 -0.011684839 -7.6281094e-08)
(-3.0842388e-05 -0.011227732 -3.8796653e-08)
(-0.00011572933 -0.00091835116 -2.4856086e-07)
(-9.699127e-05 -0.0012431807 -2.9737182e-07)
(-0.00015872948 -0.0016112472 -3.2127344e-07)
(-0.00026062242 -0.0020207747 -3.2717592e-07)
(-0.00038113363 -0.0024489386 -3.2150207e-07)
(-0.00047941039 -0.0029059605 -3.0897671e-07)
(-0.00054284843 -0.0033832898 -2.9259381e-07)
(-0.00057866899 -0.0038333563 -2.7501322e-07)
(-0.00059263201 -0.0042454737 -2.5780057e-07)
(-0.00058864853 -0.0046134211 -2.4166029e-07)
(-0.00057433292 -0.0049423433 -2.2667646e-07)
(-0.00055095057 -0.0052377086 -2.1277424e-07)
(-0.00052042943 -0.0055096483 -1.9986431e-07)
(-0.00048465485 -0.0057857109 -1.8788671e-07)
(-0.00044532061 -0.0060604462 -1.7657451e-07)
(-0.00040358105 -0.0062972567 -1.6576311e-07)
(-0.00036034322 -0.0064871491 -1.5514067e-07)
(-0.0003159026 -0.0066276999 -1.4445549e-07)
(-0.00027089753 -0.0067184739 -1.3337422e-07)
(-0.00022576419 -0.0067591104 -1.215786e-07)
(-0.00018088508 -0.0067506884 -1.0845997e-07)
(-0.00013669154 -0.0066962798 -9.300496e-08)
(-9.3706853e-05 -0.0066005987 -7.4275564e-08)
(-5.250017e-05 -0.0064455909 -5.0679626e-08)
(-1.452431e-05 -0.0061560787 -2.2873389e-08)
(7.9211199e-05 6.6988018e-06 -1.7859606e-07)
(0.00013823903 2.3912323e-05 -2.1283285e-07)
(0.00014990776 -7.8866526e-06 -2.3247648e-07)
(0.00013701238 -9.0046445e-05 -2.4007987e-07)
(0.00010485156 -0.00020821948 -2.3896034e-07)
(5.9370897e-05 -0.00034619779 -2.3207409e-07)
(1.3742496e-05 -0.00050079044 -2.2173073e-07)
(-2.644977e-05 -0.00066244868 -2.0978202e-07)
(-5.7285267e-05 -0.0008214016 -1.9746926e-07)
(-8.1635782e-05 -0.0009749227 -1.8548113e-07)
(-0.00010177058 -0.0011189221 -1.7409755e-07)
(-0.00011427923 -0.0012477403 -1.6339597e-07)
(-0.00012002257 -0.0013619458 -1.5336639e-07)
(-0.00012048714 -0.0014639432 -1.4394927e-07)
(-0.00011637856 -0.0015537409 -1.3500859e-07)
(-0.00010922547 -0.0016283846 -1.2638983e-07)
(-0.00010008757 -0.0016885522 -1.1789056e-07)
(-8.9511571e-05 -0.001734416 -1.0929474e-07)
(-7.7952873e-05 -0.0017659888 -1.0034261e-07)
(-6.578078e-05 -0.001783324 -9.0737017e-08)
(-5.3312841e-05 -0.0017866721 -8.0093844e-08)