/*--------------------------------*- C++ -*----------------------------------*\
| =========                 |                                                 |
| \\      /  F ield         | OpenFOAM: The Open Source CFD Toolbox           |
|  \\    /   O peration     | Version:  4.0                                   |
|   \\  /    A nd           | Web:      www.OpenFOAM.org                      |
|    \\/     M anipulation  |                                                 |
\*---------------------------------------------------------------------------*/
FoamFile
{
    version     2.0;
    format      ascii;
    class       volScalarField;
    location    "0.21";
    object      omega;
}
// * * * * * * * * * * * * * * * * * * * * * * * * * * * * * * * * * * * * * //

dimensions      [0 0 -1 0 0 0 0];

internalField   nonuniform List<scalar> 
1740
(
61.742843
694.6183
14919.827
185.41283
1506.6892
15030.878
305.46884
2039.8917
15116.361
410.39578
2300.4628
15197.806
510.77396
2563.6336
15271.036
616.47225
2846.4886
15323.72
733.84058
3055.8319
15369.295
848.64807
3219.7689
15410.284
951.11805
3394.1394
15440.46
1057.8521
3541.6799
15464.404
1157.5359
3591.4908
15495.724
1253.9376
3699.3973
15518.5
1353.2449
3815.9938
15531.257
1435.1927
3954.5254
15539.915
1500.7333
3982.9129
15541.172
1571.3589
3979.4188
15546.178
1632.8511
4012.1485
15554.249
1692.4551
4075.1598
15561.894
1742.5036
4105.6699
15569.177
1770.3815
4103.8211
15562.262
1806.1723
4064.139
15567.419
1864.4003
4089.4756
15577.505
1872.2381
4123.6975
15570.441
1883.2029
4097.2667
15573.891
1902.7258
4162.748
15574.309
1934.7402
4216.73
15571.342
1949.339
4183.2939
15568.2
1990.529
4196.6031
15561.896
2011.4877
4215.6526
15553.922
2134.5835
4283.5133
15495.54
3196.6867
4559.1336
10712.722
3327.8154
4230.5099
5915.0642
1571.3829
1859.019
2153.3886
824.04811
899.31373
958.05867
479.08823
497.34607
507.65486
302.283
306.01303
306.12072
203.80148
204.10517
202.63369
145.6033
145.26895
143.99532
109.8956
109.56136
108.70995
87.734511
87.505133
86.987202
74.256322
74.119212
73.82293
66.506453
66.433251
66.276239
62.441411
62.409278
62.337351
60.5671
60.561075
60.539835
59.755409
59.752601
59.740777
59.165979
59.164388
59.156709
58.651047
58.652433
58.649365
58.165207
58.169585
58.170579
57.714954
57.720574
57.723596
57.326281
57.331314
57.334322
57.0134
57.017073
57.019107
56.771984
56.774334
56.775299
56.58779
56.589136
56.58927
56.445255
56.445919
56.445499
56.331528
56.331754
56.330995
56.237265
56.237218
56.23627
56.156093
56.155881
56.154841
56.083799
56.083492
56.082421
56.01764
56.017282
56.016221
55.955847
55.955467
55.954437
55.897285
55.896901
55.895918
55.841233
55.840856
55.839928
55.787218
55.786855
55.785987
55.734876
55.734533
55.733725
55.68376
55.683438
55.682692
55.633011
55.632711
55.632025
55.580703
55.580427
55.579799
55.522546
55.522293
55.521722
55.449391
55.449161
55.448645
55.342677
55.342471
55.34201
55.166626
55.166445
55.166043
54.855719
54.855568
54.855233
54.296148
54.296035
54.295786
53.300971
53.30091
53.300778
51.581358
51.581369
51.5814
48.721568
48.721673
48.721917
44.174731
44.17494
44.175423
37.315801
37.316096
37.316764
27.633039
27.633345
27.634015
15.159525
15.159732
15.160148
13478.782
13533.981
5986.7458
5326.3266
2081.708
1879.7234
921.57592
852.85886
490.80503
463.57175
297.80815
285.77003
198.25855
192.46463
141.59786
138.62407
107.36756
105.77077
86.231171
85.349356
73.403129
72.913052
66.053377
65.787511
62.230301
62.094927
60.499337
60.438596
59.715541
59.674007
59.13851
59.1064
58.636676
58.611093
58.162284
58.141895
57.718196
57.702169
57.330421
57.317983
57.015875
57.006237
56.772377
56.76481
56.586537
56.580447
56.442918
56.437871
56.328558
56.324256
56.233976
56.230221
56.152687
56.149353
56.080406
56.077409
56.014341
56.011626
55.952689
55.950218
55.894297
55.892042
55.838429
55.836368
55.784606
55.782722
55.732455
55.730735
55.681528
55.679959
55.630962
55.629534
55.578831
55.577535
55.520845
55.519674
55.447856
55.446804
55.341307
55.340374
55.165432
55.164623
54.854727
54.854061
54.295412
54.294928
53.300587
53.300353
51.581463
51.581576
48.722312
48.722879
44.176184
44.177222
37.317774
37.318986
27.634903
27.635436
15.160497
15.159747
12058.203
2044.0594
696.8726
369.0632
280.86994
256.31418
248.8363
245.39489
242.55926
239.55819
236.30273
232.79179
229.00586
224.98457
220.70225
216.11574
211.15481
205.69227
199.4909
192.11278
182.76892
170.06489
151.55544
122.78391
73.745744
12058.133
2037.7118
697.89395
374.68311
283.026
254.0401
242.34164
234.91691
228.54408
222.41699
216.36204
210.34656
204.345
198.35958
192.36335
186.33862
180.25245
174.03722
167.55597
160.54432
152.51045
142.54598
128.92931
108.13881
71.358607
12058.18
2030.4298
718.52499
430.5731
359.16221
332.18989
314.79725
300.25101
286.93174
274.26245
262.13968
250.51434
239.37766
228.69742
218.41798
208.52842
199.016
189.84879
180.94882
172.16129
163.19195
153.46238
141.73577
124.97205
93.814693
12058.527
2031.599
817.31723
608.47791
549.63042
512.47811
479.51729
449.05105
421.12108
394.86188
370.23192
347.26992
326.08735
306.24715
287.58462
270.1006
253.78082
238.59143
224.47872
211.35503
199.07989
187.41279
175.85638
163.04301
143.026
12061.53
2150.8104
1231.9235
1077.9086
989.18726
906.41946
827.98406
756.60656
692.79562
633.8217
579.60377
530.08648
486.08927
445.98743
409.17367
375.66122
345.30947
317.93753
293.35535
271.36045
251.74641
234.32306
218.95105
205.77147
195.86678
12087.221
3820.4652
2807.3122
2402.9076
2094.7464
1826.1066
1590.8735
1387.624
1211.6833
1059.8354
929.04349
816.50029
719.68852
636.18231
564.01971
501.68623
447.87897
401.45941
361.44105
326.97496
297.33483
271.9252
250.31596
232.58733
219.99143
10359.003
7900.7771
6095.9562
4786.2464
3816.6365
3081.8917
2513.3068
2066.5889
1712.0455
1428.4356
1199.9836
1014.8855
864.24661
741.1779
640.18738
556.89447
487.83482
430.28785
382.12059
341.65452
307.56308
278.81506
254.66501
234.9704
221.02414
4084.558
3303.1143
2841.0183
2466.3312
2147.5133
1867.2659
1622.6945
1411.158
1229.7724
1074.2863
940.92726
826.30547
727.44925
642.18157
568.65071
505.25343
450.60315
403.51008
362.95543
328.06739
298.10256
272.45286
250.67348
232.82859
220.15045
1592.9184
1398.6932
1268.7216
1160.6654
1058.6155
961.46046
872.84316
793.95037
722.07999
656.9958
598.79484
547.37007
500.22084
457.17707
418.10779
382.80729
351.03078
322.52852
297.05046
274.35568
254.21802
236.43791
220.86725
207.63061
197.74716
770.39721
707.33818
661.24963
620.80089
580.58043
540.58232
503.1402
468.67205
436.74057
407.31724
380.44486
355.8601
332.87836
311.38446
291.35501
272.76193
255.55887
239.68527
225.06852
211.61922
199.21173
187.63272
176.42394
164.28813
145.52878
434.14747
410.44227
391.80713
374.67459
357.03228
338.86078
321.12415
304.2548
288.32706
273.39163
259.45999
246.40791
234.02357
222.24358
211.08745
200.53907
190.57421
181.15247
172.20611
163.61441
155.14253
146.2927
135.9099
120.99499
92.176387
273.35764
262.91522
254.27322
246.15942
237.7141
228.86001
219.95719
211.26828
202.91055
194.93888
187.36066
180.12459
173.15209
166.40708
159.8902
153.59395
147.49484
141.54401
135.65005
129.6428
123.19696
115.6661
105.70195
90.300575
61.80689
186.6178
181.53425
177.14543
172.95828
168.59173
163.97207
159.22908
154.50212
149.87726
145.39779
141.07263
136.88043
132.7873
128.77056
124.81819
120.91232
117.01874
113.07467
108.96894
104.50717
99.348324
92.88344
83.985259
70.390364
46.323221
135.64707
132.98665
130.6147
128.32287
125.93287
123.39177
120.74393
118.05729
115.38458
112.75567
110.17922
107.6465
105.14038
102.64433
100.1419
97.60897
95.003702
92.253684
89.237344
85.757476
81.50587
76.025382
68.710356
59.061196
48.212588
104.16947
102.69875
101.34856
100.02725
98.649459
97.18083
95.634315
94.041923
92.433489
90.828246
89.233488
87.646141
86.056674
84.452189
82.815302
81.118377
79.314129
77.322563
75.01387
72.189437
68.569309
63.81181
57.639791
50.288038
43.772774
84.453991
83.605575
82.801689
82.002005
81.165879
80.27369
79.328561
78.345653
77.341746
76.329292
75.314368
74.296793
73.271105
72.226985
71.147048
70.001104
68.736361
67.263286
65.437756
63.043024
59.781948
55.304294
49.325852
41.965956
33.78189
72.403056
71.900747
71.406278
70.902973
70.372682
69.806123
69.204648
68.576498
67.931947
67.279808
66.625666
65.9711
65.313084
64.642684
63.941888
63.177197
62.28871
61.174089
59.667701
57.51772
54.368094
49.756682
43.133468
33.816941
20.326069
65.499363
65.200264
64.890781
64.564835
64.215718
63.840517
63.441246
63.023587
62.594838
62.162114
61.730992
61.304376
60.880807
60.4516
59.997227
59.480248
58.833323
57.941301
56.617427
54.575782
51.404888
46.551509
39.323939
28.893293
14.278679
61.937167
61.759478
61.561746
61.342327
61.099949
60.835068
60.550354
60.250392
59.941027
59.628609
59.318992
59.016447
58.721631
58.425587
58.107108
57.72546
57.207657
56.429278
55.18923
53.181398
49.966886
44.962122
37.472266
26.815729
12.694591
60.356122
60.249097
60.116503
59.958322
59.775419
59.569507
59.343182
59.100064
58.844981
58.583989
58.323626
58.069204
57.827168
57.58745
57.327131
57.002783
56.537475
55.801407
54.587603
52.585099
49.35001
44.308179
36.812384
26.334883
12.871367
59.613667
59.532251
59.42853
59.302081
59.153167
58.982635
58.791799
58.582706
58.358599
58.124282
57.886027
57.64947
57.424849
57.204335
56.966175
56.667322
56.230526
55.524724
54.33911
52.35284
49.12032
44.10546
36.703659
26.485872
13.562733
59.057492
58.989329
58.900325
58.789713
58.657404
58.503973
58.330821
58.140625
57.937847
57.72882
57.520741
57.319403
57.126652
56.938815
56.732177
56.46254
56.052267
55.370716
54.208479
52.248552
49.043833
44.071745
36.755503
26.695653
14.009364
58.569686
58.509692
58.429492
58.328484
58.207005
58.066444
57.909479
57.740314
57.5646
57.388748
57.218526
57.057178
56.903226
56.74722
56.569403
56.324612
55.935515
55.27262
54.12867
52.190199
49.015163
44.075018
36.798739
26.769663
14.056906
58.106716
58.053863
57.982135
57.891649
57.783722
57.660859
57.526738
57.386024
57.243874
57.105136
56.973265
56.849026
56.728731
56.601185
56.446709
56.221228
55.848243
55.199457
54.069412
52.14726
48.994211
44.073865
36.809373
26.761565
14.019654
57.673273
57.628913
57.568474
57.492763
57.403722
57.304237
57.197898
57.088649
56.980302
56.875943
56.777223
56.68342
56.589937
56.485622
56.348277
56.137143
55.776151
55.137915
54.018293
52.108215
48.970841
44.064095
36.802764
26.734464
13.9526
57.295309
57.260375
57.212972
57.154131
57.08576
57.010381
56.930848
56.85003
56.770462
56.693945
56.621044
56.550292
56.476737
56.389207
56.265299
56.064825
55.712724
55.082396
53.970711
52.069999
48.945137
44.050997
36.794964
26.7117
13.87933
56.988999
56.962724
56.927388
56.883891
56.833751
56.778853
56.721224
56.662803
56.605198
56.549402
56.495379
56.441304
56.382118
56.306765
56.193235
56.000307
55.654776
55.030454
53.925007
52.032066
48.918525
44.038758
36.796617
26.720253
13.882631
56.7518
56.732381
56.706583
56.675071
56.638921
56.599435
56.557974
56.515802
56.473919
56.432825
56.392139
56.349855
56.300873
56.234214
56.128007
55.941023
55.600515
54.98086
53.880461
51.994183
48.891177
44.027253
36.807038
26.758621
13.945403
56.570487
56.556024
56.537094
56.514154
56.487928
56.459282
56.429111
56.39823
56.367246
56.336353
56.304963
56.270958
56.229213
56.168795
56.067927
55.885512
55.548855
54.932886
53.836636
51.956074
48.8626
44.014627
36.820955
26.817572
14.0872
56.430032
56.418993
56.404787
56.387721
56.368276
56.347024
56.324553
56.301388
56.277884
56.254041
56.229133
56.200967
56.164395
56.108511
56.01163
55.832867
55.499062
54.886028
53.793225
51.917525
48.832288
43.998628
36.82975
26.864707
14.222085
56.317884
56.309184
56.298183
56.285094
56.270239
56.254
56.23677
56.218887
56.200544
56.181611
56.161271
56.137272
56.104445
56.051892
55.957976
55.781895
55.450517
54.8399
53.750004
51.878452
48.800166
43.978466
36.830277
26.897309
14.334806
56.224883
56.217797
56.208992
56.198618
56.186898
56.174096
56.160477
56.14626
56.131532
56.116076
56.099008
56.078035
56.047964
55.997898
55.906228
55.732224
55.402909
54.794222
53.706801
51.83884
48.766455
43.95428
36.819888
26.89833
14.32564
56.144766
56.138826
56.131561
56.123083
56.113552
56.103156
56.09208
56.080463
56.068323
56.055382
56.040711
56.021979
55.993975
55.945798
55.855854
55.683458
55.355731
54.748736
53.663452
51.798632
48.731351
43.926969
36.801543
26.875742
14.262006
56.073392
56.068293
56.062143
56.05503
56.047073
56.03841
56.029174
56.019452
56.009213
55.998139
55.985263
55.968231
55.941811
55.895094
55.806493
55.635361
55.308896
54.703315
53.619827
51.757699
48.694816
43.897083
36.779366
26.852787
14.265894
56.008057
56.003602
55.99829
55.992194
55.985406
55.978032
55.970169
55.961869
55.953068
55.943416
55.931921
55.916207
55.891025
55.845457
55.757917
55.587783
55.262324
54.65792
53.575861
51.716006
48.657019
43.86572
36.758077
26.846617
14.297364
55.947018
55.943073
55.938415
55.933104
55.927215
55.920832
55.914026
55.906827
55.899144
55.890606
55.880201
55.865534
55.84134
55.796689
55.709992
55.540641
55.215955
54.612428
53.531549
51.673637
48.618292
43.833775
36.738097
26.842143
14.297499
55.889153
55.885628
55.881499
55.876815
55.871641
55.866045
55.860079
55.853756
55.846969
55.839327
55.829804
55.815987
55.792596
55.748688
55.662665
55.493923
55.169817
54.566939
53.487
51.630777
48.578941
43.801525
36.719191
26.843112
14.311083
55.833751
55.830582
55.826892
55.822727
55.818139
55.813185
55.807908
55.802303
55.796251
55.789349
55.780555
55.767442
55.744717
55.701418
55.615934
55.447659
55.123975
54.521566
53.442385
51.587649
48.539267
43.769211
36.700714
26.844782
14.32672
55.780345
55.777486
55.774173
55.770446
55.766352
55.761939
55.757238
55.752237
55.746803
55.740525
55.732347
55.71983
55.697664
55.654869
55.569818
55.401895
55.0785
54.476404
53.397788
51.544382
48.499219
43.736039
36.680124
26.842541
14.340276
55.728576
55.72599
55.723006
55.719659
55.715991
55.712041
55.707836
55.703352
55.698451
55.692709
55.685062
55.673057
55.651367
55.608995
55.52429
55.356625
55.033413
54.431505
53.353305
51.501042
48.458767
43.701869
36.658173
26.842533
14.368784
55.677998
55.675658
55.672966
55.669954
55.66666
55.663117
55.659344
55.655314
55.650877
55.645604
55.638421
55.626862
55.605584
55.563569
55.479143
55.311661
54.988544
54.386721
53.308806
51.457493
48.417774
43.666701
36.635351
26.845877
14.414743
55.627755
55.625639
55.62321
55.620499
55.617538
55.614356
55.610968
55.607338
55.603315
55.598458
55.591685
55.58052
55.559602
55.517892
55.433691
55.266331
54.943239
54.34141
53.26365
51.413085
48.375608
43.63013
36.611902
26.851184
14.460754
55.575924
55.574014
55.571826
55.569387
55.566727
55.563872
55.56083
55.557562
55.553909
55.549427
55.543022
55.532208
55.511609
55.470162
55.386141
55.218856
54.895731
54.293821
53.216103
51.366094
48.330486
43.589991
36.583908
26.850116
14.498126
55.518221
55.516502
55.514536
55.51235
55.509968
55.507412
55.504688
55.501751
55.498438
55.494296
55.488227
55.47773
55.457415
55.416196
55.332321
55.165073
54.841874
54.239834
53.162106
51.312595
48.278855
43.543585
36.551221
26.851151
14.553083
55.445502
55.443965
55.442211
55.440263
55.438144
55.435873
55.433449
55.430824
55.427829
55.424005
55.418247
55.408042
55.387984
55.346965
55.263207
55.095968
54.772675
54.170507
53.092828
51.244018
48.212601
43.48322
36.504387
26.831962
14.570713
55.339222
55.337865
55.336321
55.334611
55.332754
55.330765
55.328639
55.326323
55.323641
55.320128
55.314669
55.30474
55.28492
55.24408
55.160417
54.993174
54.669796
54.067575
52.990181
51.142641
48.114689
43.392897
36.428466
26.779582
14.547934
55.163629
55.162463
55.161143
55.159688
55.158113
55.156428
55.154624
55.152639
55.150289
55.147102
55.14195
55.132299
55.112711
55.072039
54.988463
54.821226
54.497832
53.895775
52.819208
50.974135
47.951957
43.241474
36.295729
26.672762
14.41669
54.853249
54.852306
54.851249
54.850095
54.848855
54.847534
54.846113
54.844521
54.842563
54.839751
54.834947
54.825602
54.806264
54.765774
54.682308
54.515152
54.191952
53.590579
52.516022
50.675891
47.664296
42.973809
36.061364
26.487043
14.236311
54.294349
54.293693
54.292975
54.292212
54.29141
54.290565
54.289647
54.28857
54.287118
54.284787
54.280419
54.271453
54.252427
54.212184
54.128938
53.962095
53.639624
53.040126
51.970088
50.139924
47.148444
42.495013
35.644065
26.158027
14.013701
53.300094
53.299832
53.299582
53.299357
53.299161
53.29898
53.298766
53.298409
53.297662
53.295989
53.292213
53.283767
53.265195
53.225376
53.142643
52.976704
52.656203
52.061149
51.00077
49.190451
46.237294
41.653068
34.917814
25.60842
13.705136
51.581764
51.582047
51.582447
51.582976
51.583636
51.584405
51.58521
51.5859
51.58617
51.585431
51.582497
51.574819
51.556986
51.517974
51.436415
51.27269
50.956799
50.371407
49.330679
47.558662
44.676657
40.217562
33.688471
24.692594
13.21537
48.723636
48.724605
48.725853
48.727395
48.729244
48.731373
48.73367
48.735907
48.737655
48.73823
48.736501
48.730025
48.713494
48.676058
48.597006
48.438132
48.132039
47.566229
46.563479
44.862402
42.107441
37.864866
31.684267
23.211447
12.442182
44.178493
44.180017
44.182147
44.184901
44.188293
44.19228
44.196681
44.201108
44.204862
44.207127
44.207062
44.202555
44.188429
44.154062
44.080106
43.931083
43.644267
43.115682
42.182566
40.606906
38.068738
34.184035
28.562973
20.90822
11.221987
37.320042
37.320949
37.323324
37.327124
37.332191
37.338302
37.345161
37.352099
37.357941
37.36179
37.363691
37.362224
37.351999
37.323516
37.260061
37.130145
36.878628
36.41597
35.602692
34.236606
32.049825
28.727643
23.961432
17.531555
9.4578071
27.634337
27.631556
27.632292
27.63618
27.642313
27.649758
27.658087
27.666366
27.67294
27.677095
27.680383
27.681682
27.672925
27.654619
27.614268
27.519931
27.328033
26.9727
26.349997
25.309381
23.654434
21.160289
17.617983
12.903324
7.065403
15.155658
15.148094
15.145915
15.148305
15.15337
15.159333
15.165773
15.171928
15.17636
15.178792
15.181104
15.179256
15.155696
15.149299
15.150298
15.110444
15.006002
14.805648
14.454049
13.868418
12.942505
11.557011
9.6083216
7.0523493
3.9788143
)
;

boundaryField
{
    Walls
    {
        Cmu             0.09;
        kappa           0.41;
        E               9.8;
        beta1           0.075;
        type            omegaWallFunction;
        value           nonuniform List<scalar> 
38
(
12058.203
12058.133
12058.18
12058.527
12061.53
12087.221
13478.782
13533.981
14919.827
15030.878
15116.361
15197.806
15271.036
15323.72
15369.295
15410.284
15440.46
15464.404
15495.724
15518.5
15531.257
15539.915
15541.172
15546.178
15554.249
15561.894
15569.177
15562.262
15567.419
15577.505
15570.441
15573.891
15574.309
15571.342
15568.2
15561.896
15553.922
15495.54
)
;
    }
    Inlet
    {
        type            turbulentMixingLengthDissipationRateInlet;
        mixingLength    0.03;
        phi             phi;
        k               k;
        value           nonuniform List<scalar> 3(0.0044644733 0.0048817577 0.00457023);
    }
    Outlet
    {
        type            inletOutlet;
        inletValue      uniform 1e-05;
        value           nonuniform List<scalar> 
86
(
15.159525
15.159732
15.160148
15.160497
15.159747
15.155658
15.148094
15.145915
15.148305
15.15337
15.159333
15.165773
15.171928
15.17636
15.178792
15.181104
15.179256
15.155696
15.149299
15.150298
15.110444
15.006002
14.805648
14.454049
13.868418
12.942505
11.557011
9.6083216
7.0523493
3.9788143
221.02414
220.15045
197.74716
1e-05
1e-05
1e-05
1e-05
48.212588
43.772774
33.78189
1e-05
1e-05
1e-05
12.871367
13.562733
14.009364
14.056906
14.019654
13.9526
13.87933
13.882631
13.945403
14.0872
14.222085
14.334806
14.32564
14.262006
14.265894
14.297364
14.297499
14.311083
14.32672
14.340276
14.368784
14.414743
14.460754
14.498126
14.553083
14.570713
14.547934
14.41669
1e-05
1e-05
1e-05
1e-05
1e-05
1e-05
1e-05
1e-05
3.9788143
1e-05
1e-05
1e-05
1e-05
195.86678
219.99143
)
;
    }
    Front
    {
        type            wedge;
    }
    Back
    {
        type            wedge;
    }
    defaultFaces
    {
        type            empty;
    }
}


// ************************************************************************* //
