/*--------------------------------*- C++ -*----------------------------------*\
| =========                 |                                                 |
| \\      /  F ield         | OpenFOAM: The Open Source CFD Toolbox           |
|  \\    /   O peration     | Version:  4.0                                   |
|   \\  /    A nd           | Web:      www.OpenFOAM.org                      |
|    \\/     M anipulation  |                                                 |
\*---------------------------------------------------------------------------*/
FoamFile
{
    version     2.0;
    format      ascii;
    class       volScalarField;
    location    "0.21";
    object      p;
}
// * * * * * * * * * * * * * * * * * * * * * * * * * * * * * * * * * * * * * //

dimensions      [0 2 -2 0 0 0 0];

internalField   nonuniform List<scalar> 
1740
(
491.58317
491.53122
491.5722
474.55211
474.45656
474.7352
457.63388
457.54189
457.86703
441.03721
441.16945
441.20304
424.46528
424.6814
424.62741
408.06785
408.04441
407.74732
391.9389
391.79949
391.18628
375.72222
375.68892
375.33126
359.22932
359.3481
359.68401
342.87315
343.01241
343.77866
326.68709
326.70237
327.06364
310.47726
310.36661
310.31188
294.17657
294.13489
294.15125
277.37557
277.5282
277.57519
260.68367
260.7973
260.66082
244.49463
244.38096
244.25315
228.15701
228.17101
228.36055
212.03047
212.32807
212.65491
196.05232
196.24532
196.45183
179.73509
179.75505
179.73755
163.46652
163.40413
163.19247
147.06401
146.83008
146.82806
130.29715
130.22241
130.361
113.47142
113.7863
113.62185
97.194885
97.319195
96.977894
81.045556
80.780388
80.696004
64.215759
64.045199
63.962993
47.437673
47.598586
47.446609
31.477901
31.5747
31.666257
16.721528
16.270595
16.057754
4.4039941
3.6414183
1.7785597
-0.43813123
-0.42750216
-0.26208365
-0.021374243
-0.027059844
-0.014911011
0.072826638
0.06614908
0.06144946
0.063544026
0.061448227
0.059333617
0.051878184
0.050817452
0.049366151
0.043140467
0.042420046
0.041175011
0.036124421
0.035573144
0.034551312
0.030861941
0.030422933
0.029615526
0.02703721
0.026713634
0.026066793
0.023917213
0.023672232
0.023162784
0.021168005
0.020966668
0.020533207
0.018601731
0.018433756
0.01807837
0.016297527
0.016162202
0.015875475
0.014248266
0.014138777
0.013907063
0.012435772
0.012346719
0.012156672
0.010834227
0.010760743
0.010602858
0.0094171804
0.0093558492
0.0092235053
0.0081613844
0.0081097606
0.0079983281
0.0070484404
0.0070048058
0.0069103746
0.0060636474
0.0060265997
0.0059462725
0.0051943193
0.0051627525
0.0050942007
0.004429369
0.0044024052
0.0043437728
0.0037592794
0.0037362352
0.0036860794
0.0031756087
0.0031559341
0.0031130921
0.002670397
0.0026536429
0.0026171364
0.0022359179
0.0022216974
0.0021906715
0.0018632014
0.0018510239
0.0018245446
0.0015489788
0.0015387077
0.001516374
0.0012847918
0.001276208
0.0012575062
0.0010648444
0.0010576482
0.0010419661
0.00088325467
0.00087721207
0.00086406505
0.00073425724
0.00072921985
0.00071826554
0.0006127678
0.00060858526
0.00059949231
0.00051415303
0.00051069087
0.0005031677
0.00043444419
0.00043158619
0.00042538096
0.00037026334
0.0003679085
0.00036280009
0.0003185177
0.00031657753
0.00031237285
0.00027636327
0.00027476306
0.0002713004
0.00024139246
0.00024007205
0.00023722152
0.00021165323
0.00021056424
0.00020822165
0.00018555539
0.00018465846
0.00018273897
0.00016182439
0.00016109107
0.00015952411
0.00013948052
0.00013888895
0.00013761903
0.00011780103
0.00011733028
0.00011631612
9.6282692e-05
9.5917107e-05
9.5127507e-05
7.4637451e-05
7.4365532e-05
7.3777324e-05
5.2825535e-05
5.2638617e-05
5.2234675e-05
3.1115223e-05
3.1006288e-05
3.0773299e-05
9.96418e-06
9.928579e-06
9.8544943e-06
-1.1912845
-0.83909833
-0.21260214
-0.16951637
-0.017447122
-0.024211656
0.052348604
0.041426169
0.055667992
0.05130764
0.047497624
0.045169297
0.039689271
0.03796898
0.033351353
0.031954942
0.028502295
0.027336607
0.025155151
0.024095496
0.022433597
0.021538738
0.019901192
0.019158671
0.017575107
0.016963173
0.015468952
0.014966411
0.013574091
0.013158181
0.011880418
0.011533684
0.010371599
0.010080162
0.009029156
0.0087818203
0.0078339126
0.0076230827
0.0067706411
0.0065905351
0.0058270618
0.0056727521
0.0049921792
0.004859621
0.0042563317
0.0041424043
0.0036111711
0.0035133823
0.00304903
0.0029652622
0.0025624871
0.0024909115
0.0021441969
0.002083242
0.0017849136
0.0017330465
0.0014829624
0.0014391972
0.0012294662
0.0011926656
0.0010184287
0.00098750323
0.00084435033
0.00081845594
0.0007018411
0.0006802693
0.00058585397
0.00056793124
0.00049187889
0.00047703408
0.0004160656
0.00040380726
0.00035512713
0.00034502069
0.00030605364
0.00029772298
0.00026609433
0.00025922695
0.00023293377
0.00022727326
0.00020469497
0.00020003357
0.00017984497
0.00017601494
0.00015715946
0.00015402562
0.00013570223
0.00013315887
0.00011478466
0.00011275037
9.3934515e-05
9.2348181e-05
7.2888278e-05
7.1705088e-05
5.1624064e-05
5.0810965e-05
3.0421088e-05
2.9951959e-05
9.7429927e-06
9.5945922e-06
0.034494136
0.033912936
0.032886203
0.031545581
0.029998635
0.028325482
0.026547909
0.024666206
0.022695373
0.020674987
0.018659882
0.016695859
0.014816893
0.013042693
0.011378205
0.0098085677
0.0083753186
0.0070748462
0.0058903231
0.0048040745
0.0038004204
0.0028654489
0.0019874862
0.0011583257
0.0003727239
0.034705868
0.034095937
0.032977193
0.031498521
0.029769589
0.027889723
0.025889808
0.023790511
0.021643421
0.019517245
0.017456976
0.015501555
0.013670268
0.011968817
0.010401788
0.0089831308
0.0076766086
0.0064801253
0.0053829874
0.0043772854
0.0034532223
0.002597638
0.0017991034
0.0010506879
0.00034555283
0.031511104
0.030627019
0.029055422
0.027059106
0.024693087
0.022027118
0.019227705
0.016508182
0.014062602
0.011899566
0.010010491
0.0083696044
0.0069471904
0.0057175693
0.0046691561
0.0037893324
0.0030523247
0.0024338729
0.0019227261
0.0015038892
0.0011601017
0.00086861505
0.00061492815
0.00038598636
0.00016000297
0.017010729
0.0154984
0.012737105
0.0091339034
0.0054247679
0.0021018049
-0.00057492619
-0.002582898
-0.0040655102
-0.0051045779
-0.0057666523
-0.0061397336
-0.0062889229
-0.0062370472
-0.0060177011
-0.0056640969
-0.0052062299
-0.0046684244
-0.0040687479
-0.0034277632
-0.0027630783
-0.0021049243
-0.0014518725
-0.00081630274
-0.00022755115
-0.032237429
-0.034792804
-0.037946747
-0.038832639
-0.038681982
-0.037305694
-0.035287922
-0.032853281
-0.030165315
-0.027372984
-0.024672385
-0.022113496
-0.019687161
-0.017160771
-0.014816509
-0.012688338
-0.010772968
-0.009056157
-0.0075175001
-0.0061290823
-0.004864109
-0.0036831042
-0.0025806567
-0.0015373614
-0.00054350516
-0.19258581
-0.15488588
-0.13968372
-0.11194444
-0.089180792
-0.069132421
-0.052080921
-0.038272738
-0.027319156
-0.018719348
-0.01199478
-0.0068455067
-0.0029938252
-0.00034386484
0.0015339216
0.0027569859
0.0034608758
0.0037560442
0.0037293434
0.0034524932
0.0029866485
0.0023897415
0.0017025042
0.00096603448
0.00017404459
-0.29044527
-0.09888706
-0.053681141
-0.019824262
0.011136939
0.03541166
0.050228758
0.056648379
0.05788244
0.05650695
0.053727781
0.050100803
0.045993408
0.041661682
0.037287394
0.032985249
0.028821322
0.024831349
0.021024695
0.017394907
0.013926585
0.010602254
0.0073941459
0.0042892109
0.0011950851
-0.14638219
-0.13385588
-0.11658243
-0.096594286
-0.076577158
-0.058627847
-0.043388291
-0.031090132
-0.02141552
-0.013858923
-0.0080973417
-0.0037960405
-0.00066576063
0.0015722938
0.0030921198
0.0040321212
0.0045060062
0.0046148247
0.0044343971
0.0040267594
0.0034448281
0.0027362783
0.0019413185
0.0011018699
0.00021063856
-0.034204638
-0.041441701
-0.045542006
-0.046959626
-0.046205453
-0.043906002
-0.040985558
-0.037726509
-0.034309582
-0.031006994
-0.027804677
-0.024623958
-0.021581283
-0.018778143
-0.016225469
-0.01390811
-0.011809737
-0.009903493
-0.0081848072
-0.0066351409
-0.0052320103
-0.0039510163
-0.0027689891
-0.0016574085
-0.00059318079
0.029673876
0.019343242
0.010481633
0.0033081335
-0.0022149213
-0.0062384965
-0.0090262348
-0.010800796
-0.011810488
-0.012271338
-0.012323897
-0.012070452
-0.011571222
-0.010883571
-0.010062392
-0.0091552156
-0.0081939773
-0.0072115888
-0.0062093256
-0.0051966411
-0.004183604
-0.0031800202
-0.0021964076
-0.0012452592
-0.00036184644
0.046071935
0.040402997
0.034512824
0.028441192
0.022719962
0.017675351
0.013532087
0.01019796
0.0075195097
0.0053905175
0.0037226848
0.0024324322
0.0014503637
0.00072154874
0.00019441239
-0.00016710038
-0.00039103019
-0.00051192386
-0.00055072925
-0.00052503792
-0.0004511407
-0.00034458881
-0.00022036995
-9.1923664e-05
1.4133612e-05
0.042324743
0.039232746
0.036083316
0.032938601
0.029632932
0.026265288
0.022958217
0.019898605
0.017085294
0.014593044
0.012435954
0.010590651
0.009010416
0.0076538596
0.0064914265
0.0054883399
0.0046197203
0.0038578914
0.0031821078
0.0025763272
0.0020273264
0.0015238269
0.0010567564
0.00062131831
0.00021324155
0.036016168
0.033949885
0.031817335
0.029629159
0.027400134
0.025152045
0.02286028
0.020586294
0.018408568
0.016366183
0.014475269
0.012736222
0.011152849
0.009726801
0.0084470707
0.0072949711
0.0062528873
0.0053027192
0.0044298445
0.0036221222
0.0028697153
0.002164478
0.0014999608
0.00087222241
0.00028029812
0.030469003
0.028918494
0.027354137
0.02577694
0.02417982
0.022529316
0.020811382
0.019026233
0.017298616
0.015628073
0.014020741
0.012486028
0.011038055
0.0097047316
0.0084801869
0.0073578151
0.0063249392
0.005374073
0.0044957941
0.0036803473
0.0029193866
0.0022055849
0.0015323852
0.00089402481
0.00028608418
0.026160627
0.024943631
0.02371312
0.0224856
0.021251292
0.01999415
0.01870173
0.017357848
0.015999502
0.014637136
0.013282265
0.011964468
0.01072185
0.0095310542
0.0084027589
0.0073405159
0.0063448436
0.0054148145
0.0045467727
0.0037330104
0.0029685833
0.0022478778
0.0015653153
0.00091553077
0.00029329094
0.023004331
0.021933113
0.020884972
0.019859384
0.018854854
0.017852376
0.016835621
0.015788137
0.014714861
0.013620684
0.012517069
0.011422623
0.010327721
0.0092661399
0.0082452162
0.0072616859
0.0063215462
0.005427694
0.0045840481
0.0037791284
0.0030154132
0.002289382
0.0015972173
0.00093590414
0.00030091293
0.02056124
0.019578818
0.018631232
0.017727753
0.016865081
0.01602158
0.015182
0.014330042
0.013458304
0.012567131
0.011660563
0.010742493
0.0098232592
0.0088979723
0.0079762344
0.0070722069
0.0061966894
0.0053547148
0.004544562
0.003764459
0.0030154304
0.0022967122
0.0016066464
0.00094356396
0.00030433571
0.018329882
0.017481844
0.016650814
0.015854708
0.015094503
0.014359865
0.01363929
0.012919432
0.012191346
0.011449553
0.010691854
0.0099182315
0.0091307863
0.0083318492
0.0075274622
0.0067292451
0.0059381776
0.005157214
0.0043948158
0.0036543044
0.0029367207
0.0022421957
0.0015706321
0.00092214831
0.00029621926
0.016278394
0.01556087
0.014842105
0.014141414
0.013466157
0.012814905
0.0121808
0.011554886
0.010929189
0.010296823
0.0096527247
0.0089942928
0.0083217333
0.0076355112
0.006937621
0.0062342411
0.0055289737
0.0048264686
0.0041320992
0.003449233
0.0027804642
0.0021279678
0.0014931296
0.00087781487
0.00028258214
0.014397739
0.01379027
0.013170326
0.012555403
0.011955632
0.011374296
0.010809077
0.010255445
0.00970684
0.0091572521
0.0086014771
0.0080358713
0.0074583291
0.0068676191
0.0062649915
0.005653009
0.0050344455
0.0044127886
0.0037921064
0.0031757898
0.0025670568
0.0019686009
0.0013827002
0.000813569
0.0002633077
0.01268232
0.012166095
0.011631025
0.011092338
0.010560305
0.010040513
0.0095342142
0.0090396255
0.00855271
0.0080689257
0.0075835158
0.0070927983
0.0065938003
0.0060845735
0.0055648234
0.0050353452
0.0044975815
0.0039538241
0.0034070837
0.0028606111
0.0023173641
0.001780005
0.0012502603
0.00073522846
0.0002418001
0.011131903
0.01069089
0.010227394
0.0097546798
0.0092825774
0.0088176294
0.0083629438
0.0079188341
0.0074834435
0.0070535896
0.0066256555
0.0061962553
0.0057623225
0.0053216122
0.0048729813
0.0044161595
0.0039515721
0.0034805156
0.0030050221
0.002527656
0.0020510758
0.0015779388
0.00111095
0.00065509729
0.00021332361
0.0097390061
0.0093600771
0.0089570605
0.008541417
0.0081222716
0.0077062883
0.0072975728
0.0068977428
0.006506475
0.0061220431
0.0057419634
0.0053633669
0.004983757
0.0046008638
0.004213078
0.0038195739
0.00342006
0.0030150819
0.0026059138
0.0021943681
0.0017826138
0.0013730212
0.00096817545
0.00057164961
0.00018551855
0.0084904228
0.0081637259
0.0078128079
0.0074473797
0.0070755709
0.0067037617
0.0063364123
0.0059760385
0.0056234831
0.0052781925
0.0049387432
0.0046031644
0.0042694253
0.0039355558
0.0035999095
0.0032612419
0.0029190001
0.0025731685
0.0022243818
0.0018737835
0.0015229503
0.001173776
0.00082835449
0.00048936875
0.00015856208
0.0073730179
0.0070910789
0.0067855981
0.0064646214
0.0061352579
0.0058034516
0.0054737668
0.0051492706
0.0048316113
0.0045211364
0.0042173095
0.0039189712
0.003624658
0.0033328209
0.003041981
0.0027508756
0.0024587338
0.0021652008
0.0018703999
0.0015749549
0.0012798808
0.00098648989
0.00069626344
0.00041126651
0.00013293531
0.0063756128
0.0061318797
0.0058658644
0.0055841409
0.0052928979
0.0049976128
0.0047026747
0.0044113868
0.0041258695
0.0038472021
0.0035754726
0.0033101986
0.0030505025
0.0027952649
0.0025432884
0.0022934851
0.0020449779
0.0017972399
0.0015500537
0.0013036306
0.0010584787
0.00081536895
0.00057522183
0.00033964734
0.00010965333
0.0054877039
0.0052767176
0.0050450024
0.0047980804
0.0045412575
0.0042794708
0.0040167991
0.0037565208
0.0035010212
0.0032517822
0.0030094713
0.0027741031
0.0025453067
0.0023223695
0.0021044191
0.0018905564
0.0016799688
0.0014720295
0.0012663684
0.0010628326
0.00086154712
0.00066284159
0.00046718746
0.00027573889
8.9090474e-05
0.0047000588
0.0045174028
0.0043157925
0.0040999165
0.0038743286
0.0036432112
0.0034104765
0.0031792004
0.0029518019
0.0027300003
0.0025148389
0.0023068049
0.0021058575
0.0019116613
0.0017236479
0.0015411435
0.0013634387
0.0011899042
0.0010200495
0.00085352191
0.00069015898
0.00052996533
0.00037305755
0.0002201063
7.133667e-05
0.0040048136
0.0038468465
0.0036719172
0.0034838079
0.003286438
0.003083474
0.0028782959
0.0026740022
0.0024728177
0.0022765941
0.0020866009
0.0019035908
0.0017278584
0.0015593565
0.0013977701
0.0012426253
0.0010933581
0.00094937618
0.00081013072
0.0006751513
0.00054407991
0.00041668122
0.00029280025
0.00017270158
5.6294283e-05
0.0033949693
0.0032586166
0.0031072299
0.0029439389
0.0027720057
0.002594657
0.0024149198
0.0022354296
0.0020585613
0.0018860694
0.0017193122
0.0015592195
0.0014063109
0.0012607731
0.0011225179
0.00099123517
0.00086648179
0.00074772646
0.00063442469
0.00052603725
0.00042207709
0.00032212652
0.00022579321
0.00013308973
4.3639644e-05
0.0028635975
0.0027462313
0.002615651
0.0024744392
0.0023253726
0.0021712174
0.0020146211
0.0018579684
0.0017034342
0.0015527776
0.0014073456
0.0012681397
0.0011358327
0.0010107762
0.00089304822
0.00078248752
0.00067875466
0.00058140124
0.00048989203
0.00040366459
0.00032214859
0.00024478873
0.00017101701
0.00010060364
3.2946036e-05
0.0024038881
0.0023032047
0.0021909342
0.0020693241
0.0019406895
0.0018074071
0.0016717499
0.0015358842
0.0014017602
0.0012710312
0.0011450201
0.0010247203
0.0009108947
0.00080400565
0.00070425252
0.00061158081
0.00052575811
0.00044639689
0.00037299685
0.00030498989
0.00024176616
0.00018270676
0.00012711216
7.4635959e-05
2.4560214e-05
0.0020089882
0.0019229041
0.0018268419
0.0017225612
0.0016120715
0.0014973867
0.0013805865
0.0012634717
0.0011478418
0.0010351954
0.00092673613
0.0008233859
0.00072598531
0.00063511134
0.00055099667
0.00047367219
0.0004029871
0.00033860492
0.00028006934
0.00022683591
0.00017829667
0.00013377713
9.2584087e-05
5.4298691e-05
1.8137119e-05
0.0016700092
0.0015970494
0.0015154483
0.0014268368
0.0013327599
0.0012349732
0.0011351343
0.0010349735
0.00093601787
0.00083969427
0.00074705953
0.00065872166
0.00057576997
0.00049889406
0.00042830926
0.00036405037
0.00030606287
0.00025403734
0.00020756599
0.0001661451
0.00012919204
9.6065183e-05
6.6048239e-05
3.8733033e-05
1.3304155e-05
0.0013859066
0.0013240445
0.0012547669
0.0011793671
0.0010992923
0.0010159864
0.00093085469
0.00084532789
0.000760705
0.00067819136
0.00059901541
0.00052442035
0.00045472537
0.00039025586
0.00033138696
0.00027827539
0.00023083917
0.00018890332
0.00015211958
0.00012001823
9.2084536e-05
6.7687516e-05
4.610049e-05
2.7018891e-05
9.413162e-06
0.0011477836
0.0010955924
0.001037092
0.00097340006
0.00090565331
0.0008350338
0.00076282977
0.0006902655
0.0006184974
0.00054860953
0.00048162998
0.00041843789
0.00035958866
0.00030546458
0.00025636414
0.00021243267
0.00017361741
0.00013977285
0.00011060825
8.5715313e-05
6.4561457e-05
4.6605814e-05
3.1266478e-05
1.8305028e-05
6.7661439e-06
0.00094976428
0.00090594841
0.00085681475
0.00080324065
0.00074619432
0.0006866404
0.00062571313
0.00056446443
0.00050389396
0.00044493737
0.00038843157
0.00033514386
0.00028562998
0.0002402822
0.00019936747
0.00016301549
0.00013121168
0.00010382866
8.0610012e-05
6.1199146e-05
4.5147704e-05
3.1956686e-05
2.1064932e-05
1.2400437e-05
4.9269701e-06
0.00078685593
0.00075015186
0.00070895854
0.00066398461
0.0006160463
0.00056608072
0.00051491328
0.00046342748
0.00041248789
0.00036290146
0.00031537016
0.00027056708
0.00022899475
0.00019102221
0.0001568994
0.00012675112
0.00010057735
7.8252599e-05
5.9579872e-05
4.4257003e-05
3.1898883e-05
2.206151e-05
1.4234522e-05
8.4693771e-06
3.7217422e-06
0.0006539317
0.00062326675
0.0005888179
0.0005511956
0.00051107968
0.00046924056
0.00042635908
0.0003831676
0.00034039405
0.00029873521
0.0002588506
0.00022124215
0.0001863511
0.00015451613
0.00012596848
0.00010083011
7.911281e-05
6.071081e-05
4.5467404e-05
3.3126745e-05
2.3360045e-05
1.5783218e-05
9.9449116e-06
6.0247765e-06
2.9843237e-06
0.00054603011
0.00052051431
0.00049183138
0.00046049157
0.00042705245
0.00039208656
0.0003562123
0.00032004717
0.0002841972
0.00024924979
0.00021575958
0.00018415678
0.00015481856
0.00012804019
0.00010402564
8.2886435e-05
6.4645355e-05
4.9258602e-05
3.6562127e-05
2.6338137e-05
1.8313607e-05
1.2166657e-05
7.5076743e-06
4.6593516e-06
2.5841379e-06
0.00045888057
0.00043771708
0.00041390478
0.00038785643
0.00036002285
0.00033087858
0.00030093472
0.00027070728
0.00024070371
0.00021140841
0.00018325521
0.00015664368
0.00013189599
0.00010926403
8.8925027e-05
7.0980553e-05
5.5459864e-05
4.2331286e-05
3.1463849e-05
2.2678651e-05
1.5751354e-05
1.0418074e-05
6.3500566e-06
4.0362273e-06
2.4210633e-06
0.00038880267
0.00037129286
0.00035156503
0.00032994953
0.00030681191
0.00028254491
0.00025756803
0.00023230796
0.00020718423
0.00018259386
0.00015889955
0.00013643179
0.00011546524
9.621637e-05
7.8840898e-05
6.343209e-05
5.0019938e-05
3.8565586e-05
2.8985253e-05
2.1138095e-05
1.4841796e-05
9.8856033e-06
5.9984922e-06
3.8786811e-06
2.4140874e-06
0.00033263674
0.00031816759
0.00030183998
0.00028391735
0.00026469446
0.00024449215
0.00022365172
0.00020252066
0.00018144292
0.0001607454
0.00014072944
0.00012166726
0.00010378998
8.728221e-05
7.2279008e-05
5.8863441e-05
4.7065381e-05
3.686131e-05
2.8184781e-05
2.0925502e-05
1.4938387e-05
1.0059262e-05
6.0708712e-06
3.9679743e-06
2.5102791e-06
0.00028750329
0.00027554839
0.00026203708
0.00024717819
0.00023120683
0.00021438169
0.00019697478
0.00017926524
0.00016153197
0.00014404299
0.00012704918
0.00011077733
9.5421631e-05
8.1138602e-05
6.8044038e-05
5.6210913e-05
4.5668779e-05
3.640384e-05
2.8363275e-05
2.1456786e-05
1.5564791e-05
1.0556533e-05
6.2509963e-06
4.1375275e-06
2.6974952e-06
0.00025079402
0.00024091386
0.00022973026
0.00021740712
0.00020412878
0.00019010127
0.00017553918
0.00016066524
0.0001457034
0.00013087242
0.00011637957
0.00010241355
8.9137214e-05
7.6683051e-05
6.5150156e-05
5.4602414e-05
4.5067672e-05
3.653715e-05
2.8967277e-05
2.2280909e-05
1.6369689e-05
1.1104279e-05
6.2533656e-06
4.2658048e-06
3.0382598e-06
0.00022031435
0.00021214876
0.0002028882
0.00019266117
0.00018161115
0.00016989857
0.00015769503
0.00014517729
0.00013252434
0.00011991342
0.0001075129
9.5477954e-05
8.3944115e-05
7.3023142e-05
6.2799938e-05
5.3330576e-05
4.4641397e-05
3.6727859e-05
2.9555136e-05
2.3056631e-05
1.7126206e-05
1.1598902e-05
5.8692089e-06
4.3118568e-06
3.6986465e-06
0.0001942942
0.00018754738
0.00017987839
0.00017138718
0.0001621841
0.00015239713
0.00014215936
0.0001316113
0.00012089587
0.00011015471
9.9523845e-05
8.9129686e-05
7.9083761e-05
6.9479743e-05
6.0390279e-05
5.1864601e-05
4.3929226e-05
3.6584732e-05
2.9807721e-05
2.354867e-05
1.7727148e-05
1.2250418e-05
6.2135322e-06
4.7094901e-06
3.7248254e-06
0.00017129042
0.00016572597
0.00015938459
0.00015234497
0.00014468489
0.00013651451
0.00012793216
0.00011904894
0.00010997843
0.00010083349
9.1723345e-05
8.2750103e-05
7.4005188e-05
6.5566497e-05
5.7496075e-05
4.9838296e-05
4.2619048e-05
3.58455e-05
2.9506246e-05
2.3571174e-05
1.7991042e-05
1.2698843e-05
7.4501899e-06
5.0552566e-06
3.2482957e-06
0.00015015403
0.00014558388
0.000140363
0.0001345484
0.00012820458
0.00012140894
0.00011424183
0.00010678961
9.9141531e-05
9.1386887e-05
8.3612895e-05
7.5901657e-05
6.8327678e-05
6.0955578e-05
5.3838211e-05
4.7015464e-05
4.051351e-05
3.4344517e-05
2.8508264e-05
2.2993585e-05
1.7782727e-05
1.2863901e-05
8.1918848e-06
5.2873175e-06
2.8331073e-06
0.00013001192
0.00012628972
0.00012202698
0.00011726557
0.00011205485
0.00010645205
0.00010051943
9.4323466e-05
8.7933791e-05
8.142034e-05
7.4851904e-05
6.8294177e-05
6.1807493e-05
5.5445108e-05
4.9251804e-05
4.3263034e-05
3.7504436e-05
3.199197e-05
2.6733419e-05
2.173073e-05
1.6984929e-05
1.250591e-05
8.2837398e-06
5.23841e-06
2.5413679e-06
0.00011022946
0.00010724205
0.00010381311
9.997312e-05
9.5758582e-05
9.121178e-05
8.6379113e-05
8.1311404e-05
7.6062068e-05
7.0685059e-05
6.5233921e-05
5.9760582e-05
5.4313179e-05
4.8934969e-05
4.3663378e-05
3.8529183e-05
3.3556311e-05
2.8762285e-05
2.4159334e-05
1.9756333e-05
1.5562229e-05
1.1590881e-05
7.8353297e-06
4.9106378e-06
2.2550246e-06
9.0379581e-05
8.8042628e-05
8.5354988e-05
8.2338542e-05
7.9019359e-05
7.5427875e-05
7.1598109e-05
6.756777e-05
6.3376269e-05
5.9064985e-05
5.4674582e-05
5.0245161e-05
4.5814115e-05
4.1415726e-05
3.7080327e-05
3.2833696e-05
2.8696899e-05
2.4686868e-05
2.0817036e-05
1.7098553e-05
1.3542113e-05
1.0159904e-05
6.9437953e-06
4.3341014e-06
1.9286842e-06
7.0235019e-05
6.8487307e-05
6.6473965e-05
6.4210001e-05
6.1713352e-05
5.9005144e-05
5.6109513e-05
5.3052991e-05
4.9863993e-05
4.6572296e-05
4.3208219e-05
3.9801087e-05
3.6378857e-05
3.2967485e-05
2.9590365e-05
2.6267982e-05
2.3017583e-05
1.9853817e-05
1.6788787e-05
1.3832932e-05
1.0995715e-05
8.2861025e-06
5.6953411e-06
3.5495496e-06
1.5530257e-06
4.9799802e-05
4.8596287e-05
4.7207956e-05
4.5644297e-05
4.3916842e-05
4.2039292e-05
4.0027484e-05
3.7899029e-05
3.5672787e-05
3.3368792e-05
3.1007591e-05
2.8609033e-05
2.6192716e-05
2.3776664e-05
2.1377416e-05
1.9009716e-05
1.6686565e-05
1.4418804e-05
1.2215766e-05
1.008549e-05
8.0348126e-06
6.0692478e-06
4.1794336e-06
2.6060854e-06
1.1345542e-06
2.9368209e-05
2.8672863e-05
2.7869878e-05
2.6964291e-05
2.5962421e-05
2.4871842e-05
2.3701391e-05
2.2460955e-05
2.1161273e-05
1.9813705e-05
1.8429923e-05
1.7021427e-05
1.5599568e-05
1.4175035e-05
1.2757608e-05
1.1356122e-05
9.9783776e-06
8.631087e-06
7.3200738e-06
6.0502127e-06
4.8252674e-06
3.6474339e-06
2.5066973e-06
1.5672162e-06
6.888193e-07
9.4098859e-06
9.1897534e-06
8.9352973e-06
8.6480056e-06
8.3298041e-06
7.983018e-06
7.6103846e-06
7.2149944e-06
6.8002493e-06
6.3697398e-06
5.9271548e-06
5.476208e-06
5.0204441e-06
4.5634065e-06
4.1082986e-06
3.6579275e-06
3.2148605e-06
2.7813398e-06
2.3593061e-06
1.9503346e-06
1.5554564e-06
1.1750123e-06
7.9658626e-07
5.0059361e-07
2.3288617e-07
)
;

boundaryField
{
    Walls
    {
        type            zeroGradient;
    }
    Inlet
    {
        type            fixedValue;
        value           uniform 500;
    }
    Outlet
    {
        type            fixedValue;
        value           uniform 0;
    }
    Front
    {
        type            wedge;
    }
    Back
    {
        type            wedge;
    }
    defaultFaces
    {
        type            empty;
    }
}


// ************************************************************************* //
