/*--------------------------------*- C++ -*----------------------------------*\
| =========                 |                                                 |
| \\      /  F ield         | OpenFOAM: The Open Source CFD Toolbox           |
|  \\    /   O peration     | Version:  4.0                                   |
|   \\  /    A nd           | Web:      www.OpenFOAM.org                      |
|    \\/     M anipulation  |                                                 |
\*---------------------------------------------------------------------------*/
FoamFile
{
    version     2.0;
    format      ascii;
    class       surfaceScalarField;
    location    "0.21";
    object      phi;
}
// * * * * * * * * * * * * * * * * * * * * * * * * * * * * * * * * * * * * * //

dimensions      [0 3 -1 0 0 0 0];

internalField   nonuniform List<scalar> 
3364
(
3.1299487e-11
1.594958e-08
-4.4370101e-10
4.8853681e-08
8.7977852e-08
9.5575787e-12
1.5939999e-08
-1.9694578e-09
5.0832732e-08
8.6008404e-08
7.2403449e-11
1.5867563e-08
-1.9815847e-09
5.2886757e-08
8.4026818e-08
-2.3869412e-10
1.6106219e-08
2.7973468e-10
5.236831e-08
8.4306525e-08
-1.0747543e-10
1.6213651e-08
8.0922401e-10
5.1451527e-08
8.5115707e-08
2.7638374e-10
1.5937227e-08
1.0539871e-09
5.067384e-08
8.616967e-08
5.030144e-11
1.588688e-08
1.898945e-09
4.882517e-08
8.80686e-08
-2.4263738e-10
1.6129486e-08
8.5638257e-10
4.7726136e-08
8.8924957e-08
-1.8746312e-10
1.6316934e-08
-1.4941549e-09
4.9032811e-08
8.7430772e-08
-2.477825e-10
1.6564679e-08
-2.4288861e-09
5.1213878e-08
8.5001833e-08
-6.7712432e-11
1.6632349e-08
-5.3483357e-10
5.1680921e-08
8.4466933e-08
3.4806173e-10
1.6284259e-08
7.2460717e-10
5.1304306e-08
8.5191483e-08
-5.0764934e-11
1.6335005e-08
-2.023826e-10
5.1455901e-08
8.4989065e-08
-5.4612532e-10
1.6881105e-08
-9.4808866e-10
5.1857858e-08
8.4040951e-08
-1.1092346e-10
1.6991973e-08
-6.1920509e-11
5.1808845e-08
8.3979009e-08
5.1557552e-10
1.6476349e-08
1.1582463e-09
5.1166124e-08
8.5137233e-08
2.5906046e-10
1.6217254e-08
4.0088566e-10
5.1024247e-08
8.5538059e-08
-4.015331e-10
1.6618737e-08
-1.4329918e-10
5.076595e-08
8.5394705e-08
-3.9675734e-10
1.7015453e-08
-8.73573e-10
5.1242711e-08
8.4521105e-08
-1.4898998e-10
1.7164393e-08
-4.9822408e-10
5.1591915e-08
8.4022854e-08
-2.4501176e-10
1.7409351e-08
6.9876278e-10
5.0648093e-08
8.472158e-08
-1.810476e-10
1.7590394e-08
-6.6149783e-10
5.1128494e-08
8.4060029e-08
-2.5470134e-11
1.7615868e-08
-1.0352468e-09
5.2138263e-08
8.3024745e-08
-2.4601484e-10
1.7861838e-08
1.2761759e-09
5.0616043e-08
8.4300896e-08
1.6967879e-10
1.7692078e-08
1.6670795e-09
4.9118598e-08
8.5967942e-08
5.2065846e-10
1.717138e-08
-4.1764149e-10
5.0056877e-08
8.555027e-08
1.8338308e-10
1.6987963e-08
-2.7940485e-10
5.0519627e-08
8.5270822e-08
-6.0505671e-10
1.7593007e-08
1.6891325e-10
4.9745625e-08
8.5439703e-08
-1.5132298e-10
1.774436e-08
-5.866695e-10
5.0181045e-08
8.4853034e-08
1.884223e-09
1.5860329e-08
4.1985007e-09
4.7866888e-08
8.9051527e-08
1.1512843e-08
4.3468519e-09
4.8708023e-08
1.0669841e-08
1.0750984e-08
1.2700599e-07
4.8097704e-09
-4.6338083e-10
1.6822221e-08
-1.3440838e-09
-1.3691699e-09
2.8940523e-08
-3.8222021e-10
-8.1125046e-11
-1.4641809e-09
-2.620486e-10
-3.3108339e-10
-2.5021585e-09
-9.1840404e-11
1.0730577e-11
-3.7028747e-10
1.6434937e-11
1.268394e-11
-7.1401363e-10
-2.6439834e-12
1.3376271e-11
-2.2910131e-11
3.6705792e-11
5.7306292e-11
-6.7526131e-11
3.2183558e-12
1.0158215e-11
9.3512106e-12
3.0573709e-11
5.1695659e-11
1.4962111e-11
2.2274815e-12
7.9305004e-12
8.9254133e-12
2.3875436e-11
3.9382559e-11
2.1237862e-11
1.901391e-12
6.0291773e-12
8.1848912e-12
1.7591709e-11
2.7891148e-11
1.9676166e-11
1.6932642e-12
4.336046e-12
6.4678933e-12
1.2817133e-11
2.0432024e-11
1.3927174e-11
8.5979029e-13
3.4764014e-12
3.3422155e-12
1.0334882e-11
1.6729656e-11
7.044863e-12
3.3844428e-13
3.1380913e-12
1.3262755e-12
9.3472307e-12
1.5141675e-11
2.9145291e-12
1.9041406e-13
2.947785e-12
7.5992404e-13
8.7778596e-12
1.4109394e-11
1.7923997e-12
2.5099242e-13
2.6968736e-12
1.0200942e-12
8.0088573e-12
1.2939625e-11
2.1899657e-12
2.9117633e-13
2.4057571e-12
1.1394449e-12
7.1606589e-12
1.1610844e-11
2.4682835e-12
2.906516e-13
2.1151493e-12
1.1498112e-12
6.3015522e-12
1.0233726e-11
2.5269693e-12
2.6148736e-13
1.8536939e-12
1.0389384e-12
5.5241426e-12
8.9638585e-12
2.3088373e-12
2.243501e-13
1.6293666e-12
8.8955416e-13
4.8589701e-12
7.9002795e-12
1.9531599e-12
1.9233709e-13
1.4370455e-12
7.5998037e-13
4.2913492e-12
7.0621113e-12
1.5981695e-12
1.6035691e-13
1.2766997e-12
6.3445293e-13
3.8172681e-12
6.2718279e-12
1.4247497e-12
1.4307993e-13
1.1336272e-12
5.7032564e-13
3.3900306e-12
5.5711004e-12
1.2710591e-12
1.2999284e-13
1.0036389e-12
5.1762098e-13
3.0024056e-12
4.938973e-12
1.1497477e-12
1.1890255e-13
8.8473888e-13
4.7375573e-13
2.6475514e-12
4.3583212e-12
1.0544015e-12
1.0901624e-13
7.7572359e-13
4.3484951e-13
2.3217142e-12
3.8228692e-12
9.7029142e-13
9.9929995e-14
6.757934e-13
3.9857419e-13
2.023064e-12
3.3310959e-12
8.9033459e-13
9.0762036e-14
5.8503038e-13
3.6301379e-13
1.7508048e-12
2.8829354e-12
8.1115974e-13
8.2123015e-14
5.0290582e-13
3.2774351e-13
1.505176e-12
2.4785798e-12
7.3208346e-13
7.3410459e-14
4.2949347e-13
2.9350021e-13
1.2850776e-12
2.115301e-12
6.567632e-13
6.5942562e-14
3.635488e-13
2.6266382e-13
1.0883476e-12
1.7916846e-12
5.8626452e-13
5.8514063e-14
3.0503252e-13
2.3290822e-13
9.1394479e-13
1.5050279e-12
5.1954957e-13
5.0521193e-14
2.545091e-13
2.0260196e-13
7.6185566e-13
1.2537706e-12
4.5384467e-13
4.3880687e-14
2.1062626e-13
1.7554557e-13
6.3018288e-13
1.0359778e-12
3.9332471e-13
3.7811572e-14
1.7281263e-13
1.5106074e-13
5.1692636e-13
8.4906401e-13
3.3796194e-13
3.2140018e-14
1.4067069e-13
1.2841083e-13
4.2064879e-13
6.9047627e-13
2.8698704e-13
2.6885841e-14
1.137831e-13
1.0746966e-13
3.4005884e-13
5.5779727e-13
2.4013826e-13
2.2092659e-14
9.1688865e-14
8.8320237e-14
2.7382578e-13
4.4875726e-13
1.9735099e-13
1.780622e-14
7.3881254e-14
7.1020718e-14
2.2060645e-13
3.6129917e-13
1.5847075e-13
1.4064489e-14
5.9815569e-14
5.608719e-14
1.7857958e-13
2.9243387e-13
1.2494561e-13
1.0871324e-14
4.8943233e-14
4.3359234e-14
1.4608814e-13
2.3935546e-13
9.643187e-14
8.2427787e-15
4.0699622e-14
3.2925274e-14
1.2140273e-13
1.9872339e-13
7.3552589e-14
6.0257587e-15
3.4673196e-14
2.4042432e-14
1.0338371e-13
1.6917925e-13
5.3582766e-14
4.1697622e-15
3.0502923e-14
1.6588645e-14
9.0962998e-14
1.4897952e-13
3.6785435e-14
2.7190809e-15
2.7783469e-14
1.0793267e-14
8.2887451e-14
1.3594693e-13
2.3823675e-14
1.6059593e-15
2.6177264e-14
6.3471636e-15
7.8145298e-14
1.2839434e-13
1.3898261e-14
8.142035e-16
2.5362922e-14
3.1724259e-15
7.5786489e-14
1.2470703e-13
6.8588451e-15
3.0066631e-16
2.5062212e-14
1.1512405e-15
7.4935632e-14
1.2346844e-13
2.3894287e-15
2.3450774e-17
2.5038792e-14
1.0824271e-16
7.4850806e-14
1.2345255e-13
1.2415079e-16
-4.8669596e-17
2.5087546e-14
-8.3882178e-17
7.4886164e-14
1.2357809e-13
-2.0911648e-16
6.1227233e-17
2.5026435e-14
3.7829047e-16
7.4569355e-14
1.2310372e-13
8.5316639e-16
3.2360049e-16
2.4702963e-14
1.1364054e-15
7.3756858e-14
1.2183054e-13
2.4101843e-15
4.1091948e-16
1.4511551e-15
3.1150862e-15
1.3640724e-07
-9.4065252e-09
-8.6068527e-09
1.4500784e-07
2.0968402e-08
-1.4355862e-09
-1.3318007e-09
1.3692829e-08
-3.5122348e-09
-4.2537151e-10
-5.3954139e-10
-4.3043473e-09
-1.1136105e-09
-2.5722585e-11
-7.8583943e-11
-1.574504e-09
-1.5893686e-10
6.5696207e-11
6.3526723e-11
-3.0103191e-10
1.0305379e-11
7.035448e-11
8.5293064e-11
-1.1456511e-11
3.6915599e-11
5.4677235e-11
6.8704517e-11
5.3505655e-11
3.6944308e-11
3.7409346e-11
4.6421661e-11
5.9227765e-11
2.4381043e-11
2.6955847e-11
3.2599029e-11
3.8204243e-11
1.206589e-11
2.193527e-11
2.6472646e-11
1.8192903e-11
4.8288146e-12
2.0021391e-11
2.3931731e-11
7.3702758e-12
3.0555405e-12
1.8758517e-11
2.2474585e-11
4.5130331e-12
3.643801e-12
1.7304809e-11
2.0901851e-11
5.2167008e-12
4.3136744e-12
1.5459462e-11
1.9010114e-11
6.2054569e-12
4.3116156e-12
1.3674831e-11
1.7085013e-11
6.2367153e-12
3.8747536e-12
1.2108926e-11
1.5175262e-11
5.784495e-12
3.2386176e-12
1.0823482e-11
1.3481218e-11
4.9326547e-12
2.7718265e-12
9.6498368e-12
1.1983722e-11
4.2693186e-12
2.4841261e-12
8.5904661e-12
1.0716495e-11
3.7513476e-12
2.2179711e-12
7.6435531e-12
9.5807126e-12
3.3537433e-12
2.013064e-12
6.7802295e-12
8.5094851e-12
3.0842752e-12
1.8480875e-12
5.9865304e-12
7.5112834e-12
2.8462672e-12
1.7042559e-12
5.2525482e-12
6.5870473e-12
2.6284657e-12
1.5658359e-12
4.577026e-12
5.7391052e-12
2.4137486e-12
1.4272667e-12
3.9608964e-12
4.9672466e-12
2.1990942e-12
1.287785e-12
3.4051714e-12
4.2688486e-12
1.9861514e-12
1.157218e-12
2.904693e-12
3.6385735e-12
1.7874617e-12
1.0321247e-12
2.4588099e-12
3.0769876e-12
1.5936801e-12
9.138232e-13
2.0645141e-12
2.5818967e-12
1.408885e-12
7.9837424e-13
1.7199636e-12
2.1505071e-12
1.2297366e-12
6.940129e-13
1.4192559e-12
1.7720004e-12
1.0724943e-12
5.9519385e-13
1.1620061e-12
1.449026e-12
9.1814516e-13
5.0476157e-13
9.4421533e-13
1.1761213e-12
7.776454e-13
4.2230508e-13
7.6203393e-13
9.4794102e-13
6.5046678e-13
3.4716428e-13
6.1220779e-13
7.5981217e-13
5.352768e-13
2.785714e-13
4.9209601e-13
6.108355e-13
4.2753398e-13
2.1866651e-13
3.9836564e-13
4.9335402e-13
3.3613602e-13
1.6841929e-13
3.2637027e-13
4.0362797e-13
2.5813529e-13
1.2923305e-13
2.7068328e-13
3.3482948e-13
1.9802325e-13
9.3852194e-14
2.3040862e-13
2.8594077e-13
1.4273428e-13
6.4451313e-14
2.027387e-13
2.5282799e-13
9.7558976e-14
4.0721028e-14
1.8583837e-13
2.319446e-13
6.1600652e-14
2.3619517e-14
1.7611508e-13
2.2028053e-13
3.5281022e-14
1.1508853e-14
1.7146386e-13
2.1513038e-13
1.6657465e-14
3.7524289e-15
1.7010035e-13
2.1403527e-13
4.8468974e-15
-1.4513956e-16
1.7036969e-13
2.1488286e-13
-9.9264801e-16
-5.9420874e-16
1.7075525e-13
2.1574399e-13
-1.4547403e-15
1.3596826e-15
1.7024947e-13
2.1538185e-13
1.722782e-15
4.0673091e-15
1.6859324e-13
2.1345388e-13
5.9964618e-15
5.3724748e-15
8.1771299e-15
2.7005701e-12
-2.7039537e-12
5.4777144e-12
-2.7840157e-12
7.0917578e-12
-1.6227748e-12
6.2273065e-12
8.5552661e-13
1.3034313e-12
4.9158049e-12
-9.0929062e-12
1.0389862e-11
-2.6308559e-11
1.7212147e-11
-5.1228067e-11
2.4918071e-11
-8.3579862e-11
3.2351824e-11
-1.2184461e-10
3.8265776e-11
-1.6436123e-10
4.2518302e-11
-2.0931016e-10
4.495101e-11
-2.5508835e-10
4.578047e-11
-3.0041513e-10
4.5329135e-11
-3.439029e-10
4.3490067e-11
-3.8782936e-10
4.3928621e-11
-4.2989062e-10
4.2063186e-11
-4.6877797e-10
3.8889007e-11
-5.0378346e-10
3.5006821e-11
-5.3433583e-10
3.0553368e-11
-5.5994915e-10
2.5613965e-11
-5.8030508e-10
2.035627e-11
-5.9512239e-10
1.4817378e-11
-6.0396165e-10
8.8391658e-12
2.381637e-12
-3.4089997e-11
3.1389702e-11
-7.7210095e-11
4.0341891e-11
-1.3159825e-10
5.2772192e-11
-1.997805e-10
6.9044943e-11
-2.8399768e-10
8.9140208e-11
-3.8569728e-10
1.1209649e-10
-5.0596849e-10
1.3749002e-10
-6.4491029e-10
1.6386603e-10
-7.9948028e-10
1.8692737e-10
-9.6669311e-10
2.0548354e-10
-1.1429301e-09
2.1875961e-10
-1.3252107e-09
2.2723529e-10
-1.5111331e-09
2.3170602e-10
-1.6989409e-09
2.3313948e-10
-1.8872497e-09
2.3180089e-10
-2.0723382e-09
2.2901871e-10
-2.2632309e-09
2.3295695e-10
-2.4490272e-09
2.2468598e-10
-2.6185814e-09
2.0456127e-10
-2.7667961e-09
1.7876785e-10
-2.8899633e-09
1.487806e-10
-2.9853867e-09
1.1577883e-10
-3.0507386e-09
8.0168156e-11
-3.0821121e-09
4.0211411e-11
1.0417638e-11
-1.1254673e-10
1.4394415e-10
-2.5014219e-10
1.7794951e-10
-4.1820429e-10
2.2084846e-10
-6.2228715e-10
2.7314233e-10
-8.6555262e-10
3.3241972e-10
-1.1491857e-09
3.9574264e-10
-1.4740585e-09
4.6237457e-10
-1.8998414e-09
5.8965916e-10
-2.3608514e-09
6.4794607e-10
-2.8305825e-09
6.7522172e-10
-3.2950285e-09
6.8321127e-10
-3.7459948e-09
6.7820594e-10
-4.1775747e-09
6.6328909e-10
-4.5840023e-09
6.3956904e-10
-4.9592615e-09
6.0706115e-10
-5.2977284e-09
5.6748579e-10
-5.5866749e-09
5.2190278e-10
-5.8329188e-09
4.7092864e-10
-6.0439641e-09
4.1560461e-10
-6.2222199e-09
3.570212e-10
-6.3694564e-09
2.9601413e-10
-6.4870219e-09
2.3334097e-10
-6.5751613e-09
1.6830376e-10
-6.6361868e-09
1.01233e-10
3.3529472e-11
-3.5413703e-10
4.9809642e-10
-7.6553626e-10
5.8937174e-10
-1.2551368e-09
7.1047404e-10
-2.0584032e-09
1.0764312e-09
-2.9279764e-09
1.2020117e-09
-3.7550813e-09
1.2228625e-09
-4.4900951e-09
1.1973999e-09
-5.041188e-09
1.1407608e-09
-5.4553614e-09
1.062126e-09
-5.7492127e-09
9.6907777e-10
-5.9384431e-09
8.7244486e-10
-6.0360158e-09
7.7578075e-10
-6.0526637e-09
6.7993807e-10
-5.9896708e-09
5.7657648e-10
-5.8623271e-09
4.7971721e-10
-5.6875266e-09
3.9268463e-10
-5.482226e-09
3.1660105e-10
-5.2631347e-09
2.5183591e-10
-5.0460319e-09
1.9850012e-10
-4.8445711e-09
1.5555856e-10
-4.6699364e-09
1.2137744e-10
-4.5313434e-09
9.4745698e-11
-4.433336e-09
7.0294015e-11
-4.3795514e-09
4.7445906e-11
2.4816142e-11
-2.1813133e-09
2.6794342e-09
-3.9342572e-09
2.3423427e-09
-5.4558442e-09
2.2320869e-09
-6.1523599e-09
1.7729646e-09
-6.241543e-09
1.2912088e-09
-5.7772742e-09
7.5860495e-10
-5.0182261e-09
4.3836114e-10
-4.0312402e-09
1.5378293e-10
-2.8819954e-09
-8.7111774e-11
-1.6283075e-09
-2.8460416e-10
-3.863928e-10
-3.6946552e-10
8.4672138e-10
-4.5733386e-10
2.1279771e-09
-6.0131825e-10
3.5349179e-09
-8.3036373e-10
4.910787e-09
-8.9614957e-10
6.2143592e-09
-9.1088357e-10
7.4228269e-09
-8.9186086e-10
8.5214958e-09
-8.4682548e-10
9.500441e-09
-7.8043603e-10
1.0351527e-08
-6.9551733e-10
1.1067139e-08
-5.942218e-10
1.164018e-08
-4.7828226e-10
1.2060684e-08
-3.5019544e-10
1.2320512e-08
-2.1236629e-10
-6.3463492e-11
1.0192121e-09
1.660307e-09
4.1894703e-09
-8.2786388e-10
7.8860631e-09
-1.4644343e-09
1.1570244e-08
-1.9111847e-09
1.5302274e-08
-2.4407957e-09
1.8954569e-08
-2.8936615e-09
2.2550161e-08
-3.1571978e-09
2.5928808e-08
-3.2248261e-09
2.9000015e-08
-3.158276e-09
3.1736922e-08
-3.021464e-09
3.4211211e-08
-2.8437047e-09
3.6386151e-08
-2.6322212e-09
3.8198234e-08
-2.413346e-09
3.9574274e-08
-2.2063481e-09
4.0669996e-08
-1.991816e-09
4.1536967e-08
-1.777798e-09
4.2215294e-08
-1.570132e-09
4.273856e-08
-1.3700361e-09
4.3135812e-08
-1.177632e-09
4.3432396e-08
-9.9204578e-10
4.3649794e-08
-8.1156516e-10
4.3805383e-08
-6.3381653e-10
4.3911328e-08
-4.5608679e-10
4.3974957e-08
-2.7594087e-10
-8.7513057e-11
1.4901335e-07
-2.3439858e-09
1.4767218e-07
5.1421963e-10
1.451389e-07
1.0696357e-09
1.4168582e-07
1.5425888e-09
1.3714004e-07
2.1055932e-09
1.3166474e-07
2.5821609e-09
1.2563383e-07
2.8741673e-09
1.1943936e-07
2.9700254e-09
1.1334978e-07
2.9316295e-09
1.0751762e-07
2.8109896e-09
1.0201207e-07
2.6620889e-09
9.6883206e-08
2.496869e-09
9.2162165e-08
2.3078935e-09
8.7848787e-08
2.1072078e-09
8.3953593e-08
1.9035393e-09
8.0474495e-08
1.7014458e-09
7.7400537e-08
1.5039595e-09
7.4718074e-08
1.3125501e-09
7.2412759e-08
1.1277972e-09
7.0471523e-08
9.4929629e-10
6.8884202e-08
7.7585486e-10
6.7644802e-08
6.0567736e-10
6.6752856e-08
4.3594767e-10
6.621292e-08
2.6407987e-10
8.4245963e-11
1.2997694e-08
-1.6487299e-09
1.5319689e-08
-1.8076629e-09
1.7965225e-08
-1.5757869e-09
2.0713323e-08
-1.2053985e-09
2.355398e-08
-7.3495759e-10
2.6486903e-08
-3.5066133e-10
2.9423928e-08
-6.2764791e-11
3.2205992e-08
1.8805024e-10
3.479165e-08
3.4605906e-10
3.7150674e-08
4.5205301e-10
3.9241402e-08
5.7144764e-10
4.0885247e-08
8.5310937e-10
4.2189857e-08
1.003367e-09
4.3228709e-08
1.068437e-09
4.4043984e-08
1.0883434e-09
4.4671832e-08
1.0736742e-09
4.5145665e-08
1.0302014e-09
4.5495218e-08
9.6306926e-10
4.5746547e-08
8.7653833e-10
4.5922503e-08
7.7340828e-10
4.6042559e-08
6.5586441e-10
4.6122747e-08
5.2555371e-10
4.6174451e-08
3.8430514e-10
4.6204977e-08
2.3361345e-10
7.0907886e-11
-5.1548648e-09
-7.9822448e-10
-5.9047168e-09
-1.0578219e-09
-6.2986605e-09
-1.1818544e-09
-6.2621515e-09
-1.2419181e-09
-5.7576348e-09
-1.2394831e-09
-4.9217199e-09
-1.1865826e-09
-3.8753296e-09
-1.1091588e-09
-2.6720476e-09
-1.0152325e-09
-1.4148006e-09
-9.1118594e-10
-1.5635149e-10
-8.0639161e-10
1.1164589e-09
-7.0135604e-10
2.56277e-09
-5.9319261e-10
4.0544347e-09
-4.8828626e-10
5.5150749e-09
-3.9218972e-10
6.9095966e-09
-3.0616291e-10
8.2130885e-09
-2.2980063e-10
9.4194218e-09
-1.7611356e-10
1.051968e-08
-1.3717002e-10
1.150134e-08
-1.0510065e-10
1.235453e-08
-7.9760887e-11
1.3070902e-08
-6.0486449e-11
1.3642683e-08
-4.6207011e-11
1.4062611e-08
-3.5601728e-11
1.4322815e-08
-2.6569514e-11
-1.6284529e-11
-2.2196241e-09
-1.5310679e-10
-3.0395634e-09
-2.3788615e-10
-3.8918373e-09
-3.2958657e-10
-4.7180911e-09
-4.156727e-10
-5.4579686e-09
-4.9961564e-10
-6.006869e-09
-6.3769348e-10
-6.4222507e-09
-6.9378898e-10
-6.7157409e-09
-7.2175429e-10
-6.8955587e-09
-7.3138013e-10
-6.9740666e-09
-7.2789537e-10
-6.9605729e-09
-7.1486088e-10
-6.8589625e-09
-6.9481361e-10
-6.6802093e-09
-6.670492e-10
-6.4400889e-09
-6.3231919e-10
-6.1544859e-09
-5.91774e-10
-5.83728e-09
-5.4701393e-10
-5.5136483e-09
-4.9975188e-10
-5.200691e-09
-4.5013324e-10
-4.9080349e-09
-3.9776209e-10
-4.6450259e-09
-3.4277454e-10
-4.4202261e-09
-2.8529054e-10
-4.2410766e-09
-2.2536042e-10
-4.113643e-09
-1.6303902e-10
-4.0416757e-09
-9.8540375e-11
-3.3060019e-11
-5.0166186e-10
4.7525274e-11
-7.5740801e-10
1.7861927e-11
-1.0607677e-09
-2.6225724e-11
-1.4106257e-09
-6.5814312e-11
-1.7991506e-09
-1.1109143e-10
-2.2792168e-09
-1.5762911e-10
-2.7754208e-09
-1.9758804e-10
-3.26927e-09
-2.2790923e-10
-3.7524319e-09
-2.4822342e-10
-4.2184915e-09
-2.6184183e-10
-4.6630974e-09
-2.7026173e-10
-5.0817025e-09
-2.7621599e-10
-5.4668237e-09
-2.8193587e-10
-5.7939017e-09
-3.0524953e-10
-6.0791659e-09
-3.0651829e-10
-6.3296148e-09
-2.9657379e-10
-6.5495132e-09
-2.7986228e-10
-6.7416194e-09
-2.5803584e-10
-6.9076919e-09
-2.3169845e-10
-7.0491877e-09
-2.0128759e-10
-7.1671927e-09
-1.6729421e-10
-7.2622872e-09
-1.3027464e-10
-7.3344252e-09
-9.0909589e-11
-7.3833468e-09
-4.9627312e-11
-1.123448e-11
-5.6656208e-11
9.2726318e-11
-1.3071693e-10
9.1924079e-11
-2.3863855e-10
8.1697224e-11
-3.689469e-10
6.4495098e-11
-5.2877632e-10
4.8738682e-11
-7.1347794e-10
2.7072781e-11
-9.1408936e-10
3.0231609e-12
-1.1228988e-09
-1.9100474e-11
-1.3375422e-09
-3.3581171e-11
-1.5539552e-09
-4.5430362e-11
-1.7691282e-09
-5.5090684e-11
-1.9834534e-09
-6.189317e-11
-2.1995212e-09
-6.5870791e-11
-2.4370953e-09
-6.7678414e-11
-2.6760372e-09
-6.7579745e-11
-2.9068722e-09
-6.574251e-11
-3.1242539e-09
-6.2484539e-11
-3.324335e-09
-5.7959039e-11
-3.5036816e-09
-5.2356246e-11
-3.6591684e-09
-4.5805326e-11
-3.7880298e-09
-3.8437384e-11
-3.8879115e-09
-3.0397633e-11
-3.9569957e-09
-2.1830118e-11
-3.9938235e-09
-1.2804146e-11
-3.5378531e-12
6.7624748e-11
7.8607931e-11
7.3548821e-11
8.6000686e-11
6.6225031e-11
8.9021612e-11
4.3188369e-11
8.7532248e-11
1.0242717e-11
8.1684696e-11
-3.6170547e-11
7.3486273e-11
-9.3991143e-11
6.0843842e-11
-1.5785757e-10
4.4765901e-11
-2.2590826e-10
3.4469326e-11
-2.9604245e-10
2.4703503e-11
-3.674777e-10
1.6344119e-11
-4.3904061e-10
9.6691855e-12
-5.0972917e-10
4.8170994e-12
-5.7855538e-10
1.1470359e-12
-6.4486043e-10
-1.2755582e-12
-7.0783439e-10
-2.7694982e-12
-7.6693174e-10
-3.388211e-12
-8.2135378e-10
-3.5380852e-12
-8.7028006e-10
-3.4311077e-12
-9.1291803e-10
-3.1685327e-12
-9.4853509e-10
-2.8215254e-12
-9.7649994e-10
-2.4339806e-12
-9.9633205e-10
-1.9991811e-12
-1.0077397e-09
-1.3976754e-12
-3.8546563e-13
8.321815e-11
5.4618102e-11
1.0887713e-10
6.0342273e-11
1.3104194e-10
6.6857341e-11
1.4853751e-10
7.0037181e-11
1.6003185e-10
7.0190828e-11
1.6618713e-10
6.7331421e-11
1.6738167e-10
5.9649697e-11
1.6102115e-10
5.1126772e-11
1.525506e-10
4.2940199e-11
1.4236713e-10
3.4887259e-11
1.3200432e-10
2.6707194e-11
1.217789e-10
1.9894837e-11
1.1218585e-10
1.4410364e-11
1.0443273e-10
8.9003598e-12
9.862789e-11
4.529469e-12
9.4681952e-11
1.1766211e-12
9.2293767e-11
-9.998474e-13
9.1051482e-11
-2.2956224e-12
9.063998e-11
-3.0194272e-12
9.0645414e-11
-3.1737871e-12
9.0875821e-11
-3.0517508e-12
9.1066451e-11
-2.6244262e-12
9.1041687e-11
-1.9742322e-12
9.0910899e-11
-1.2667061e-12
-5.8479889e-13
5.5619087e-11
3.7203664e-11
7.4141942e-11
4.1819861e-11
9.4662746e-11
4.6336993e-11
1.1499968e-10
4.9700706e-11
1.3358936e-10
5.1601604e-11
1.4978847e-10
5.1132759e-11
1.6127339e-10
4.816521e-11
1.6872467e-10
4.3675918e-11
1.7304819e-10
3.8617094e-11
1.7541798e-10
3.2517869e-11
1.7576753e-10
2.6358031e-11
1.7505773e-10
2.0605015e-11
1.7500726e-10
1.4461193e-11
1.7478578e-10
9.1221905e-12
1.7492072e-10
4.3948807e-12
1.7534225e-10
7.5542725e-13
1.762893e-10
-1.9465622e-12
1.777316e-10
-3.7375893e-12
1.7962943e-10
-4.9169327e-12
1.8167073e-10
-5.2147721e-12
1.8359731e-10
-4.9780181e-12
1.8527812e-10
-4.3049414e-12
1.8659173e-10
-3.2875479e-12
1.8742056e-10
-2.095262e-12
-7.815623e-13
2.5779887e-11
2.9616879e-11
3.4837677e-11
3.2762314e-11
4.4811732e-11
3.6363202e-11
5.5772905e-11
3.8739804e-11
6.6724624e-11
4.0650159e-11
7.6331757e-11
4.1525899e-11
8.3353325e-11
4.114391e-11
8.7627519e-11
3.9401984e-11
8.8859975e-11
3.7384885e-11
8.7446814e-11
3.3931263e-11
8.464952e-11
2.9155541e-11
8.0322146e-11
2.4932589e-11
7.4448336e-11
2.0335186e-11
6.8136407e-11
1.5434287e-11
6.1970332e-11
1.0561107e-11
5.5835667e-11
6.8902292e-12
5.0043768e-11
3.8454599e-12
4.495286e-11
1.3534294e-12
4.027387e-11
-2.3784318e-13
3.6440164e-11
-1.3809781e-12
3.3415376e-11
-1.9531521e-12
3.1185657e-11
-2.075155e-12
2.974579e-11
-1.8476248e-12
2.8968637e-11
-1.3180632e-12
-5.3887337e-13
9.9423019e-12
2.7044853e-11
1.2752515e-11
2.9952158e-11
1.6345503e-11
3.2770297e-11
1.989781e-11
3.5187592e-11
2.3611752e-11
3.6936315e-11
2.6704163e-11
3.8433585e-11
2.8582094e-11
3.9266072e-11
2.8727196e-11
3.9256966e-11
2.767386e-11
3.8438294e-11
2.4999997e-11
3.6605186e-11
1.9763449e-11
3.4392134e-11
1.3025059e-11
3.1671007e-11
5.9939108e-12
2.7366345e-11
-2.5201585e-12
2.3948351e-11
-1.1755428e-11
1.9796356e-11
-2.0996501e-11
1.6131267e-11
-2.9962884e-11
1.2811794e-11
-3.8271852e-11
9.6623369e-12
-4.5793531e-11
7.2837633e-12
-5.2525353e-11
5.3507633e-12
-5.8287118e-11
3.8085226e-12
-6.3009491e-11
2.6471202e-12
-6.6674449e-11
1.8172289e-12
-6.940393e-11
1.4113105e-12
5.7334458e-13
5.5818654e-12
2.5975854e-11
6.8576456e-12
2.8676286e-11
8.4964596e-12
3.1131435e-11
9.9200409e-12
3.3763986e-11
1.1196343e-11
3.566e-11
1.2319207e-11
3.7310711e-11
1.2816365e-11
3.8768903e-11
1.2506431e-11
3.9566883e-11
1.1237951e-11
3.970675e-11
8.7345959e-12
3.9108509e-11
5.2043587e-12
3.7922328e-11
8.9019118e-13
3.5985121e-11
-5.0131486e-12
3.326962e-11
-1.1438011e-11
3.0373137e-11
-1.9126593e-11
2.7484849e-11
-2.6720514e-11
2.3725088e-11
-3.4175652e-11
2.0266823e-11
-4.1552412e-11
1.7038979e-11
-4.8606076e-11
1.4337302e-11
-5.4877991e-11
1.1622548e-11
-6.0140091e-11
9.0704866e-12
-6.4320885e-11
6.8277749e-12
-6.7299606e-11
4.7958081e-12
-6.8731425e-11
2.8429909e-12
9.0441589e-13
6.7862535e-12
2.4406064e-11
8.2957608e-12
2.7166587e-11
9.8739532e-12
2.9553101e-11
1.1843489e-11
3.1794345e-11
1.3630603e-11
3.3872802e-11
1.5333192e-11
3.5608051e-11
1.6713993e-11
3.7388038e-11
1.7702464e-11
3.8578349e-11
1.8158842e-11
3.925031e-11
1.7854951e-11
3.9412335e-11
1.6830532e-11
3.8946677e-11
1.4996621e-11
3.7818957e-11
1.2148152e-11
3.6118009e-11
8.6040023e-12
3.39172e-11
4.7327037e-12
3.1356056e-11
9.5019071e-14
2.8362675e-11
-4.8400547e-12
2.5201794e-11
-9.8223005e-12
2.2021117e-11
-1.4418198e-11
1.8933089e-11
-1.8735666e-11
1.5939903e-11
-2.2507874e-11
1.284258e-11
-2.5612422e-11
9.9322068e-12
-2.7936336e-11
7.119607e-12
-2.9392899e-11
4.2994433e-12
1.3664471e-12
8.3428392e-12
2.2268495e-11
1.0542546e-11
2.4966692e-11
1.2801531e-11
2.7293944e-11
1.5266327e-11
2.9329402e-11
1.7894325e-11
3.1244681e-11
2.0461739e-11
3.3040536e-11
2.3184925e-11
3.4664763e-11
2.5690267e-11
3.6072929e-11
2.7773883e-11
3.716662e-11
2.9460718e-11
3.772543e-11
3.0644758e-11
3.7762569e-11
3.1197897e-11
3.7265751e-11
3.1052615e-11
3.6263222e-11
3.0248878e-11
3.4720868e-11
2.8919159e-11
3.2685702e-11
2.7004078e-11
3.0277682e-11
2.4652103e-11
2.7553693e-11
2.2062475e-11
2.4610667e-11
1.9466692e-11
2.1528793e-11
1.7037891e-11
1.8368624e-11
1.4754002e-11
1.5126387e-11
1.2817899e-11
1.186823e-11
1.1277927e-11
8.6594995e-12
1.0270623e-11
5.3066734e-12
1.4636061e-12
8.684865e-12
1.9820198e-11
1.1121987e-11
2.2529422e-11
1.3734176e-11
2.468161e-11
1.6488819e-11
2.6574621e-11
1.9409777e-11
2.83236e-11
2.2479595e-11
2.9970609e-11
2.5611527e-11
3.1532735e-11
2.8690991e-11
3.2993383e-11
3.1741448e-11
3.4116089e-11
3.4547412e-11
3.4919401e-11
3.704469e-11
3.5265231e-11
3.9069337e-11
3.5241047e-11
4.0639608e-11
3.4692896e-11
4.1695784e-11
3.3664638e-11
4.2215176e-11
3.2166256e-11
4.2247383e-11
3.0245422e-11
4.1847446e-11
2.7953575e-11
4.1131764e-11
2.5326294e-11
4.0212586e-11
2.2447915e-11
3.9217426e-11
1.9363729e-11
3.8237163e-11
1.6106594e-11
3.7411808e-11
1.2693531e-11
3.700774e-11
9.0635122e-12
3.6894045e-11
5.420319e-12
1.9768256e-12
7.8200693e-12
1.7784489e-11
1.0260174e-11
2.0089188e-11
1.2881809e-11
2.205985e-11
1.5674594e-11
2.3781716e-11
1.8546965e-11
2.5451117e-11
2.1386914e-11
2.7130558e-11
2.436182e-11
2.8557738e-11
2.7484211e-11
2.9870911e-11
3.0651164e-11
3.0949065e-11
3.3836226e-11
3.1734274e-11
3.6970723e-11
3.2130677e-11
3.9745056e-11
3.2466661e-11
4.2190572e-11
3.224733e-11
4.4291162e-11
3.1564001e-11
4.5981261e-11
3.0476112e-11
4.7268284e-11
2.8958355e-11
4.8169341e-11
2.7052474e-11
4.8705405e-11
2.4790185e-11
4.8969851e-11
2.2183427e-11
4.9035924e-11
1.9297613e-11
4.8974482e-11
1.6167994e-11
4.8850823e-11
1.2817149e-11
4.8638341e-11
9.2759529e-12
4.8456079e-11
5.6025442e-12
1.9080083e-12
6.8727215e-12
1.5844282e-11
9.0520823e-12
1.7909693e-11
1.1446312e-11
1.9665494e-11
1.3802208e-11
2.1425701e-11
1.6267493e-11
2.2985724e-11
1.8977916e-11
2.4420037e-11
2.1821268e-11
2.5714297e-11
2.4808314e-11
2.6883786e-11
2.7910237e-11
2.7847071e-11
3.1048082e-11
2.8596366e-11
3.4047622e-11
2.9131082e-11
3.7066355e-11
2.9447876e-11
3.9895601e-11
2.9418038e-11
4.2482101e-11
2.8977457e-11
4.4883062e-11
2.807511e-11
4.6860301e-11
2.6981076e-11
4.8499709e-11
2.5413027e-11
4.9845909e-11
2.3443949e-11
5.090957e-11
2.1119729e-11
5.1719002e-11
1.8488145e-11
5.2307525e-11
1.5579435e-11
5.2705218e-11
1.2419422e-11
5.2949616e-11
9.0315212e-12
5.3023252e-11
5.5288792e-12
1.8534644e-12
6.003223e-12
1.4110241e-11
7.8718755e-12
1.6040909e-11
9.8064993e-12
1.7730746e-11
1.1935266e-11
1.9296819e-11
1.4232778e-11
2.0688105e-11
1.6718045e-11
2.1934674e-11
1.9358222e-11
2.3074034e-11
2.2143674e-11
2.4098256e-11
2.5017033e-11
2.4973644e-11
2.796763e-11
2.5645707e-11
3.0945915e-11
2.6152742e-11
3.3954475e-11
2.6439266e-11
3.6899146e-11
2.6473322e-11
3.9700438e-11
2.6176122e-11
4.2233097e-11
2.5542412e-11
4.4619669e-11
2.4594467e-11
4.6748208e-11
2.3284453e-11
4.8612099e-11
2.1580024e-11
5.0171386e-11
1.9560409e-11
5.1440383e-11
1.7219117e-11
5.2451065e-11
1.4568723e-11
5.3215851e-11
1.1654607e-11
5.373984e-11
8.5075035e-12
5.4068628e-11
5.2000665e-12
1.8389889e-12
5.2074907e-12
1.2653975e-11
6.8517645e-12
1.4396513e-11
8.6372385e-12
1.5945155e-11
1.060175e-11
1.7332199e-11
1.2712223e-11
1.8577532e-11
1.4992865e-11
1.9653942e-11
1.7435586e-11
2.0631232e-11
2.0027762e-11
2.1506007e-11
2.2705391e-11
2.2295949e-11
2.5499927e-11
2.2851113e-11
2.8375683e-11
2.3276933e-11
3.1291878e-11
2.3523024e-11
3.4212234e-11
2.3552923e-11
3.7056577e-11
2.333174e-11
3.9740626e-11
2.2858326e-11
4.2306768e-11
2.2028291e-11
4.4666812e-11
2.0924378e-11
4.6766554e-11
1.9480252e-11
4.8616728e-11
1.7710207e-11
5.020257e-11
1.5633248e-11
5.149907e-11
1.3272196e-11
5.2492792e-11
1.0660861e-11
5.3154914e-11
7.845357e-12
5.3544294e-11
4.8106661e-12
1.6003691e-12
4.6827057e-12
1.1324909e-11
6.1892322e-12
1.2889884e-11
7.8490787e-12
1.4285209e-11
9.6786407e-12
1.5502542e-11
1.1672648e-11
1.6583437e-11
1.3779914e-11
1.7546593e-11
1.603668e-11
1.8374392e-11
1.843669e-11
1.910593e-11
2.1005844e-11
1.9726735e-11
2.3637401e-11
2.0219502e-11
2.6363589e-11
2.0550697e-11
2.9156423e-11
2.0730146e-11
3.1972545e-11
2.0736762e-11
3.4764554e-11
2.0539695e-11
3.7509423e-11
2.0113425e-11
4.0114379e-11
1.9423305e-11
4.2574258e-11
1.8464471e-11
4.4794813e-11
1.7259671e-11
4.6810656e-11
1.569434e-11
4.8551974e-11
1.3891908e-11
4.9996288e-11
1.182786e-11
5.1129286e-11
9.5278425e-12
5.1964451e-11
7.0101718e-12
5.2476614e-11
4.298486e-12
1.4424351e-12
4.3229988e-12
1.0086097e-11
5.7238613e-12
1.1488934e-11
7.2843311e-12
1.2724654e-11
8.9776955e-12
1.3809096e-11
1.0868127e-11
1.4692929e-11
1.2835161e-11
1.5579489e-11
1.4935711e-11
1.6273777e-11
1.7190774e-11
1.6850808e-11
1.9582624e-11
1.733483e-11
2.2084479e-11
1.7717598e-11
2.4641638e-11
1.7993494e-11
2.7295851e-11
1.8075894e-11
2.9988448e-11
1.804413e-11
3.2684375e-11
1.7843735e-11
3.5338686e-11
1.7459085e-11
3.7909553e-11
1.6852411e-11
4.0349976e-11
1.6024025e-11
4.2644336e-11
1.4965288e-11
4.4690106e-11
1.3648549e-11
4.6483838e-11
1.2098158e-11
4.7993032e-11
1.0318648e-11
4.9202152e-11
8.3187065e-12
5.0095846e-11
6.1164611e-12
5.0647586e-11
3.7467331e-12
1.2507446e-12
4.0049195e-12
8.9273689e-12
5.3281068e-12
1.0165672e-11
6.8081163e-12
1.1244572e-11
8.4211958e-12
1.2195947e-11
1.0113064e-11
1.3000995e-11
1.2023358e-11
1.3669133e-11
1.3998678e-11
1.42984e-11
1.6091391e-11
1.4758042e-11
1.8297022e-11
1.5129152e-11
2.0609861e-11
1.5404716e-11
2.3037012e-11
1.5566304e-11
2.5499214e-11
1.5613657e-11
2.8012301e-11
1.553101e-11
3.054709e-11
1.5308918e-11
3.3072234e-11
1.4933916e-11
3.5523787e-11
1.4400834e-11
3.7871962e-11
1.3675829e-11
4.0081763e-11
1.2755468e-11
4.2094775e-11
1.1635519e-11
4.3876675e-11
1.0316243e-11
4.5390642e-11
8.8046656e-12
4.6594689e-11
7.1146465e-12
4.7444376e-11
5.2667619e-12
4.7957484e-11
3.2336148e-12
9.9669114e-13
3.7392569e-12
7.8165101e-12
4.9818587e-12
8.9230035e-12
6.3407568e-12
9.8856094e-12
7.8367667e-12
1.0699875e-11
9.4379052e-12
1.1399798e-11
1.1132519e-11
1.1974465e-11
1.3052257e-11
1.2378612e-11
1.4976098e-11
1.2834154e-11
1.7014369e-11
1.3090839e-11
1.9153958e-11
1.3265089e-11
2.1373337e-11
1.334689e-11
2.3653247e-11
1.3333715e-11
2.5968189e-11
1.3216041e-11
2.828728e-11
1.2989802e-11
3.0598765e-11
1.2622407e-11
3.2877847e-11
1.2121732e-11
3.5073582e-11
1.1480077e-11
3.7142213e-11
1.0686821e-11
3.9045345e-11
9.7323724e-12
4.07439e-11
8.6176753e-12
4.2203222e-11
7.3453319e-12
4.3391921e-11