/*--------------------------------*- C++ -*----------------------------------*\
| =========                 |                                                 |
| \\      /  F ield         | OpenFOAM: The Open Source CFD Toolbox           |
|  \\    /   O peration     | Version:  4.0                                   |
|   \\  /    A nd           | Web:      www.OpenFOAM.org                      |
|    \\/     M anipulation  |                                                 |
\*---------------------------------------------------------------------------*/
FoamFile
{
    version     2.0;
    format      ascii;
    class       volVectorField;
    location    "0.21";
    object      U;
}
// * * * * * * * * * * * * * * * * * * * * * * * * * * * * * * * * * * * * * //

dimensions      [0 1 -1 0 0 0 0];

internalField   nonuniform List<vector> 
1740
(
(1.4742289 0.0020797668 4.8115658e-06)
(1.4847212 -0.0074582668 7.8911101e-07)
(1.6208277 -0.0046483101 1.9431422e-08)
(1.4741348 0.0047297127 8.5223441e-06)
(1.5228443 -0.0335302 1.5137692e-06)
(1.6311275 -0.024341074 3.0800403e-07)
(1.4538117 0.0040514932 1.1191513e-05)
(1.5967861 -0.026964008 2.3976012e-06)
(1.509917 -0.022839345 4.634226e-07)
(1.4470765 -0.0092187355 1.3213815e-05)
(1.6455881 0.0018688705 3.4817015e-06)
(1.555043 0.0015788162 5.6447171e-07)
(1.4981506 -0.0032098254 1.470932e-05)
(1.5392343 0.014495733 4.2483936e-06)
(1.5662342 0.0060750055 8.0477493e-07)
(1.4816422 0.013248047 1.6397106e-05)
(1.5831458 0.022810294 5.1994843e-06)
(1.5411651 0.0015021697 1.0037723e-06)
(1.4465613 0.0034666659 1.7477553e-05)
(1.5494933 0.023660613 6.1788834e-06)
(1.6027663 0.014001042 1.1514938e-06)
(1.4702354 -0.0085252362 1.821605e-05)
(1.4396569 0.0073166699 6.9072091e-06)
(1.6411756 0.0058582369 1.3648239e-06)
(1.491319 -0.0063252314 1.9022293e-05)
(1.4539786 -0.022475814 7.5038882e-06)
(1.6435257 -0.018664805 1.5684648e-06)
(1.4784496 -0.016405421 1.9493535e-05)
(1.5499096 -0.035088514 8.0403905e-06)
(1.5709601 -0.017148414 1.7673108e-06)
(1.5460132 -0.015358818 1.9890144e-05)
(1.5719342 -0.0019871695 8.581232e-06)
(1.5075185 0.0019718836 1.9263606e-06)
(1.5513155 0.0052630542 2.0242307e-05)
(1.584511 0.019995828 8.9288221e-06)
(1.5872401 0.0080421302 2.1279767e-06)
(1.4722119 -0.0023173753 2.0318563e-05)
(1.6110972 -0.0028654712 9.5863264e-06)
(1.6024605 -0.0013878753 2.3194219e-06)
(1.4951354 -0.013406219 2.0324132e-05)
(1.5224679 -0.024721806 9.9445179e-06)
(1.5275409 -0.011672198 2.5145304e-06)
(1.5688824 0.0056366732 2.0269312e-05)
(1.6004673 -0.008870265 1.032746e-05)
(1.4971973 -0.0057297149 2.6811282e-06)
(1.5539975 0.012538454 2.0793829e-05)
(1.5670912 0.028787265 1.0832192e-05)
(1.5511163 0.0078382616 2.8629587e-06)
(1.4419094 0.0064577298 2.0851041e-05)
(1.5331795 0.010463891 1.1141391e-05)
(1.5712395 0.010310589 3.0649254e-06)
(1.5361981 -0.0092932302 2.1066849e-05)
(1.6073813 -0.004859044 1.1567957e-05)
(1.5912426 0.0010751038 3.2046605e-06)
(1.5515825 -0.011471254 2.1489827e-05)
(1.5312702 -0.016272266 1.2068885e-05)
(1.58631 -0.010857931 3.3955154e-06)
(1.5673641 -0.0025347326 2.1293297e-05)
(1.5890267 -0.012245329 1.2312961e-05)
(1.4908954 -0.0046626396 3.602595e-06)
(1.5871299 -0.013174335 2.1703949e-05)
(1.5924134 0.0073265325 1.2732223e-05)
(1.5822815 0.0084768151 3.7039285e-06)
(1.6077019 -0.017254775 2.2579916e-05)
(1.4951946 -0.009342985 1.315214e-05)
(1.5779823 -0.0053508908 3.953236e-06)
(1.6103482 -0.0011356182 2.2178879e-05)
(1.5991062 -0.017567272 1.3478296e-05)
(1.486108 -0.010408366 4.0658143e-06)
(1.5807056 -0.0046938909 2.1543879e-05)
(1.5889623 0.014410594 1.3781342e-05)
(1.4964722 0.010914385 4.2002144e-06)
(1.6783695 0.014655741 2.1632442e-05)
(1.4860759 0.021566168 1.4071135e-05)
(1.5853077 0.013304129 4.3756824e-06)
(1.5843448 0.017050771 2.2306484e-05)
(1.5014294 0.0015874442 1.4365204e-05)
(1.5958269 -0.0082042617 4.5259717e-06)
(1.5137958 0.0050082218 2.2499731e-05)
(1.5325103 -0.0046145827 1.4638082e-05)
(1.5022785 -0.0023419242 4.6991429e-06)
(1.51998 -0.016402447 2.2772368e-05)
(1.4942006 -0.0079457535 1.4942712e-05)
(1.5587574 -0.0021709503 4.824575e-06)
(1.5288816 0.0011695137 2.2301897e-05)
(1.4057163 -0.016496784 1.5123439e-05)
(1.526608 -0.0045504671 4.8798086e-06)
(1.3374391 0.053004631 2.3486202e-05)
(1.286868 0.094766334 1.5632273e-05)
(1.3617287 0.048367657 5.5319569e-06)
(0.82817817 0.37108718 1.1834681e-05)
(0.81039425 0.93697578 9.8961232e-06)
(0.75742664 1.2527198 5.4003249e-06)
(0.22518967 0.11069579 1.5177502e-06)
(0.18609438 0.36401307 3.0377249e-06)
(0.090134164 0.49548344 6.8557988e-07)
(-0.026260676 -0.013394885 1.2403808e-06)
(-0.025613369 -0.028008364 1.7072497e-06)
(-0.016774162 -0.03280796 6.3023611e-07)
(-0.0043779768 -0.0026878356 4.695073e-07)
(-0.0046005604 -0.0073753473 7.7401258e-07)
(-0.0038555488 -0.0097311058 3.92677e-07)
(0.0011049601 7.8373453e-06 1.3277499e-07)
(0.0008119281 -0.00035453987 2.7987941e-07)
(0.00064156392 -0.00066449965 1.6403574e-07)
(0.0010718923 9.0424604e-05 3.6159982e-08)
(0.0010034233 0.00018556937 8.7444247e-08)
(0.00095681606 0.00026283268 4.5787811e-08)
(0.00082691245 5.5729766e-05 5.6177525e-09)
(0.00080331789 0.00015744942 1.7109367e-08)
(0.00078023172 0.00027431535 -3.4584251e-09)
(0.00064464013 5.1624931e-05 -4.3529005e-09)
(0.00063238769 0.00014307607 -6.692399e-09)
(0.00060902417 0.00024606183 -1.9306814e-08)
(0.0004775548 4.6929055e-05 -5.5208369e-09)
(0.00046745358 0.00012537064 -1.0884996e-08)
(0.00044752098 0.00017951888 -1.9301443e-08)
(0.00036535627 2.3859105e-05 -3.5006746e-09)
(0.00035653939 6.1240024e-05 -7.9525421e-09)
(0.00034071986 9.2271175e-05 -1.3628197e-08)
(0.00030879426 9.7383145e-06 -1.565087e-09)
(0.00030351092 2.5018217e-05 -4.223252e-09)
(0.00029221066 3.84236e-05 -7.8037598e-09)
(0.00027949659 5.9302038e-06 -5.7115072e-10)
(0.0002764771 1.6144807e-05 -1.8549975e-09)
(0.00026837184 2.4477704e-05 -3.8753935e-09)
(0.00025599322 7.4316709e-06 -2.9426605e-10)
(0.00025345841 1.8027466e-05 -8.1213538e-10)
(0.00024576686 2.9327418e-05 -1.8059416e-09)
(0.00022875034 8.4879756e-06 -2.8734712e-10)
(0.00022650678 2.0705484e-05 -4.5355855e-10)
(0.00022004107 3.2337911e-05 -8.6231258e-10)
(0.00020286434 8.4395751e-06 -2.8563902e-10)
(0.00020116637 2.0771275e-05 -3.2855306e-10)
(0.00019612485 3.2727715e-05 -4.631543e-10)
(0.00017931333 7.5644112e-06 -2.4382469e-10)
(0.00017807011 1.8769985e-05 -2.4828894e-10)
(0.00017423243 3.0012374e-05 -2.7284075e-10)
(0.000158523 6.5020803e-06 -1.9216317e-10)
(0.00015764127 1.6089584e-05 -1.7445392e-10)
(0.00015465113 2.5561294e-05 -1.5996713e-10)
(0.00014035173 5.5860937e-06 -1.4373209e-10)
(0.0001397134 1.3779098e-05 -1.1530347e-10)
(0.00013731294 2.1201637e-05 -8.8032237e-11)
(0.00012437433 4.6599259e-06 -1.0656191e-10)
(0.00012389777 1.1452057e-05 -7.5567249e-11)
(0.00012194372 1.8419302e-05 -4.7139483e-11)
(0.00011014175 4.1645523e-06 -8.6479317e-11)
(0.0001097781 1.0270159e-05 -5.7623652e-11)
(0.00010817905 1.6439978e-05 -2.9765558e-11)
(9.7352819e-05 3.7921183e-06 -7.576498e-11)
(9.7074763e-05 9.3068978e-06 -5.2371396e-11)
(9.5747282e-05 1.4910865e-05 -2.5987394e-11)
(8.5816151e-05 3.4743041e-06 -6.8261824e-11)
(8.5600338e-05 8.5040967e-06 -5.1409282e-11)
(8.4489506e-05 1.3679811e-05 -2.7001265e-11)
(7.5364475e-05 3.1903427e-06 -6.180381e-11)
(7.5192425e-05 7.8004365e-06 -5.0515954e-11)
(7.4251677e-05 1.256843e-05 -2.8223768e-11)
(6.5858372e-05 2.9301962e-06 -5.6318031e-11)
(6.5716137e-05 7.1503952e-06 -4.8972094e-11)
(6.49091e-05 1.1515039e-05 -2.8697408e-11)
(5.7215341e-05 2.6846176e-06 -5.1288804e-11)
(5.7093632e-05 6.5176746e-06 -4.6606636e-11)
(5.6395997e-05 1.0474614e-05 -2.832421e-11)
(4.9397018e-05 2.4123139e-06 -4.6101222e-11)
(4.9290194e-05 5.8777922e-06 -4.3288181e-11)
(4.8685927e-05 9.4646201e-06 -2.7409387e-11)
(4.2455935e-05 2.1508183e-06 -4.1688722e-11)
(4.2369376e-05 5.2575841e-06 -4.0045421e-11)
(4.185643e-05 8.4864901e-06 -2.6348356e-11)
(3.6157086e-05 1.9305833e-06 -3.9936871e-11)
(3.6079906e-05 4.7177146e-06 -3.8844394e-11)
(3.5634522e-05 7.5797779e-06 -2.565989e-11)
(3.0472502e-05 1.7092297e-06 -3.814619e-11)
(3.0392831e-05 4.1825141e-06 -3.7727843e-11)
(2.9993254e-05 6.7219414e-06 -2.5502241e-11)
(2.5536364e-05 1.4704615e-06 -3.6947546e-11)
(2.5465392e-05 3.6332014e-06 -3.6719014e-11)
(2.5122855e-05 5.8699033e-06 -2.5333104e-11)
(2.1212903e-05 1.2743937e-06 -3.5235378e-11)
(2.1153555e-05 3.1503357e-06 -3.460537e-11)
(2.0866607e-05 5.0826652e-06 -2.4262893e-11)
(1.7498975e-05 1.0945801e-06 -3.4337523e-11)
(1.7445769e-05 2.7128754e-06 -3.3317265e-11)
(1.7200694e-05 4.3696833e-06 -2.3742637e-11)
(1.4353312e-05 9.2627822e-07 -3.390505e-11)
(1.430393e-05 2.3073286e-06 -3.2512898e-11)
(1.4092852e-05 3.7124904e-06 -2.3451043e-11)
(1.1716312e-05 7.7052386e-07 -3.3532657e-11)
(1.1671935e-05 1.9320623e-06 -3.1738937e-11)
(1.1492404e-05 3.1065928e-06 -2.3133012e-11)
(9.5295009e-06 6.2869853e-07 -3.3111801e-11)
(9.4900302e-06 1.5889137e-06 -3.0866764e-11)
(9.3380639e-06 2.5527106e-06 -2.2726419e-11)
(7.727283e-06 5.0217813e-07 -3.2786113e-11)
(7.6924062e-06 1.2797736e-06 -3.0009073e-11)
(7.5644655e-06 2.0507575e-06 -2.2287957e-11)
(6.2637394e-06 3.9184296e-07 -3.2732387e-11)
(6.2332749e-06 1.0126767e-06 -2.9366847e-11)
(6.1264183e-06 1.6187516e-06 -2.1950431e-11)
(5.110693e-06 2.9800614e-07 -3.2724477e-11)
(5.0844389e-06 7.845234e-07 -2.8796603e-11)
(4.9956872e-06 1.2503641e-06 -2.1654755e-11)
(4.2322503e-06 2.2120791e-07 -3.2546604e-11)
(4.2097646e-06 5.9621103e-07 -2.8078841e-11)
(4.1359304e-06 9.5128544e-07 -2.1326106e-11)
(3.581822e-06 1.5698435e-07 -3.2500817e-11)
(3.5625875e-06 4.3690985e-07 -2.7557972e-11)
(3.5007599e-06 6.931932e-07 -2.1103262e-11)
(3.1166737e-06 1.0377731e-07 -3.2506533e-11)
(3.1002965e-06 3.0364e-07 -2.7186505e-11)
(3.0481899e-06 4.7680313e-07 -2.0980873e-11)
(2.801358e-06 6.2681555e-08 -3.2598055e-11)
(2.7873537e-06 1.9990481e-07 -2.6956155e-11)
(2.7432791e-06 3.1020933e-07 -2.0978363e-11)
(2.6039357e-06 3.1420536e-08 -3.2667931e-11)
(2.5918578e-06 1.1959626e-07 -2.6766028e-11)
(2.5543359e-06 1.8166916e-07 -2.1021235e-11)
(2.4955996e-06 9.44217e-09 -3.2789385e-11)
(2.4854017e-06 6.1886677e-08 -2.6707085e-11)
(2.4529289e-06 9.0039861e-08 -2.1171467e-11)
(2.4514695e-06 -3.9318312e-09 -3.3000895e-11)
(2.4430517e-06 2.4778876e-08 -2.6826987e-11)
(2.4143827e-06 3.1910203e-08 -2.1445826e-11)
(2.44882e-06 -1.0156812e-08 -3.326801e-11)
(2.4418432e-06 5.0235907e-09 -2.7061332e-11)
(2.416045e-06 2.2944766e-09 -2.1755489e-11)
(2.4634614e-06 -1.022451e-08 -3.3526123e-11)
(2.4576164e-06 3.2179048e-10 -2.7227143e-11)
(2.4339489e-06 -2.5324809e-09 -2.1860089e-11)
(2.4663305e-06 -4.7595273e-09 -3.3606287e-11)
(2.461335e-06 7.9021862e-09 -2.6862053e-11)
(2.4392772e-06 1.1009123e-08 -2.1214287e-11)
(2.4315808e-06 5.3779881e-09 -3.3034416e-11)
(2.4270733e-06 2.2734591e-08 -2.4840343e-11)
(2.4063385e-06 3.1789003e-08 -1.8745353e-11)
(2.290533e-06 1.0443373e-08 -2.9798172e-11)
(2.2857852e-06 2.7913085e-08 -1.8574826e-11)
(2.2664145e-06 4.1024628e-08 -1.2707281e-11)
(-0.045106019 1.9500965 -3.725237e-07)
(-0.032301089 1.6923535 -3.451252e-06)
(-0.059600611 0.34055106 -2.4887704e-07)
(-0.04218482 0.15110986 -9.9450763e-07)
(-0.013731442 -0.040307054 -1.4569221e-07)
(-0.010955587 -0.042471709 -5.6674904e-07)
(-0.0038022478 -0.012073638 -3.3140275e-08)
(-0.0039299627 -0.013849305 -3.1994988e-07)
(0.00026158624 -0.0013502209 -3.3124611e-08)
(-0.000188219 -0.0022852188 -2.0173432e-07)
(0.00084122567 0.00020428363 -4.6106981e-08)
(0.00070222059 3.2525941e-05 -1.3972457e-07)
(0.00074449169 0.00038617201 -4.9201289e-08)
(0.00069485333 0.0004679171 -1.0080915e-07)
(0.0005889127 0.00036570764 -4.3472768e-08)
(0.00055922576 0.00048634399 -7.2127877e-08)
(0.00043193438 0.00024147804 -3.2789463e-08)
(0.00041379457 0.00031599005 -4.8829314e-08)
(0.00032018865 0.00012245719 -2.1436142e-08)
(0.00030561512 0.00015274398 -3.0461434e-08)
(0.00027730601 4.9128838e-05 -1.2320121e-08)
(0.0002603909 6.0680277e-05 -1.7358787e-08)
(0.000256386 3.1562675e-05 -6.3597008e-09)
(0.00024134817 3.8597177e-05 -9.0653674e-09)
(0.00023382848 3.7416151e-05 -3.05238e-09)
(0.00022109259 4.3840948e-05 -4.4114532e-09)
(0.00021102492 4.5065121e-05 -1.4247906e-09)
(0.0002006306 5.3896543e-05 -2.0549437e-09)
(0.00018923598 4.5493943e-05 -6.8150899e-10)
(0.00018098016 5.4209179e-05 -9.433215e-10)
(0.00016885979 4.0380153e-05 -3.3752853e-10)
(0.00016226765 4.9597253e-05 -4.3020682e-10)
(0.00015032894 3.3555151e-05 -1.6500738e-10)
(0.00014506691 4.2344171e-05 -1.883381e-10)
(0.00013378844 2.822781e-05 -7.4246929e-11)
(0.0001295231 3.6464898e-05 -7.2756922e-11)
(0.00011906624 2.5402847e-05 -2.9739189e-11)
(0.00011551091 3.1947554e-05 -2.0137418e-11)
(0.00010579926 2.2674628e-05 -1.1604449e-11)
(0.00010281192 2.8416138e-05 4.7706651e-13)
(9.376324e-05 2.0479109e-05 -6.9634478e-12)
(9.1251128e-05 2.5909877e-05 5.7410823e-12)
(8.2818986e-05 1.8769799e-05 -8.1325075e-12)
(8.0686241e-05 2.375997e-05 4.6368515e-12)
(7.2826666e-05 1.729934e-05 -1.0521269e-11)
(7.0991095e-05 2.1890387e-05 1.8691933e-12)
(6.3680808e-05 1.5889059e-05 -1.2433536e-11)
(6.2089183e-05 2.0089113e-05 -6.9869613e-13)
(5.5331889e-05 1.4445282e-05 -1.3392016e-11)
(5.3948927e-05 1.8295804e-05 -2.5236878e-12)
(4.7762248e-05 1.3058974e-05 -1.3885688e-11)
(4.6558943e-05 1.6550256e-05 -3.8620598e-12)
(4.1067772e-05 1.1729035e-05 -1.4193912e-11)
(4.0028384e-05 1.4884514e-05 -4.9244858e-12)
(3.4948452e-05 1.0456736e-05 -1.4292245e-11)
(3.4041962e-05 1.3271087e-05 -5.716361e-12)
(2.9384379e-05 9.2638258e-06 -1.4695019e-11)
(2.8589894e-05 1.1741723e-05 -6.5115894e-12)
(2.460394e-05 8.0957289e-06 -1.4986486e-11)
(2.3926672e-05 1.0246997e-05 -7.1028183e-12)
(2.0428752e-05 7.0263967e-06 -1.4888169e-11)
(1.985324e-05 8.9259698e-06 -7.6456789e-12)
(1.682638e-05 6.0292795e-06 -1.4973044e-11)
(1.6332701e-05 7.6458486e-06 -8.1401965e-12)
(1.3772797e-05 5.1157851e-06 -1.5118795e-11)
(1.3351815e-05 6.4790115e-06 -8.5955403e-12)
(1.1221597e-05 4.2802041e-06 -1.5198247e-11)
(1.0866083e-05 5.419713e-06 -8.9540258e-12)
(9.1097968e-06 3.5179372e-06 -1.5184003e-11)
(8.8101641e-06 4.4578871e-06 -9.2137283e-12)
(7.3732085e-06 2.823195e-06 -1.5106124e-11)
(7.122255e-06 3.5668884e-06 -9.3982508e-12)
(5.9675894e-06 2.2195547e-06 -1.5044588e-11)
(5.7592303e-06 2.8013866e-06 -9.5620379e-12)
(4.8645561e-06 1.7107051e-06 -1.5037124e-11)
(4.6923698e-06 2.1540256e-06 -9.7730601e-12)
(4.0275936e-06 1.3101984e-06 -1.5074656e-11)
(3.8852954e-06 1.654468e-06 -1.0035808e-11)
(3.4108624e-06 9.5361983e-07 -1.5132664e-11)
(3.2929511e-06 1.1965157e-06 -1.0273399e-11)
(2.9732576e-06 6.5406911e-07 -1.5222012e-11)
(2.8750723e-06 8.1839768e-07 -1.0515153e-11)
(2.6804903e-06 4.1681165e-07 -1.5366739e-11)
(2.5982165e-06 5.1569767e-07 -1.0776979e-11)
(2.5012387e-06 2.4189737e-07 -1.5591117e-11)
(2.4316184e-06 2.9661e-07 -1.1112735e-11)
(2.4073885e-06 1.1824801e-07 -1.5893778e-11)
(2.3475985e-06 1.4172362e-07 -1.149962e-11)
(2.3745866e-06 3.9349442e-08 -1.626311e-11)
(2.322284e-06 4.2990369e-08 -1.1920496e-11)
(2.3805267e-06 -3.8299479e-10 -1.6609581e-11)
(2.3337902e-06 -6.0264182e-09 -1.2294999e-11)
(2.401582e-06 -5.3938253e-09 -1.6698923e-11)
(2.3589357e-06 -1.0485755e-08 -1.2418819e-11)
(2.4093037e-06 1.4202603e-08 -1.6037349e-11)
(2.3697656e-06 1.5531274e-08 -1.1884855e-11)
(2.3783462e-06 4.1851671e-08 -1.3796354e-11)
(2.3413984e-06 5.0684955e-08 -1.0087023e-11)
(2.2406462e-06 5.4991882e-08 -8.9191794e-12)
(2.2066877e-06 6.8422524e-08 -6.3716362e-12)
(-0.0036382624 3.0815678e-05 -6.4509843e-08)
(-0.0035868457 1.4705072e-05 -1.5170186e-07)
(-0.0034733002 4.7685064e-05 -2.1202631e-07)
(-0.0033238301 3.2354137e-05 -2.4773463e-07)
(-0.0031501525 2.039498e-05 -2.6407974e-07)
(-0.0029621035 -1.7774078e-05 -2.669525e-07)
(-0.0027625772 -6.9655479e-05 -2.6118978e-07)
(-0.0025526155 -0.00014096324 -2.5034617e-07)
(-0.002335631 -0.00022830989 -2.3683173e-07)
(-0.0021172495 -0.0003240013 -2.2223947e-07)
(-0.0019026739 -0.0004223257 -2.0761772e-07)
(-0.0016963287 -0.00051826752 -1.9352164e-07)
(-0.0015009973 -0.00060740543 -1.8015591e-07)
(-0.0013180063 -0.00068765582 -1.674863e-07)
(-0.0011478499 -0.00075723717 -1.5539302e-07)
(-0.0009904763 -0.00081792661 -1.4374601e-07)
(-0.00084616642 -0.00087188789 -1.3240704e-07)
(-0.00071462088 -0.00091689625 -1.2117244e-07)
(-0.00059439412 -0.00095064084 -1.0980841e-07)
(-0.0004841418 -0.0009739005 -9.802416e-08)
(-0.00038252566 -0.00098719771 -8.5446539e-08)
(-0.00028812468 -0.00099036439 -7.1446318e-08)
(-0.00019972455 -0.00098422629 -5.5399777e-08)
(-0.00011652666 -0.00097119657 -3.6855707e-08)
(-3.780133e-05 -0.00092456221 -1.561246e-08)
(0.0001552728 -9.064461e-05 -8.1402309e-08)
(0.00017130172 -0.0004086557 -1.8823844e-07)
(0.00020000105 -0.00059344207 -2.5751741e-07)
(0.00023427859 -0.00089473497 -2.9382837e-07)
(0.0002768689 -0.0011540574 -3.0648282e-07)
(0.00032850849 -0.0014589116 -3.0482775e-07)
(0.00038176939 -0.0017650738 -2.9501339e-07)
(0.00042552208 -0.0020981828 -2.8092691e-07)
(0.00045036195 -0.00245052 -2.648001e-07)
(0.00045786652 -0.0027940785 -2.4803773e-07)
(0.00045132936 -0.0031230285 -2.3170039e-07)
(0.00043448042 -0.0034331445 -2.1625925e-07)
(0.00041064715 -0.0037201613 -2.0183459e-07)
(0.00038220659 -0.003982795 -1.8825969e-07)
(0.00035002244 -0.0042210408 -1.7533646e-07)
(0.00031396855 -0.0044335367 -1.6290748e-07)
(0.00027759654 -0.0046289098 -1.5085474e-07)
(0.00024199141 -0.0048075564 -1.3886524e-07)
(0.00020685889 -0.0049505573 -1.2669762e-07)
(0.00017203665 -0.0050469472 -1.1400742e-07)
(0.00013763882 -0.005093633 -1.0051205e-07)
(0.00010411402 -0.0050928309 -8.5187199e-08)
(7.1583395e-05 -0.0050483361 -6.7134585e-08)
(4.0292938e-05 -0.0049456091 -4.5190532e-08)
(1.1107425e-05 -0.0047208769 -1.9706883e-08)
(0.00092402231 -0.00026872728 -1.2134601e-07)
(0.00097272481 -0.0014066364 -2.6964696e-07)
(0.0010583262 -0.0019220354 -3.5319512e-07)
(0.001168163 -0.0028288442 -3.8518943e-07)
(0.0012704115 -0.0035935672 -3.8762267e-07)
(0.0013450413 -0.0044115579 -3.7601904e-07)
(0.0013800386 -0.005226091 -3.5791784e-07)
(0.0013751326 -0.0061817481 -3.376252e-07)
(0.0013404022 -0.0072476308 -3.1655843e-07)
(0.0012836134 -0.0082280727 -2.9551147e-07)
(0.0012105812 -0.0090815526 -2.7586803e-07)
(0.0011279354 -0.0098054297 -2.5784491e-07)
(0.0010400899 -0.01040021 -2.4146359e-07)
(0.00094855399 -0.010874033 -2.2620579e-07)
(0.00085532273 -0.011233831 -2.1171856e-07)
(0.00076281745 -0.011482111 -1.9779116e-07)
(0.00067081214 -0.011613021 -1.8454993e-07)
(0.00058041661 -0.011639091 -1.7123931e-07)
(0.00049200443 -0.011586878 -1.5777805e-07)
(0.00040624308 -0.011475266 -1.4384268e-07)
(0.00032353097 -0.011314685 -1.2890517e-07)
(0.0002447668 -0.011114355 -1.1202703e-07)
(0.00016926672 -0.01088178 -9.1789789e-08)
(9.723253e-05 -0.010586806 -6.5718837e-08)
(2.9888773e-05 -0.010179605 -3.2854061e-08)
(0.0033310228 -0.00097112901 -2.0556019e-07)
(0.003422837 -0.0045356266 -4.1922511e-07)
(0.0035013656 -0.0058541749 -5.1007838e-07)
(0.0034386455 -0.009135458 -5.2348425e-07)
(0.0033050812 -0.012095273 -5.0561196e-07)
(0.0030930805 -0.014715753 -4.7791714e-07)
(0.0028403223 -0.016571037 -4.4732731e-07)
(0.0025692973 -0.017562812 -4.1957221e-07)
(0.0023025744 -0.017866701 -3.9280925e-07)
(0.0020453595 -0.017741691 -3.655397e-07)
(0.0018059728 -0.017298633 -3.4123652e-07)
(0.0015869368 -0.01666087 -3.1934514e-07)
(0.0013862531 -0.015853464 -3.0027376e-07)
(0.0011904842 -0.014923851 -2.8254509e-07)
(0.0010136996 -0.01392353 -2.6564068e-07)
(0.00085700498 -0.012898415 -2.4941898e-07)
(0.00071887382 -0.011886805 -2.3372137e-07)
(0.00059726633 -0.010922114 -2.1833397e-07)
(0.0004905961 -0.010027007 -2.0308769e-07)
(0.00039658992 -0.0092215411 -1.8759113e-07)
(0.00031296639 -0.0085172512 -1.7134738e-07)
(0.00023646782 -0.0079192509 -1.535497e-07)
(0.00016604984 -0.007429099 -1.3285627e-07)
(9.9972491e-05 -0.0070029903 -1.0687996e-07)
(3.663622e-05 -0.0066848919 -6.8244392e-08)
(0.01093262 -0.0085889691 -3.9439521e-07)
(0.0088969603 -0.025437571 -6.7234013e-07)
(0.0079355865 -0.028047962 -7.3773618e-07)
(0.0062981325 -0.032464611 -7.1834193e-07)
(0.0049273207 -0.030002441 -6.7480452e-07)
(0.0037093297 -0.026255223 -6.2553901e-07)
(0.0026816148 -0.021554011 -5.7815599e-07)
(0.00185751 -0.016595351 -5.344128e-07)
(0.0012101225 -0.01163977 -4.9649394e-07)
(0.00070844011 -0.0070479827 -4.6187357e-07)
(0.00032412484 -0.0028913142 -4.3073618e-07)
(3.6947564e-05 0.00067523663 -4.0174659e-07)
(-0.00017099096 0.0039549458 -3.7889005e-07)
(-0.00030593631 0.0070913293 -3.5721143e-07)
(-0.00039199338 0.0099865901 -3.3623365e-07)
(-0.00043702639 0.012499755 -3.162606e-07)
(-0.00044966962 0.0145972 -2.9710689e-07)
(-0.00043695266 0.016296832 -2.7858098e-07)
(-0.00040434552 0.017627183 -2.6046759e-07)
(-0.00035665407 0.018617902 -2.4251556e-07)
(-0.00029796496 0.019293911 -2.2438471e-07)
(-0.00023287712 0.019682873 -2.0552191e-07)
(-0.00016325044 0.019783628 -1.8489358e-07)
(-9.2202352e-05 0.019658776 -1.6545569e-07)
(-2.0882354e-05 0.018964403 -1.4630316e-07)
(0.013450751 0.023113126 -7.7308479e-07)
(0.0033330865 -0.0016250278 -1.085496e-06)
(0.00081505572 0.048121524 -1.0823616e-06)
(-0.00098914125 0.050742703 -1.0056646e-06)
(-0.0025873766 0.065044162 -9.2729902e-07)
(-0.0037804036 0.075390311 -8.4030601e-07)
(-0.0044450706 0.082588606 -7.6234963e-07)
(-0.0046518936 0.08861054 -6.9438079e-07)
(-0.0045759975 0.093053805 -6.3505092e-07)
(-0.0043589097 0.095817851 -5.8396428e-07)
(-0.0040735875 0.097388627 -5.404371e-07)
(-0.0037320284 0.097889207 -4.9456327e-07)
(-0.0033862217 0.097647261 -4.6808471e-07)
(-0.0030472593 0.096388812 -4.3934703e-07)
(-0.0027049128 0.094248785 -4.1064665e-07)
(-0.0023704149 0.091832898 -3.8477145e-07)
(-0.0020542707 0.089212729 -3.6065114e-07)
(-0.0017576098 0.086472744 -3.3776648e-07)
(-0.0014798676 0.0836899 -3.1580478e-07)
(-0.0012192661 0.08092252 -2.9452937e-07)
(-0.00097362689 0.078207034 -2.7370519e-07)
(-0.00073997439 0.075586954 -2.530178e-07)
(-0.00051657372 0.073030174 -2.3210748e-07)
(-0.00030170473 0.07073924 -2.1154822e-07)
(-9.0168843e-05 0.067248336 -1.9181291e-07)
(-0.0024095119 1.1726218 -2.5149129e-06)
(-0.0010984405 0.96037006 -1.9929704e-06)
(-0.0012039918 0.86502296 -1.6132509e-06)
(-0.000799679 0.77305232 -1.3237481e-06)
(-0.00065615231 0.67726044 -1.1070556e-06)
(-0.0005466048 0.58607813 -9.4728527e-07)
(-0.00045216955 0.50779953 -8.2792335e-07)
(-0.00037353217 0.44415858 -7.3832441e-07)
(-0.00030693897 0.39167758 -6.6537844e-07)
(-0.00025261131 0.34688347 -6.0909738e-07)
(-0.00020250159 0.30821907 -5.6518658e-07)
(-0.00015838665 0.27494505 -5.2604358e-07)
(-0.00012085113 0.24649306 -4.9248891e-07)
(-9.9408487e-05 0.22213853 -4.6232971e-07)
(-8.0781181e-05 0.20122061 -4.3453598e-07)
(-6.6055306e-05 0.1832612 -4.0866817e-07)
(-5.4095336e-05 0.16783216 -3.8415822e-07)
(-4.4411421e-05 0.15457136 -3.6059882e-07)
(-3.6430925e-05 0.1431761 -3.3777253e-07)
(-2.9650572e-05 0.13339686 -3.1555807e-07)
(-2.3643344e-05 0.12501593 -2.9384664e-07)
(-1.7873444e-05 0.11789312 -2.7243285e-07)
(-1.2311516e-05 0.11177595 -2.5128246e-07)
(-6.9989727e-06 0.106976 -2.302887e-07)
(-1.8829112e-06 0.100939 -2.0832991e-07)
(-0.013227968 0.089857189 -1.2005667e-06)
(-0.0029691883 0.097695351 -1.2375115e-06)
(-0.00042282614 0.10353934 -1.1900908e-06)
(0.0014089663 0.10535484 -1.0989162e-06)
(0.0029777786 0.10758071 -9.9615047e-07)
(0.0041194958 0.1093635 -8.9594161e-07)
(0.0047380521 0.11106511 -8.0621058e-07)
(0.0049026766 0.11262272 -7.2847912e-07)
(0.004789514 0.11344502 -6.4613373e-07)
(0.0045218151 0.11352281 -6.0095329e-07)
(0.0042113414 0.11283587 -5.5915681e-07)
(0.0038791664 0.11119598 -5.1427762e-07)
(0.0035096438 0.10871404 -4.7606498e-07)
(0.0031385354 0.10572352 -4.428572e-07)
(0.0027782473 0.10247363 -4.1330702e-07)
(0.0024339872 0.099091131 -3.8645989e-07)
(0.0021083748 0.095660284 -3.6161415e-07)
(0.0018018811 0.092249692 -3.3826278e-07)
(0.0015147752 0.088910964 -3.1603985e-07)
(0.0012457733 0.085682226 -2.9465165e-07)
(0.00099291509 0.082585011 -2.7379611e-07)
(0.00075402665 0.079650387 -2.5304736e-07)
(0.000526452 0.07683635 -2.328905e-07)
(0.00030799859 0.074351742 -2.1234706e-07)
(9.2750581e-05 0.070640509 -1.9231167e-07)
(-0.0091587333 -0.040546166 -7.8379228e-07)
(-0.0079702796 -0.038879331 -8.4632441e-07)
(-0.0066107321 -0.037393254 -8.328882e-07)
(-0.005197489 -0.034023315 -7.8753346e-07)
(-0.003868857 -0.029074133 -7.3034124e-07)
(-0.0027249609 -0.023421293 -6.699453e-07)
(-0.0017873311 -0.017596318 -6.1439599e-07)
(-0.0010552794 -0.011936202 -5.6360098e-07)
(-0.00049952639 -0.006876713 -5.1636378e-07)
(-8.2560744e-05 -0.0023992311 -4.8098019e-07)
(0.00021975638 0.001441001 -4.482373e-07)
(0.00043012883 0.0051704536 -4.1746074e-07)
(0.00056675884 0.0087290376 -3.8957017e-07)
(0.00064716594 0.011916309 -3.6427346e-07)
(0.00068327655 0.014662263 -3.4105059e-07)
(0.00068477838 0.016963462 -3.1944708e-07)
(0.00065925578 0.018848767 -2.9916153e-07)
(0.00061370759 0.020358961 -2.7985845e-07)
(0.0005521581 0.021521492 -2.6123446e-07)
(0.00047833418 0.022358231 -2.4296484e-07)
(0.00039551635 0.022890855 -2.2457579e-07)
(0.00030654009 0.023140362 -2.050915e-07)
(0.00021423121 0.023118346 -1.8725607e-07)
(0.00012154998 0.022871674 -1.6654724e-07)
(2.9790091e-05 0.022023563 -1.4696591e-07)
(-0.0041802284 -0.015690252 -4.8585843e-07)
(-0.0042627782 -0.018411377 -5.5673758e-07)
(-0.0041696826 -0.021302607 -5.6937542e-07)
(-0.0039250664 -0.023385202 -5.5247165e-07)
(-0.0035850688 -0.02468185 -5.2389362e-07)
(-0.0032037976 -0.025099847 -4.9346072e-07)
(-0.0028384569 -0.02483177 -4.5624738e-07)
(-0.0024950333 -0.024111439 -4.2158705e-07)
(-0.0021774477 -0.023120657 -3.903411e-07)
(-0.0018944 -0.021933658 -3.6384313e-07)
(-0.0016406104 -0.020636685 -3.3980704e-07)
(-0.0014076514 -0.019213098 -3.1764455e-07)
(-0.0011979706 -0.017730991 -2.97298e-07)
(-0.0010139926 -0.016242553 -2.7860467e-07)
(-0.00085359868 -0.01478287 -2.6113717e-07)
(-0.00071407804 -0.013383023 -2.4453393e-07)
(-0.00059322909 -0.012073515 -2.2889108e-07)
(-0.00048777504 -0.010884443 -2.1378247e-07)
(-0.00039638612 -0.0098269082 -1.9889524e-07)
(-0.00031718096 -0.0089020759 -1.8386988e-07)
(-0.00024813953 -0.0081099907 -1.6819231e-07)
(-0.00018717964 -0.0074498397 -1.5112675e-07)
(-0.00013230981 -0.0069175725 -1.3197075e-07)
(-8.1307092e-05 -0.0064710609 -1.0663041e-07)
(-3.1612556e-05 -0.0061576005 -6.8611024e-08)
(-0.00065465457 -0.0033277205 -3.1597902e-07)
(-0.0010332579 -0.0044306308 -3.7781364e-07)
(-0.0013316817 -0.00558192 -4.0026571e-07)
(-0.0015422137 -0.0066741409 -3.9871564e-07)
(-0.0016581403 -0.0077357237 -3.8426822e-07)
(-0.0016926944 -0.0088916491 -3.6356039e-07)
(-0.0016659122 -0.010085916 -3.389016e-07)
(-0.0015991183 -0.011101853 -3.1449638e-07)
(-0.0015051515 -0.011944677 -2.9200398e-07)
(-0.0013992225 -0.012622453 -2.7192364e-07)
(-0.0012894546 -0.013158758 -2.5369292e-07)
(-0.0011799794 -0.013559589 -2.369404e-07)
(-0.0010713841 -0.013834785 -2.214662e-07)
(-0.00096479485 -0.013964285 -2.0742462e-07)
(-0.00086148035 -0.013966409 -1.9411991e-07)
(-0.00076185474 -0.013880134 -1.8165905e-07)
(-0.00066650827 -0.013732791 -1.69466e-07)
(-0.0005756689 -0.013539898 -1.5748555e-07)
(-0.00048832201 -0.013310857 -1.4547278e-07)
(-0.00040412337 -0.013052513 -1.3308648e-07)
(-0.00032290664 -0.012770463 -1.1976948e-07)
(-0.00024458809 -0.012470434 -1.0466518e-07)
(-0.00016922593 -0.012156091 -8.6470292e-08)
(-9.7124649e-05 -0.011787436 -6.2299941e-08)
(-2.9975385e-05 -0.011321215 -3.1552477e-08)
(0.00052959971 -0.00025687067 -2.1220324e-07)
(0.00034048286 -0.00065113848 -2.577405e-07)
(0.0001438567 -0.0011306267 -2.7941734e-07)
(-5.9282202e-05 -0.0016399573 -2.8403741e-07)
(-0.0002416992 -0.0021562518 -2.7786782e-07)
(-0.00038788996 -0.0026997153 -2.6545291e-07)
(-0.00048476905 -0.0032428315 -2.4964229e-07)
(-0.00054030129 -0.0037370449 -2.329467e-07)
(-0.00056662087 -0.0041809415 -2.1680568e-07)
(-0.00057131154 -0.0045746489 -2.0181988e-07)
(-0.00055982015 -0.0049185356 -1.8799777e-07)
(-0.00053651567 -0.0052165117 -1.7521935e-07)
(-0.00050522072 -0.0054831011 -1.633757e-07)
(-0.00046890513 -0.0057490461 -1.5240567e-07)
(-0.00042969683 -0.0060160677 -1.4208264e-07)
(-0.00038850156 -0.006249721 -1.3227772e-07)
(-0.00034587424 -0.0064378855 -1.2273982e-07)
(-0.00030267886 -0.0065775929 -1.1330917e-07)
(-0.00025924417 -0.0066683363 -1.0376036e-07)
(-0.00021586323 -0.0067095409 -9.3885261e-08)
(-0.00017286916 -0.0067020723 -8.3219277e-08)
(-0.00013063878 -0.0066491419 -7.0931474e-08)
(-8.9610634e-05 -0.0065555817 -5.629322e-08)
(-5.0244557e-05 -0.0064029304 -3.8035077e-08)
(-1.388857e-05 -0.0061149539 -1.6852093e-08)
(0.00062300229 0.00051251228 -1.4474815e-07)
(0.00054169333 0.00050382261 -1.7544715e-07)
(0.00045828052 0.00043170891 -1.9250679e-07)
(0.00037603715 0.00029943789 -1.9841273e-07)
(0.00028657005 0.00013198418 -1.963967e-07)
(0.00019677408 -5.5302313e-05 -1.8928971e-07)
(0.00011364249 -0.00025918096 -1.7925689e-07)
(4.7014229e-05 -0.00046118805 -1.680054e-07)
(-9.8130995e-06 -0.0006510523 -1.5664515e-07)
(-5.288435e-05 -0.00082460433 -1.4575282e-07)
(-8.1771151e-05 -0.00098077717 -1.3552212e-07)
(-9.8143455e-05 -0.0011195465 -1.259738e-07)
(-0.00010516636 -0.0012409733 -1.1706858e-07)
(-0.00010647567 -0.0013473672 -1.0874378e-07)
(-0.00010331335 -0.001439391 -1.0088729e-07)
(-9.7165345e-05 -0.0015150785 -9.3385298e-08)
(-8.865787e-05 -0.0015756062 -8.6098494e-08)
(-7.8848445e-05 -0.0016219602 -7.8897862e-08)
(-6.83319e-05 -0.0016545301 -7.1626759e-08)
(-5.743777e-05 -0.0016734048 -6.4096908e-08)
(-4.6421422e-05 -0.0016788032 -5.6021269e-08)
(-3.5489047e-05 -0.0016713176 -4.6985887e-08)
(-2.4770531e-05 -0.0016533752 -3.6580777e-08)
(-1.4210835e-05 -0.0016238946 -2.4472875e-08)
(-3.7998813e-06 -0.0015430748 -1.07766e-08)
(0.00051795779 0.00059282041 -9.809171e-08)
(0.00047298064 0.00067821208 -1.1746945e-07)
(0.0004253725 0.00073409405 -1.2933119e-07)
(0.00037491048 0.00075423322 -1.3435956e-07)
(0.00032270706 0.0007460394 -1.3404129e-07)
(0.00027078847 0.00071363368 -1.3000692e-07)