/*--------------------------------*- C++ -*----------------------------------*\
| =========                 |                                                 |
| \\      /  F ield         | OpenFOAM: The Open Source CFD Toolbox           |
|  \\    /   O peration     | Version:  4.0                                   |
|   \\  /    A nd           | Web:      www.OpenFOAM.org                      |
|    \\/     M anipulation  |                                                 |
\*---------------------------------------------------------------------------*/
FoamFile
{
    version     2.0;
    format      ascii;
    class       volScalarField;
    location    "0.2";
    object      k;
}
// * * * * * * * * * * * * * * * * * * * * * * * * * * * * * * * * * * * * * //

dimensions      [0 2 -2 0 0 0 0];

internalField   nonuniform List<scalar> 
1740
(
0.0087323055
0.0090403826
0.018115954
0.009276983
0.0098970355
0.026932355
0.009647215
0.010548052
0.034091188
0.0098818261
0.010816183
0.041120457
0.01003406
0.011236696
0.047252476
0.010153407
0.011878856
0.051568762
0.010223032
0.012090114
0.055471416
0.010254242
0.012213368
0.059238779
0.010230524
0.012326014
0.061951525
0.010205243
0.012644709
0.06408594
0.010095586
0.012851155
0.06543413
0.0099846402
0.013064907
0.067241639
0.0098868483
0.013396065
0.069075898
0.0097746936
0.01376329
0.069290327
0.0096691554
0.013826034
0.070100365
0.0095708593
0.013837539
0.070872774
0.009461568
0.014046506
0.071052869
0.0093127936
0.014147779
0.071501502
0.0091732867
0.014074574
0.071988683
0.0090073952
0.014095676
0.072151879
0.0089267196
0.014290957
0.072415277
0.0088707461
0.014495519
0.072676865
0.008744265
0.014772588
0.072357502
0.0085860451
0.014581456
0.072272227
0.0084489008
0.014375024
0.072665458
0.0083475578
0.014614616
0.072454772
0.0082903396
0.014905724
0.072138964
0.0083058173
0.014792831
0.07199179
0.0083331365
0.014920409
0.071240028
0.0089343093
0.015956624
0.066212812
0.012691141
0.017895545
0.04692658
0.023760204
0.030911083
0.039465086
0.010223122
0.012454867
0.01363932
0.0042672353
0.0046027304
0.0046552602
0.0020755028
0.0021191165
0.0020900452
0.0011283935
0.001128857
0.0011087918
0.0006608488
0.00065759143
0.00064774187
0.00040239811
0.00040026257
0.0003957392
0.00024663527
0.00024548849
0.00024335554
0.00014812624
0.00014750462
0.00014639045
8.5480464e-05
8.5122059e-05
8.4468406e-05
4.69558e-05
4.6742804e-05
4.6340658e-05
2.4662666e-05
2.4539518e-05
2.4299851e-05
1.2667196e-05
1.2600465e-05
1.2467966e-05
6.6805013e-06
6.6476017e-06
6.581466e-06
3.9106758e-06
3.8963397e-06
3.8673915e-06
2.7339497e-06
2.72891e-06
2.718876e-06
2.2961739e-06
2.2954448e-06
2.2942585e-06
2.1821806e-06
2.1832851e-06
2.1858733e-06
2.2029339e-06
2.2047261e-06
2.2087222e-06
2.2773054e-06
2.2792896e-06
2.2836658e-06
2.3723618e-06
2.3743381e-06
2.3786796e-06
2.4754252e-06
2.4773193e-06
2.4814732e-06
2.5818428e-06
2.5836312e-06
2.5875495e-06
2.6899528e-06
2.6916305e-06
2.6953047e-06
2.799128e-06
2.8006971e-06
2.8041322e-06
2.9090597e-06
2.9105241e-06
2.9137295e-06
3.0195089e-06
3.0208733e-06
3.0238593e-06
3.1302268e-06
3.1314956e-06
3.1342725e-06
3.2409301e-06
3.242108e-06
3.2446855e-06
3.3512957e-06
3.3523869e-06
3.3547747e-06
3.460959e-06
3.4619677e-06
3.4641749e-06
3.5695143e-06
3.5704445e-06
3.57248e-06
3.6765133e-06
3.677369e-06
3.6792415e-06
3.7814607e-06
3.7822459e-06
3.7839639e-06
3.8837996e-06
3.884518e-06
3.88609e-06
3.982875e-06
3.9835306e-06
3.984965e-06
4.0778525e-06
4.078449e-06
4.0797543e-06
4.1675456e-06
4.168087e-06
4.1692717e-06
4.2500783e-06
4.2505685e-06
4.2516413e-06
4.3222648e-06
4.3227079e-06
4.3236777e-06
4.3785513e-06
4.3789515e-06
4.3798274e-06
4.4093452e-06
4.4097068e-06
4.4104984e-06
4.3986258e-06
4.3989531e-06
4.39967e-06
4.3209674e-06
4.3212645e-06
4.3219157e-06
4.1386548e-06
4.1389246e-06
4.1395166e-06
3.8005732e-06
3.8008154e-06
3.8013479e-06
3.2460222e-06
3.2462304e-06
3.2466897e-06
2.4180368e-06
2.4181961e-06
2.4185484e-06
1.2952039e-06
1.2952919e-06
1.2954861e-06
0.055842405
0.060502538
0.045827511
0.046350304
0.012421876
0.011309699
0.0043432052
0.0041105295
0.0019930829
0.0019292356
0.0010759421
0.0010571292
0.00063595218
0.00063065711
0.00039124203
0.00038988503
0.00024143189
0.00024099905
0.00014537069
0.00014501178
8.3807032e-05
8.3401608e-05
4.5888997e-05
4.5512918e-05
2.4010217e-05
2.372963e-05
1.2300599e-05
1.2125766e-05
6.4958493e-06
6.4030866e-06
3.8296518e-06
3.7884424e-06
2.7061692e-06
2.6929665e-06
2.2934453e-06
2.2938295e-06
2.1901631e-06
2.1964168e-06
2.2148986e-06
2.2232926e-06
2.2903206e-06
2.2992054e-06
2.3852435e-06
2.3939512e-06
2.4877382e-06
2.4960276e-06
2.5934524e-06
2.6012534e-06
2.7008365e-06
2.7081429e-06
2.8093024e-06
2.8161291e-06
2.9185531e-06
2.9249208e-06
3.0283521e-06
3.0342827e-06
3.1384502e-06
3.1439645e-06
3.2485633e-06
3.2536813e-06
3.3583667e-06
3.3631076e-06
3.4674952e-06
3.4718772e-06
3.5755419e-06
3.5795829e-06
3.6820582e-06
3.6857754e-06
3.7865482e-06
3.7899586e-06
3.8884547e-06
3.8915751e-06
3.9871226e-06
3.9899699e-06
4.0817177e-06
4.0843086e-06
4.1710538e-06
4.1734052e-06
4.253255e-06
4.2553845e-06
4.3251366e-06
4.3270618e-06
4.3811454e-06
4.382885e-06
4.4116898e-06
4.4132629e-06
4.4007494e-06
4.4021757e-06
4.3228971e-06
4.3241953e-06
4.1404102e-06
4.1415947e-06
3.8021539e-06
3.8032259e-06
3.2473874e-06
3.2483181e-06
2.4190846e-06
2.4197876e-06
1.2957766e-06
1.2960945e-06
5.5458491e-06
2.6883324e-05
0.00013330784
0.00030224584
0.00045763687
0.00056651674
0.00063415506
0.00067455286
0.00069938929
0.00071560899
0.00072684861
0.00073497388
0.00074103743
0.0007445173
0.00074505663
0.0007422902
0.00073571068
0.00072449434
0.00070720233
0.00068127616
0.00064230872
0.00058314822
0.00049324143
0.00035895765
0.00016357895
2.5863981e-06
5.4597837e-05
0.00025019401
0.00051384646
0.00072423839
0.0008537424
0.00092703731
0.00096829172
0.00099278653
0.0010083422
0.0010188434
0.0010260839
0.0010307471
0.0010322926
0.0010303081
0.0010243818
0.0010138964
0.00099781547
0.00097431396
0.00094010273
0.00088945309
0.00081276711
0.0006948295
0.00051354608
0.00024156607
7.9651762e-06
0.00015994978
0.00061565821
0.0010785843
0.0013603349
0.0015013326
0.0015666192
0.0015953364
0.0016073118
0.0016107306
0.0016097429
0.0016058938
0.0015990552
0.0015888706
0.0015748336
0.0015566322
0.0015336569
0.0015048141
0.0014680586
0.0014195265
0.0013523932
0.0012545716
0.0011044632
0.00086319159
0.00046183523
3.7634388e-05
0.0005790911
0.0016848607
0.0024353879
0.0027716298
0.0028847189
0.0028928343
0.002860714
0.0028182541
0.0027701145
0.0027210191
0.0026728083
0.0026256503
0.0025764062
0.0025241002
0.0024690888
0.0024110929
0.0023491742
0.0022815437
0.0022048837
0.0021132174
0.0019956277
0.0018305717
0.001568837
0.0010625027
0.00028036812
0.0024412878
0.0049060561
0.0060271997
0.0063747059
0.0063146669
0.0060863345
0.0058229781
0.0055731197
0.0053221532
0.0050801106
0.0048526298
0.0046444248
0.0044424174
0.0042436726
0.0040529162
0.0038710699
0.0036976702
0.0035313887
0.0033697169
0.0032084725
0.0030413348
0.0028594253
0.0026562664
0.0024498391
0.0023478917
0.010464937
0.016501984
0.01846043
0.01801446
0.016472817
0.014669619
0.012991389
0.011516944
0.010244826
0.009155409
0.0082266154
0.0074336534
0.0067524759
0.006164602
0.0056564538
0.0052163746
0.0048338498
0.0044994789
0.0042047846
0.0039417568
0.0037028089
0.0034810816
0.003277813
0.0031099275
0.044688327
0.033900261
0.026455853
0.021323823
0.017684747
0.014992776
0.012918302
0.011277224
0.0099594897
0.008887772
0.0080038219
0.0072640288
0.0066359511
0.0060956175
0.0056252296
0.0052120199
0.0048468793
0.0045228578
0.0042342004
0.0039757395
0.0037424229
0.0035293716
0.0033324072
0.0031547564
0.0030139608
0.037052287
0.030829824
0.02765671
0.025051441
0.022200887
0.019243926
0.016540855
0.014253319
0.012379154
0.010842202
0.0095736392
0.0085173382
0.0076299293
0.0068813253
0.0062474907
0.0057086655
0.0052482769
0.0048524651
0.0045095783
0.0042095576
0.0039432594
0.0037023044
0.0034791886
0.0032747776
0.0031059355
0.01018246
0.0095166665
0.0091811648
0.008864258
0.008404947
0.007842157
0.0072852297
0.0067894965
0.0063381593
0.0059380587
0.0055863561
0.0052776243
0.0049866761
0.0047154851
0.0044652217
0.0042350605
0.0040229718
0.0038264007
0.003642208
0.0034664577
0.0032939389
0.0031175596
0.0029277591
0.0027174422
0.0025039709
0.0039535626
0.0038808974
0.0038582003
0.0038166223
0.0037209195
0.0035839579
0.0034415582
0.0033088678
0.0031879151
0.0030806904
0.0029861479
0.0029011388
0.002819916
0.0027416213
0.0026660113
0.002592425
0.0025196529
0.002445895
0.0023685361
0.0022836047
0.0021846492
0.0020603853
0.0018888739
0.0016197942
0.0011003381
0.0019091439
0.0019208143
0.0019439925
0.0019563721
0.0019467696
0.0019186049
0.0018827803
0.0018462467
0.0018118824
0.0017808612
0.0017528851
0.0017266386
0.0017003912
0.0016733932
0.0016455466
0.0016161457
0.001584095
0.0015477236
0.0015044246
0.0014499807
0.0013773281
0.001274292
0.0011193142
0.0008734991
0.00046803791
0.0010581543
0.0010734764
0.0010938155
0.0011101171
0.0011176143
0.0011168727
0.0011113723
0.0011040103
0.0010964035
0.0010892023
0.0010822921
0.0010750652
0.0010667615
0.0010568353
0.0010449218
0.0010304972
0.0010127401
0.00099035235
0.00096123953
0.00092196656
0.00086690334
0.00078699347
0.00066822465
0.00049061073
0.00023055654
0.00063438487
0.00064490741
0.00065807071
0.00066983437
0.00067786291
0.00068194717
0.00068319386
0.00068282194
0.0006816445
0.00068001855
0.00067790775
0.00067501507
0.00067094611
0.00066534589
0.0006578924
0.00064819189
0.00063569008
0.00061953374
0.00059833986
0.00056984395
0.00053044321
0.00047474786
0.00039545112
0.00028400342
0.0001309851
0.00039275348
0.00039894689
0.00040655897
0.00041367882
0.00041907777
0.00042242574
0.00042403169
0.00042438588
0.0004238731
0.00042268011
0.00042079796
0.00041807559
0.00041429651
0.00040924291
0.00040270697
0.00039446187
0.00038421179
0.00037150748
0.0003556065
0.00033527982
0.00030862475
0.00027308478
0.0002261921
0.00016835443
0.00011140324
0.00024255231
0.00024572596
0.00024962609
0.00025330764
0.00025611037
0.00025776251
0.00025831282
0.00025794236
0.00025682615
0.00025505893
0.00025264265
0.00024950574
0.00024553998
0.0002406324
0.00023468102
0.00022759129
0.0002192539
0.00020950024
0.00019802699
0.00018429964
0.00016749285
0.00014662824
0.0001212561
9.3305594e-05
7.0766708e-05
0.00014555607
0.0001468511
0.00014848226
0.00014997935
0.00015098257
0.00015131149
0.0001509433
0.00014994093
0.00014838324
0.00014632206
0.00014376827
0.00014069808
0.00013706987
0.00013284252
0.00012798763
0.00012249216
0.00011635021
0.00010954101
0.00010199037
9.3523893e-05
8.3847916e-05
7.2642598e-05
5.9910288e-05
4.6703323e-05
3.5020729e-05
8.3374232e-05
8.3666693e-05
8.4090912e-05
8.4419335e-05
8.4464407e-05
8.4119921e-05
8.3357559e-05
8.2198713e-05
8.068213e-05
7.884023e-05
7.668956e-05
7.4231685e-05
7.1461347e-05
6.8375902e-05
6.4982293e-05
6.1299805e-05
5.735651e-05
5.3178191e-05
4.8768835e-05
4.4087537e-05
3.9037496e-05
3.3494724e-05
2.7388568e-05
2.0698055e-05
1.2536238e-05
4.5275491e-05
4.5158934e-05
4.508277e-05
4.4942747e-05
4.464833e-05
4.4144082e-05
4.3412053e-05
4.2461102e-05
4.1312168e-05
3.9986454e-05
3.8499856e-05
3.6862543e-05
3.5082176e-05
3.3168131e-05
3.1134948e-05
2.9003364e-05
2.679845e-05
2.4543803e-05
2.2251872e-05
1.9912478e-05
1.748488e-05
1.4899403e-05
1.2059016e-05
8.7725067e-06
4.485997e-06
2.3491165e-05
2.3291898e-05
2.3100446e-05
2.2872583e-05
2.2568048e-05
2.2161213e-05
2.164341e-05
2.1019241e-05
2.0300259e-05
1.9499376e-05
1.8627896e-05
1.7694884e-05
1.6708445e-05
1.567722e-05
1.4611753e-05
1.3524676e-05
1.2429447e-05
1.1337318e-05
1.0252512e-05
9.1664199e-06
8.0525268e-06
6.8632126e-06
5.5251149e-06
3.9201896e-06
1.8688337e-06
1.1960267e-05
1.1805632e-05
1.1650821e-05
1.14785e-05
1.1272219e-05
1.1021268e-05
1.0722109e-05
1.0377223e-05
9.9925708e-06
9.575064e-06
9.1311513e-06
8.6663745e-06
8.185661e-06
7.6940166e-06
7.196765e-06
6.6993829e-06
6.2066682e-06
5.7210301e-06
5.2398417e-06
4.7522217e-06
4.2358499e-06
3.6551012e-06
2.9608347e-06
2.0951743e-06
1.0164197e-06
6.3112985e-06
6.2224771e-06
6.1331379e-06
6.0370067e-06
5.9277968e-06
5.8013483e-06
5.656339e-06
5.4939566e-06
5.3169246e-06
5.1284625e-06
4.9316245e-06
4.7290795e-06
4.523089e-06
4.3158101e-06
4.1091808e-06
3.9046339e-06
3.7024448e-06
3.5005458e-06
3.2927982e-06
3.0668789e-06
2.8022628e-06
2.4694251e-06
2.0323948e-06
1.4594735e-06
7.5020344e-07
3.7474835e-06
3.7080881e-06
3.6693381e-06
3.6290574e-06
3.5849113e-06
3.5352858e-06
3.4796264e-06
3.4183372e-06
3.3524488e-06
3.2832015e-06
3.2117762e-06
3.1391743e-06
3.0661724e-06
2.9933437e-06
2.9209184e-06
2.8484539e-06
2.7742268e-06
2.6942526e-06
2.6008929e-06
2.4811777e-06
2.3152833e-06
2.0762229e-06
1.7331381e-06
1.2627535e-06
6.7225103e-07
2.6808604e-06
2.6705144e-06
2.661705e-06
2.653636e-06
2.6453871e-06
2.6362391e-06
2.6258417e-06
2.6141874e-06
2.6014999e-06
2.5880882e-06
2.574238e-06
2.5601458e-06
2.5458726e-06
2.5312738e-06
2.5158295e-06
2.4983138e-06
2.4762015e-06
2.4447473e-06
2.3956943e-06
2.3157212e-06
2.1850548e-06
1.9772826e-06
1.6625182e-06
1.2179501e-06
6.531979e-07
2.2960191e-06
2.3002637e-06
2.3064487e-06
2.3142087e-06
2.3230849e-06
2.3326586e-06
2.3426209e-06
2.3527773e-06
2.3630135e-06
2.3732457e-06
2.3833789e-06
2.3932676e-06
2.4026669e-06
2.4111409e-06
2.4178735e-06
2.4213336e-06
2.4186806e-06
2.4048472e-06
2.3712577e-06
2.3042838e-06
2.183851e-06
1.9832023e-06
1.6718635e-06
1.2258266e-06
6.5389668e-07
2.2048096e-06
2.2153696e-06
2.2279675e-06
2.2423547e-06
2.2582218e-06
2.2752506e-06
2.2931467e-06
2.311648e-06
2.3305174e-06
2.3495271e-06
2.3684403e-06
2.3869833e-06
2.4047973e-06
2.4213383e-06
2.4356831e-06
2.4461759e-06
2.4498324e-06
2.441404e-06
2.4120742e-06
2.3478839e-06
2.2282931e-06
2.0258601e-06
1.7090379e-06
1.2522044e-06
6.6357616e-07
2.2338994e-06
2.2466445e-06
2.2613763e-06
2.2778791e-06
2.295896e-06
2.3151515e-06
2.3353666e-06
2.356267e-06
2.3775834e-06
2.3990472e-06
2.4203795e-06
2.4412686e-06
2.4613199e-06
2.4799539e-06
2.4962055e-06
2.5083592e-06
2.5133384e-06
2.5057489e-06
2.4765427e-06
2.4114049e-06
2.2892686e-06
2.0819309e-06
1.7567128e-06
1.2863597e-06
6.8124737e-07
2.3102457e-06
2.3233264e-06
2.338287e-06
2.3549265e-06
2.373014e-06
2.3922999e-06
2.4125238e-06
2.4334207e-06
2.4547238e-06
2.4761621e-06
2.497453e-06
2.5182797e-06
2.5382418e-06
2.5567491e-06
2.5728162e-06
2.5846874e-06
2.5892062e-06
2.580837e-06
2.5502939e-06
2.4828866e-06
2.3570027e-06
2.1437025e-06
1.8093454e-06
1.3253476e-06
7.0129703e-07
2.404705e-06
2.4173776e-06
2.4318101e-06
2.4478139e-06
2.4651769e-06
2.4836696e-06
2.5030507e-06
2.5230713e-06
2.5434777e-06
2.5640099e-06
2.584394e-06
2.6043201e-06
2.6233912e-06
2.6410145e-06
2.6561903e-06
2.6671266e-06
2.6705889e-06
2.6608968e-06
2.6285159e-06
2.5583634e-06
2.4282613e-06
2.2085453e-06
1.8647486e-06
1.3672822e-06
7.2486847e-07
2.5062385e-06
2.5182443e-06
2.5318927e-06
2.5470074e-06
2.5633921e-06
2.5808352e-06
2.5991128e-06
2.6179929e-06
2.6372375e-06
2.6566007e-06
2.675821e-06
2.6945986e-06
2.7125426e-06
2.7290599e-06
2.7431375e-06
2.7529465e-06
2.7551735e-06
2.7439878e-06
2.7095959e-06
2.6365031e-06
2.5019395e-06
2.275511e-06
1.9220794e-06
1.4115633e-06
7.5367699e-07
2.610852e-06
2.6221263e-06
2.6349329e-06
2.6491076e-06
2.664468e-06
2.6808183e-06
2.6979504e-06
2.7156484e-06
2.7336892e-06
2.7518413e-06
2.7698561e-06
2.7874443e-06
2.8042217e-06
2.8195948e-06
2.832537e-06
2.8411813e-06
2.8421332e-06
2.8294065e-06
2.7929382e-06
2.716803e-06
2.577607e-06
2.3441855e-06
1.9807313e-06
1.4569492e-06
7.818538e-07
2.7171279e-06
2.7276766e-06
2.7396545e-06
2.7529085e-06
2.7672696e-06
2.7825552e-06
2.7985721e-06
2.8151188e-06
2.8319864e-06
2.8489568e-06
2.8657937e-06
2.882218e-06
2.8978521e-06
2.9121014e-06
2.923925e-06
2.9314163e-06
2.9310968e-06
2.9168203e-06
2.8782455e-06
2.7990006e-06
2.6550379e-06
2.4143653e-06
2.0404071e-06
1.5025713e-06
8.0943995e-07
2.8245219e-06
2.8343728e-06
2.8455563e-06
2.8579298e-06
2.8713359e-06
2.8856046e-06
2.9005559e-06
2.9160014e-06
2.9317455e-06
2.9475827e-06
2.9632882e-06
2.9785926e-06
2.9931238e-06
3.0062862e-06
3.0170233e-06
3.0233873e-06
3.0218126e-06
3.0059891e-06
2.96529e-06
2.8828845e-06
2.7340493e-06
2.4859222e-06
2.1010588e-06
1.5482101e-06
8.3044947e-07
2.9327483e-06
2.9419344e-06
2.952362e-06
2.9638984e-06
2.9763966e-06
2.9896984e-06
3.0036356e-06
3.0180324e-06
3.0327052e-06
3.0474602e-06
3.0620836e-06
3.0763148e-06
3.0897871e-06
3.1019025e-06
3.1115883e-06
3.1168539e-06
3.1140437e-06
3.0966794e-06
3.0538422e-06
2.9682329e-06
2.8144385e-06
2.5586985e-06
2.1625981e-06
1.5939329e-06
8.5450079e-07
3.041572e-06
3.0501259e-06
3.0598351e-06
3.0705758e-06
3.0822112e-06
3.0945936e-06
3.1075661e-06
3.1209641e-06
3.1346154e-06
3.1483375e-06
3.1619266e-06
3.1751303e-06
3.1875866e-06
3.1986948e-06
3.2073643e-06
3.2115603e-06
3.2075348e-06
3.1886366e-06
3.143649e-06
3.0547946e-06
2.895955e-06
2.6324369e-06
2.2247903e-06
1.6399402e-06
8.7938732e-07
3.1507418e-06
3.1586944e-06
3.1677203e-06
3.1777044e-06
3.188519e-06
3.2000266e-06
3.2120804e-06
3.2245267e-06
3.2372038e-06
3.2499395e-06
3.2625397e-06
3.2747597e-06
3.2862415e-06
3.2963806e-06
3.3040681e-06
3.3072229e-06
3.302002e-06
3.2815777e-06
3.2344292e-06
3.1422931e-06
2.9783357e-06
2.7069223e-06
2.2875834e-06
1.6865587e-06
9.054186e-07
3.2599713e-06
3.2673516e-06
3.2757274e-06
3.2849914e-06
3.2950249e-06
3.3056993e-06
3.3168779e-06
3.3284167e-06
3.3401643e-06
3.3519581e-06
3.3636129e-06
3.3748913e-06
3.3854385e-06
3.3946456e-06
3.4013843e-06
3.4035259e-06
3.3971302e-06
3.3751889e-06
3.3258729e-06
3.2304275e-06
3.0613037e-06
2.7819493e-06
2.3510059e-06
1.7344792e-06
9.3423801e-07
3.3689338e-06
3.3757695e-06
3.3835266e-06
3.3921053e-06
3.401395e-06
3.411276e-06
3.4216206e-06
3.4322942e-06
3.4431549e-06
3.4540494e-06
3.4648007e-06
3.4751782e-06
3.4848297e-06
3.4931411e-06
3.4989638e-06
3.5001202e-06
3.4925707e-06
3.4691247e-06
3.4176412e-06
3.3188736e-06
3.1445647e-06
2.8572666e-06
2.4147142e-06
1.7823962e-06
9.6264559e-07
3.4772622e-06
3.4835798e-06
3.4907483e-06
3.4986749e-06
3.5072567e-06
3.5163822e-06
3.5259323e-06
3.5357815e-06
3.5457966e-06
3.555833e-06
3.5657216e-06
3.5752378e-06
3.5840316e-06
3.5914831e-06
3.5964224e-06
3.5966218e-06
3.5879416e-06
3.5630068e-06
3.5093643e-06
3.4072782e-06
3.2277952e-06
2.9326114e-06
2.4786366e-06
1.8307926e-06
9.9075206e-07
3.5845485e-06
3.5903737e-06
3.5969826e-06
3.6042891e-06
3.6121977e-06
3.6206045e-06
3.6293987e-06
3.638463e-06
3.6476726e-06
3.6568912e-06
3.665957e-06
3.6746509e-06
3.6826245e-06
3.6892516e-06
3.6933402e-06
3.692612e-06
3.6828261e-06
3.6564234e-06
3.6006398e-06
3.4952534e-06
3.3106208e-06
3.0075791e-06
2.5421323e-06
1.8783001e-06
1.016952e-06
3.6903429e-06
3.6957006e-06
3.7017783e-06
3.7084961e-06
3.7157653e-06
3.7234894e-06
3.7315653e-06
3.7398834e-06
3.7483271e-06
3.7567675e-06
3.7650498e-06
3.7729601e-06
3.7801509e-06
3.7859891e-06
3.7892602e-06
3.7876349e-06
3.776771e-06
3.7489266e-06
3.6910292e-06
3.5823749e-06
3.3926327e-06
3.0817696e-06
2.6048543e-06
1.9250277e-06
1.0426207e-06
3.7941489e-06
3.7990636e-06
3.8046379e-06
3.8107978e-06
3.8174609e-06
3.8245378e-06
3.8319324e-06
3.8395427e-06
3.8472595e-06
3.854961e-06
3.8624992e-06
3.8696643e-06
3.8761097e-06
3.8811949e-06
3.8836825e-06
3.8811922e-06
3.8692812e-06
3.8400263e-06
3.7800507e-06
3.6681748e-06
3.4733847e-06
3.1547825e-06
2.6665305e-06
1.9710338e-06
1.0683996e-06
3.8954089e-06
3.8999049e-06
3.9050033e-06
3.9106356e-06
3.9167258e-06
3.9231906e-06
3.9299409e-06
3.9368815e-06
3.9439103e-06
3.9509124e-06
3.9577455e-06
3.9642041e-06
3.9699418e-06
3.9743104e-06
3.9760497e-06
3.9727282e-06
3.9598038e-06
3.9291747e-06
3.8671647e-06
3.7521251e-06
3.5523695e-06
3.2261625e-06
2.7268706e-06
2.0165897e-06
1.0969875e-06
3.9934677e-06
3.9975692e-06
4.0022193e-06
4.0073546e-06
4.0129048e-06
4.0187928e-06
4.0249357e-06
4.0312449e-06
4.0376249e-06
4.0439671e-06
4.0501346e-06
4.0559258e-06
4.0609942e-06
4.0646834e-06
4.0657105e-06
4.0615935e-06
4.0476928e-06
4.0157313e-06
3.9517393e-06
3.8336079e-06
3.6289876e-06
3.295314e-06
2.7851504e-06
2.0599696e-06
1.1245318e-06
4.0874912e-06
4.0912226e-06
4.0954519e-06
4.100121e-06
4.1051646e-06
4.1105113e-06
4.1160842e-06
4.1218009e-06
4.1275717e-06
4.133294e-06
4.1388361e-06
4.1439996e-06
4.1484376e-06
4.1514856e-06
4.1518381e-06
4.1469635e-06
4.1321269e-06
4.0988811e-06
4.0329722e-06
3.9118467e-06
3.702517e-06
3.3616301e-06
2.8410613e-06
2.102137e-06
1.1497436e-06
4.1762936e-06
4.1796796e-06
4.1835164e-06
4.1877505e-06
4.1923215e-06
4.1971633e-06
4.2022044e-06
4.2073681e-06
4.2125704e-06
4.2177139e-06
4.2226717e-06
4.2272482e-06
4.2310958e-06
4.2335419e-06
4.2332585e-06
4.2276662e-06
4.2119378e-06
4.177463e-06
4.1097173e-06
3.9857282e-06
3.7719125e-06
3.424179e-06
2.8937256e-06
2.1418833e-06
1.1757273e-06
4.2580001e-06
4.2610659e-06
4.2645392e-06
4.2683704e-06
4.2725039e-06
4.2768784e-06
4.2814274e-06
4.2860793e-06
4.2907552e-06
4.2953626e-06
4.2997786e-06
4.3038103e-06
4.3071087e-06
4.3089933e-06
4.3081141e-06
4.3018456e-06
4.2852727e-06
4.2496315e-06
4.1801459e-06
4.0534601e-06
3.8354554e-06
3.4813833e-06
2.9418072e-06
2.1777262e-06
1.1962918e-06
4.3294268e-06
4.3321987e-06
4.3353384e-06
4.3388005e-06
4.3425333e-06
4.3464801e-06
4.3505787e-06
4.3547622e-06
4.3589561e-06
4.3630722e-06
4.3669911e-06
4.3705217e-06
4.3733139e-06
4.3746786e-06
4.3732448e-06
4.3663431e-06
4.3489766e-06
4.3122404e-06
4.2411331e-06
4.1119647e-06
3.8901612e-06
3.5304117e-06
2.9826294e-06
2.2067901e-06
1.2076204e-06
4.3850222e-06
4.3875276e-06
4.3903653e-06
4.3934937e-06
4.396865e-06
4.4004261e-06
4.404119e-06
4.4078805e-06
4.4116399e-06
4.4153124e-06
4.4187814e-06
4.4218573e-06
4.4241879e-06
4.4250759e-06
4.4231302e-06
4.4156408e-06
4.3975373e-06
4.3597929e-06
4.2872196e-06
4.1558661e-06
3.9308252e-06
3.566403e-06
3.0121099e-06
2.227553e-06
1.2174892e-06
4.4151964e-06
4.4174638e-06
4.4200328e-06
4.422865e-06
4.4259162e-06
4.4291366e-06
4.4324716e-06
4.4358609e-06
4.4392367e-06
4.4425166e-06
4.445586e-06
4.448256e-06
4.4501721e-06
4.4506289e-06
4.4482172e-06
4.4401916e-06
4.4214225e-06
4.3827916e-06
4.3089871e-06
4.1759128e-06
3.9485289e-06
3.5810653e-06
3.0230448e-06
2.2341642e-06
1.2098498e-06
4.4039301e-06
4.4059892e-06
4.4083238e-06
4.4108986e-06
4.4136728e-06
4.4165996e-06
4.419627e-06
4.4226967e-06
4.4257426e-06
4.4286834e-06
4.4314056e-06
4.4337205e-06
4.4352718e-06
4.4353472e-06
4.4325231e-06
4.42403e-06
4.4047039e-06
4.3653893e-06
4.2907572e-06
4.1567643e-06
3.9285786e-06
3.5608962e-06
3.0040119e-06
2.2185743e-06
1.2006452e-06
4.3257945e-06
4.3276741e-06
4.3298075e-06
4.3321627e-06
4.334702e-06
4.337382e-06
4.3401525e-06
4.3429567e-06
4.3457277e-06
4.3483832e-06
4.3508102e-06
4.3528215e-06
4.3540609e-06
4.3538122e-06
4.3506469e-06
4.3417947e-06
4.3221051e-06
4.2824827e-06
4.2077662e-06
4.0742955e-06
3.8480029e-06
3.4849244e-06
2.9373504e-06
2.1681038e-06
1.1736304e-06
4.1430573e-06
4.1447798e-06
4.1467385e-06
4.1489045e-06
4.1512455e-06
4.1537229e-06
4.1562872e-06
4.1588818e-06
4.1614346e-06
4.1638554e-06
4.166035e-06
4.1677933e-06
4.1687799e-06
4.1682773e-06
4.1648748e-06
4.1558517e-06
4.1361626e-06
4.0969449e-06
4.0235177e-06
3.8931371e-06
3.6733493e-06
3.3227792e-06
2.7973032e-06
2.063417e-06
1.1180512e-06
3.8045534e-06
3.806118e-06
3.8079074e-06
3.809895e-06
3.8120593e-06
3.8143725e-06
3.8167831e-06
3.8192316e-06
3.8216241e-06
3.8238465e-06
3.8258151e-06
3.8273762e-06
3.8281975e-06
3.8275366e-06
3.8240519e-06
3.8151866e-06
3.7961663e-06
3.7586551e-06
3.688959e-06
3.5660685e-06
3.3603745e-06
3.0347635e-06
2.5506352e-06
1.8799809e-06
1.0213709e-06
3.2494624e-06
3.2507715e-06
3.2523381e-06
3.254109e-06
3.2560816e-06
3.258241e-06
3.2605335e-06
3.2628842e-06
3.2651366e-06
3.2671218e-06
3.2688781e-06
3.270336e-06
3.2711976e-06
3.2705429e-06
3.267214e-06
3.2590822e-06
3.2418799e-06
3.208287e-06
3.146367e-06
3.0380237e-06
2.8581506e-06
2.5759682e-06
2.1605351e-06
1.5909823e-06
8.691238e-07
2.4205419e-06
2.421038e-06
2.4221587e-06
2.4235786e-06
2.4252869e-06
2.4271841e-06
2.4292512e-06
2.4313866e-06
2.4333149e-06
2.4348012e-06
2.4362316e-06
2.4377413e-06
2.4390931e-06
2.4387681e-06
2.4360489e-06
2.4299353e-06
2.4163869e-06
2.3900877e-06
2.3419778e-06
2.2584311e-06
2.1208783e-06
1.9071501e-06
1.5959315e-06
1.1746228e-06
6.5136514e-07
1.2959723e-06
1.294154e-06
1.2943321e-06
1.2951657e-06
1.2964588e-06
1.2977265e-06
1.2990858e-06
1.3004679e-06
1.3015567e-06
1.302149e-06
1.3029756e-06
1.3043928e-06
1.3062846e-06
1.306573e-06
1.3054592e-06
1.3049551e-06
1.2977312e-06
1.2830287e-06
1.2562457e-06
1.2100073e-06
1.1344207e-06
1.0179784e-06
8.5025971e-07
6.269204e-07
3.5922932e-07
)
;

boundaryField
{
    Walls
    {
        type            kqRWallFunction;
        value           nonuniform List<scalar> 
38
(
5.5458491e-06
2.5863981e-06
7.9651762e-06
3.7634388e-05
0.00028036812
0.0023478917
0.055842405
0.060502538
0.018115954
0.026932355
0.034091188
0.041120457
0.047252476
0.051568762
0.055471416
0.059238779
0.061951525
0.06408594
0.06543413
0.067241639
0.069075898
0.069290327
0.070100365
0.070872774
0.071052869
0.071501502
0.071988683
0.072151879
0.072415277
0.072676865
0.072357502
0.072272227
0.072665458
0.072454772
0.072138964
0.07199179
0.071240028
0.066212812
)
;
    }
    Inlet
    {
        type            turbulentIntensityKineticEnergyInlet;
        intensity       0.05;
        value           nonuniform List<scalar> 3(0.0082442995 0.0078696015 0.0096494812);
    }
    Outlet
    {
        type            inletOutlet;
        inletValue      uniform 0;
        value           nonuniform List<scalar> 
86
(
0
0
0
0
0
0
0
0
0
0
0
0
0
0
0
0
0
0
0
0
0
0
0
0
0
0
0
0
0
0
0.0030139608
0.0031059355
0.0025039709
0
0
0
0
0.00011140324
7.0766708e-05
3.5020729e-05
0
0
0
0
7.5020344e-07
6.7225103e-07
6.531979e-07
6.5389668e-07
6.6357616e-07
6.8124737e-07
7.0129703e-07
7.2486847e-07
7.5367699e-07
7.818538e-07
8.0943995e-07
0
0
0
0
0
0
0
0
0
0
0
0
0
0
0
0
0
0
0
0
0
0
0
0
0
0
0
0
0
0.0024498391
0.0031099275
)
;
    }
    Front
    {
        type            wedge;
    }
    Back
    {
        type            wedge;
    }
    defaultFaces
    {
        type            empty;
    }
}


// ************************************************************************* //
