/*--------------------------------*- C++ -*----------------------------------*\
| =========                 |                                                 |
| \\      /  F ield         | OpenFOAM: The Open Source CFD Toolbox           |
|  \\    /   O peration     | Version:  4.0                                   |
|   \\  /    A nd           | Web:      www.OpenFOAM.org                      |
|    \\/     M anipulation  |                                                 |
\*---------------------------------------------------------------------------*/
FoamFile
{
    version     2.0;
    format      ascii;
    class       volScalarField;
    location    "0.2";
    object      nut;
}
// * * * * * * * * * * * * * * * * * * * * * * * * * * * * * * * * * * * * * //

dimensions      [0 2 -1 0 0 0 0];

internalField   nonuniform List<scalar> 
1740
(
1.6474058e-05
1.3817456e-05
1.2145045e-06
1.3287171e-05
7.070022e-06
1.7925735e-06
1.9357393e-05
5.5388606e-06
2.2560518e-06
2.051007e-05
4.9808671e-06
2.7059601e-06
2.1519376e-05
4.5283207e-06
3.0944801e-06
1.7221786e-05
4.1922912e-06
3.3659699e-06
1.420045e-05
3.9816096e-06
3.6093459e-06
1.2051899e-05
3.8215611e-06
3.8438759e-06
1.0548453e-05
3.6959188e-06
4.0115724e-06
9.4199077e-06
3.6157836e-06
4.1430787e-06
8.6653457e-06
3.5631104e-06
4.2261194e-06
7.9999871e-06
3.5316426e-06
4.3365353e-06
7.4161261e-06
3.5198544e-06
4.4484885e-06
6.9315063e-06
3.5217951e-06
4.4614964e-06
6.5207342e-06
3.5043984e-06
4.5107313e-06
6.1650423e-06
3.4908941e-06
4.5578404e-06
5.8876013e-06
3.5008279e-06
4.5689641e-06
5.6542614e-06
3.5029894e-06
4.5958099e-06
5.4264135e-06
3.491094e-06
4.6253308e-06
5.2303699e-06
3.4877747e-06
4.6349257e-06
5.0192481e-06
3.5012151e-06
4.6512555e-06
4.8416549e-06
3.5162155e-06
4.6682872e-06
4.7109477e-06
3.535043e-06
4.6485302e-06
4.5884538e-06
3.5177122e-06
4.642855e-06
4.4890007e-06
3.5027553e-06
4.6668343e-06
4.3904513e-06
3.5255592e-06
4.6540535e-06
4.2905095e-06
3.5477124e-06
4.6347383e-06
4.1964131e-06
3.5393407e-06
4.6257807e-06
4.138765e-06
3.5537724e-06
4.5802695e-06
2.86615e-06
3.5220977e-06
4.2733578e-06
1.8718042e-06
2.1974973e-06
4.3801918e-06
7.1629429e-06
7.3374578e-06
6.6793914e-06
6.5182209e-06
6.7174919e-06
6.3514378e-06
5.1763475e-06
5.1165962e-06
4.8662588e-06
4.3227643e-06
4.2516292e-06
4.1131725e-06
3.7247647e-06
3.6810366e-06
3.6159204e-06
3.234728e-06
3.2140511e-06
3.1893162e-06
2.7535519e-06
2.7452308e-06
2.7382387e-06
2.2296159e-06
2.2259515e-06
2.2237391e-06
1.6682726e-06
1.6655165e-06
1.6625423e-06
1.1283347e-06
1.1255718e-06
1.1211846e-06
6.8567304e-07
6.8323981e-07
6.7881564e-07
3.8046574e-07
3.7872231e-07
3.7538342e-07
2.0031141e-07
1.9925766e-07
1.972039e-07
1.0691735e-07
1.0639413e-07
1.0535267e-07
6.3191456e-08
6.2959867e-08
6.2497889e-08
4.456696e-08
4.4482258e-08
4.4319196e-08
3.7745003e-08
3.772919e-08
3.7707857e-08
3.614386e-08
3.6158289e-08
3.6198772e-08
3.6719415e-08
3.6746147e-08
3.6810818e-08
3.8148498e-08
3.8179531e-08
3.8251683e-08
3.989223e-08
3.992408e-08
3.9996662e-08
4.1746634e-08
4.1777816e-08
4.1848008e-08
4.3640925e-08
4.3670823e-08
4.3737583e-08
4.5553059e-08
4.558143e-08
4.5644434e-08
4.7476857e-08
4.7503621e-08
4.7562829e-08
4.941018e-08
4.9435328e-08
4.949081e-08
5.1351072e-08
5.1374628e-08
5.1426496e-08
5.3296686e-08
5.3318691e-08
5.3367075e-08
5.5243089e-08
5.5263593e-08
5.5308629e-08
5.7185303e-08
5.720436e-08
5.7246185e-08
5.9117384e-08
5.9135052e-08
5.9173805e-08
6.1032508e-08
6.1048845e-08
6.1084662e-08
6.2923037e-08
6.2938102e-08
6.2971119e-08
6.478059e-08
6.4794443e-08
6.4824797e-08
6.6596129e-08
6.6608832e-08
6.6636659e-08
6.8360059e-08
6.8371673e-08
6.8397111e-08
7.0062381e-08
7.007297e-08
7.009616e-08
7.1692918e-08
7.1702548e-08
7.1723635e-08
7.3241652e-08
7.3250392e-08
7.3269526e-08
7.4699186e-08
7.4707106e-08
7.4724448e-08
7.6057271e-08
7.606445e-08
7.608017e-08
7.7309193e-08
7.7315715e-08
7.7329993e-08
7.844958e-08
7.8455532e-08
7.8468562e-08
7.9472992e-08
7.9478464e-08
7.9490447e-08
8.0370518e-08
8.0375604e-08
8.0386741e-08
8.112344e-08
8.1128228e-08
8.1138711e-08
8.1690786e-08
8.169535e-08
8.1705348e-08
8.198591e-08
8.199031e-08
8.1999951e-08
8.1779152e-08
8.1783408e-08
8.1792745e-08
4.1439407e-06
4.4715741e-06
6.712028e-06
8.4295578e-06
5.9759321e-06
6.0232497e-06
4.7170224e-06
4.8197338e-06
4.0587878e-06
4.1596296e-06
3.6079318e-06
3.6951227e-06
3.2008305e-06
3.2701904e-06
2.7530994e-06
2.8024244e-06
2.2335886e-06
2.2630139e-06
1.6651219e-06
1.6778247e-06
1.1184662e-06
1.1202087e-06
6.7427049e-07
6.7123399e-07
3.714558e-07
3.6781776e-07
1.9465764e-07
1.9205617e-07
1.0402149e-07
1.0260289e-07
6.190487e-08
6.1270214e-08
4.412014e-08
4.3922951e-08
3.7698875e-08
3.7717534e-08
3.6272644e-08
3.6385563e-08
3.6916017e-08
3.7063337e-08
3.8365256e-08
3.8520124e-08
4.0109116e-08
4.0260589e-08
4.1955753e-08
4.2099898e-08
4.3839451e-08
4.3975166e-08
4.574019e-08
4.5867417e-08
4.765257e-08
4.7771589e-08
4.9574743e-08
4.9685919e-08
5.1504857e-08
5.1608559e-08
5.34401e-08
5.3536682e-08
5.5376552e-08
5.5466344e-08
5.7309232e-08
5.7392549e-08
5.9232196e-08
5.930934e-08
6.1138613e-08
6.1209874e-08
6.302084e-08
6.3086504e-08
6.4870499e-08
6.4930845e-08
6.6678549e-08
6.6733856e-08
6.84354e-08
6.8485948e-08
7.0131062e-08
7.0177134e-08
7.1755369e-08
7.1797256e-08
7.3298321e-08
7.3336327e-08
7.4750545e-08
7.4784988e-08
7.6103824e-08
7.6135044e-08
7.735148e-08
7.737984e-08
7.8488172e-08
7.8514058e-08
7.9508484e-08
7.9532296e-08
8.0403508e-08
8.0425646e-08
8.1154495e-08
8.117534e-08
8.1720402e-08
8.1740288e-08
8.2014472e-08
8.203365e-08
8.1806813e-08
8.1825334e-08
4.5992375e-10
1.3153686e-08
1.9129633e-07
8.1908899e-07
1.6303787e-06
2.2126585e-06
2.5524269e-06
2.7544805e-06
2.890967e-06
2.9971435e-06
3.0886821e-06
3.173115e-06
3.2556362e-06
3.3335333e-06
3.4056034e-06
3.4707155e-06
3.5273194e-06
3.5730154e-06
3.6038183e-06
3.6128126e-06
3.587914e-06
3.508163e-06
3.3372623e-06
3.0068016e-06
2.3038424e-06
2.1449408e-10
2.6796451e-08
3.5850063e-07
1.3715181e-06
2.5595789e-06
3.362076e-06
3.8277265e-06
4.1255924e-06
4.3494031e-06
4.5411535e-06
4.7191385e-06
4.8912653e-06
5.0610043e-06
5.2254048e-06
5.3826589e-06
5.5303946e-06
5.6651955e-06
5.7818897e-06
5.8721556e-06
5.9218113e-06
5.9063726e-06
5.7830545e-06
5.4754644e-06
4.8373441e-06
3.4681516e-06
6.6056211e-10
7.8775858e-08
8.5681651e-07
2.5046605e-06
3.7866527e-06
4.5186164e-06
4.9758659e-06
5.3130128e-06
5.6019738e-06
5.8740554e-06
6.1429801e-06
6.4132854e-06
6.6843496e-06
6.9536379e-06
7.2187809e-06
7.4765501e-06
7.7217317e-06
7.9465233e-06
8.138498e-06
8.2764272e-06
8.3242092e-06
8.2183269e-06
7.8421937e-06
6.9644718e-06
4.987313e-06
3.1209774e-09
2.8503295e-07
2.0612958e-06
4.0014503e-06
5.0410431e-06
5.626843e-06
6.0304534e-06
6.3681591e-06
6.689681e-06
7.0126034e-06
7.346525e-06
7.6934967e-06
8.0486849e-06
8.4091915e-06
8.7729621e-06
9.1372704e-06
9.4966221e-06
9.8423103e-06
1.0160881e-05
1.0430733e-05
1.0615829e-05
1.0652803e-05
1.0419852e-05
9.6431996e-06
7.4704136e-06
2.3244848e-08
1.1350936e-06
3.983761e-06
5.5933729e-06
6.4459444e-06
6.9675013e-06
7.3509732e-06
7.6960117e-06
8.0437143e-06
8.3951605e-06
8.7621197e-06
9.1510981e-06
9.5508298e-06
9.9555208e-06
1.0364397e-05
1.0780006e-05
1.1199585e-05
1.1617037e-05
1.2022462e-05
1.2400252e-05
1.2725617e-05
1.2959446e-05
1.3041239e-05
1.2894642e-05
1.2500428e-05
1.9424753e-07
2.7425439e-06
5.8874405e-06
7.6931765e-06
8.6106357e-06
9.0309301e-06
9.2301326e-06
9.3696627e-06
9.5104271e-06
9.6702032e-06
9.8566962e-06
1.00758e-05
1.0327637e-05
1.0610906e-05
1.0924792e-05
1.1267901e-05
1.1637505e-05
1.202856e-05
1.2433321e-05
1.2840604e-05
1.3234114e-05
1.3590647e-05
1.3877864e-05
1.4063225e-05
1.4108461e-05
4.3170731e-06
4.2969951e-06
4.3474386e-06
4.4622451e-06
4.6396315e-06
4.8702876e-06
5.1453969e-06
5.4625004e-06
5.8229658e-06
6.2275114e-06
6.6747186e-06
7.1609312e-06
7.6799476e-06
8.2238765e-06
8.7845207e-06
9.3547997e-06
9.929114e-06
1.0502399e-05
1.106898e-05
1.1621372e-05
1.2148663e-05
1.2635073e-05
1.3058504e-05
1.3397046e-05
1.3607083e-05
9.0841648e-06
9.3474487e-06
9.7497848e-06
1.0172023e-05
1.0351318e-05
1.0317745e-05
1.0203251e-05
1.0108236e-05
1.0072172e-05
1.009658e-05
1.0176911e-05
1.0308041e-05
1.0487e-05
1.0712047e-05
1.0981039e-05
1.1290915e-05
1.1636893e-05
1.2012161e-05
1.2407464e-05
1.2810147e-05
1.3202395e-05
1.3559473e-05
1.3847402e-05
1.4032671e-05
1.4077567e-05
6.396971e-06
6.8079043e-06
7.2397594e-06
7.6401422e-06
7.941967e-06
8.1580931e-06
8.3476812e-06
8.5516281e-06
8.7765569e-06
9.0359092e-06
9.3263073e-06
9.637688e-06
9.9632817e-06
1.0306819e-05
1.0669844e-05
1.1050771e-05
1.1445017e-05
1.1844937e-05
1.223885e-05
1.2609117e-05
1.2928724e-05
1.3156103e-05
1.322807e-05
1.3065819e-05
1.2649368e-05
5.1306356e-06
5.4849986e-06
5.8326387e-06
6.1455364e-06
6.4062323e-06
6.6266833e-06
6.8366597e-06
7.0560065e-06
7.2946062e-06
7.5578968e-06
7.8427903e-06
8.1450574e-06
8.4624236e-06
8.7939356e-06
9.1376125e-06
9.4892678e-06
9.8419066e-06
1.0184862e-05
1.0502074e-05
1.076878e-05
1.0945185e-05
1.0963613e-05
1.069759e-05
9.8664335e-06
7.5964614e-06
4.3947751e-06
4.6765242e-06
4.9579154e-06
5.2175057e-06
5.4482394e-06
5.6571477e-06
5.8579064e-06
6.0622963e-06
6.2775717e-06
6.5065169e-06
6.7474486e-06
6.9975645e-06
7.2547916e-06
7.5168927e-06
7.7813288e-06
8.0432372e-06
8.2951688e-06
8.5259669e-06
8.7186299e-06
8.8464776e-06
8.8664432e-06
8.7071141e-06
8.2452242e-06
7.2482659e-06
5.1306136e-06
3.8670313e-06
4.0787882e-06
4.297071e-06
4.5045739e-06
4.6957519e-06
4.8737749e-06
5.0456139e-06
5.2178278e-06
5.3947732e-06
5.577913e-06
5.7660784e-06
5.9569937e-06
6.1483058e-06
6.3373403e-06
6.5207795e-06
6.6940897e-06
6.850862e-06
6.9817591e-06
7.072609e-06
7.1011488e-06
7.0319013e-06
6.8083978e-06
6.3403084e-06
5.4719601e-06
3.794125e-06
3.392866e-06
3.545865e-06
3.7077186e-06
3.8650419e-06
4.0123019e-06
4.1498148e-06
4.2808387e-06
4.4090076e-06
4.5368318e-06
4.665079e-06
4.7928416e-06
4.9182545e-06
5.0390658e-06
5.1527522e-06
5.2563909e-06
5.3464115e-06
5.4182624e-06
5.4656688e-06
5.4791921e-06
5.4437837e-06
5.3351548e-06
5.114965e-06
4.7243768e-06
4.0685468e-06
2.8901665e-06
2.884945e-06
2.9889682e-06
3.1011489e-06
3.2115598e-06
3.3149121e-06
3.4099098e-06
3.4976654e-06
3.5800078e-06
3.6583039e-06
3.7329008e-06
3.8030662e-06
3.8672928e-06
3.9236649e-06
3.9700941e-06
4.0044061e-06
4.0243411e-06
4.0274336e-06
4.0106034e-06
3.9691955e-06
3.8952317e-06
3.7748053e-06
3.5850459e-06
3.2923628e-06
2.8601036e-06
2.3271351e-06
2.3123739e-06
2.3759237e-06
2.445564e-06
2.5141998e-06
2.5772941e-06
2.6328971e-06
2.6809657e-06
2.7222437e-06
2.7574309e-06
2.7866641e-06
2.8094041e-06
2.8245632e-06
2.830765e-06
2.8265856e-06
2.8107546e-06
2.7822984e-06
2.7405795e-06
2.6851332e-06
2.6150994e-06
2.5280866e-06
2.4185122e-06
2.2760793e-06
2.0867759e-06
1.8454038e-06
1.6127525e-06
1.7016379e-06
1.7338916e-06
1.7699144e-06
1.8049697e-06
1.8355483e-06
1.8597701e-06
1.8771062e-06
1.887765e-06
1.8920991e-06
1.8902176e-06
1.8818484e-06
1.8663991e-06
1.8431332e-06
1.811388e-06
1.7707808e-06
1.7213747e-06
1.6637736e-06
1.5990728e-06
1.5285543e-06
1.4530827e-06
1.3723811e-06
1.2848721e-06
1.1897823e-06
1.0950666e-06
1.0297446e-06
1.1274127e-06
1.138993e-06
1.1524594e-06
1.1649663e-06
1.1741733e-06
1.1786662e-06
1.1779017e-06
1.1718989e-06
1.1608829e-06
1.1450182e-06
1.1242989e-06
1.0985694e-06
1.0676451e-06
1.0314617e-06
9.9021315e-07
9.4446622e-07
8.9521915e-07
8.4386963e-07
7.9205155e-07
7.413717e-07
6.9323799e-07
6.4925188e-07
6.1301549e-07
5.9423564e-07
6.1107939e-07
6.7046506e-07
6.7162603e-07
6.7353758e-07
6.7470237e-07
6.7380238e-07
6.6998193e-07
6.6288282e-07
6.5250812e-07
6.3902982e-07
6.2263278e-07
6.0344376e-07
5.8153485e-07
5.5698926e-07
5.2998308e-07
5.0085304e-07
4.7014449e-07
4.3863034e-07
4.0727898e-07
3.7716779e-07
3.4937504e-07
3.2495077e-07
3.0515748e-07
2.9218523e-07
2.9025256e-07
3.0589463e-07
3.6495616e-07
3.6282097e-07
3.6092815e-07
3.5859152e-07
3.5517325e-07
3.5024483e-07
3.4362541e-07
3.353306e-07
3.2548082e-07
3.1422e-07
3.0167506e-07
2.8795038e-07
2.731606e-07
2.5747657e-07
2.4114296e-07
2.2449414e-07
2.0795649e-07
1.9202611e-07
1.7722596e-07
1.6405954e-07
1.5298676e-07
1.4449563e-07
1.3923375e-07
1.3793339e-07
1.3995358e-07
1.8967006e-07
1.8753035e-07
1.8546155e-07
1.8318391e-07
1.8042668e-07
1.7700505e-07
1.728437e-07
1.6795977e-07
1.6242341e-07
1.5631871e-07
1.4972425e-07
1.42712e-07
1.3533914e-07
1.2771296e-07
1.1996494e-07
1.1225073e-07
1.0475759e-07
9.7700879e-08
9.1302425e-08
8.5764055e-08
8.1222816e-08
7.7801022e-08
7.5586298e-08
7.4471822e-08
7.3411743e-08
1.0123058e-07
9.9939382e-08
9.8674396e-08
9.7333966e-08
9.5814123e-08
9.4042986e-08
9.1992493e-08
8.9673225e-08
8.7118452e-08
8.4367292e-08
8.145565e-08
7.8417041e-08
7.5274339e-08
7.2075379e-08
6.8877968e-08
6.5750441e-08
6.2770941e-08
6.0022506e-08
5.7585694e-08
5.5530826e-08
5.3910611e-08
5.2717648e-08
5.192775e-08
5.1416924e-08
5.0764715e-08
6.0656792e-08
6.0088168e-08
5.9550741e-08
5.9009435e-08
5.8425485e-08
5.7770595e-08
5.7032248e-08
5.6211831e-08
5.5319211e-08
5.4366594e-08
5.3365749e-08
5.2328196e-08
5.1266002e-08
5.0192797e-08
4.9132061e-08
4.8110404e-08
4.7157003e-08
4.6302037e-08
4.5573902e-08
4.4996165e-08
4.4586357e-08
4.4327938e-08
4.4182889e-08
4.4084388e-08
4.3875878e-08
4.3755744e-08
4.3631546e-08
4.3547863e-08
4.3491944e-08
4.3448086e-08
4.3402839e-08
4.3347609e-08
4.3278259e-08
4.319361e-08
4.3093798e-08
4.2979526e-08
4.2852132e-08
4.271401e-08
4.2569402e-08
4.2423058e-08
4.2285014e-08
4.2166083e-08
4.2077705e-08
4.2030858e-08
4.203445e-08
4.2094773e-08
4.220174e-08
4.2317562e-08
4.2398577e-08
4.2350596e-08
3.7775601e-08
3.7879248e-08
3.8027424e-08
3.8214016e-08
3.8430511e-08
3.8668207e-08
3.8919429e-08
3.9177793e-08
3.9438024e-08
3.9695683e-08
3.9947092e-08
4.0189411e-08
4.0420871e-08
4.0641201e-08
4.0849369e-08
4.1048754e-08
4.1243869e-08
4.1440164e-08
4.164336e-08
4.1858204e-08
4.208762e-08
4.2325302e-08
4.2534968e-08
4.2677944e-08
4.2665208e-08
3.6541848e-08
3.6743721e-08
3.6989522e-08
3.7274719e-08
3.7593046e-08
3.7937497e-08
3.8301019e-08
3.8676876e-08
3.9058826e-08
3.9441212e-08
3.9819045e-08
4.0188114e-08
4.0545118e-08
4.0887838e-08
4.1215098e-08
4.1526495e-08
4.1824848e-08
4.2113964e-08
4.2398191e-08
4.2681201e-08
4.2964797e-08
4.3243602e-08
4.3483009e-08
4.3644115e-08
4.3634362e-08
3.7253765e-08
3.7487404e-08
3.7761965e-08
3.8073344e-08
3.8416209e-08
3.8784531e-08
3.9172001e-08
3.957235e-08
3.9979555e-08
4.0388e-08
4.0792591e-08
4.1188883e-08
4.1573221e-08
4.1942942e-08
4.2296681e-08
4.2633432e-08
4.2955309e-08
4.3265763e-08
4.3568898e-08
4.3868133e-08
4.4164705e-08
4.4452985e-08
4.4699818e-08
4.4864905e-08
4.4852494e-08
3.8715802e-08
3.8951315e-08
3.9224087e-08
3.9530303e-08
3.9865269e-08
4.022373e-08
4.0600146e-08
4.0988917e-08
4.1384569e-08
4.1781897e-08
4.2176087e-08
4.2562851e-08
4.2938591e-08
4.3300628e-08
4.3647473e-08
4.3979032e-08
4.4296488e-08
4.460349e-08
4.4904238e-08
4.5202102e-08
4.5497868e-08
4.5785264e-08
4.6032203e-08
4.6196847e-08
4.6179669e-08
4.0449956e-08
4.0675734e-08
4.0935302e-08
4.1225149e-08
4.1541113e-08
4.1878582e-08
4.2232683e-08
4.2598453e-08
4.2970975e-08
4.3345506e-08
4.3717594e-08
4.4083226e-08
4.4439005e-08
4.4782416e-08
4.5112145e-08
4.5428444e-08
4.5732581e-08
4.6028345e-08
4.6320088e-08
4.661117e-08
4.6901945e-08
4.7185341e-08
4.742992e-08
4.7592227e-08
4.7569646e-08
4.2279054e-08
4.2491524e-08
4.2734768e-08
4.3005569e-08
4.3300202e-08
4.3614581e-08
4.3944375e-08
4.4285148e-08
4.4632468e-08
4.498201e-08
4.5329677e-08
4.5671747e-08
4.6005071e-08
4.6327356e-08
4.6637521e-08
4.6936086e-08
4.7224702e-08
4.7507288e-08
4.7788377e-08
4.8071339e-08
4.8356111e-08
4.8634764e-08
4.887617e-08
4.903515e-08
4.9007347e-08
4.4143252e-08
4.4341947e-08
4.4568834e-08
4.4820965e-08
4.5094974e-08
4.5387189e-08
4.5693714e-08
4.6010543e-08
4.6333641e-08
4.6659049e-08
4.6982992e-08
4.730203e-08
4.7613268e-08
4.7914651e-08
4.8205332e-08
4.8486028e-08
4.8759169e-08
4.9028516e-08
4.9298872e-08
4.9573648e-08
4.98524e-08
5.0126321e-08
5.036427e-08
5.0518922e-08
5.048232e-08
4.6024637e-08
4.6210096e-08
4.6421516e-08
4.6656184e-08
4.6911027e-08
4.7182706e-08
4.7467681e-08
4.7762291e-08
4.8062842e-08
4.8365684e-08
4.8667333e-08
4.8964615e-08
4.9254885e-08
4.9536336e-08
4.9808373e-08
5.0072004e-08
5.0330057e-08
5.0586591e-08
5.084657e-08
5.111345e-08
5.138644e-08
5.1655878e-08
5.189037e-08
5.2040173e-08
5.199242e-08
4.7918446e-08
4.8091437e-08
4.8288421e-08
4.8506888e-08
4.8744015e-08
4.8996735e-08
4.9261804e-08
4.9535853e-08
4.9815476e-08
5.00973e-08
5.0378099e-08
5.0654948e-08
5.0925446e-08
5.1188029e-08
5.1442366e-08
5.1689747e-08
5.1933286e-08
5.2177615e-08
5.2427679e-08
5.2687025e-08
5.2954554e-08
5.3219792e-08
5.3450937e-08
5.3595635e-08
5.3534148e-08
4.9822958e-08
4.9984226e-08
5.0167716e-08
5.0371098e-08
5.059176e-08
5.0826874e-08
5.1073442e-08
5.1328353e-08
5.1588451e-08
5.1850609e-08
5.2111839e-08
5.2369451e-08
5.2621272e-08
5.2865983e-08
5.3103513e-08
5.3335441e-08
5.3565203e-08
5.3797794e-08
5.4038372e-08
5.4290532e-08
5.4552867e-08
5.4814111e-08
5.5041872e-08
5.5181069e-08
5.5105904e-08
5.1736294e-08
5.1886509e-08
5.2057322e-08
5.2246564e-08
5.2451818e-08
5.2670459e-08
5.2899709e-08
5.3136681e-08
5.3378445e-08
5.3622098e-08
5.3864873e-08
5.4104294e-08
5.4338417e-08
5.4566154e-08
5.4787691e-08
5.5004896e-08
5.5221517e-08
5.5442867e-08
5.5674384e-08
5.5919683e-08
5.6177059e-08
5.643445e-08
5.6658756e-08
5.6792349e-08
5.6704546e-08
5.3655583e-08
5.3795336e-08
5.3954183e-08
5.4130102e-08
5.4320847e-08
5.4523982e-08
5.4736922e-08
5.4956984e-08
5.5181442e-08
5.5407599e-08
5.5632894e-08
5.5855056e-08
5.6072354e-08
5.6283929e-08
5.6490217e-08
5.6693367e-08
5.6897429e-08
5.7107995e-08
5.7330889e-08
5.7569647e-08
5.7822294e-08
5.8076016e-08
5.8297001e-08
5.8425472e-08
5.8326793e-08
5.5576843e-08
5.5706669e-08
5.585418e-08
5.6017494e-08
5.6194519e-08
5.638299e-08
5.6580502e-08
5.6784557e-08
5.6992618e-08
5.7202178e-08
5.7410867e-08
5.7616613e-08
5.7817886e-08
5.8014046e-08
5.8205774e-08
5.8395495e-08
5.858756e-08
5.878786e-08
5.9002476e-08
5.9234992e-08
5.9483154e-08
5.9733428e-08
5.9951293e-08
6.0074953e-08
5.9965807e-08
5.7495049e-08
5.7615439e-08
5.7752188e-08
5.7903542e-08
5.8067557e-08
5.8242122e-08
5.8424999e-08
5.8613862e-08
5.8806348e-08
5.9000129e-08
5.9193016e-08
5.9383122e-08
5.9569112e-08
5.9750557e-08
5.9928377e-08
6.0105263e-08
6.0285863e-08
6.0476361e-08
6.0683068e-08
6.0909652e-08
6.1153577e-08
6.1400625e-08
6.1615484e-08
6.1734098e-08
6.1612813e-08
5.9404222e-08
5.9515635e-08
5.9642153e-08
5.9782147e-08
5.9933804e-08
6.0095161e-08
6.0264133e-08
6.0438555e-08
6.0616229e-08
6.0794994e-08
6.097283e-08
6.1148028e-08
6.1319437e-08
6.1486834e-08
6.1651367e-08
6.181599e-08
6.1985637e-08
6.2166775e-08
6.2365926e-08
6.2586899e-08
6.2826828e-08
6.3070824e-08
6.3282688e-08
6.3395989e-08
6.3261346e-08
6.1297504e-08
6.1400378e-08
6.1517171e-08
6.1646366e-08
6.178628e-08
6.1935085e-08
6.2090841e-08
6.2251533e-08
6.2415116e-08
6.2579588e-08
6.274309e-08
6.2904078e-08
6.3061582e-08
6.3215572e-08
6.3367421e-08
6.3520336e-08
6.3679531e-08
6.3851751e-08
6.4043736e-08
6.4259363e-08
6.4495499e-08
6.4736527e-08
6.4945145e-08
6.505213e-08
6.4901704e-08
6.3167236e-08
6.3261994e-08
6.3369545e-08
6.3488483e-08
6.3617243e-08
6.3754124e-08
6.3897324e-08
6.4044967e-08
6.4195154e-08
6.434603e-08
6.449589e-08
6.4643349e-08
6.4787605e-08
6.4928818e-08
6.5068572e-08
6.5210324e-08
6.5359558e-08
6.5523291e-08
6.5708469e-08
6.5919018e-08
6.6151537e-08
6.638966e-08
6.6594909e-08
6.6695395e-08
6.6529585e-08
6.5005027e-08
6.509208e-08
6.5190863e-08
6.530007e-08
6.5418247e-08
6.5543818e-08
6.5675103e-08
6.5810361e-08
6.594783e-08
6.6085794e-08
6.6222692e-08
6.6357289e-08
6.6488946e-08
6.6618002e-08
6.6746248e-08
6.6877376e-08
6.7017134e-08
6.7172798e-08
6.7351512e-08
6.7557232e-08
6.7786282e-08
6.8021546e-08
6.822339e-08
6.8317514e-08
6.8137449e-08
6.6801834e-08
6.6881591e-08
6.6972071e-08
6.7072065e-08
6.7180226e-08
6.7295087e-08
6.7415093e-08
6.7538623e-08
6.7664044e-08
6.7789773e-08
6.7914385e-08
6.8036786e-08
6.815649e-08
6.8274008e-08
6.8391329e-08
6.8512372e-08
6.8643135e-08
6.8791142e-08
6.8963719e-08
6.9164838e-08
6.939054e-08
6.9622959e-08
6.9821305e-08
6.9909013e-08
6.9715702e-08
6.8548068e-08
6.8620938e-08
6.8703581e-08
6.8794881e-08
6.8893588e-08
6.8998344e-08
6.9107702e-08
6.9220162e-08
6.9334208e-08
6.9448383e-08
6.9561386e-08
6.9672261e-08
6.9780666e-08
6.9887272e-08
6.9994257e-08
7.0105755e-08
7.0228004e-08
7.0368761e-08
7.0535517e-08
7.0732245e-08
7.0954728e-08
7.1184327e-08
7.1379072e-08
7.1459967e-08
7.1253572e-08
7.0233747e-08
7.0300142e-08
7.0375421e-08
7.0458551e-08
7.0548376e-08
7.0643636e-08
7.074299e-08
7.0845045e-08
7.0948399e-08
7.1051709e-08
7.1153796e-08
7.1253828e-08
7.1351597e-08
7.1447929e-08
7.1545178e-08
7.164768e-08
7.17619e-08
7.1895811e-08
7.205706e-08
7.2249619e-08
7.2468999e-08
7.2695869e-08
7.2887142e-08
7.2961678e-08
7.27422e-08
7.1848721e-08
7.1909067e-08
7.1977466e-08
7.2052963e-08
7.2134491e-08
7.2220881e-08
7.231089e-08
7.2403225e-08
7.249659e-08
7.2589747e-08
7.2681631e-08
7.2771523e-08
7.2859344e-08
7.2946061e-08
7.303419e-08
7.3128259e-08
7.3234938e-08
7.33624e-08
7.3518434e-08
7.3707008e-08
7.3923368e-08
7.4147539e-08
7.4335333e-08
7.4403432e-08
7.4171376e-08
7.3383017e-08
7.3437753e-08
7.3499774e-08
7.3568199e-08
7.3642039e-08
7.3720211e-08
7.3801562e-08
7.3884892e-08
7.3969e-08
7.405275e-08
7.4135174e-08
7.4215664e-08
7.4294255e-08
7.4372044e-08
7.4451696e-08
7.4537908e-08
7.4637538e-08
7.4758936e-08
7.4910008e-08
7.5094707e-08
7.5308022e-08
7.5529363e-08
7.5713452e-08
7.5774589e-08
7.5526253e-08
7.4827297e-08
7.4876889e-08
7.4933062e-08
7.4995004e-08
7.5061798e-08
7.5132441e-08
7.5205858e-08
7.5280938e-08
7.5356566e-08
7.5431694e-08
7.5505448e-08
7.5577317e-08
7.5647438e-08
7.5717024e-08
7.5788871e-08
7.5867825e-08
7.5960899e-08
7.6076587e-08
7.6222882e-08
7.6403699e-08
7.6613764e-08
7.6831888e-08
7.7011681e-08
7.7064815e-08
7.6796516e-08
7.6173393e-08
7.6218334e-08
7.6269223e-08
7.6325309e-08
7.6385742e-08
7.6449588e-08
7.6515847e-08
7.6583482e-08
7.6651457e-08
7.6718803e-08
7.678473e-08
7.6848809e-08
7.6911271e-08
7.6973426e-08
7.7038177e-08
7.7110488e-08
7.7197492e-08
7.7307779e-08
7.7449383e-08
7.7626138e-08
7.78325e-08
7.8046703e-08
7.8221382e-08
7.8266184e-08
7.7981619e-08
7.7414675e-08
7.7455494e-08
7.7501702e-08
7.7552602e-08
7.7607404e-08
7.7665235e-08
7.7725161e-08
7.7786211e-08
7.7847416e-08
7.7907879e-08
7.7966877e-08
7.8024058e-08
7.8079725e-08
7.8135266e-08
7.8193666e-08
7.8259968e-08
7.834137e-08
7.84465e-08
7.8583356e-08
7.8755642e-08
7.8957519e-08
7.9166688e-08
7.9335003e-08
7.9370491e-08
7.906114e-08
7.8545855e-08
7.8583111e-08
7.8625274e-08
7.8671697e-08
7.872164e-08
7.8774283e-08
7.8828748e-08
7.8884121e-08
7.8939491e-08
7.8994017e-08
7.9047038e-08
7.9098259e-08
7.9148042e-08
7.9197829e-08
7.9250652e-08
7.9311585e-08
7.9387827e-08
7.9487952e-08
7.9619837e-08
7.9786966e-08
7.9983188e-08
8.0185692e-08
8.0345918e-08
8.0370994e-08
8.0045881e-08
7.9561547e-08
7.959582e-08
7.9634599e-08
7.9677277e-08
7.9723158e-08
7.9771468e-08
7.9821374e-08
7.9872009e-08
7.9922508e-08
7.9972076e-08
8.0020099e-08
8.0066327e-08
8.0111163e-08
8.0156077e-08
8.0204108e-08
8.0260303e-08
8.0331781e-08
8.0426957e-08
8.0553459e-08
8.071444e-08
8.0903351e-08
8.1096946e-08
8.1246642e-08
8.1259522e-08
8.0919307e-08
8.0452845e-08
8.0484713e-08
8.0520767e-08
8.0560431e-08
8.0603047e-08
8.0647878e-08
8.0694129e-08
8.0740968e-08
8.0787562e-08
8.0833147e-08
8.0877145e-08
8.0919343e-08
8.0960164e-08
8.1001073e-08
8.1045075e-08
8.1097134e-08
8.1164192e-08
8.1254378e-08
8.1374934e-08
8.1528519e-08
8.1707932e-08
8.1889756e-08
8.20256e-08
8.2023339e-08
8.1668182e-08
8.1200954e-08
8.1230964e-08
8.1264915e-08
8.1302259e-08
8.134237e-08
8.1384545e-08
8.1428013e-08
8.1471968e-08
8.1515587e-08
8.1558113e-08
8.159901e-08
8.1638094e-08
8.1675797e-08
8.1713518e-08
8.1754195e-08
8.1802661e-08
8.1865589e-08
8.195068e-08
8.2064571e-08
8.2209206e-08
8.2376795e-08
8.2543643e-08
8.2661768e-08
8.2640672e-08
8.2269466e-08
8.1764721e-08
8.1793324e-08
8.1825724e-08
8.1861374e-08
8.1899682e-08
8.1939969e-08
8.198148e-08
8.2023416e-08
8.2064923e-08
8.2105223e-08
8.2143869e-08
8.218073e-08
8.221622e-08
8.225153e-08
8.2289519e-08
8.2334909e-08
8.2393993e-08
8.2473934e-08
8.258062e-08
8.2715123e-08
8.2868856e-08
8.3017799e-08
8.3114659e-08
8.3071559e-08
8.2685925e-08
8.2057148e-08
8.2084454e-08
8.2115678e-08
8.2150136e-08
8.2187257e-08
8.2226306e-08
8.2266561e-08
8.2307203e-08
8.2347281e-08
8.2385958e-08
8.2423046e-08
8.2458547e-08
8.249283e-08
8.2526482e-08
8.2562359e-08
8.2605361e-08
8.2660946e-08
8.2735843e-08
8.2835137e-08
8.2958974e-08
8.3097772e-08
8.3227204e-08
8.3301033e-08
8.3235462e-08
8.2847983e-08
8.1847581e-08
8.1872109e-08
8.1902e-08
8.1935558e-08
8.197208e-08
8.2010342e-08
8.2049776e-08
8.2089548e-08
8.2128493e-08
8.2165702e-08
8.2201658e-08
8.2236718e-08
8.2271169e-08
8.2304024e-08
8.2338644e-08
8.2382179e-08
8.2434964e-08
8.2505135e-08
8.259741e-08
8.2711731e-08
8.2836386e-08
8.2947303e-08
8.300023e-08
8.291891e-08
8.2560913e-08
)
;

boundaryField
{
    Walls
    {
        type            nutUWallFunction;
        Cmu             0.09;
        kappa           0.41;
        E               9.8;
        value           uniform 0;
    }
    Inlet
    {
        type            calculated;
        value           nonuniform List<scalar> 3(2.2249852e-05 2.0434729e-05 8.00264e-07);
    }
    Outlet
    {
        type            calculated;
        value           nonuniform List<scalar> 
86
(
0
0
0
0
0
0
0
0
0
0
0
0
0
0
0
0
0
0
0
0
0
0
0
0
0
0
0
0
0
0
1.3607083e-05
1.4077567e-05
1.2649368e-05
0
0
0
0
2.3271351e-06
1.6127525e-06
1.0297446e-06
0
0
0
0
5.0764715e-08
4.3875878e-08
4.2350596e-08
4.2665208e-08
4.3634362e-08
4.4852494e-08
4.6179669e-08
4.7569646e-08
4.9007347e-08
5.048232e-08
5.199242e-08
0
0
0
0
0
0
0
0
0
0
0
0
0
0
0
0
0
0
0
0
0
0
0
0
0
0
0
0
0
1.2500428e-05
1.4108461e-05
)
;
    }
    Front
    {
        type            wedge;
    }
    Back
    {
        type            wedge;
    }
    defaultFaces
    {
        type            empty;
    }
}


// ************************************************************************* //
