/*--------------------------------*- C++ -*----------------------------------*\
| =========                 |                                                 |
| \\      /  F ield         | OpenFOAM: The Open Source CFD Toolbox           |
|  \\    /   O peration     | Version:  4.0                                   |
|   \\  /    A nd           | Web:      www.OpenFOAM.org                      |
|    \\/     M anipulation  |                                                 |
\*---------------------------------------------------------------------------*/
FoamFile
{
    version     2.0;
    format      ascii;
    class       volScalarField;
    location    "0.2";
    object      omega;
}
// * * * * * * * * * * * * * * * * * * * * * * * * * * * * * * * * * * * * * //

dimensions      [0 0 -1 0 0 0 0];

internalField   nonuniform List<scalar> 
1740
(
57.046053
654.27259
14916.333
164.89768
1399.8592
15024.408
268.02732
1904.3721
15110.995
363.83011
2171.5462
15196.254
466.28025
2481.4266
15269.924
589.56761
2833.4998
15320.625
719.90901
3036.4892
15368.828
850.84032
3195.9107
15411.21
969.86016
3335.0339
15443.203
1083.3697
3497.0867
15468.193
1165.0529
3606.7239
15483.266
1248.082
3699.3855
15505.844
1333.1554
3805.8576
15527.948
1410.1832
3908.0325
15530.737
1482.8323
3945.3374
15540.798
1552.4402
3963.8953
15549.639
1607.0327
4012.3382
15551.199
1647.0398
4038.7728
15557.976
1690.488
4031.5655
15564.007
1722.1335
4041.4527
15566.998
1778.4974
4081.7135
15568.974
1832.1723
4122.4773
15568.208
1856.1584
4178.8991
15565.673
1871.2284
4145.1533
15566.333
1882.134
4103.9191
15570.61
1901.2983
4145.3328
15568.1
1932.2506
4201.5029
15564.841
1979.2659
4179.5443
15563.165
2013.4355
4198.4708
15553.676
2127.9492
4269.1837
15494.329
3183.0149
4533.8005
10713.362
3317.1008
4212.7783
5908.4854
1568.3914
1854.0949
2147.4382
824.37187
899.56883
956.64048
480.13324
498.42458
508.13458
302.94355
306.66823
306.64164
204.2981
204.59894
203.09741
146.13783
145.80288
144.52326
110.61783
110.28474
109.4353
88.790187
88.563894
88.052163
75.758071
75.625617
75.338534
68.481328
68.413467
68.266927
64.822303
64.795542
64.733416
63.237515
63.23704
63.223728
62.482854
62.480908
62.470803
61.886148
61.886086
61.880354
61.344767
61.348279
61.347592
60.833851
60.840024
60.842983
60.374862
60.381317
60.385289
59.993708
59.998836
60.001985
59.695809
59.699257
59.701055
59.469271
59.471329
59.471953
59.296401
59.297483
59.297283
59.161048
59.161495
59.160779
59.050981
59.051032
59.050018
58.957737
58.957549
58.95638
58.875715
58.875388
58.874154
58.801283
58.800879
58.799637
58.732109
58.731668
58.730453
58.666707
58.666254
58.665087
58.604144
58.603696
58.602589
58.543846
58.543412
58.542372
58.485459
58.485046
58.484076
58.428733
58.428344
58.427444
58.37336
58.372998
58.372168
58.318699
58.318363
58.317601
58.263189
58.26288
58.262183
58.203167
58.202885
58.202251
58.130506
58.13025
58.129677
58.028159
58.027929
58.027416
57.862274
57.862071
57.86162
57.569135
57.568962
57.568581
57.035199
57.035065
57.03477
56.069463
56.069382
56.069207
54.370263
54.370257
54.370253
51.494689
51.494787
51.495017
46.84926
46.849481
46.849991
39.735475
39.735804
39.736564
29.493321
29.493681
29.494511
15.837826
15.838076
15.838644
13475.677
13530.479
5973.7862
5314.9401
2078.6508
1877.6739
920.75143
852.85405
491.05373
463.79984
298.21574
286.08771
198.68349
192.85027
142.10966
139.12419
108.09148
106.49473
87.303335
86.428446
74.930319
74.451851
68.057253
67.804847
64.638154
64.51464
63.190936
63.13656
62.447187
62.406494
61.863498
61.831714
61.336368
61.311147
60.835909
60.815999
60.380575
60.365063
59.998309
59.986304
59.697781
59.68842
59.468863
59.461406
59.294328
59.288209
59.157958
59.152783
59.047339
59.042847
58.953849
58.949872
58.871775
58.868204
58.797409
58.794175
58.728375
58.725427
58.663155
58.660461
58.600798
58.598331
58.540716
58.538457
58.482549
58.480481
58.426041
58.424151
58.370882
58.369157
58.316426
58.314855
58.261114
58.259687
58.201282
58.199991
58.128803
58.127642
58.026636
58.025602
57.860937
57.860033
57.568006
57.567248
57.034329
57.033755
56.06895
56.06863
54.370262
54.370306
51.495393
51.495946
46.850811
46.851986
39.737781
39.739499
29.495826
29.4975
15.839471
15.83977
12058.192
2043.7863
696.86564
369.00245
280.6936
256.03443
248.4518
244.89295
241.92226
238.76367
235.32646
231.62535
227.61678
223.34179
218.77375
213.87238
208.57501
202.76832
196.23695
188.57224
179.0201
166.22609
147.79822
119.38189
71.002666
12058.133
2037.5025
697.89002
374.65525
282.95216
253.93311
242.19006
234.70368
228.25811
222.0454
215.89607
209.77883
203.66453
197.55266
191.41248
185.22761
178.96935
172.57601
165.921
158.75257
150.59211
140.54288
126.89873
106.16282
69.652686
12058.179
2030.4417
718.54149
430.63093
359.24469
332.25494
314.84353
300.26962
286.91883
274.211
262.04592
250.40111
239.22375
228.49487
218.15784
208.20194
198.61567
189.36761
180.38446
171.5144
162.46507
152.65536
140.83601
123.94215
92.602014
12058.526
2031.6637
817.37938
608.62631
549.81277
512.67094
479.70428
449.2215
421.28378
395.01942
370.3818
347.41138
326.22104
306.37977
287.71356
270.2217
253.88952
238.68118
224.5419
211.38339
199.06287
187.33359
175.68117
162.68843
142.22809
12061.517
2150.737
1231.5137
1077.5609
988.94832
906.30294
827.96309
756.62282
692.85401
633.9549
579.78101
530.27841
486.28495
446.22652
409.44713
375.96605
345.64403
318.29719
293.73257
271.74584
252.12708
234.68094
219.26024
205.99768
195.98041
12087.112
3815.7774
2802.913
2399.5849
2092.1173
1824.0443
1589.3183
1386.5375
1210.9808
1059.422
928.8517
816.47267
719.78259
636.37127
564.27639
501.99712
448.23823
401.86439
361.88874
327.46003
297.84819
272.45273
250.83699
233.07691
220.42995
10351.534
7889.2949
6085.3884
4778.7207
3811.6707
3078.4169
2510.6523
2064.4802
1710.3809
1427.1788
1199.125
1014.3972
864.06203
741.20975
640.35703
557.14928
488.14821
430.64997
382.52852
342.10585
308.05225
279.33131
255.19058
235.48149
221.49941
4078.7775
3298.2073
2836.6483
2462.7786
2144.7401
1865.129
1621.1357
1410.0698
1229.0452
1073.849
940.72155
826.28099
727.56075
642.39127
568.93438
505.59814
451.00329
403.96269
363.45689
328.6112
298.67757
273.04192
251.25208
233.36809
220.63014
1591.7627
1397.8849
1268.1588
1160.2216
1058.2954
961.27329
872.72496
793.94197
722.16923
657.16228
598.98907
547.60273
500.50538
457.51118
418.4899
383.23664
351.50424
323.04104
297.59396
274.91676
254.77681
236.9668
221.32927
207.98101
197.95224
770.57949
707.54756
661.48454
621.03973
580.82806
540.83736
503.39762
468.94342
437.02361
407.61213
380.7507
356.18396
333.22794
311.76272
291.76235
273.19547
256.01268
240.15003
225.53031
212.05788
199.59912
187.9294
176.57004
164.17221
144.84876
434.41219
410.73546
392.09877
374.9631
357.32086
339.14704
321.40839
304.54578
288.62791
273.70423
259.78487
246.74851
234.38181
222.61767
211.47372
200.93224
190.96598
181.53056
172.55287
163.90486
155.34167
146.35067
135.75303
120.51146
91.224548
273.63479
263.18512
254.5491
246.4422
238.0054
229.15968
220.26503
211.58427
203.2344
195.27057
187.69986
180.47109
173.50495
166.76322
160.24493
153.94134
147.82667
141.84854
135.91018
129.83344
123.2815
115.59158
105.39308
89.659047
60.766722
186.9761
181.87591
177.48669
173.30585
168.94614
164.33196
159.59346
154.86976
150.24681
145.76785
141.44172
137.24688
133.14891
129.12437
125.16048
121.23868
117.32361
113.35003
109.20221
104.67792
99.424147
92.815465
83.704401
69.804635
45.320955
136.13898
133.47311
131.09947
128.80931
126.42199
123.88179
121.23278
118.54329
115.86602
113.23101
110.64702
108.10549
105.58917
103.08142
100.56597
98.018995
95.398665
92.631317
89.59158
86.074422
81.759116
76.1733
68.702058
58.863054
47.871408
104.89321
103.42334
102.07301
100.7508
99.371809
97.900717
96.35066
94.753588
93.139653
91.528407
89.927487
88.334276
86.739796
85.131829
83.493954
81.799742
80.002751
78.02229
75.72446
72.900841
69.254499
64.421412
58.106912
50.561071
43.879459
85.538804
84.694512
83.89234
83.092447
82.254753
81.36032
80.412761
79.427751
78.422549
77.410168
76.39737
75.384778
74.367861
73.337418
72.277512
71.159499
69.931512
68.502829
66.723421
64.362404
61.096672
56.536831
50.35399
42.648842
34.009141
73.951828
73.45672
72.966483
72.465047
71.935216
71.368742
70.767839
70.141473
69.500659
68.855004
68.211008
67.57123
66.933616
66.290295
65.624551
64.90418
64.069798
63.017069
61.572805
59.467522
56.311824
51.589721
44.678428
34.831393
20.514908
67.528487
67.238212
66.934305
66.611219
66.263242
65.888466
65.489785
65.073677
64.648263
64.221569
63.800239
63.388364
62.985372
62.583377
62.16384
61.690319
61.095752
60.262876
58.997275
56.994565
53.80778
48.825292
41.271818
30.223701
14.665171
64.367089
64.196669
64.002895
63.784507
63.540956
63.273491
62.985476
62.682145
62.370065
62.056446
61.748214
61.451159
61.167112
60.887948
60.593736
60.245116
59.769457
59.0405
57.849945
55.872522
52.63545
47.497716
39.682298
28.42089
13.35324
63.058278
62.953182
62.82068
62.661071
62.475343
62.265275
62.033556
61.78398
61.521738
61.253473
60.986455
60.72632
60.482585
60.244601
59.990567
59.682313
59.247912
58.556588
57.38995
55.410412
52.150986
46.980118
39.17158
28.133786
13.845465
62.34577
62.262513
62.155313
62.023638
61.867673
61.688262
61.486963
61.26641
61.030981
60.787332
60.543676
60.306783
60.088059
59.879118
59.658857
59.38567
58.98342
58.320554
57.180836
55.228405
51.979801
46.842476
39.138896
28.385079
14.778049
61.781762
61.710786
61.617001
61.499612
61.358691
61.195246
61.01156
60.811703
60.601891
60.390053
60.184224
59.990111
59.809079
59.636918
59.450355
59.20661
58.829584
58.188641
57.069788
55.141981
51.928065
46.837795
39.226455
28.644005
15.321654
61.268764
61.206045
61.121368
61.014426
60.886159
60.738863
60.57639
60.404172
60.228813
60.057092
59.894519
59.743722
59.602754
59.462282
59.303352
59.082722
58.724959
58.100774
56.998464
55.091032
51.907985
46.853107
39.286719
28.726202
15.423582
60.780479
60.726224
60.652245
60.559159
60.448974
60.324973
60.191553
60.053851
59.917137
59.78599
59.663391
59.549705
59.441246
59.327501
59.189986
58.986775
58.643397
58.031797
56.942036
55.049754
51.888203
46.856186
39.305624
28.722719
15.326227
60.336565
60.292468
60.232395
60.157523
60.070201
59.973661
59.87169
59.76822
59.666856
59.570358
59.480087
59.395257
59.311637
59.219035
59.096865
58.90639
58.573612
57.971366
56.890969
55.009791
51.863229
46.847626
39.30358
28.691255
15.207651
59.964393
59.930651
59.885029
59.828712
59.763732
59.692652
59.618261
59.543266
59.46998
59.399999
59.333802
59.270084
59.204455
59.126848
59.016582
58.835498
58.510542
57.915282
56.841987
54.969398
51.834799
46.834444
39.300223
28.671847
15.188617
59.671907
59.646932
59.613548
59.57269
59.52585
59.474839
59.421554
59.367773
59.314952
59.263994
59.214904
59.166143
59.113299
59.046468
58.945363
58.770903
58.451727
57.861773
56.794057
54.928565
51.804685
46.820796
39.306079
28.689136
15.186272
59.44889
59.430461
59.406185
59.376713
59.343063
59.306441
59.268095
59.229177
59.190598
59.152844
59.11565
59.07735
59.033526
58.974364
58.879717
58.710499
58.395762
57.80996
56.746781
54.887344
51.773148
46.805752
39.315871
28.729107
15.238046
59.278492
59.264626
59.24667
59.225059
59.200465
59.173679
59.145517
59.116725
59.087871
59.059183
59.030225
58.999246
58.961818
58.908173
58.818253
58.653091
58.341787
57.759302
56.699894
54.845635
51.739881
46.787746
39.32549
28.786764
15.378857
59.144985
59.134218
59.120527
59.104206
59.085698
59.065528
59.044235
59.022307
59.000094
58.977656
58.954443
58.928641
58.895805
58.846193
58.759828
58.597938
58.289206
57.709405
56.653187
54.803371
51.704773
46.76556
39.328105
28.839673
15.487676
59.03638
59.02772
59.01691
59.004151
58.989746
58.974048
58.957423
58.940196
58.922575
58.904507
58.885365
58.863284
58.8338
58.787179
58.703483
58.544018
58.237503
57.659949
56.606483
54.76055
51.668064
46.73941
39.321498
28.873295
15.568422
58.944354
58.937162
58.928335
58.91802
58.90643
58.893813
58.880424
58.866481
58.852102
58.837157
58.820961
58.801611
58.774621
58.730258
58.648609
58.491044
58.186433
57.610704
56.559629
54.717162
51.630107
46.710484
39.308176
28.886869
15.512519
58.863391
58.857256
58.849839
58.84125
58.831648
58.821213
58.810128
58.798543
58.786514
58.773857
58.759845
58.742546
58.717454
58.674829
58.594774
58.4387
58.135572
57.561457
56.512476
54.673122
51.591027
46.679559
39.290054
28.885502
15.50652
58.789908
58.784567
58.778189
58.770865
58.762715
58.753875
58.744484
58.734644
58.724367
58.713434
58.701087
58.685366
58.661751
58.620491
58.541695
58.386808
58.084872
57.512115
56.464908
54.628253
51.550491
46.645921
39.266488
28.876076
15.508233
58.721603
58.716882
58.711302
58.704939
58.697888
58.690258
58.682153
58.673646
58.664718
58.655123
58.644077
58.629602
58.607161
58.566994
58.489208
58.33527
58.034293
57.462666
56.416868
54.582463
51.508432
46.609986
39.240155
28.866838
15.523202
58.657007
58.65279
58.647847
58.642242
58.636054
58.629372
58.622278
58.614822
58.606963
58.598435
58.588435
58.574969
58.553482
58.514203
58.437232
58.28405
57.983814
57.413026
56.368362
54.535797
51.465053
46.572738
39.215266
28.87192
15.579512
58.595198
58.591405
58.586987
58.582
58.576513
58.570599
58.564324
58.557722
58.550736
58.543082
58.533945
58.521312
58.500615
58.462068
58.38576
58.233173
57.933494
57.363318
56.319518
54.488468
51.42078
46.534813
39.190055
28.872151
15.624114
58.535608
58.532179
58.528207
58.523741
58.51884
58.513566
58.507974
58.502085
58.495829
58.488911
58.480499
58.46857
58.44854
58.410603
58.334836
58.18271
57.883435
57.313682
56.27054
54.440758
51.376064
46.497116
39.167688
28.878682
15.661255
58.477887
58.474781
58.471197
58.467179
58.46278
58.458054
58.453045
58.447765
58.442135
58.435847
58.42806
58.416736
58.397275
58.359854
58.284527
58.132753
57.83375
57.264262
56.221577
54.392905
51.331037
46.458765
39.142761
28.873768
15.669111
58.421788
58.418971
58.415731
58.412107
58.408148
58.403899
58.399398
58.394649
58.389564
58.383827
58.376586
58.36579
58.346823
58.309842
58.234875
58.083362
57.784525
57.215176
56.172807
54.345089
51.285772
46.419421
39.114916
28.862977
15.671535
58.367007
58.364452
58.361521
58.358249
58.35468
58.350855
58.346804
58.342526
58.337924
58.332674
58.325916
58.315587
58.297054
58.260451
58.185781
58.034457
57.7357
57.166389
56.124215
54.297293
51.240231
46.379165
39.085283
28.851076
15.680064
58.312903
58.310587
58.307936
58.304983
58.301766
58.298321
58.294674
58.290817
58.286648
58.281836
58.275511
58.265599
58.247451
58.211178
58.136752
57.985559
57.686814
57.117451
56.07535
54.249026
51.193858
46.337624
39.054993
28.845919
15.735157
58.257918
58.255823
58.25343
58.250768
58.247871
58.244772
58.241492
58.238017
58.23424
58.229824
58.223891
58.214356
58.196552
58.160568
58.086345
57.935237
57.636448
57.06696
56.024815
54.198872
51.145112
46.29269
39.019145
28.826904
15.782111
58.198393
58.196505
58.194351
58.191958
58.189357
58.186576
58.183634
58.180511
58.177094
58.173041
58.167467
58.158274
58.140781
58.105052
58.030998
57.879941
57.581069
57.011405
55.969148
54.143492
51.091046
46.242381
38.97891
28.811522
15.80573
58.126207
58.124514
58.122586
58.120448
58.118127
58.115647
58.113023
58.11023
58.107152
58.103439
58.098197
58.089319
58.072109
58.036608
57.962695
57.811662
57.512684
56.942835
55.900501
54.075295
51.02463
46.180616
38.927997
28.787426
15.851496
58.024326
58.022825
58.021119
58.019232
58.017187
58.015005
58.012694
58.010227
58.007479
58.004094
57.999171
57.990592
57.973644
57.938347
57.864553
57.713527
57.414443
56.844462
55.802235
53.977973
50.930237
46.093111
38.854485
28.739532
15.839416
57.858922
57.857621
57.856149
57.854527
57.852775
57.85091
57.848934
57.846811
57.84441
57.841366
57.836768
57.828485
57.811791
57.776684
57.702995
57.551974
57.252833
56.682885
55.641206
53.818922
50.77627
45.949824
38.729572
28.635507
15.724937
57.566324
57.565251
57.564049
57.562737
57.561331
57.55984
57.55826
57.556543
57.554547
57.551893
57.547658
57.539699
57.523271
57.488359
57.414783
57.263816
56.964769
56.395267
55.355117
53.536943
50.503649
45.695755
38.507501
28.461244
15.612515
57.033067
57.032285
57.031429
57.030517
57.029561
57.028561
57.0275
57.026315
57.024843
57.022688
57.018906
57.011339
56.995232
56.960566
56.88718
56.736436
56.4379
55.869817
54.83333
53.023666
50.008269
45.234497
38.104805
28.14855
15.302712
56.068268
56.06789
56.067516
56.06716
56.06683
56.066516
56.066182
56.065741
56.065
56.063529
56.060362
56.053326
56.037669
56.003394
55.930431
55.780376
55.483367
54.918881
53.890555
52.098288
49.117555
44.408125
37.388482
27.604166
14.999463
54.370417
54.37062
54.370934
54.371369
54.37193
54.372599
54.373313
54.373951
54.374266
54.373769
54.371467
54.365196
54.350239
54.316683
54.24469
54.096416
53.803177
53.246857
52.235698
50.477901
47.56296
42.972326
36.153499
26.681228
14.503712
51.496716
51.497727
51.498994
51.500525
51.50234
51.504429
51.506686
51.508942
51.510832
51.511732
51.510659
51.505526
51.491742
51.459532
51.38961
51.245358
50.960436
50.42122
49.444191
47.751843
44.957071
40.57625
34.102807
25.156461
13.690169
46.853555
46.855507
46.857951
46.860875
46.864375
46.868512
46.873097
46.877861
46.882127
46.884931
46.885558
46.882234
46.870648
46.840923
46.774993
46.638905
46.37072
45.864843
44.951908
43.37797
40.792732
36.765563
30.856287
22.748858
12.414945
39.74162
39.743727
39.747135
39.751459
39.756951
39.763756
39.771585
39.779912
39.787238
39.791888
39.794547
39.794438
39.78774
39.7627
39.703889
39.583237
39.346071
38.900618
38.100549
36.728758
34.490046
31.029108
25.994633
19.15195
10.511146
29.498245
29.494476
29.496909
29.501821
29.509281
29.51834
29.529024
29.540387
29.549426
29.553595
29.55765
29.563234
29.567334
29.551339
29.505563
29.416194
29.232509
28.888177
28.272758
27.22347
25.522686
22.914985
19.158603
14.112047
7.8621726
15.833971
15.807019
15.803425
15.807126
15.815858
15.823938
15.832899
15.842064
15.84781
15.847841
15.850965
15.861441
15.877794
15.874959
15.854758
15.84026
15.742485
15.550895
15.209263
14.62921
13.694715
12.272592
10.244064
7.5606445
4.3510823
)
;

boundaryField
{
    Walls
    {
        Cmu             0.09;
        kappa           0.41;
        E               9.8;
        beta1           0.075;
        type            omegaWallFunction;
        value           nonuniform List<scalar> 
38
(
12058.192
12058.133
12058.179
12058.526
12061.517
12087.112
13475.677
13530.479
14916.333
15024.408
15110.995
15196.254
15269.924
15320.625
15368.828
15411.21
15443.203
15468.193
15483.266
15505.844
15527.948
15530.737
15540.798
15549.639
15551.199
15557.976
15564.007
15566.998
15568.974
15568.208
15565.673
15566.333
15570.61
15568.1
15564.841
15563.165
15553.676
15494.329
)
;
    }
    Inlet
    {
        type            turbulentMixingLengthDissipationRateInlet;
        mixingLength    0.03;
        phi             phi;
        k               k;
        value           nonuniform List<scalar> 3(0.0042400897 0.0053592171 0.0045436843);
    }
    Outlet
    {
        type            inletOutlet;
        inletValue      uniform 1e-05;
        value           nonuniform List<scalar> 
86
(
1e-05
1e-05
1e-05
1e-05
1e-05
1e-05
1e-05
1e-05
1e-05
1e-05
1e-05
1e-05
1e-05
1e-05
1e-05
1e-05
1e-05
1e-05
1e-05
1e-05
1e-05
1e-05
1e-05
1e-05
1e-05
1e-05
1e-05
1e-05
1e-05
1e-05
221.49941
220.63014
197.95224
1e-05
1e-05
1e-05
1e-05
47.871408
43.879459
34.009141
1e-05
1e-05
1e-05
1e-05
14.778049
15.321654
15.423582
15.326227
15.207651
15.188617
15.186272
15.238046
15.378857
15.487676
15.568422
1e-05
1e-05
1e-05
1e-05
1e-05
1e-05
1e-05
1e-05
1e-05
1e-05
1e-05
1e-05
1e-05
1e-05
1e-05
1e-05
1e-05
1e-05
1e-05
1e-05
1e-05
1e-05
1e-05
1e-05
1e-05
1e-05
1e-05
1e-05
1e-05
195.98041
220.42995
)
;
    }
    Front
    {
        type            wedge;
    }
    Back
    {
        type            wedge;
    }
    defaultFaces
    {
        type            empty;
    }
}


// ************************************************************************* //
