/*--------------------------------*- C++ -*----------------------------------*\
| =========                 |                                                 |
| \\      /  F ield         | OpenFOAM: The Open Source CFD Toolbox           |
|  \\    /   O peration     | Version:  4.0                                   |
|   \\  /    A nd           | Web:      www.OpenFOAM.org                      |
|    \\/     M anipulation  |                                                 |
\*---------------------------------------------------------------------------*/
FoamFile
{
    version     2.0;
    format      ascii;
    class       volVectorField;
    location    "0.2";
    object      U;
}
// * * * * * * * * * * * * * * * * * * * * * * * * * * * * * * * * * * * * * //

dimensions      [0 1 -1 0 0 0 0];

internalField   nonuniform List<vector> 
1740
(
(1.4771399 -0.01136232 4.2612068e-06)
(1.4475538 -0.012072175 6.9222286e-07)
(1.6039875 -0.0061951859 6.0813317e-08)
(1.5814581 -0.018579573 7.0955684e-06)
(1.4885441 -0.028131572 1.6305051e-06)
(1.6056227 -0.013689318 3.1063652e-07)
(1.5755315 0.0013483069 1.137195e-05)
(1.5091082 -0.012427929 2.4921899e-06)
(1.5231191 -0.008099613 4.5788788e-07)
(1.4868807 0.0098698492 1.364513e-05)
(1.5332631 0.0065495705 3.5701248e-06)
(1.5522144 -0.00074225833 5.6391208e-07)
(1.4955794 0.011532139 1.5307934e-05)
(1.5164163 0.00063183954 4.590775e-06)
(1.5528734 -0.0081641695 8.1672403e-07)
(1.4762031 0.012657482 1.6096817e-05)
(1.5871601 -0.0076290217 5.1104881e-06)
(1.5178071 -0.014016848 9.8742859e-07)
(1.5131961 0.0057626983 1.6976869e-05)
(1.574961 0.016699509 6.1772546e-06)
(1.5253422 0.0022896721 1.1367984e-06)
(1.5094523 -0.002510789 1.8187773e-05)
(1.4858877 0.01760742 6.6706357e-06)
(1.6272952 0.012867989 1.3426316e-06)
(1.4540097 -0.012275844 1.8900111e-05)
(1.4747099 0.00079792264 7.398663e-06)
(1.572754 0.0030170908 1.5558985e-06)
(1.5530535 -0.014771502 1.942911e-05)
(1.4587854 -0.0074866464 7.9698612e-06)
(1.5705407 -0.0042709879 1.7141708e-06)
(1.5608074 0.0074631385 1.9749501e-05)
(1.4694011 -0.00087619162 8.4710181e-06)
(1.5664374 -0.0015394224 1.9605708e-06)
(1.4550028 0.0078441931 1.9848449e-05)
(1.5561246 0.0065869517 8.8858633e-06)
(1.5754739 0.0035018149 2.0613917e-06)
(1.4634197 -0.012060274 1.9784627e-05)
(1.5663994 -0.0073982461 9.4951051e-06)
(1.5845485 -0.0036072446 2.3643696e-06)
(1.5015452 -0.010434195 1.9775028e-05)
(1.5071705 -0.012839666 9.8095211e-06)
(1.5000138 -0.0085773906 2.5239558e-06)
(1.5141187 0.0057790511 2.0341988e-05)
(1.5239386 -0.0057809746 1.0495204e-05)
(1.524428 -0.0073212467 2.6900413e-06)
(1.4961181 0.0011921675 2.1041155e-05)
(1.60556 -0.0016666789 1.0874021e-05)
(1.5377452 -0.0026746915 2.9093274e-06)
(1.5218765 -0.0088434468 2.0893706e-05)
(1.59406 -0.0086663675 1.1400995e-05)
(1.5254515 -0.0045591996 3.0941711e-06)
(1.5168484 -0.0057171381 2.0856541e-05)
(1.5692754 -0.013874355 1.1716615e-05)
(1.5048693 -0.00572993 3.2434688e-06)
(1.5993675 -0.010337182 2.1151166e-05)
(1.6021841 -0.0032691348 1.2243469e-05)
(1.5140287 -0.0021182581 3.4517687e-06)
(1.6047552 0.00115354 2.1628831e-05)
(1.5287599 0.019602197 1.2526774e-05)
(1.5065919 0.010743635 3.6514301e-06)
(1.5511351 0.00030809379 2.2117937e-05)
(1.5216363 0.021643315 1.3016606e-05)
(1.5464419 0.013777297 3.7959615e-06)
(1.6264824 -0.0033977858 2.240031e-05)
(1.4639179 0.0041237225 1.3429151e-05)
(1.6131844 0.0059800497 3.9526881e-06)
(1.5445355 0.010329686 2.2188098e-05)
(1.4712459 -0.010076231 1.3690737e-05)
(1.5379405 -0.010156898 4.1301421e-06)
(1.5081467 0.0027041238 2.2279291e-05)
(1.5309051 -0.0058802748 1.3972223e-05)
(1.5061336 -0.0030579095 4.2971372e-06)
(1.5549074 -0.0021500512 2.2195885e-05)
(1.5624947 -0.0027305682 1.4259216e-05)
(1.5424744 -0.00032883853 4.455861e-06)
(1.5290965 0.005388949 2.193388e-05)
(1.5497496 0.003705641 1.4487169e-05)
(1.5215387 -0.00034584046 4.5836929e-06)
(1.5193783 0.009323217 2.2164197e-05)
(1.4931153 -0.0064507503 1.4821628e-05)
(1.4921799 -0.0072317613 4.6679682e-06)
(1.4850738 -0.0037651816 2.2774833e-05)
(1.5429401 0.0013003068 1.5126775e-05)
(1.4977247 -0.0016575926 4.8325381e-06)
(1.4463287 -0.0076691518 2.2465693e-05)
(1.4616548 -0.0031701642 1.527003e-05)
(1.4950678 0.0063658376 4.8231478e-06)
(1.3108075 0.038199858 2.3539207e-05)
(1.2487733 0.094481539 1.5789704e-05)
(1.3647624 0.054041523 5.5180852e-06)
(0.81203547 0.36458271 1.1922053e-05)
(0.78830628 0.9249245 1.0017968e-05)
(0.72303187 1.2435462 5.3978903e-06)
(0.21620616 0.11069353 1.5424054e-06)
(0.17676045 0.35977199 3.0961576e-06)
(0.082245625 0.49206884 7.0971421e-07)
(-0.032781976 -0.013765632 1.2486108e-06)
(-0.032510997 -0.029220741 1.7190938e-06)
(-0.022424552 -0.034731805 6.261068e-07)
(-0.0094775116 -0.0032758001 4.7517799e-07)
(-0.0096365968 -0.0086933635 7.7948686e-07)
(-0.0081086586 -0.01194251 3.9631906e-07)
(-0.0031268634 -0.00049384116 1.3273151e-07)
(-0.0032521281 -0.0013907074 2.8106763e-07)
(-0.0028666519 -0.0022193256 1.6793148e-07)
(-0.0020412961 -0.00020325829 3.6492709e-08)
(-0.0019822158 -0.00048969003 8.9219192e-08)
(-0.0016803492 -0.00076020111 4.9143048e-08)
(-0.0014391248 -0.00014216235 6.5333551e-09)
(-0.001365343 -0.00030175386 1.8883025e-08)
(-0.0011524048 -0.00042375259 -1.7377826e-10)
(-0.0011097709 -6.902573e-05 -3.7382895e-09)
(-0.0010523915 -0.00014415546 -5.087627e-09)
(-0.00090952168 -0.00021330778 -1.6495012e-08)
(-0.00090835603 -5.2325353e-05 -4.8682488e-09)
(-0.00086778086 -0.00010633513 -9.4296462e-09)
(-0.00077198091 -0.00015606668 -1.6967888e-08)
(-0.00075712409 -4.924817e-05 -3.0152594e-09)
(-0.00072867951 -0.00010699882 -6.8282204e-09)
(-0.00066244358 -0.00016302421 -1.1828471e-08)
(-0.00062620735 -4.6673419e-05 -1.2146112e-09)
(-0.00060591322 -0.00010436373 -3.4380425e-09)
(-0.00055866806 -0.00016142941 -6.532211e-09)
(-0.00051438228 -3.7880671e-05 -3.687334e-10)
(-0.00049987387 -8.5972273e-05 -1.3627009e-09)
(-0.00046563414 -0.00013009146 -3.0617407e-09)
(-0.00042472432 -2.7859471e-05 -1.6447011e-10)
(-0.00041418933 -6.2399174e-05 -5.2862826e-10)
(-0.00038888463 -9.6607348e-05 -1.3261308e-09)
(-0.0003552101 -1.9952003e-05 -1.8515965e-10)
(-0.00034742693 -4.5221154e-05 -3.0777621e-10)
(-0.00032847609 -7.1387675e-05 -6.122211e-10)
(-0.00030198842 -1.5497023e-05 -2.1095172e-10)
(-0.00029621101 -3.420891e-05 -2.6356544e-10)
(-0.00028187313 -5.3521347e-05 -3.4401059e-10)
(-0.00026097058 -1.2365029e-05 -1.8681815e-10)
(-0.00025666195 -2.6972178e-05 -2.1853315e-10)
(-0.00024567406 -4.1994848e-05 -2.1763022e-10)
(-0.00022865043 -9.9127667e-06 -1.3799961e-10)
(-0.00022540802 -2.1783317e-05 -1.5563351e-10)
(-0.00021687477 -3.4173339e-05 -1.3259647e-10)
(-0.00020263668 -8.0280543e-06 -9.9315012e-11)
(-0.00020017267 -1.775704e-05 -1.0341451e-10)
(-0.00019345556 -2.8155513e-05 -7.5134523e-11)
(-0.00018141505 -6.6056287e-06 -7.2765036e-11)
(-0.0001795231 -1.4631601e-05 -7.0323537e-11)
(-0.00017416155 -2.3287771e-05 -4.2630337e-11)
(-0.00016396193 -5.4522596e-06 -6.076271e-11)
(-0.00016249547 -1.2111212e-05 -5.6461349e-11)
(-0.000158159 -1.933007e-05 -2.919122e-11)
(-0.00014950956 -4.5043605e-06 -5.6038465e-11)
(-0.00014836586 -1.005676e-05 -5.3217732e-11)
(-0.00014481875 -1.6059567e-05 -2.6503442e-11)
(-0.00013744657 -3.7777916e-06 -5.2761609e-11)
(-0.00013655219 -8.3730982e-06 -5.3193739e-11)
(-0.00013362341 -1.3401249e-05 -2.7763215e-11)
(-0.00012727475 -3.1961782e-06 -4.8957412e-11)
(-0.00012657541 -7.0797649e-06 -5.2194576e-11)
(-0.00012413623 -1.135777e-05 -2.891886e-11)
(-0.00011858816 -2.7628857e-06 -4.5014823e-11)
(-0.0001180424 -6.0867152e-06 -5.0156269e-11)
(-0.00011599365 -9.7802758e-06 -2.9059036e-11)
(-0.00011106359 -2.4198706e-06 -4.1472206e-11)
(-0.00011063864 -5.3172608e-06 -4.7671366e-11)
(-0.00010890297 -8.5653139e-06 -2.8582715e-11)
(-0.00010445011 -2.1467958e-06 -3.8266398e-11)
(-0.00010412035 -4.7160457e-06 -4.4832713e-11)
(-0.00010263654 -7.6065551e-06 -2.7765148e-11)
(-9.855434e-05 -1.9229781e-06 -3.6431124e-11)
(-9.8299985e-05 -4.2239577e-06 -4.3118031e-11)
(-9.7020054e-05 -6.8128005e-06 -2.7537732e-11)
(-9.3226051e-05 -1.7448081e-06 -3.4871903e-11)
(-9.303175e-05 -3.8373e-06 -4.1290043e-11)
(-9.1918672e-05 -6.2022698e-06 -2.6914796e-11)
(-8.8348456e-05 -1.5964639e-06 -3.3533091e-11)
(-8.820186e-05 -3.5103681e-06 -3.9172721e-11)
(-8.7226299e-05 -5.7005057e-06 -2.6008755e-11)
(-8.3832394e-05 -1.4820305e-06 -3.2602446e-11)
(-8.3722852e-05 -3.2263024e-06 -3.7464648e-11)
(-8.2859576e-05 -5.2076026e-06 -2.5404777e-11)
(-7.9607329e-05 -1.4104829e-06 -3.2183237e-11)
(-7.9526366e-05 -3.1666455e-06 -3.6044991e-11)
(-7.8754966e-05 -5.1693728e-06 -2.4867293e-11)
(-7.5620419e-05 -1.3611567e-06 -3.1737271e-11)
(-7.556182e-05 -3.0280804e-06 -3.4803823e-11)
(-7.4867377e-05 -4.9075664e-06 -2.436847e-11)
(-7.1836711e-05 -1.2902241e-06 -3.1456587e-11)
(-7.1795739e-05 -2.8685826e-06 -3.3655113e-11)
(-7.1166849e-05 -4.6555298e-06 -2.3792848e-11)
(-6.8234603e-05 -1.2189614e-06 -3.1284911e-11)
(-6.8207716e-05 -2.7170082e-06 -3.2668696e-11)
(-6.7635544e-05 -4.4166986e-06 -2.3303337e-11)
(-6.4805509e-05 -1.1535795e-06 -3.1069927e-11)
(-6.4789766e-05 -2.577979e-06 -3.1672325e-11)
(-6.4266822e-05 -4.1932756e-06 -2.282613e-11)
(-6.1549446e-05 -1.0917227e-06 -3.0853394e-11)
(-6.1542322e-05 -2.4456083e-06 -3.0741003e-11)
(-6.1061993e-05 -3.9788946e-06 -2.235677e-11)
(-5.8469754e-05 -1.0299588e-06 -3.0725732e-11)
(-5.8469197e-05 -2.3122301e-06 -2.9984571e-11)
(-5.8025841e-05 -3.7632071e-06 -2.1940337e-11)
(-5.5570949e-05 -9.6606863e-07 -3.0636903e-11)
(-5.5575358e-05 -2.1732729e-06 -2.9250197e-11)
(-5.5164274e-05 -3.5392804e-06 -2.1523956e-11)
(-5.2858554e-05 -9.0091025e-07 -3.0424971e-11)
(-5.2866724e-05 -2.0307092e-06 -2.8443695e-11)
(-5.2484004e-05 -3.3072998e-06 -2.1116755e-11)
(-5.0339249e-05 -8.3270071e-07 -3.030805e-11)
(-5.0350297e-05 -1.8801489e-06 -2.7876239e-11)
(-4.9992642e-05 -3.0617426e-06 -2.089191e-11)
(-4.80206e-05 -7.6160125e-07 -3.0287952e-11)
(-4.8033844e-05 -1.7224726e-06 -2.7545076e-11)
(-4.7698328e-05 -2.8056752e-06 -2.0824522e-11)
(-4.5910208e-05 -6.881369e-07 -3.0266257e-11)
(-4.5925116e-05 -1.5590277e-06 -2.7282867e-11)
(-4.5609066e-05 -2.540501e-06 -2.0815559e-11)
(-4.4015054e-05 -6.1272666e-07 -3.0264418e-11)
(-4.4031217e-05 -1.3897072e-06 -2.7098942e-11)
(-4.3732166e-05 -2.2640454e-06 -2.0871641e-11)
(-4.2341501e-05 -5.3489178e-07 -3.0329362e-11)
(-4.2358597e-05 -1.2139235e-06 -2.7051606e-11)
(-4.2074218e-05 -1.9774744e-06 -2.103015e-11)
(-4.089588e-05 -4.5477007e-07 -3.0490683e-11)
(-4.0913657e-05 -1.0319296e-06 -2.7174178e-11)
(-4.0641703e-05 -1.6807448e-06 -2.1306273e-11)
(-3.968559e-05 -3.7237029e-07 -3.073617e-11)
(-3.970386e-05 -8.440138e-07 -2.7418787e-11)
(-3.9442148e-05 -1.3740876e-06 -2.1627037e-11)
(-3.8719776e-05 -2.8810097e-07 -3.0983573e-11)
(-3.8738457e-05 -6.5116425e-07 -2.7595702e-11)
(-3.8484889e-05 -1.0589133e-06 -2.1757407e-11)
(-3.8011714e-05 -2.0151989e-07 -3.1105806e-11)
(-3.8030758e-05 -4.5350148e-07 -2.72829e-11)
(-3.7783212e-05 -7.3719558e-07 -2.1184677e-11)
(-3.7579396e-05 -1.1236327e-07 -3.0610287e-11)
(-3.7598589e-05 -2.5260588e-07 -2.5295174e-11)
(-3.735471e-05 -4.1405992e-07 -1.878667e-11)
(-3.7424494e-05 -2.9131784e-08 -2.7175519e-11)
(-3.7443661e-05 -6.4676565e-08 -1.8679612e-11)
(-3.720102e-05 -1.0901499e-07 -1.2539424e-11)
(-0.046799923 1.9426356 -3.5628262e-07)
(-0.032827752 1.6880888 -3.4317477e-06)
(-0.062987298 0.33630767 -2.3574659e-07)
(-0.042998006 0.14936329 -9.9355346e-07)
(-0.016705228 -0.042267093 -1.4458031e-07)
(-0.012040023 -0.04431061 -5.627589e-07)
(-0.006451355 -0.014461296 -2.8068083e-08)
(-0.0054744456 -0.015707779 -3.1434298e-07)
(-0.0022462177 -0.003097626 -2.7634051e-08)
(-0.001823 -0.0039155025 -1.9523754e-07)
(-0.0012402252 -0.0009595975 -4.1131972e-08)
(-0.00085055935 -0.0011187753 -1.3352915e-07)
(-0.00085609778 -0.00043855262 -4.4681865e-08)
(-0.00056982544 -0.0003877347 -9.5209608e-08)
(-0.00071345515 -0.00021934019 -3.9583972e-08)
(-0.00050827133 -0.00016559619 -6.7283526e-08)
(-0.00064006104 -0.00017951857 -2.9592745e-08)
(-0.00049466747 -0.00016590927 -4.4823543e-08)
(-0.00057148684 -0.00020326196 -1.8976502e-08)
(-0.00046910063 -0.00021968236 -2.7365566e-08)
(-0.00049407129 -0.00020343672 -1.0572043e-08)
(-0.0004200138 -0.00023219224 -1.513932e-08)
(-0.00041824818 -0.00016757323 -5.2274108e-09)
(-0.00036303445 -0.00019900143 -7.6176265e-09)
(-0.00035346838 -0.00012638042 -2.3848591e-09)
(-0.00031171282 -0.00014842113 -3.556666e-09)
(-0.00030181671 -9.2421016e-05 -1.0653436e-09)
(-0.00026990961 -0.00010819815 -1.5886299e-09)
(-0.00026154942 -6.921278e-05 -5.0258817e-10)
(-0.00023690594 -7.9913288e-05 -7.0628835e-10)
(-0.00022995831 -5.4771387e-05 -2.5264533e-10)
(-0.00021069875 -6.3697403e-05 -3.159013e-10)
(-0.00020456948 -4.4958854e-05 -1.2590938e-10)
(-0.00018933791 -5.2890909e-05 -1.3632561e-10)
(-0.00018369528 -3.7292611e-05 -5.7304261e-11)
(-0.00017150035 -4.4461214e-05 -5.0528612e-11)
(-0.00016631736 -3.0947166e-05 -2.3056206e-11)
(-0.00015643758 -3.7256333e-05 -1.127156e-11)
(-0.00015177805 -2.5653218e-05 -9.5567545e-12)
(-0.00014368993 -3.095004e-05 3.6022388e-12)
(-0.00013957369 -2.1300615e-05 -7.0058493e-12)
(-0.00013288936 -2.5797232e-05 6.4243233e-12)
(-0.0001292731 -1.7895443e-05 -8.6540656e-12)
(-0.00012370211 -2.1724402e-05 4.3699377e-12)
(-0.00012049816 -1.5221339e-05 -1.0986025e-11)
(-0.00011581943 -1.8579138e-05 1.3990427e-12)
(-0.00011292573 -1.3144006e-05 -1.2537637e-11)
(-0.00010896549 -1.6104353e-05 -9.9850741e-13)
(-0.00010629317 -1.1544382e-05 -1.3465537e-11)
(-0.00010291228 -1.4208878e-05 -2.7223379e-12)
(-0.00010039621 -1.0282987e-05 -1.3961969e-11)
(-9.7483938e-05 -1.2700843e-05 -4.0741767e-12)
(-9.5079726e-05 -9.2363927e-06 -1.4543877e-11)
(-9.2549448e-05 -1.1456486e-05 -5.1400162e-12)
(-9.0224256e-05 -8.4074825e-06 -1.4715124e-11)
(-8.8008049e-05 -1.0435269e-05 -5.8205919e-12)
(-8.5734853e-05 -7.6960835e-06 -1.4738981e-11)
(-8.3777498e-05 -9.5489223e-06 -6.4599525e-12)
(-8.1534889e-05 -7.248396e-06 -1.4904799e-11)
(-7.9791631e-05 -9.209913e-06 -7.1224787e-12)
(-7.7567675e-05 -7.0611757e-06 -1.509467e-11)
(-7.6002303e-05 -8.8408027e-06 -7.7586951e-12)
(-7.379511e-05 -6.7399533e-06 -1.5185078e-11)
(-7.2378722e-05 -8.4769423e-06 -8.2352402e-12)
(-7.0192569e-05 -6.3933643e-06 -1.5120633e-11)
(-6.8903489e-05 -8.0479347e-06 -8.5335438e-12)
(-6.6746518e-05 -6.0718268e-06 -1.5071983e-11)
(-6.5568041e-05 -7.6610861e-06 -8.7768947e-12)
(-6.3452137e-05 -5.772998e-06 -1.4999039e-11)
(-6.2370422e-05 -7.2987576e-06 -8.9737117e-12)
(-6.0311927e-05 -5.4844981e-06 -1.4878609e-11)
(-5.9314645e-05 -6.9431626e-06 -9.1151575e-12)
(-5.7332048e-05 -5.1914379e-06 -1.4774023e-11)
(-5.640853e-05 -6.5784026e-06 -9.2571736e-12)
(-5.4519821e-05 -4.8857611e-06 -1.4696982e-11)
(-5.3661168e-05 -6.1965216e-06 -9.4190299e-12)
(-5.1883099e-05 -4.5666227e-06 -1.4658077e-11)
(-5.1081851e-05 -5.7941268e-06 -9.6155046e-12)
(-4.9430312e-05 -4.2284539e-06 -1.4717919e-11)
(-4.8679971e-05 -5.3689162e-06 -9.8557999e-12)
(-4.7170166e-05 -3.8770361e-06 -1.4847489e-11)
(-4.6464962e-05 -4.9246013e-06 -1.0122816e-11)
(-4.5111021e-05 -3.5110708e-06 -1.5024616e-11)
(-4.4445712e-05 -4.4595011e-06 -1.0418326e-11)
(-4.3260481e-05 -3.1293472e-06 -1.525235e-11)
(-4.2630109e-05 -3.9757785e-06 -1.0747095e-11)
(-4.1625342e-05 -2.7337209e-06 -1.554881e-11)
(-4.1025194e-05 -3.4739977e-06 -1.1122218e-11)
(-4.0212177e-05 -2.3240089e-06 -1.5915497e-11)
(-3.9637722e-05 -2.9539883e-06 -1.1538812e-11)
(-3.9028596e-05 -1.9000655e-06 -1.6274529e-11)
(-3.8475391e-05 -2.4151984e-06 -1.1926194e-11)
(-3.8083993e-05 -1.4630949e-06 -1.6399566e-11)
(-3.7547589e-05 -1.8583299e-06 -1.2087807e-11)
(-3.7391617e-05 -1.0174782e-06 -1.5818547e-11)
(-3.6867466e-05 -1.2916771e-06 -1.1624902e-11)
(-3.6968837e-05 -5.7347196e-07 -1.3662158e-11)
(-3.6452279e-05 -7.3059707e-07 -9.9011057e-12)
(-3.6817164e-05 -1.5256763e-07 -8.6936541e-12)
(-3.6303421e-05 -1.9647086e-07 -6.1541286e-12)
(0.0035715218 -3.7962317e-05 -6.152063e-08)
(0.0034460277 -0.00015331371 -1.4453149e-07)
(0.0031991884 -0.00018834524 -2.0180742e-07)
(0.0028979382 -0.00023445402 -2.3554757e-07)
(0.0025849951 -0.0002494995 -2.507618e-07)
(0.0022857602 -0.00026863365 -2.5306483e-07)
(0.0020159463 -0.00029098813 -2.4711172e-07)
(0.0017768353 -0.000328723 -2.3633526e-07)
(0.001570883 -0.00037822831 -2.2305731e-07)
(0.0013946199 -0.00043797261 -2.0880281e-07)
(0.001243168 -0.00050448808 -1.9457106e-07)
(0.0011116739 -0.00057363233 -1.8088299e-07)
(0.00099551679 -0.00064253957 -1.6792353e-07)
(0.00089092185 -0.00070872933 -1.5565101e-07)
(0.00079507219 -0.00077027029 -1.4394746e-07)
(0.00070574553 -0.00082546045 -1.3269341e-07)
(0.00062121302 -0.00087379314 -1.2177217e-07)
(0.00053989849 -0.00091504683 -1.1101505e-07)
(0.00046146072 -0.00094739981 -1.0021986e-07)
(0.00038543067 -0.00097018122 -8.9143316e-08)
(0.00031147542 -0.00098319012 -7.7464911e-08)
(0.00023936952 -0.00098648208 -6.4616221e-08)
(0.00016910952 -0.00098131098 -5.0018717e-08)
(0.00010049615 -0.00097012132 -3.32417e-08)
(3.2772412e-05 -0.00092383683 -1.3977209e-08)
(0.00033635036 -0.00016579373 -7.8425161e-08)
(0.00030813937 -0.00061294227 -1.8118077e-07)
(0.00027729632 -0.00086518173 -2.47574e-07)
(0.00026573545 -0.0011886261 -2.8210645e-07)
(0.00027803462 -0.0014355336 -2.9376959e-07)
(0.00030773334 -0.0017057431 -2.9163352e-07)
(0.00034397523 -0.001972897 -2.8168166e-07)
(0.00038095786 -0.0022657289 -2.6769043e-07)
(0.00040641812 -0.0025800482 -2.5180657e-07)
(0.00041875142 -0.0028910572 -2.3537052e-07)
(0.00041872761 -0.0031951988 -2.1940171e-07)
(0.00040892802 -0.0034882858 -2.0434085e-07)
(0.00039185773 -0.0037631065 -1.9029167e-07)
(0.00036937492 -0.0040161001 -1.7708069e-07)
(0.00034264974 -0.0042461345 -1.6451173e-07)
(0.00031271383 -0.0044530396 -1.5243772e-07)
(0.00028050011 -0.0046433132 -1.4075998e-07)
(0.00024712543 -0.0048173811 -1.2920921e-07)
(0.00021274118 -0.0049590067 -1.1756161e-07)
(0.00017773901 -0.0050547818 -1.0551768e-07)
(0.00014260167 -0.0051010381 -9.2839404e-08)
(0.00010788589 -0.0051000101 -7.8574822e-08)
(7.4185334e-05 -0.0050556441 -6.1875364e-08)
(4.1805487e-05 -0.0049532915 -4.1630392e-08)
(1.156575e-05 -0.0047305262 -1.8135922e-08)
(0.0012246802 -0.00037262338 -1.1844865e-07)
(0.0011773736 -0.0016457011 -2.6290056e-07)
(0.0011580074 -0.0021985983 -3.439232e-07)
(0.0011922718 -0.0030882949 -3.7447115e-07)
(0.0012494074 -0.0038135222 -3.7612689e-07)
(0.0012989605 -0.0045837936 -3.6417883e-07)
(0.0013224833 -0.0053564169 -3.4602228e-07)
(0.0013165228 -0.0062867285 -3.2585939e-07)
(0.0012866647 -0.0073415507 -3.0503407e-07)
(0.0012375978 -0.0083177494 -2.842795e-07)
(0.001173695 -0.0091691479 -2.6495227e-07)
(0.0010994165 -0.0098906904 -2.4724693e-07)
(0.0010182571 -0.010482495 -2.3117596e-07)
(0.00093267766 -0.010952749 -2.1621488e-07)
(0.000844215 -0.011308913 -2.0201347e-07)
(0.00075438395 -0.011554698 -1.8837205e-07)
(0.000664628 -0.011686835 -1.7540551e-07)
(0.00057624102 -0.011714102 -1.6247024e-07)
(0.00048948278 -0.011660601 -1.4942629e-07)
(0.00040489779 -0.011547074 -1.3600904e-07)
(0.00032298019 -0.011384162 -1.2173668e-07)
(0.00024412274 -0.011180985 -1.0572622e-07)
(0.0001688276 -0.010945375 -8.661971e-08)
(9.7024589e-05 -0.01064751 -6.2035042e-08)
(2.9803582e-05 -0.010237641 -3.1013871e-08)
(0.0038045464 -0.0011068274 -2.0281432e-07)
(0.0037286218 -0.004812181 -4.1315968e-07)
(0.0036435344 -0.0061169968 -5.0205413e-07)
(0.0034811223 -0.0093233308 -5.1442996e-07)
(0.0032910185 -0.012218489 -4.960136e-07)
(0.0030576983 -0.014812221 -4.6814307e-07)
(0.002798427 -0.016667374 -4.3760402e-07)
(0.0025280178 -0.017666336 -4.1002107e-07)
(0.0022650797 -0.017976881 -3.8351423e-07)
(0.002013493 -0.017861771 -3.5646729e-07)
(0.0017790187 -0.01742779 -3.3238663e-07)
(0.0015649645 -0.016796296 -3.1069731e-07)
(0.0013678122 -0.015994482 -2.9181681e-07)
(0.0011768705 -0.015068946 -2.74261e-07)
(0.0010036787 -0.014071809 -2.5751792e-07)
(0.000849357 -0.013048927 -2.4146288e-07)
(0.00071289608 -0.012038499 -2.2595595e-07)
(0.00059238861 -0.011073652 -2.1075583e-07)
(0.00048640651 -0.010176697 -1.9576105e-07)
(0.00039285841 -0.0093679128 -1.8059328e-07)
(0.00030955819 -0.0086595843 -1.6478511e-07)
(0.00023427138 -0.0080567585 -1.4756902e-07)
(0.00016456153 -0.0075616577 -1.2765115e-07)
(9.8978063e-05 -0.0071314764 -1.0271315e-07)
(3.6259475e-05 -0.0068086751 -6.5590583e-08)
(0.011814168 -0.0086973699 -3.9176241e-07)
(0.00942106 -0.025639535 -6.6745143e-07)
(0.0081391515 -0.028180412 -7.3159046e-07)
(0.0063824802 -0.032522069 -7.1181089e-07)
(0.0049524565 -0.03006127 -6.6808718e-07)
(0.003705237 -0.026342537 -6.188068e-07)
(0.0026669357 -0.021680581 -5.7147656e-07)
(0.0018392148 -0.016754 -5.2780651e-07)
(0.0011911291 -0.011817895 -4.9003333e-07)
(0.00069037291 -0.007231077 -4.5556369e-07)
(0.00030861076 -0.0030727007 -4.2456149e-07)
(2.4001312e-05 0.00050447622 -3.9565642e-07)
(-0.00017983423 0.0037701518 -3.728405e-07)
(-0.00031307562 0.0068928481 -3.5115763e-07)
(-0.00039748134 0.0097909002 -3.3013139e-07)
(-0.00044121301 0.012310353 -3.1011094e-07)
(-0.0004528894 0.01441469 -2.9093776e-07)
(-0.00043945779 0.016120404 -2.7241927e-07)
(-0.00040643928 0.017455295 -2.5435667e-07)
(-0.0003585188 0.018449007 -2.3650976e-07)
(-0.00029975373 0.019127273 -2.18555e-07)
(-0.00023373822 0.019517911 -1.9996324e-07)
(-0.00016373854 0.019620351 -1.7973545e-07)
(-9.2564866e-05 0.019499584 -1.6076114e-07)
(-2.1044687e-05 0.018809864 -1.421141e-07)
(0.014961651 0.023442387 -7.7192072e-07)
(0.0039013567 -0.0015677379 -1.0829489e-06)
(0.0011151784 0.047745553 -1.0794377e-06)
(-0.00082151628 0.05044393 -1.002692e-06)
(-0.0024891221 0.064684943 -9.2441644e-07)
(-0.0037294777 0.074986071 -8.3740144e-07)
(-0.0044222252 0.082168479 -7.5928862e-07)
(-0.0046469754 0.088192395 -6.9114369e-07)
(-0.0045827972 0.09264887 -6.3161655e-07)
(-0.0043715593 0.095432466 -5.8035697e-07)
(-0.0040871658 0.097018705 -5.3682525e-07)
(-0.0037458093 0.097539103 -4.9106582e-07)
(-0.0033976766 0.097330955 -4.6465371e-07)
(-0.0030577851 0.096124256 -4.3592276e-07)
(-0.0027141927 0.094012296 -4.0692805e-07)
(-0.0023781953 0.091619645 -3.8070587e-07)
(-0.0020604993 0.08902046 -3.5626214e-07)
(-0.001762198 0.086299497 -3.3312208e-07)
(-0.0014828415 0.083533411 -3.1097681e-07)
(-0.0012209011 0.080780519 -2.8958303e-07)
(-0.00097421571 0.078077076 -2.6870384e-07)
(-0.00074045527 0.075466782 -2.48031e-07)
(-0.00051677077 0.072916926 -2.2721717e-07)
(-0.00030173689 0.070634 -2.0682401e-07)
(-9.021278e-05 0.06714548 -1.8725981e-07)
(-0.0010338211 1.1681532 -2.508241e-06)
(-0.00057153899 0.95767184 -1.9927627e-06)
(-0.00093142467 0.86263697 -1.6134137e-06)
(-0.00068406967 0.77075522 -1.3226248e-06)
(-0.00061595555 0.67536209 -1.1065065e-06)
(-0.00054871634 0.58454561 -9.4793956e-07)
(-0.00047677566 0.50658108 -8.2878053e-07)
(-0.00040974791 0.44318337 -7.3877412e-07)
(-0.00034967293 0.39086696 -6.6519479e-07)
(-0.00029587008 0.34620014 -6.0782985e-07)
(-0.0002451503 0.30764473 -5.6290108e-07)
(-0.00019961197 0.27446358 -5.2344334e-07)
(-0.00016012801 0.24608889 -4.9016515e-07)
(-0.00013438428 0.22180053 -4.6028342e-07)
(-0.00011163523 0.20093915 -4.3238077e-07)
(-9.2890376e-05 0.18302752 -4.0607042e-07)
(-7.7282235e-05 0.16763925 -3.8102123e-07)
(-6.3849687e-05 0.15441329 -3.5698865e-07)
(-5.2248095e-05 0.14304761 -3.3379837e-07)
(-4.2149183e-05 0.13329347 -3.1131712e-07)
(-3.3198378e-05 0.12493336 -2.894183e-07)
(-2.5043722e-05 0.1178278 -2.6788806e-07)
(-1.7301472e-05 0.11172238 -2.4669414e-07)
(-9.9463785e-06 0.10693529 -2.2573489e-07)
(-2.8537733e-06 0.10089886 -2.0381764e-07)
(-0.012740809 0.089302377 -1.2011026e-06)
(-0.0025377644 0.097448332 -1.2368493e-06)
(-0.00022932327 0.10340625 -1.1885201e-06)
(0.0014541128 0.1051043 -1.0969631e-06)
(0.0029400541 0.10723593 -9.9413631e-07)
(0.0040494449 0.1089621 -8.9386106e-07)
(0.0046552199 0.11064247 -8.0391004e-07)
(0.0048186076 0.11220215 -7.2610094e-07)
(0.0047109815 0.1130385 -6.4380739e-07)
(0.0044483213 0.11313045 -5.9766696e-07)
(0.004141023 0.11247457 -5.5621457e-07)
(0.0038133273 0.11087322 -5.115201e-07)
(0.0034491774 0.10843052 -4.7343026e-07)
(0.0030839331 0.10546835 -4.4012266e-07)
(0.0027296858 0.10224298 -4.1026891e-07)
(0.002391413 0.098882509 -3.8303774e-07)
(0.0020708646 0.095471429 -3.5783288e-07)
(0.0017699518 0.092078407 -3.3419007e-07)
(0.0014880471 0.088755272 -3.1174443e-07)
(0.0012238414 0.085540421 -2.9019338e-07)
(0.00097544192 0.082455274 -2.6923109e-07)
(0.00074068562 0.079531063 -2.4843636e-07)
(0.0005170283 0.076724674 -2.283013e-07)
(0.00030239681 0.07424855 -2.0785542e-07)
(9.0932348e-05 0.070539564 -1.879334e-07)
(-0.0094253641 -0.041801578 -7.8010198e-07)
(-0.0079103915 -0.039340489 -8.4168831e-07)
(-0.0065052022 -0.037465591 -8.2790312e-07)
(-0.005135035 -0.033983331 -7.8241162e-07)
(-0.0038614157 -0.029049112 -7.2525196e-07)
(-0.0027531873 -0.023456428 -6.6490327e-07)
(-0.0018407625 -0.01769077 -6.0944729e-07)
(-0.0011219754 -0.012067108 -5.5881604e-07)
(-0.00057003458 -0.0070268873 -5.116044e-07)
(-0.0001555245 -0.0025490198 -4.763071e-07)
(0.00014740279 0.0012879954 -4.4370228e-07)
(0.00036183287 0.0049996117 -4.1299146e-07)
(0.00050342213 0.0085474152 -3.850685e-07)
(0.00058968393 0.011732135 -3.5966984e-07)
(0.00063188661 0.014477179 -3.3631783e-07)
(0.00063949239 0.016778303 -3.1458992e-07)
(0.00062097313 0.018663813 -2.9420425e-07)
(0.00058090899 0.020174607 -2.7483106e-07)
(0.00052440728 0.0213389 -2.5617051e-07)
(0.00045543459 0.022178107 -2.3790484e-07)
(0.00037729836 0.022713504 -2.1957449e-07)
(0.00029273148 0.022965931 -2.0022262e-07)
(0.00020470067 0.022946998 -1.8262124e-07)
(0.00011612842 0.022704523 -1.6223729e-07)
(2.8103889e-05 0.021860502 -1.4304359e-07)
(-0.004796603 -0.016895243 -4.7917654e-07)
(-0.0044667783 -0.019047419 -5.496494e-07)
(-0.0042047465 -0.021631798 -5.619962e-07)
(-0.0039162095 -0.023536477 -5.4497316e-07)
(-0.0035744866 -0.024735475 -5.1656274e-07)
(-0.0032099323 -0.025115287 -4.8626032e-07)
(-0.0028606988 -0.024849971 -4.4924098e-07)
(-0.0025299781 -0.024151139 -4.1478657e-07)
(-0.0022242858 -0.023188269 -3.8369668e-07)
(-0.0019471797 -0.022026385 -3.5739061e-07)
(-0.0016954906 -0.020750263 -3.335096e-07)
(-0.0014630137 -0.019345144 -3.1145292e-07)
(-0.0012507527 -0.017877882 -2.9117973e-07)
(-0.0010627924 -0.016399299 -2.725416e-07)
(-0.00089770642 -0.014945024 -2.5512654e-07)
(-0.00075312819 -0.013547885 -2.385699e-07)
(-0.00062605884 -0.012239315 -2.2298546e-07)
(-0.00051580427 -0.011050014 -2.0795369e-07)
(-0.00041999155 -0.0099921291 -1.9317518e-07)
(-0.00033653968 -0.0090666028 -1.7830989e-07)
(-0.00026342493 -0.0082731398 -1.6287094e-07)
(-0.00019860705 -0.0076108281 -1.4615835e-07)
(-0.00014009586 -0.0070755868 -1.2751624e-07)
(-8.5668601e-05 -0.0066251166 -1.0293839e-07)
(-3.2930165e-05 -0.0063054139 -6.6165465e-08)
(-0.0015226361 -0.0047080726 -3.0860876e-07)
(-0.0014933816 -0.0054338062 -3.6982553e-07)
(-0.001551142 -0.0062236444 -3.9190166e-07)
(-0.0016152491 -0.0070295392 -3.9016501e-07)
(-0.0016701081 -0.0078873953 -3.7571543e-07)
(-0.0016900088 -0.0089416297 -3.5511287e-07)
(-0.0016641454 -0.010104772 -3.3061788e-07)
(-0.0016028478 -0.011118457 -3.0642792e-07)
(-0.0015188971 -0.011972591 -2.8416063e-07)
(-0.0014224473 -0.012666312 -2.6431536e-07)
(-0.0013190834 -0.013216987 -2.462999e-07)
(-0.0012127041 -0.013627967 -2.2973908e-07)
(-0.0011042132 -0.013910387 -2.1443483e-07)
(-0.00099659983 -0.014045844 -2.0054679e-07)
(-0.00089134582 -0.014054932 -1.8739438e-07)
(-0.00078908406 -0.013975777 -1.7507252e-07)
(-0.00069134128 -0.013833433 -1.63024e-07)
(-0.00059710866 -0.01364349 -1.5121078e-07)
(-0.00050643394 -0.013415736 -1.3940901e-07)
(-0.00041908634 -0.013157437 -1.2730479e-07)
(-0.00033487742 -0.012874399 -1.1437766e-07)
(-0.00025370097 -0.012572567 -9.9812176e-08)
(-0.00017560139 -0.012255811 -8.236945e-08)
(-0.00010086932 -0.011884019 -5.9267867e-08)
(-3.1161612e-05 -0.011413669 -2.9965405e-08)
(-0.00054981183 -0.0013389541 -2.0500725e-07)
(-0.00035845532 -0.0015911714 -2.4979506e-07)
(-0.00029866552 -0.0018732137 -2.7097137e-07)
(-0.00031619449 -0.0022019102 -2.7530465e-07)
(-0.00037858862 -0.0025709408 -2.690324e-07)
(-0.00045737839 -0.0029759013 -2.5665707e-07)
(-0.00052012959 -0.0034079542 -2.4097683e-07)
(-0.00055835776 -0.0038308956 -2.2447949e-07)
(-0.00057455972 -0.0042292796 -2.0857279e-07)
(-0.00057261301 -0.0045935068 -1.9383636e-07)
(-0.00055951192 -0.0049223325 -1.802587e-07)
(-0.0005382659 -0.0052159489 -1.6771106e-07)
(-0.00051057614 -0.0054866477 -1.5608152e-07)
(-0.00047721784 -0.0057615103 -1.4530836e-07)
(-0.00043986888 -0.0060362439 -1.3517457e-07)
(-0.00039959774 -0.0062752759 -1.2555126e-07)
(-0.00035747561 -0.006467713 -1.1620472e-07)
(-0.0003138861 -0.0066105542 -1.0699379e-07)
(-0.00026951689 -0.006703181 -9.7716133e-08)
(-0.00022492203 -0.0067452894 -8.820007e-08)
(-0.00018053045 -0.0067381478 -7.8006909e-08)
(-0.0001367526 -0.006685133 -6.6351373e-08)
(-9.4081088e-05 -0.0065913236 -5.2553815e-08)
(-5.3005914e-05 -0.0064384377 -3.5409737e-08)
(-1.482835e-05 -0.006150309 -1.5611963e-08)
(-0.00034440775 -0.00032615967 -1.3821023e-07)
(-0.00016360645 -0.00026726798 -1.6813927e-07)
(-5.594844e-05 -0.00023266293 -1.8462788e-07)
(-7.486141e-06 -0.00024341529 -1.9016836e-07)
(1.4679448e-05 -0.00029852128 -1.879689e-07)
(1.2196216e-05 -0.00039004645 -1.8083073e-07)
(-1.153836e-05 -0.00050529365 -1.7088177e-07)
(-4.2077525e-05 -0.00063358461 -1.5979633e-07)
(-6.8982532e-05 -0.00077177906 -1.4865194e-07)
(-8.7735849e-05 -0.0009114345 -1.3800049e-07)
(-9.9881969e-05 -0.0010434716 -1.2801608e-07)
(-0.0001077686 -0.0011651581 -1.187073e-07)
(-0.00011327665 -0.0012739326 -1.1002937e-07)
(-0.000114581 -0.0013717452 -1.0191922e-07)
(-0.00011175776 -0.001458787 -9.4269666e-08)
(-0.00010578846 -0.001531748 -8.6973046e-08)
(-9.7589693e-05 -0.0015910073 -7.9903545e-08)
(-8.7639556e-05 -0.0016368857 -7.2950604e-08)
(-7.6510989e-05 -0.0016695039 -6.5981496e-08)
(-6.4731307e-05 -0.0016887318 -5.8835954e-08)
(-5.2685425e-05 -0.0016945412 -5.1254234e-08)