/*--------------------------------*- C++ -*----------------------------------*\
| =========                 |                                                 |
| \\      /  F ield         | OpenFOAM: The Open Source CFD Toolbox           |
|  \\    /   O peration     | Version:  4.0                                   |
|   \\  /    A nd           | Web:      www.OpenFOAM.org                      |
|    \\/     M anipulation  |                                                 |
\*---------------------------------------------------------------------------*/
FoamFile
{
    version     2.0;
    format      ascii;
    class       volScalarField;
    location    "0.7";
    object      nut;
}
// * * * * * * * * * * * * * * * * * * * * * * * * * * * * * * * * * * * * * //

dimensions      [0 2 -1 0 0 0 0];

internalField   nonuniform List<scalar> 
1740
(
3.1156181e-05
1.3168557e-05
1.2259941e-06
2.0589237e-05
6.8425198e-06
1.8081661e-06
2.8035583e-05
5.4719865e-06
2.2645362e-06
2.5124622e-05
4.8396271e-06
2.709198e-06
2.041112e-05
4.3820252e-06
3.0978875e-06
1.5077416e-05
4.0721361e-06
3.3909019e-06
1.3659222e-05
3.8742735e-06
3.6503879e-06
1.1570901e-05
3.7422253e-06
3.8545695e-06
1.0366924e-05
3.6645724e-06
4.0210826e-06
9.427186e-06
3.5977455e-06
4.148785e-06
8.6320261e-06
3.5513954e-06
4.2471995e-06
8.0871706e-06
3.5262774e-06
4.3550055e-06
7.5562485e-06
3.5406332e-06
4.4240778e-06
7.0196248e-06
3.5149725e-06
4.4654108e-06
6.5723365e-06
3.5016508e-06
4.5048279e-06
6.1861927e-06
3.5064298e-06
4.5756734e-06
5.8703327e-06
3.5194981e-06
4.6263002e-06
5.6437488e-06
3.551081e-06
4.6191789e-06
5.4171263e-06
3.5453196e-06
4.6076547e-06
5.202752e-06
3.5261602e-06
4.6298325e-06
5.0271131e-06
3.5399326e-06
4.62415e-06
4.9023769e-06
3.5416181e-06
4.6637548e-06
4.769652e-06
3.5545482e-06
4.6930775e-06
4.6453001e-06
3.5476207e-06
4.6578699e-06
4.5349545e-06
3.5307578e-06
4.6674897e-06
4.4299613e-06
3.5482055e-06
4.686833e-06
4.321651e-06
3.5613024e-06
4.6761084e-06
4.2258586e-06
3.5889779e-06
4.6556821e-06
4.1694581e-06
3.614663e-06
4.607364e-06
2.9794362e-06
3.6180634e-06
4.301641e-06
1.9468924e-06
2.1925762e-06
4.4167566e-06
7.1704152e-06
7.352385e-06
6.7144841e-06
6.5387173e-06
6.7416803e-06
6.3753177e-06
5.1930209e-06
5.1295215e-06
4.8790409e-06
4.3510426e-06
4.2778787e-06
4.1392912e-06
3.8053975e-06
3.7618979e-06
3.7005948e-06
3.4429139e-06
3.4254732e-06
3.4106845e-06
3.1914369e-06
3.190124e-06
3.2005953e-06
3.0033015e-06
3.0104716e-06
3.0331867e-06
2.8457718e-06
2.8566885e-06
2.8841162e-06
2.6955812e-06
2.707583e-06
2.7355812e-06
2.5363445e-06
2.5480301e-06
2.5744391e-06
2.357434e-06
2.3681192e-06
2.391905e-06
2.1536e-06
2.1629904e-06
2.1837369e-06
1.9248935e-06
1.9328994e-06
1.9505195e-06
1.6765152e-06
1.6831531e-06
1.697735e-06
1.4181637e-06
1.4235097e-06
1.4352433e-06
1.1625234e-06
1.1666931e-06
1.1758417e-06
9.2288033e-07
9.2601958e-07
9.3290686e-07
7.104143e-07
7.1269029e-07
7.1768399e-07
5.3210831e-07
5.3369605e-07
5.3718094e-07
3.9003339e-07
3.9109988e-07
3.9344317e-07
2.8208155e-07
2.8277305e-07
2.8429596e-07
2.0363043e-07
2.040691e-07
2.0503403e-07
1.4888195e-07
1.4915556e-07
1.4975582e-07
1.1191063e-07
1.1207924e-07
1.1244865e-07
8.7733478e-08
8.7837446e-08
8.8065124e-08
7.2490941e-08
7.2556203e-08
7.2699146e-08
6.332696e-08
6.3369524e-08
6.346287e-08
5.8201326e-08
5.8230729e-08
5.8295417e-08
5.569799e-08
5.5719732e-08
5.5767849e-08
5.4857005e-08
5.4874179e-08
5.4912503e-08
5.5039809e-08
5.5054129e-08
5.5086381e-08
5.5828001e-08
5.5840426e-08
5.5868628e-08
5.6951027e-08
5.6962098e-08
5.6987358e-08
5.8236286e-08
5.8246317e-08
5.8269257e-08
5.9575388e-08
5.958457e-08
5.9605567e-08
6.0901619e-08
6.0910075e-08
6.0929384e-08
6.2175094e-08
6.2182915e-08
6.2200734e-08
6.3373262e-08
6.3380525e-08
6.3397028e-08
6.4485149e-08
6.4491927e-08
6.4507283e-08
6.5508293e-08
6.5514679e-08
6.5529072e-08
6.6446972e-08
6.6453132e-08
6.6466798e-08
6.7254702e-08
6.7260584e-08
6.7273552e-08
6.7928968e-08
6.7934579e-08
6.7946921e-08
6.8467297e-08
6.8472669e-08
6.8484473e-08
6.88612e-08
6.8866371e-08
6.8877729e-08
6.9091644e-08
6.9096651e-08
6.910766e-08
6.9114979e-08
6.9119874e-08
6.9130681e-08
6.8787219e-08
6.8792093e-08
6.8803012e-08
4.1751306e-06
4.4979809e-06
6.6873098e-06
8.421352e-06
5.994859e-06
6.0379853e-06
4.7290163e-06
4.8311843e-06
4.088067e-06
4.1942457e-06
3.7022752e-06
3.8035491e-06
3.4405554e-06
3.5351372e-06
3.2441188e-06
3.3314776e-06
3.0817128e-06
3.1615547e-06
2.9326319e-06
3.0048016e-06
2.7813032e-06
2.8457664e-06
2.615944e-06
2.6727936e-06
2.4285727e-06
2.4780227e-06
2.2154061e-06
2.257769e-06
1.9772821e-06
2.0129378e-06
1.7198275e-06
1.7492084e-06
1.453e-06
1.4765989e-06
1.1896799e-06
1.2080692e-06
9.4332306e-07
9.5716619e-07
7.2523688e-07
7.3527587e-07
5.4245294e-07
5.494614e-07
3.9699027e-07
4.0170682e-07
2.8660349e-07
2.896723e-07
2.0649449e-07
2.0843491e-07
1.5066271e-07
1.5186586e-07
1.1300609e-07
1.1374478e-07
8.8408499e-08
8.8863233e-08
7.2914769e-08
7.3200368e-08
6.3603872e-08
6.3790903e-08
5.8393441e-08
5.852387e-08
5.5841145e-08
5.5939134e-08
5.4971277e-08
5.5050296e-08
5.5136189e-08
5.5203511e-08
5.5912432e-08
5.5971883e-08
5.7026733e-08
5.7080309e-08
5.8305071e-08
5.8353851e-08
5.9638343e-08
5.9682977e-08
6.0959488e-08
6.1000446e-08
6.2228466e-08
6.2266145e-08
6.3422658e-08
6.3457424e-08
6.453107e-08
6.456327e-08
6.5551273e-08
6.5581237e-08
6.6487685e-08
6.651573e-08
6.7293275e-08
6.7319665e-08
6.7965644e-08
6.7990645e-08
6.850236e-08
6.8526216e-08
6.8894934e-08
6.8917866e-08
6.912435e-08
6.9146569e-08
6.9147124e-08
6.9168868e-08
6.8819807e-08
6.8841393e-08
4.716365e-10
1.3252993e-08
1.9304673e-07
8.2655648e-07
1.6439659e-06
2.230815e-06
2.5758691e-06
2.7841857e-06
2.9281589e-06
3.0434333e-06
3.1471697e-06
3.2534009e-06
3.3588599e-06
3.4624802e-06
3.5634814e-06
3.6605132e-06
3.7511185e-06
3.8311574e-06
3.8939256e-06
3.9288272e-06
3.9192354e-06
3.8388797e-06
3.6451372e-06
3.2607384e-06
2.4462199e-06
2.1467382e-10
2.6868352e-08
3.5969666e-07
1.3767496e-06
2.5699779e-06
3.3786723e-06
3.851969e-06
4.1586221e-06
4.3932168e-06
4.5985478e-06
4.7952188e-06
4.995788e-06
5.1979191e-06
5.4006154e-06
5.6022171e-06
5.7999867e-06
5.9891727e-06
6.1619956e-06
6.3057265e-06
6.4000375e-06
6.4125507e-06
6.2908559e-06
5.9471207e-06
5.2203916e-06
3.681641e-06
6.5995281e-10
7.8749045e-08
8.5679353e-07
2.5059053e-06
3.7911439e-06
4.5276547e-06
4.9912933e-06
5.3369655e-06
5.6372676e-06
5.9245958e-06
6.2142754e-06
6.5130685e-06
6.8194889e-06
7.1323883e-06
7.4503421e-06
7.7702775e-06
8.0859578e-06
8.3874037e-06
8.6569174e-06
8.8657281e-06
8.9671202e-06
8.8833857e-06
8.4789725e-06
7.4952955e-06
5.2891295e-06
3.1197269e-09
2.8515913e-07
2.0615911e-06
4.0012413e-06
5.0412297e-06
5.628514e-06
6.0349608e-06
6.3772781e-06
6.7056755e-06
7.0387472e-06
7.3873221e-06
7.7544873e-06
8.1367353e-06
8.5327796e-06
8.9424858e-06
9.3644816e-06
9.7937717e-06
1.0220794e-05
1.0628838e-05
1.0989934e-05
1.1257756e-05
1.1353726e-05
1.1133973e-05
1.0289218e-05
7.8903416e-06
2.3318206e-08
1.138057e-06
3.9881735e-06
5.5961548e-06
6.4470897e-06
6.9673563e-06
7.3502089e-06
7.6957257e-06
8.0446388e-06
8.3989308e-06
8.7718477e-06
9.1703535e-06
9.5842571e-06
1.0008911e-05
1.0447008e-05
1.0903224e-05
1.1376844e-05
1.1863221e-05
1.2352356e-05
1.2825938e-05
1.3252736e-05
1.3582426e-05
1.3738211e-05
1.3624186e-05
1.3212045e-05
1.9530363e-07
2.7554335e-06
5.904618e-06
7.7090151e-06
8.623191e-06
9.0392965e-06
9.2347264e-06
9.3708224e-06
9.5087151e-06
9.6665809e-06
9.8525239e-06
1.0072858e-05
1.0328187e-05
1.0618779e-05
1.0945943e-05
1.131077e-05
1.1713408e-05
1.2151851e-05
1.2620996e-05
1.3110901e-05
1.3603749e-05
1.4070537e-05
1.4467975e-05
1.4747284e-05
1.4850953e-05
4.3418286e-06
4.3180818e-06
4.3668478e-06
4.4817153e-06
4.6599837e-06
4.8902811e-06
5.1625613e-06
5.4748805e-06
5.830144e-06
6.2304638e-06
6.6750723e-06
7.160347e-06
7.680123e-06
8.2272301e-06
8.795145e-06
9.3793221e-06
9.9773513e-06
1.0587781e-05
1.120854e-05
1.1834863e-05
1.2456297e-05
1.305359e-05
1.3595912e-05
1.4046385e-05
1.4337314e-05
9.1193685e-06
9.3775517e-06
9.7742633e-06
1.0192507e-05
1.0368357e-05
1.0331253e-05
1.0213364e-05
1.0115604e-05
1.0077849e-05
1.0102042e-05
1.0183985e-05
1.0319032e-05
1.0505333e-05
1.074272e-05
1.1031169e-05
1.1370169e-05
1.175778e-05
1.2190005e-05
1.2659694e-05
1.315448e-05
1.3653654e-05
1.4125019e-05
1.4522112e-05
1.479478e-05
1.4889177e-05
6.4092963e-06
6.8184154e-06
7.2493887e-06
7.6494419e-06
7.9513848e-06
8.1684544e-06
8.3605147e-06
8.567607e-06
8.798168e-06
9.066661e-06
9.370071e-06
9.6992279e-06
1.0049307e-05
1.042664e-05
1.0835123e-05
1.1275331e-05
1.1744238e-05
1.2234508e-05
1.2732529e-05
1.3215404e-05
1.3646407e-05
1.3969113e-05
1.4100945e-05
1.3943075e-05
1.3474669e-05
5.1431991e-06
5.4998087e-06
5.8504999e-06
6.1675515e-06
6.4341226e-06
6.6628729e-06
6.8840718e-06
7.1181614e-06
7.3763096e-06
7.6651396e-06
7.9826236e-06
8.3260622e-06
8.6953174e-06
9.0915034e-06
9.5141543e-06
9.9595334e-06
1.0419418e-05
1.0879418e-05
1.1316362e-05
1.1694152e-05
1.1956834e-05
1.2015393e-05
1.1715968e-05
1.0738893e-05
8.1291856e-06
4.4367091e-06
4.7270245e-06
5.0185258e-06
5.2906267e-06
5.5375713e-06
5.7675077e-06
5.9949144e-06
6.2325802e-06
6.4890571e-06
6.768496e-06
7.0705789e-06
7.3940776e-06
7.738638e-06
8.1031822e-06
8.4847757e-06
8.8763673e-06
9.2657318e-06
9.6335777e-06
9.9508236e-06
1.0174494e-05
1.024116e-05
1.0055393e-05
9.4662816e-06
8.2078505e-06
5.6438857e-06
3.9926344e-06
4.2236583e-06
4.4636944e-06
4.6968977e-06
4.9196706e-06
5.136775e-06
5.356328e-06
5.5860585e-06
5.8316575e-06
6.0959501e-06
6.3791317e-06
6.6802741e-06
6.998057e-06
7.3296831e-06
7.6696779e-06
8.0088145e-06
8.3327398e-06
8.6203581e-06
8.8417419e-06
8.9552862e-06
8.9036263e-06
8.6070707e-06
7.9505052e-06
6.7453257e-06
4.5060491e-06
3.6880104e-06
3.8747857e-06
4.0743063e-06
4.275061e-06
4.4738589e-06
4.6729544e-06
4.876952e-06
5.0906327e-06
5.3176686e-06
5.559971e-06
5.8177068e-06
6.0898309e-06
6.3742828e-06
6.6672476e-06
6.9622067e-06
7.2490753e-06
7.5132578e-06
7.7345398e-06
7.8858687e-06
7.9320246e-06
7.8281295e-06
7.5174813e-06
6.9257356e-06
5.933537e-06
4.1638448e-06
3.4590876e-06
3.6136562e-06
3.7821188e-06
3.9563821e-06
4.1335573e-06
4.3144009e-06
4.5014123e-06
4.6974177e-06
4.9046415e-06
5.124171e-06
5.35581e-06
5.5981822e-06
5.8486283e-06
6.1027171e-06
6.353574e-06
6.5912548e-06
6.802126e-06
6.9682924e-06
7.0671962e-06
7.0715979e-06
6.9503417e-06
6.6707847e-06
6.2055822e-06
5.5556442e-06
4.812361e-06
3.2705676e-06
3.401267e-06
3.5456138e-06
3.698035e-06
3.8560541e-06
4.0195924e-06
4.1898409e-06
4.3683248e-06
4.5562095e-06
4.7538581e-06
4.9606198e-06
5.1747414e-06
5.393176e-06
5.6112169e-06
5.8220523e-06
6.0163643e-06
6.1820055e-06
6.3038437e-06
6.363929e-06
6.3422634e-06
6.2187407e-06
5.9775524e-06
5.6176186e-06
5.1797814e-06
4.8117545e-06
3.099198e-06
3.2114006e-06
3.3363856e-06
3.4703162e-06
3.6111501e-06
3.7583694e-06
3.9123492e-06
4.0737302e-06
4.2429063e-06
4.4196671e-06
4.6029635e-06
4.7907455e-06
4.9797638e-06
5.1653035e-06
5.3409104e-06
5.4981656e-06
5.6265763e-06
5.7136691e-06
5.7454028e-06
5.707122e-06
5.5854112e-06
5.3715874e-06
5.0686631e-06
4.7066992e-06
4.3356984e-06
2.9279063e-06
3.0249694e-06
3.1337174e-06
3.2514667e-06
3.3765442e-06
3.508224e-06
3.6463776e-06
3.7910565e-06
3.9421173e-06
4.0989292e-06
4.2601573e-06
4.423584e-06
4.5859395e-06
4.7427185e-06
4.8880157e-06
5.0144287e-06
5.113069e-06
5.1737458e-06
5.1853764e-06
5.1366811e-06
5.0171411e-06
4.817878e-06
4.5307937e-06
4.1379508e-06
3.5181716e-06
2.7441395e-06
2.8281711e-06
2.9227206e-06
3.0258581e-06
3.1362122e-06
3.2529776e-06
3.375728e-06
3.5041401e-06
3.6377202e-06
3.7755697e-06
3.916196e-06
4.0573559e-06
4.1959147e-06
4.327725e-06
4.4475389e-06
4.5489807e-06
4.6246107e-06
4.6660998e-06
4.6645153e-06
4.6106424e-06
4.4950645e-06
4.3071092e-06
4.0297294e-06
3.6189294e-06
2.8972786e-06
2.5395693e-06
2.6119621e-06
2.6936935e-06
2.7833388e-06
2.879767e-06
2.9821729e-06
3.0899753e-06
3.2026351e-06
3.3194598e-06
3.4394168e-06
3.5609791e-06
3.6819977e-06
3.7995908e-06
3.9100654e-06
4.0088741e-06
4.0906232e-06
4.1491426e-06
4.1776152e-06
4.1687266e-06
4.1147098e-06
4.0069508e-06
3.8342963e-06
3.5776456e-06
3.1921733e-06
2.5212374e-06
2.3102738e-06
2.3720296e-06
2.4419542e-06
2.5189762e-06
2.6021631e-06
2.6907595e-06
2.7841297e-06
2.8816391e-06
2.982512e-06
3.0856934e-06
3.1897252e-06
3.2926433e-06
3.3918995e-06
3.4843068e-06
3.5660219e-06
3.6325649e-06
3.6788763e-06
3.6993973e-06
3.6881227e-06
3.6385081e-06
3.5429618e-06
3.3913207e-06
3.1668188e-06
2.8345915e-06
2.287327e-06
2.0570491e-06
2.1089703e-06
2.167912e-06
2.2330615e-06
2.3036598e-06
2.3790306e-06
2.458553e-06
2.5415831e-06
2.6273544e-06
2.7148708e-06
2.8028166e-06
2.889479e-06
2.9726885e-06
3.049784e-06
3.1176044e-06
3.1725093e-06
3.2104181e-06
3.2268512e-06
3.2169279e-06
3.1752346e-06
3.0953873e-06
2.9689319e-06
2.7827547e-06
2.5123828e-06
2.0907597e-06
1.7855405e-06
1.8283515e-06
1.877068e-06
1.9310723e-06
1.98976e-06
2.0525544e-06
2.1188948e-06
2.188186e-06
2.2597306e-06
2.3326514e-06
2.4058242e-06
2.4778209e-06
2.5468677e-06
2.6108217e-06
2.6671658e-06
2.7130237e-06
2.745182e-06
2.7601051e-06
2.7539086e-06
2.7222335e-06
2.6599235e-06
2.5603104e-06
2.4136435e-06
2.2031279e-06
1.8834553e-06
1.5057885e-06
1.5402269e-06
1.5794989e-06
1.623144e-06
1.670692e-06
1.7216754e-06
1.7756186e-06
1.832011e-06
1.89026e-06
1.9496393e-06
2.0092388e-06
2.0679246e-06
2.1243104e-06
2.1767397e-06
2.2232841e-06
2.2617497e-06
2.2896875e-06
2.3043923e-06
2.302868e-06
2.2817218e-06
2.2369359e-06
2.163397e-06
2.0538467e-06
1.8959077e-06
1.654222e-06
1.2308271e-06
1.2577111e-06
1.2884233e-06
1.3226305e-06
1.359977e-06
1.4001001e-06
1.4426198e-06
1.4871249e-06
1.5331431e-06
1.5801066e-06
1.627319e-06
1.6739258e-06
1.7188958e-06
1.7610083e-06
1.7988506e-06
1.8308188e-06
1.8551222e-06
1.8697748e-06
1.8725616e-06
1.8609552e-06
1.8319493e-06
1.7817269e-06
1.7048862e-06
1.5920482e-06
1.4166569e-06
9.7430859e-07
9.9458026e-07
1.0177733e-06
1.0436494e-06
1.0719517e-06
1.1024084e-06
1.1347319e-06
1.1686097e-06
1.2036865e-06
1.2395435e-06
1.2756767e-06
1.311478e-06
1.3462211e-06
1.3790517e-06
1.4089843e-06
1.4349016e-06
1.4555553e-06
1.4695578e-06
1.4753554e-06
1.4711656e-06
1.4548534e-06
1.4236829e-06
1.3737237e-06
1.2979429e-06
1.1758239e-06
7.4771374e-07
7.6243418e-07
7.7929427e-07
7.9812783e-07
8.1875399e-07
8.4097775e-07
8.6459098e-07
8.8936762e-07
9.1505471e-07
9.4135995e-07
9.6793915e-07
9.9438399e-07
1.0202114e-06
1.0448556e-06
1.0676632e-06
1.0878919e-06
1.1047116e-06
1.1172016e-06
1.1243335e-06
1.1249274e-06
1.1175608e-06
1.1003834e-06
1.0706731e-06
1.0234323e-06
9.4398934e-07
5.5814696e-07
5.6843236e-07
5.8022041e-07
5.9339811e-07
6.0784018e-07
6.2341219e-07
6.3996869e-07
6.5735334e-07
6.7539451e-07
6.9389883e-07
7.1264422e-07
7.3137255e-07
7.4978157e-07
7.675168e-07
7.841649e-07
7.9925122e-07
8.1224347e-07
8.2255648e-07
8.295457e-07
8.3247904e-07
8.3047301e-07
8.2236215e-07
8.0639458e-07
7.7930835e-07
7.3160091e-07
4.0755278e-07
4.1447741e-07
4.2241627e-07
4.3129345e-07
4.4102432e-07
4.5151756e-07
4.6267603e-07
4.7439473e-07
4.8656232e-07
4.9905699e-07
5.1174368e-07
5.244696e-07
5.3705798e-07
5.4929922e-07
5.6094155e-07
5.7168714e-07
5.8119786e-07
5.8910926e-07
5.9503349e-07
5.9854181e-07
5.9912162e-07
5.9609139e-07
5.8841355e-07
5.7416006e-07
5.4796834e-07
2.9347581e-07
2.9798108e-07
3.0314604e-07
3.0892088e-07
3.1524993e-07
3.2207295e-07
3.2932616e-07
3.3694251e-07
3.448522e-07
3.5298224e-07
3.612557e-07
3.6958919e-07
3.7788775e-07
3.8603515e-07
3.9388231e-07
4.0123987e-07
4.0788518e-07
4.1358768e-07
4.1811884e-07
4.2123932e-07
4.2266893e-07
4.2203462e-07
4.1876649e-07
4.1181338e-07
3.9825831e-07
2.108373e-07
2.1367972e-07
2.1693464e-07
2.205699e-07
2.245498e-07
2.2883607e-07
2.3338863e-07
2.381665e-07
2.4312891e-07
2.482357e-07
2.5344854e-07
2.5873037e-07
2.6404021e-07
2.6932075e-07
2.7448113e-07
2.7938883e-07
2.8388284e-07
2.8780873e-07
2.9103405e-07
2.934317e-07
2.9485621e-07
2.9511271e-07
2.9390347e-07
2.906819e-07
2.8387617e-07
1.5335327e-07
1.5511018e-07
1.5711857e-07
1.5935757e-07
1.6180414e-07
1.644339e-07
1.672215e-07
1.7014152e-07
1.7316942e-07
1.7628223e-07
1.7945989e-07
1.8268645e-07
1.8595175e-07
1.8925222e-07
1.9257322e-07
1.9581393e-07
1.988098e-07
2.0144203e-07
2.0363734e-07
2.0533378e-07
2.0645973e-07
2.0691538e-07
2.065451e-07
2.0506031e-07
2.0164017e-07
1.1465688e-07
1.1573268e-07
1.1696054e-07
1.1832706e-07
1.1981754e-07
1.2141652e-07
1.2310814e-07
1.2487672e-07
1.2670749e-07
1.2858715e-07
1.3050489e-07
1.324535e-07
1.3443078e-07
1.3644184e-07
1.3849975e-07
1.4059844e-07
1.4259389e-07
1.4434671e-07
1.4581326e-07
1.469672e-07
1.4777542e-07
1.4818699e-07
1.4811887e-07
1.4741447e-07
1.4563369e-07
8.942429e-08
9.0085452e-08
9.0839311e-08
9.1677391e-08
9.2590393e-08
9.3568584e-08
9.4602146e-08
9.5681502e-08
9.6797836e-08
9.7943568e-08
9.9113034e-08
1.0030331e-07
1.0151531e-07
1.0275531e-07
1.0403684e-07
1.0538024e-07
1.0672143e-07
1.0790333e-07
1.0889115e-07
1.096748e-07
1.1023966e-07
1.105593e-07
1.1058805e-07
1.1023821e-07
1.0926485e-07
7.3552797e-08
7.3968151e-08
7.4441778e-08
7.4968345e-08
7.5542015e-08
7.6156693e-08
7.6806266e-08
7.7484892e-08
7.8187295e-08
7.8909159e-08
7.9647594e-08
8.0401767e-08
8.1173764e-08
8.1969779e-08
8.2801797e-08
8.3689732e-08
8.4620085e-08
8.5446331e-08
8.6136654e-08
8.6687146e-08
8.7091194e-08
8.7334027e-08
8.7387927e-08
8.7195438e-08
8.6588828e-08
6.4022056e-08
6.4294934e-08
6.4606644e-08
6.4953835e-08
6.5332828e-08
6.5739766e-08
6.6170791e-08
6.6622246e-08
6.7090894e-08
6.7574197e-08
6.8070658e-08
6.8580336e-08
6.9105563e-08
6.965196e-08
7.0229858e-08
7.0856268e-08
7.1540565e-08
7.2153123e-08
7.2665765e-08
7.3076769e-08
7.3382633e-08
7.3573599e-08
7.3630088e-08
7.3509104e-08
7.3069533e-08
5.8685597e-08
5.88772e-08
5.9096887e-08
5.9342532e-08
5.9611767e-08
5.9902079e-08
6.0210934e-08
6.0535922e-08
6.0874913e-08
6.122627e-08
6.1589129e-08
6.1963825e-08
6.2352536e-08
6.2760224e-08
6.3195916e-08
6.367416e-08
6.4213612e-08
6.4699734e-08
6.5107897e-08
6.5437178e-08
6.5684984e-08
6.584332e-08
6.5895598e-08
6.580537e-08
6.5455822e-08
5.6061223e-08
5.6206611e-08
5.6374186e-08
5.6562561e-08
5.677014e-08
5.6995189e-08
5.7235925e-08
5.749062e-08
5.7757721e-08
5.8036016e-08
5.8324877e-08
5.862464e-08
5.8937193e-08
5.9266881e-08
5.962178e-08
6.0015325e-08
6.0466762e-08
6.0876539e-08
6.1222093e-08
6.1502599e-08
6.1715436e-08
6.1852949e-08
6.1899323e-08
6.1820437e-08
6.1512483e-08
5.5149287e-08
5.5267841e-08
5.5405256e-08
5.5560577e-08
5.5732649e-08
5.5920178e-08
5.6121795e-08
5.6336138e-08
5.6561949e-08
5.6798218e-08
5.7044389e-08
5.7300708e-08
5.7568764e-08
5.7852349e-08
5.8158703e-08
5.8500209e-08
5.8895333e-08
5.9256044e-08
5.9561601e-08
5.9810953e-08
6.0001029e-08
6.0123896e-08
6.0163637e-08
6.008676e-08
5.9795918e-08
5.528827e-08
5.5390293e-08
5.5509119e-08
5.5644039e-08
5.5794149e-08
5.5958402e-08
5.6135666e-08
5.6324789e-08
5.6524689e-08
5.6734469e-08
5.695361e-08
5.7182273e-08
5.7421795e-08
5.7675481e-08
5.7949796e-08
5.825604e-08
5.8611503e-08
5.8937395e-08
5.921467e-08
5.9441845e-08
5.9615197e-08
5.9726202e-08
5.9758385e-08
5.9677748e-08
5.9387933e-08
5.604701e-08
5.6137777e-08
5.6243856e-08
5.636468e-08
5.6499495e-08
5.6647411e-08
5.6807451e-08
5.6978617e-08
5.7159959e-08
5.7350687e-08
5.7550331e-08
5.7759008e-08
5.7977863e-08
5.8209782e-08
5.8460501e-08
5.8740203e-08
5.9064763e-08
5.9363267e-08
5.9618281e-08
5.9827778e-08
5.9987292e-08
6.0087577e-08
6.0111433e-08
6.0024121e-08
5.9729354e-08
5.7148162e-08
5.723032e-08
5.7326531e-08
5.7436319e-08
5.7559034e-08
5.7693903e-08
5.7840083e-08
5.799671e-08
5.8162973e-08
5.8338202e-08
5.8522003e-08
5.8714492e-08
5.8916673e-08
5.9131076e-08
5.9362754e-08
5.9620774e-08
5.991944e-08
6.0194691e-08
6.0430696e-08
6.0624853e-08
6.0771937e-08
6.0861932e-08
6.0876831e-08
6.0780876e-08
6.0477558e-08
5.8415682e-08
5.8490618e-08
5.8578449e-08
5.8678766e-08
5.8791005e-08
5.8914504e-08
5.9048546e-08
5.9192407e-08
5.9345423e-08
5.9507056e-08
5.9677017e-08
5.985545e-08
6.0043263e-08
6.0242681e-08
6.0458133e-08
6.0697599e-08
6.0973773e-08
6.1228386e-08
6.1447345e-08
6.1627511e-08
6.1762924e-08
6.1842793e-08
6.1848271e-08
6.1742499e-08
6.1425868e-08
5.9739548e-08
5.9808106e-08
5.9888472e-08
5.9980293e-08
6.0083088e-08
6.0196302e-08
6.0319343e-08
6.0451634e-08
6.0592659e-08
6.0742024e-08
6.0899553e-08
6.1065442e-08
6.1240537e-08
6.1426808e-08
6.1628117e-08
6.1851425e-08
6.2107845e-08
6.2343688e-08
6.2546938e-08
6.2713997e-08
6.2838229e-08
6.2908094e-08
6.2903891e-08
6.2787786e-08
6.2460294e-08
6.1052318e-08
6.1115145e-08
6.118877e-08
6.127289e-08
6.1367107e-08
6.1470967e-08
6.1584006e-08
6.1705787e-08
6.1835941e-08
6.1974217e-08
6.2120555e-08
6.2275219e-08
6.2439025e-08
6.2613737e-08
6.2802708e-08
6.301193e-08
6.3250897e-08
6.3469324e-08
6.3657807e-08
6.3812383e-08
6.3925805e-08
6.3985847e-08
6.3971978e-08
6.3845087e-08
6.3502877e-08
6.231381e-08
6.2371489e-08
6.2439046e-08
6.2516225e-08
6.2602704e-08
6.2698129e-08
6.2802153e-08
6.2914474e-08
6.303486e-08
6.3163195e-08
6.3299537e-08
6.3444235e-08
6.3598125e-08
6.3762831e-08
6.3941256e-08
6.4138519e-08
6.4361338e-08
6.4563079e-08
6.4737369e-08
6.4879877e-08
6.4982772e-08
6.5033201e-08
6.5009904e-08
6.487267e-08
6.451735e-08
6.3501344e-08
6.3554433e-08
6.3616571e-08
6.3687549e-08
6.3767113e-08
6.3855002e-08
6.3950979e-08
6.4054861e-08
6.4166546e-08
6.4286042e-08
6.4413527e-08
6.4549473e-08
6.4694847e-08
6.4851275e-08
6.5021343e-08
6.521081e-08
6.5414845e-08
6.5599563e-08
6.5759813e-08
6.589048e-08
6.5983044e-08
6.6024053e-08
6.5991614e-08
6.584451e-08
6.5475765e-08
6.460388e-08
6.46529e-08
6.4710225e-08
6.4775686e-08
6.4849094e-08
6.493027e-08
6.5019079e-08
6.5115449e-08
6.521939e-08
6.5331027e-08
6.5450665e-08
6.5578983e-08
6.5717432e-08
6.5867725e-08
6.6031258e-08
6.621409e-08
6.6395667e-08
6.6562555e-08
6.6708742e-08
6.6827721e-08
6.691011e-08
6.6941888e-08
6.6900725e-08
6.6745136e-08
6.6370632e-08
6.5618935e-08
6.5664348e-08
6.571738e-08
6.5777899e-08
6.5845774e-08
6.5920907e-08
6.6003252e-08
6.6092842e-08
6.6189792e-08
6.629433e-08
6.6406878e-08
6.6528453e-08
6.6662416e-08
6.6809765e-08
6.6966372e-08
6.7129173e-08
6.728987e-08
6.7440038e-08
6.7572767e-08
6.7680405e-08
6.775282e-08
6.777554e-08
6.7726004e-08
6.7562858e-08
6.7183839e-08
6.6550877e-08
6.6593062e-08
6.6642193e-08
6.6698175e-08
6.6760934e-08
6.6830447e-08
6.6906761e-08
6.6990009e-08
6.708041e-08
6.7178273e-08
6.7284018e-08
6.7398277e-08
6.7522068e-08
6.7655811e-08
6.77973e-08
6.794296e-08
6.8087064e-08
6.8222877e-08
6.8343332e-08
6.844021e-08
6.8502918e-08
6.8516685e-08
6.8458787e-08
6.8287801e-08
6.7897518e-08
6.7352643e-08
6.7392124e-08
6.743802e-08
6.7490257e-08
6.75488e-08
6.7613673e-08
6.7684979e-08
6.7762908e-08
6.7847725e-08
6.7939751e-08
6.8039338e-08
6.8146833e-08
6.8262495e-08
6.8386059e-08
6.8515837e-08
6.8648698e-08
6.8779987e-08
6.8903841e-08
6.9013366e-08
6.9100189e-08
6.9153517e-08
6.9158431e-08
6.9092109e-08
6.8912934e-08
6.8513845e-08
6.8021829e-08
6.8059104e-08
6.8102385e-08
6.8151612e-08
6.8206774e-08
6.8267922e-08
6.8335194e-08
6.8408806e-08
6.8489043e-08
6.8576219e-08
6.8670617e-08
6.8772408e-08
6.8881508e-08
6.8997292e-08
6.9118142e-08
6.9241215e-08
6.9362363e-08
6.9476192e-08
6.957602e-08
6.9653504e-08
6.9697827e-08
6.9694064e-08
6.9619401e-08
6.9432219e-08
6.9026049e-08
6.8555942e-08
6.859144e-08
6.8632629e-08
6.8679463e-08
6.873194e-08
6.8790124e-08
6.8854163e-08
6.8924286e-08
6.9000785e-08
6.9083958e-08
6.9174033e-08
6.9271072e-08
6.9374816e-08
6.9484457e-08
6.9598336e-08
6.9713696e-08
6.9826603e-08
6.9931907e-08
7.0023102e-08
7.0091948e-08
7.0127714e-08
7.0115594e-08
7.0032941e-08
6.9838258e-08
6.9424864e-08
6.8946426e-08
6.8980512e-08
6.9020051e-08
6.906501e-08
6.9115389e-08
6.9171248e-08
6.9232725e-08
6.9300052e-08
6.9373524e-08
6.9453431e-08
6.9539959e-08
6.9633107e-08
6.9732536e-08
6.9837344e-08
6.9945811e-08
7.0055089e-08
7.0161251e-08
7.0259279e-08
7.0342816e-08
7.040376e-08
7.0431537e-08
7.0411586e-08
7.0321629e-08
7.0120742e-08
6.9703912e-08
6.9174227e-08
6.9207209e-08
6.9245461e-08
6.9288976e-08
6.9337755e-08
6.9391829e-08
6.9451307e-08
6.9516418e-08
6.9587467e-08
6.9664773e-08
6.9748474e-08
6.9838558e-08
6.9934711e-08
7.0036021e-08
7.0140787e-08
7.0245663e-08
7.0346504e-08
7.0438471e-08
7.0515389e-08
7.0569307e-08
7.0589867e-08
7.0562881e-08
7.0466668e-08
7.0261235e-08
6.9842953e-08
6.9195867e-08
6.9227995e-08
6.9265235e-08
6.9307635e-08
6.93552e-08
6.9407915e-08
6.9465834e-08
6.9529162e-08
6.9598165e-08
6.9673439e-08
6.9754987e-08
6.9842866e-08
6.993701e-08
7.0036699e-08
7.0141035e-08
7.0244174e-08
7.0341424e-08
7.042887e-08
7.0500478e-08
7.0548536e-08
7.0562982e-08
7.0530168e-08
7.0429396e-08
7.0222723e-08
6.9811784e-08
6.8867914e-08
6.8899301e-08
6.8935614e-08
6.8976998e-08
6.9023481e-08
6.9074985e-08
6.913147e-08
6.91929e-08
6.9258864e-08
6.9332211e-08
6.9412018e-08
6.9498495e-08
6.9592373e-08
6.9693969e-08
6.9812119e-08
6.9921395e-08
7.0017907e-08
7.0104376e-08
7.0172584e-08
7.0216358e-08
7.0226262e-08
7.0189461e-08
7.0086881e-08
6.9885544e-08
6.9513294e-08
)
;

boundaryField
{
    Walls
    {
        type            nutUWallFunction;
        Cmu             0.09;
        kappa           0.41;
        E               9.8;
        value           uniform 0;
    }
    Inlet
    {
        type            calculated;
        value           nonuniform List<scalar> 3(2.0725497e-05 2.0201609e-05 8.0189582e-07);
    }
    Outlet
    {
        type            calculated;
        value           nonuniform List<scalar> 
86
(
6.8787219e-08
6.8792093e-08
6.8803012e-08
6.8819807e-08
6.8841393e-08
6.8867914e-08
6.8899301e-08
6.8935614e-08
6.8976998e-08
6.9023481e-08
6.9074985e-08
6.913147e-08
6.91929e-08
6.9258864e-08
6.9332211e-08
6.9412018e-08
6.9498495e-08
6.9592373e-08
6.9693969e-08
6.9812119e-08
6.9921395e-08
7.0017907e-08
7.0104376e-08
7.0172584e-08
7.0216358e-08
7.0226262e-08
7.0189461e-08
7.0086881e-08
6.9885544e-08
6.9513294e-08
1.4337314e-05
1.4889177e-05
1.3474669e-05
0
0
0
0
4.812361e-06
4.8117545e-06
4.3356984e-06
3.5181716e-06
2.8972786e-06
2.5212374e-06
2.287327e-06
2.0907597e-06
1.8834553e-06
1.654222e-06
1.4166569e-06
1.1758239e-06
9.4398934e-07
7.3160091e-07
5.4796834e-07
3.9825831e-07
2.8387617e-07
2.0164017e-07
1.4563369e-07
1.0926485e-07
8.6588828e-08
7.3069533e-08
6.5455822e-08
6.1512483e-08
5.9795918e-08
5.9387933e-08
5.9729354e-08
6.0477558e-08
6.1425868e-08
6.2460294e-08
6.3502877e-08
6.451735e-08
6.5475765e-08
6.6370632e-08
6.7183839e-08
6.7897518e-08
6.8513845e-08
6.9026049e-08
6.9424864e-08
6.9703912e-08
6.9842953e-08
6.9811784e-08
6.9513294e-08
0
0
0
0
1.3212045e-05
1.4850953e-05
)
;
    }
    Front
    {
        type            wedge;
    }
    Back
    {
        type            wedge;
    }
    defaultFaces
    {
        type            empty;
    }
}


// ************************************************************************* //
