/*--------------------------------*- C++ -*----------------------------------*\
| =========                 |                                                 |
| \\      /  F ield         | OpenFOAM: The Open Source CFD Toolbox           |
|  \\    /   O peration     | Version:  4.0                                   |
|   \\  /    A nd           | Web:      www.OpenFOAM.org                      |
|    \\/     M anipulation  |                                                 |
\*---------------------------------------------------------------------------*/
FoamFile
{
    version     2.0;
    format      ascii;
    class       volScalarField;
    location    "0.7";
    object      omega;
}
// * * * * * * * * * * * * * * * * * * * * * * * * * * * * * * * * * * * * * //

dimensions      [0 0 -1 0 0 0 0];

internalField   nonuniform List<scalar> 
1740
(
54.367027
688.02096
14918.194
162.25961
1441.6397
15027.175
289.75789
1893.8775
15113.003
388.82182
2197.6218
15195.779
488.31329
2509.7665
15268.791
599.88854
2811.8422
15326.665
744.18639
3032.1745
15373.96
881.51155
3251.4181
15412.562
985.20076
3443.1381
15445.442
1078.9642
3563.2307
15466.1
1175.0308
3663.488
15487.842
1243.0775
3716.532
15511.899
1318.8368
3860.0169
15521.858
1403.6896
3891.2511
15529.408
1484.3536
3908.8454
15539.648
1564.9618
3964.4401
15550.676
1627.6842
4035.6638
15561.755
1668.6167
4149.212
15558.867
1717.5589
4144.4768
15557.269
1772.6156
4080.16
15565.608
1821.298
4106.3006
15563.529
1838.6504
4111.3643
15571.68
1865.6447
4148.6666
15575.201
1877.3308
4151.3228
15567.007
1886.1322
4107.1259
15569.407
1900.4569
4145.772
15570.225
1940.1872
4170.0295
15571.459
1976.8239
4231.8807
15566.787
2009.1119
4272.1771
15556.955
2137.8255
4334.4374
15499.806
3213.5617
4603.0419
10739.001
3336.7813
4243.9263
5933.225
1572.546
1859.4702
2152.5656
825.69585
900.41498
958.1256
480.22891
498.23818
507.8434
301.52055
305.12296
304.96045
201.46242
201.7169
200.16153
141.72913
141.37544
140.07721
104.14027
103.7957
102.93301
79.424356
79.185204
78.653304
62.547468
62.397742
62.080048
50.645984
50.556061
50.368943
42.027751
41.974764
41.865355
35.659676
35.62875
35.565027
30.891225
30.873212
30.836069
27.299312
27.28871
27.266799
24.598444
24.591994
24.57859
22.587168
22.582973
22.574162
21.115594
21.11259
21.106171
20.066029
20.063657
20.058472
19.342142
19.340149
19.335657
18.863256
18.861563
18.857559
18.559715
18.558285
18.554679
18.363071
18.361635
18.358187
18.216639
18.215199
18.211907
18.099804
18.098445
18.095367
18.000978
17.999717
17.996858
17.912178
17.911018
17.908375
17.827855
17.826803
17.824377
17.744009
17.743078
17.740878
17.657628
17.65683
17.65487
17.566351
17.56569
17.563971
17.468086
17.46755
17.466058
17.360357
17.359922
17.358628
17.239408
17.239046
17.237915
17.099292
17.098981
17.097982
16.931144
16.930866
16.929973
16.722641
16.722387
16.721581
16.457623
16.457387
16.456654
16.115775
16.115555
16.114885
15.672441
15.672234
15.67162
15.098654
15.098454
15.097886
14.361866
14.361654
14.361113
13.438733
13.438533
13.438042
12.295509
12.295328
12.294889
10.901998
10.901832
10.901433
9.2369757
9.2368166
9.2364523
7.2941839
7.2940524
7.2938133
5.0867983
5.0868016
5.0870632
2.6420967
2.6423428
2.6434293
13480.496
13534.632
5985.3859
5323.5908
2083.1522
1881.3431
922.1031
853.74683
490.66278
463.21986
296.50154
284.36199
195.7358
189.90764
137.66577
134.69314
101.58579
99.995172
77.887906
77.005371
61.639939
61.138347
50.114138
49.825014
41.717431
41.549566
35.479074
35.381331
30.785927
30.728724
27.237072
27.202926
24.560208
24.538748
22.561828
22.546993
21.096912
21.085299
20.050729
20.040578
19.3287
19.319219
18.851111
18.842037
18.548664
18.54001
18.352549
18.344466
18.206636
18.199119
18.090458
18.083452
17.992287
17.985732
17.904118
17.897965
17.82042
17.814639
17.737222
17.7318
17.65152
17.646459
17.56093
17.556238
17.463318
17.459003
17.356171
17.352232
17.235717
17.232141
17.096012
17.092776
16.928203
16.925277
16.719984
16.717333
16.455207
16.452799
16.113571
16.111377
15.670424
15.668427
15.096799
15.094985
14.360123
14.358487
13.437156
13.435696
12.294103
12.29281
10.900732
10.899596
9.2358502
9.2348879
7.2935172
7.2928754
5.0878166
5.0878987
2.6457928
2.6467724
12058.193
2043.6678
696.72797
369.21315
281.35308
257.10322
249.95357
246.90783
244.56232
242.17133
239.65445
236.91058
234.08284
231.18132
228.17147
224.98873
221.51917
217.56583
212.79466
206.65019
198.20992
185.91916
167.07041
136.58085
82.56181
12058.133
2037.4077
697.84864
374.76161
283.26447
254.39917
242.85058
235.636
229.53405
223.74687
218.07748
212.45884
206.96136
201.5649
196.248
190.98212
185.71038
180.32823
174.64784
168.3461
160.87125
151.25585
137.69939
116.48863
78.168823
12058.179
2030.5667
718.64899
430.70802
359.30977
332.37014
314.99916
300.50525
287.27553
274.73612
262.76946
251.18976
240.22496
229.77553
219.77956
210.22303
201.08473
192.31817
183.82227
175.41828
166.79244
157.36346
145.92626
129.52464
98.84542
12058.527
2031.8653
817.60952
608.85841
549.9738
512.76019
479.73658
449.22141
421.2431
394.93604
370.26649
347.26566
326.06579
306.2104
287.55661
270.11084
253.86033
238.7727
224.7922
211.82746
199.73773
188.29707
177.06633
164.86672
146.44639
12061.533
2151.0988
1232.598
1078.6
989.79231
906.9325
828.4336
757.00432
693.10085
634.01924
579.68582
530.0558
485.95447
445.66821
408.68421
375.01191
344.51422
317.01987
292.34701
270.30236
250.68994
233.33492
218.12414
205.23087
195.73166
12087.269
3819.355
2806.7711
2403.0965
2095.0982
1826.4166
1591.1378
1387.8709
1211.9334
1060.0885
929.28037
816.67896
719.74381
636.04942
563.66767
501.09411
447.03564
400.36438
360.10609
325.42686
295.61891
270.10812
248.49044
230.86167
218.45681
10356.319
7894.8505
6091.2256
4784.2789
3816.6146
3082.5686
2513.9173
2066.9049
1712.1251
1428.4206
1199.9964
1014.9724
864.36759
741.24016
640.09113
556.56249
487.22005
429.3692
380.8978
340.14711
305.81307
276.89062
252.66466
233.01494
219.22014
4085.0874
3302.2933
2840.7277
2466.5738
2147.887
1867.5425
1622.848
1411.2434
1229.8271
1074.3204
940.91323
826.18332
727.14957
641.64927
567.84415
504.14554
449.18185
401.77948
360.93826
325.80831
295.67239
269.95128
248.23137
230.58825
218.20744
1594.3872
1399.7961
1269.6125
1161.3347
1059.0774
961.78117
873.07166
794.01033
721.98168
656.72408
598.32792
546.67752
499.24039
455.89151
416.51264
380.91221
348.85808
320.12002
294.4677
271.68487
251.57395
233.96741
218.75532
206.09153
196.93395
771.09606
707.80198
661.51782
620.89469
580.50438
540.34175
502.74359
468.08131
435.95132
406.32339
379.24097
354.42966
331.20447
309.46792
289.21201
270.42497
253.07672
237.12635
222.52351
209.20473
197.07696
185.97563
175.53656
164.70395
148.67559
433.74074
409.91832
391.15036
373.88001
356.09978
337.77753
319.88189
302.84226
286.73882
271.62476
257.51044
244.27255
231.70448
219.76268
208.47842
197.84877
187.86711
178.513
169.7422
161.46394
153.48685
145.38527
136.13423
122.96574
96.788547
271.87692
261.35163
252.6332
244.42762
235.87816
226.91006
217.88375
209.06212
200.56785
192.45901
184.74492
177.3776
170.2859
163.44799
156.87735
150.57858
144.54345
138.74241
133.1093
127.50953
121.6723
115.04098
106.42003
93.046739
67.424012
184.03477
178.9121
174.4722
170.21759
165.77241
161.06821
156.23901
151.42571
146.71708
142.15972
137.76433
133.51312
129.37787
125.34447
121.40938
117.56389
113.78648
110.0328
106.21926
102.19336
97.677702
92.161873
84.680536
73.273871
52.805222
131.71605
129.04303
126.64514
124.31672
121.88486
119.30187
116.61552
113.89585
111.19767
108.55314
105.97233
103.44858
100.96761
98.516583
96.083274
93.649303
91.183163
88.631367
85.905084
82.85913
79.260046
74.744491
68.797002
60.922459
51.562953
98.401409
96.93653
95.588107
94.266276
92.888393
91.423846
89.888105
88.314987
86.735201
85.16854
83.621912
82.091732
80.56793
79.037324
77.482993
75.880574
74.193107
72.364295
70.309363
67.903436
64.970571
61.287762
56.655752
51.20822
46.376947
76.118364
75.287076
74.507485
73.738537
72.939424
72.091211
71.197542
70.273631
69.33541
68.39354
67.451398
66.505199
65.545519
64.558323
63.524203
62.415923
61.194766
59.805746
58.171811
56.188028
53.719431
50.613614
46.7584
42.262198
37.466725
60.631403
60.14904
59.690609
59.237064
58.76755
58.270394
57.744944
57.197189
56.634305
56.060846
55.476849
54.877317
54.252354
53.587169
52.861206
52.046352
51.104207
49.982605
48.611409
46.897826
44.721496
41.927253
38.297662
33.399457
25.540038
49.530851
49.247686
48.976231
48.707423
48.430347
48.137643
47.827169
47.5003
47.159178
46.804343
46.433257
46.039557
45.612634
45.137186
44.592319
43.950076
43.173265
42.212589
41.002752
39.456769
37.45582
34.825697
31.268483
26.135431
17.62399
41.377758
41.211009
41.050319
40.891296
40.727925
40.555389
40.371126
40.174167
39.963766
39.737894
39.492168
39.219073
38.907397
38.541564
38.100765
37.557666
36.876554
36.010733
34.898664
33.457562
31.571274
29.064082
25.638349
20.714272
13.012303
35.280731
35.182546
35.087603
34.993691
34.897214
34.794773
34.683742
34.561986
34.427074
34.275387
34.101294
33.896442
33.649163
33.343787
32.959797
32.470676
31.842274
31.030461
29.977549
28.606401
26.809917
24.43103
21.223373
16.772925
10.335513
30.66947
30.611265
30.554679
30.498449
30.440234
30.377375
30.30726
30.227154
30.133705
30.022299
29.886471
29.717318
29.502873
29.227497
28.871059
28.407931
27.805583
27.022591
26.005706
24.685333
22.968335
20.726348
17.777037
13.856572
8.5714725
27.167175
27.131557
27.096412
27.060828
27.023092
26.980963
26.931861
26.872724
26.799664
26.707488
26.58921
26.435544
26.234362
25.970103
25.62307
25.168547
24.575652
23.8058
22.810588
21.528882
19.882884
17.773116
15.072672
11.622557
7.1949737
24.515764
24.492168
24.468036
24.442599
24.41442
24.381502
24.341288
24.290542
24.225063
24.139303
24.025947
23.875464
23.675633
23.411006
23.062305
22.605696
22.011914
21.245181
20.261913
19.009212
17.423362
15.428776
12.937846
9.8500203
6.0077671
22.530452
22.512602
22.493289
22.471781
22.446759
22.41634
22.377988
22.328369
22.263092
22.176379
22.060693
21.906332
21.701009
21.429385
21.072567
20.607531
20.006503
19.236302
18.257741
17.025206
15.486769
13.585311
11.260826
8.4508421
5.0646465
21.071666
21.056067
21.03818
21.017235
20.991971
20.960546
20.920431
20.868224
20.799406
20.70803
20.586381
20.424611
20.210361
19.928373
19.560079
19.083173
18.471194
17.693217
16.713789
15.493329
13.989315
12.15869
9.9613802
7.3608608
4.3001525
20.028057
20.012991
19.994924
19.97304
19.946081
19.912219
19.868914
19.812708
19.738974
19.641615
19.512744
19.342347
19.117963
18.824369
18.443271
17.952992
17.328208
16.539863
15.555506
14.340301
12.858991
11.0792
8.9758588
6.5332835
3.7272728
19.307052
19.29186
19.273085
19.249864
19.220918
19.184418
19.1378
19.077547
18.998929
18.895696
18.759763
18.580902
18.346487
18.041275
17.647218
17.143244
16.505053
15.705119
14.713298
13.498307
12.030324
10.285044
8.2491315
5.924706
3.3151676
18.83004
18.814655
18.795245
18.7709
18.740318
18.701646
18.652292
18.588675
18.505957
18.397714
18.255617
18.06915
17.825419
17.509092
17.102375
16.584888
15.933392
15.121664
14.121256
12.903387
11.442109
9.7189477
7.7290448
5.4870019
3.0250652
18.528346
18.51311
18.4936
18.468855
18.437527
18.39772
18.346787
18.281072
18.19561
18.083773
17.936924
17.744136
17.492096
17.165261
16.746119
16.215245
15.550771
14.727697
13.718714
12.496626
11.038039
9.3284531
7.3686518
5.1800903
2.8022223
18.333549
18.319236
18.300788
18.277186
18.247009
18.208275
18.158229
18.093084
18.007694
17.895169
17.746465
17.550064
17.291932
16.955947
16.524697
15.980279
15.303115
14.469565
13.452874
12.226583
10.768784
9.0674697
7.1268815
4.9722254
2.6457498
18.188968
18.17564
18.15839
18.136188
18.1076
18.070628
18.022507
17.959439
17.876276
17.766125
17.619912
17.425911
17.169264
16.831607
16.392471
15.835384
15.146181
14.303569
13.28073
12.051212
10.59381
8.8980052
6.9701991
4.8385974
2.5598183
18.07396
18.061442
18.04515
18.02405
17.996704
17.961117
17.91453
17.853164
17.771902
17.663905
17.520174
17.329067
17.075824
16.742116
16.305865
15.743931
15.045513
14.196286
13.169506
11.938329
10.481802
8.7902907
6.8716385
4.7559469
2.4987501
17.9768
17.964945
17.94942
17.929188
17.902816
17.868317
17.822951
17.762971
17.683308
17.577196
17.435736
17.247414
16.997606
16.668123
16.236916
15.678398
14.976159
14.123894
13.095803
11.864763
10.40993
8.722144
6.8099155
4.70391
2.4595535
17.889515
17.878216
17.863315
17.84378
17.818184
17.784554
17.740176
17.681342
17.603044
17.498602
17.359234
17.173575
16.92717
16.601998
16.176114
15.623647
14.922519
14.070834
13.043952
11.814725
10.362432
8.6781608
6.7706869
4.6702967
2.4367566
17.80662
17.795803
17.781432
17.762477
17.737522
17.704614
17.661068
17.603224
17.526139
17.423232
17.285847
17.102781
16.859763
16.538962
16.118612
15.572921
14.875957
14.027639
13.003955
11.777887
10.328875
8.6481104
6.7444176
4.648746
2.4226859
17.724188
17.713813
17.699919
17.681482
17.657101
17.624847
17.582069
17.525161
17.449253
17.34786
17.212459
17.032002
16.792401
16.476016
16.061256
15.522535
14.831661
13.988583
12.969486
11.747551
10.302437
8.6254023
6.7251299
4.6331511
2.414797
17.639252
17.629317
17.615898
17.597983
17.574189
17.542616
17.500656
17.444754
17.370114
17.270344
17.137035
16.959284
16.723169
16.411229
16.002034
15.470059
14.786663
13.949956
12.936303
11.719159
10.278461
8.6055871
6.709211
4.6217158
2.4120591
17.549455
17.539992
17.527097
17.509775
17.486666
17.455901
17.414913
17.360197
17.287019
17.189063
17.058016
16.88309
16.650509
16.342986
15.939283
15.414035
14.738567
13.9088
12.901079
11.689181
10.25335
8.5850839
6.6929141
4.6095643
2.4093595
17.452671
17.443733
17.431449
17.414839
17.392568
17.362796
17.322989
17.269681
17.198185
17.102239
16.973598
16.801565
16.57249
16.269257
15.870848
15.352152
14.684672
13.862078
12.860587
11.654341
10.223921
8.560974
6.6738732
4.5950327
2.4004565
17.346375
17.338017
17.326432
17.310657
17.289376
17.260771
17.222331
17.170615
17.100963
17.007146
16.880966
16.7118
16.486106
16.186938
15.793525
15.28108
14.621433
13.806088
12.811098
11.611019
10.186822
8.530433
6.6504261
4.5801709
2.3998352
17.226766
17.219021
17.208194
17.193336
17.173145
17.145815
17.108845
17.058807
16.991052
16.899373
16.775604
16.609182
16.386669
16.091292
15.702548
15.196023
14.543988
13.735981
12.7479
11.55476
10.137985
8.4898795
6.6192807
4.5597253
2.399834
17.08787
17.080738
17.070681
17.056761
17.037683
17.011645
16.976149
16.927769
16.86186
16.772229
16.650738
16.486882
16.267332
15.975493
15.591149
15.090303
14.445742
13.645358
12.664905
11.479896
10.07227
8.4348238
6.5768643
4.5316582
2.3827017
16.920807
16.914256
16.904937
16.891919
16.873909
16.849104
16.815007
16.768187
16.704005
16.616279
16.496906
16.335446
16.118686
15.830232
15.450174
14.954974
14.318005
13.525908
12.554296
11.379231
9.9832147
8.3595864
6.5183169
4.4942835
2.3748691
16.713258
16.707238
16.698597
16.686408
16.669379
16.645707
16.612891
16.567502
16.50491
16.418952
16.301572
16.14241
15.928391
15.643343
15.267707
14.778455
14.149646
13.367082
12.406225
11.243774
9.8628757
8.2574503
6.4379497
4.4396019
2.3495233
16.449074
16.443529
16.435495
16.424052
16.407909
16.385263
16.353616
16.309546
16.248442
16.164178
16.048763
15.89194
15.680801
15.399431
15.028677
14.546091
13.926783
13.1558
12.208542
11.062493
9.7015823
8.1204185
6.3299364
4.3657801
2.3163792
16.107965
16.102845
16.095358
16.084591
16.069256
16.047558
16.017007
15.974205
15.914573
15.832048
15.718727
15.564491
15.356623
15.07951
14.714464
14.239415
13.632523
12.876262
11.946621
10.822138
9.4877167
7.9387541
6.1865331
4.266017
2.2630576
15.6653
15.660572
15.653596
15.643465
15.628904
15.608132
15.578683
15.537195
15.479151
15.398577
15.287703
15.136583
14.932684
14.660775
14.302954
13.837774
13.247216
12.509982
11.603351
10.507246
9.2077445
7.7011
5.9987076
4.1335382
2.1843442
15.092133
15.087789
15.081319
15.071833
15.058075
15.038288
15.010049
14.970058
14.91389
14.83571
14.727936
14.580841
14.38188
14.116524
13.768691
13.319525
12.749073
12.036111
11.159398
10.100393
8.8465029
7.3948752
5.7568282
3.9630714
2.0877016
14.355911
14.351967
14.346041
14.337265
14.324412
14.30577
14.278979
14.240835
14.187049
14.111984
14.008352
13.866895
13.676085
13.42212
13.089242
12.659605
12.113855
11.431792
10.593728
9.5827661
8.3877599
7.006812
5.4512157
3.74991
1.9644534
13.433387
13.429825
13.424424
13.416349
13.404421
13.386997
13.361818
13.325825
13.274937
13.203803
13.105527
12.971409
12.790713
12.550576
12.23612
11.830601
11.315875
10.673216
9.8846819
8.9351742
7.8151176
6.5235978
5.0718173
3.4869713
1.8262861
12.290762
12.28758
12.282718
12.275393
12.264491
12.248464
12.225193
12.191822
12.144556
12.078428
11.987054
11.862405
11.694627
11.471946
11.180721
10.805645
10.330212
9.7375497
9.0117365
8.1396605
7.1134113
5.9330239
4.6094309
3.1680621
1.6626944
10.897811
10.895034
10.890774
10.884329
10.874675
10.860377
10.839489
10.809425
10.766779
10.707094
10.624628
10.512179
10.360947
10.160448
9.8985998
9.5618926
9.1358385
8.6057828
7.9580954
7.1818144
6.2707348
5.2257415
4.057177
2.7876801
1.464213
9.233404
9.2310848
9.2275346
9.2221848
9.2141313
9.2020612
9.1842217
9.1583753
9.1216337
9.0702173
8.9991579
8.9022548
8.7719696
8.5993036
8.3740664
8.0849302
7.719792
7.2665782
6.7141819
6.0538547
5.2810418
4.3973155
3.4121362
2.3449796
1.2356797
7.2918266
7.2900697
7.2873586
7.2833568
7.2773318
7.2681003
7.2541163
7.2335689
7.2042047
7.1632568
7.1065723
7.0291388
6.9249336
6.7864257
6.6056924
6.3740212
6.0820606
5.7208341
5.2818048
4.7582867
4.1471894
3.4505354
2.6765333
1.8406349
0.97255629
5.0875269
5.0864763
5.084709
5.082206
5.0784836
5.0725502
5.0631193
5.048774
5.0275229
4.9991888
4.9599651
4.9062282
4.8338847
4.7361858
4.6078992
4.4435171
4.2368502
3.9832418
3.6755223
3.3089638
2.8817474
2.3960713
1.8585976
1.2807689
0.68208736
2.6470487
2.6467065
2.6458868
2.6447735
2.6431643
2.6404415
2.6357287
2.6275204
2.6120096
2.5970545
2.5773781
2.5507051
2.5153661
2.464756
2.3963431
2.3089271
2.2000276
2.0719285
1.9124093
1.7212514
1.4982063
1.2450956
0.96627296
0.6693543
0.3690401
)
;

boundaryField
{
    Walls
    {
        Cmu             0.09;
        kappa           0.41;
        E               9.8;
        beta1           0.075;
        type            omegaWallFunction;
        value           nonuniform List<scalar> 
38
(
12058.193
12058.133
12058.179
12058.527
12061.533
12087.269
13480.496
13534.632
14918.194
15027.175
15113.003
15195.779
15268.791
15326.665
15373.96
15412.562
15445.442
15466.1
15487.842
15511.899
15521.858
15529.408
15539.648
15550.676
15561.755
15558.867
15557.269
15565.608
15563.529
15571.68
15575.201
15567.007
15569.407
15570.225
15571.459
15566.787
15556.955
15499.806
)
;
    }
    Inlet
    {
        type            turbulentMixingLengthDissipationRateInlet;
        mixingLength    0.03;
        phi             phi;
        k               k;
        value           nonuniform List<scalar> 3(0.004766515 0.0041422304 0.0051101795);
    }
    Outlet
    {
        type            inletOutlet;
        inletValue      uniform 1e-05;
        value           nonuniform List<scalar> 
86
(
2.6420967
2.6423428
2.6434293
2.6457928
2.6467724
2.6470487
2.6467065
2.6458868
2.6447735
2.6431643
2.6404415
2.6357287
2.6275204
2.6120096
2.5970545
2.5773781
2.5507051
2.5153661
2.464756
2.3963431
2.3089271
2.2000276
2.0719285
1.9124093
1.7212514
1.4982063
1.2450956
0.96627296
0.6693543
0.3690401
219.22014
218.20744
196.93395
1e-05
1e-05
1e-05
1e-05
51.562953
46.376947
37.466725
25.540038
17.62399
13.012303
10.335513
8.5714725
7.1949737
6.0077671
5.0646465
4.3001525
3.7272728
3.3151676
3.0250652
2.8022223
2.6457498
2.5598183
2.4987501
2.4595535
2.4367566
2.4226859
2.414797
2.4120591
2.4093595
2.4004565
2.3998352
2.399834
2.3827017
2.3748691
2.3495233
2.3163792
2.2630576
2.1843442
2.0877016
1.9644534
1.8262861
1.6626944
1.464213
1.2356797
0.97255629
0.68208736
0.3690401
1e-05
1e-05
1e-05
1e-05
195.73166
218.45681
)
;
    }
    Front
    {
        type            wedge;
    }
    Back
    {
        type            wedge;
    }
    defaultFaces
    {
        type            empty;
    }
}


// ************************************************************************* //
