/*--------------------------------*- C++ -*----------------------------------*\
| =========                 |                                                 |
| \\      /  F ield         | OpenFOAM: The Open Source CFD Toolbox           |
|  \\    /   O peration     | Version:  4.0                                   |
|   \\  /    A nd           | Web:      www.OpenFOAM.org                      |
|    \\/     M anipulation  |                                                 |
\*---------------------------------------------------------------------------*/
FoamFile
{
    version     2.0;
    format      ascii;
    class       volScalarField;
    location    "0.7";
    object      p;
}
// * * * * * * * * * * * * * * * * * * * * * * * * * * * * * * * * * * * * * //

dimensions      [0 2 -2 0 0 0 0];

internalField   nonuniform List<scalar> 
1740
(
491.42586
491.45719
491.56096
474.72333
474.72684
474.80217
458.09868
458.05793
458.06078
441.45864
441.42047
441.48314
425.14097
425.04301
425.03744
408.54114
408.42527
408.18143
391.65998
391.61448
391.34364
374.6568
374.78982
374.83529
357.852
358.20306
358.32017
341.85126
342.17666
342.41269
326.02123
326.19578
326.67573
310.03388
310.01579
310.04141
293.86305
293.74844
293.3679
277.35617
277.29672
277.17202
261.07891
260.74418
260.84439
244.94397
244.74638
244.8724
228.5819
228.72433
228.7446
212.14988
212.22538
212.26741
195.9675
196.08943
196.32001
179.96743
180.20489
180.21978
163.56126
163.76155
163.59554
146.90953
146.76705
146.57373
129.99381
129.57765
129.25737
112.73962
112.48973
112.21238
95.806418
95.670123
95.598363
79.301809
79.338641
79.727258
63.257155
63.541028
63.787262
47.678882
47.614246
47.583704
31.977846
31.794472
31.881317
16.879922
16.80218
16.398471
4.6087919
4.1114415
2.0332574
-0.18375289
-0.13790206
-0.08963582
0.1657466
0.15248796
0.11073136
0.21273841
0.19609378
0.15914012
0.16527718
0.15594031
0.13705508
0.12904764
0.12318749
0.1122785
0.10294474
0.099204967
0.092345055
0.083672849
0.081170584
0.076781112
0.069555674
0.06788647
0.064729025
0.058923818
0.057759116
0.055501796
0.050652776
0.049828961
0.0481798
0.043897902
0.043292953
0.0420577
0.038185106
0.037724058
0.036763062
0.033285225
0.032920997
0.032163355
0.02906151
0.028777411
0.028177683
0.025421534
0.025193605
0.024714213
0.022271711
0.022087496
0.021696856
0.019533397
0.019382503
0.019060631
0.017143581
0.017018635
0.01675103
0.01505194
0.01494759
0.014723376
0.013218075
0.01313024
0.012941073
0.011609067
0.011534617
0.011373989
0.010197375
0.010133947
0.0099968421
0.0089593714
0.0089053045
0.0087876519
0.0078733512
0.0078269228
0.0077269865
0.0069246158
0.0068846419
0.0067980129
0.0060949846
0.00606043
0.0059854385
0.0053701456
0.0053402317
0.0052752803
0.004737298
0.0047113685
0.0046550444
0.0041849649
0.0041624592
0.0041135521
0.0037028432
0.0036832836
0.0036407636
0.0032816829
0.0032646631
0.003227653
0.0029131966
0.0028983705
0.002866122
0.0025899826
0.0025770548
0.0025489291
0.0023054597
0.0022941781
0.0022696299
0.0020538047
0.002043955
0.0020225198
0.0018298941
0.0018212942
0.0018025783
0.0016292538
0.0016217487
0.0016054181
0.0014480052
0.001441463
0.0014272334
0.0012827848
0.0012770944
0.0012647272
0.0011306838
0.0011257598
0.0011150553
0.00098924838
0.00098501566
0.00097580561
0.00085644204
0.00085282605
0.00084496216
0.00073070171
0.00072765944
0.00072104359
0.00061054999
0.00060805958
0.00060262293
0.00049437625
0.00049238242
0.00048802632
0.00038111342
0.00037957963
0.00037623555
0.00027016768
0.00026908473
0.00026672462
0.00016114985
0.00016050605
0.0001591031
5.3348866e-05
5.3135518e-05
5.2671263e-05
-1.0478117
-0.73967932
-0.091341319
-0.075998218
0.077506198
0.04861202
0.12783467
0.10297049
0.11852758
0.10317416
0.10088367
0.090645212
0.08483266
0.077678213
0.071501028
0.066260687
0.060901382
0.056961396
0.052600167
0.049529514
0.045975695
0.043513422
0.040351041
0.038358451
0.035407897
0.033828943
0.031098781
0.029834496
0.02732756
0.026304864
0.024028051
0.02318713
0.021134607
0.020437814
0.018594905
0.018012606
0.016361844
0.015871642
0.014395787
0.013980533
0.012663636
0.012310062
0.011137754
0.010835414
0.0097948383
0.0095354066
0.0086144796
0.0083911156
0.0075780669
0.0073856414
0.006669047
0.0065016293
0.0058738497
0.0057289357
0.0051785756
0.0050528059
0.0045711092
0.0044617829
0.0040406024
0.0039454563
0.0035772866
0.0034943955
0.003172359
0.0031000749
0.0028179082
0.0027548173
0.0025068522
0.0024517421
0.0022328836
0.0021847153
0.0019904164
0.0019483013
0.0017745326
0.0017377135
0.0015809337
0.0015487667
0.0014058882
0.0013778269
0.0012461662
0.0012217511
0.0010989839
0.0010778326
0.00096197614
0.00094376829
0.00083316209
0.00081762976
0.00071111449
0.00069803974
0.00059444208
0.00058364572
0.00048146671
0.00047280368
0.0003712075
0.00036457359
0.00026317735
0.00025849836
0.00015699397
0.00015421196
5.1973356e-05
5.1052806e-05
0.062357228
0.061316535
0.059468199
0.057107833
0.054355171
0.051369274
0.048183081
0.044844183
0.041412391
0.037953431
0.034529783
0.031181548
0.027951519
0.024878095
0.021979251
0.019256639
0.016705052
0.014303055
0.012039257
0.0099043698
0.007888318
0.0059798164
0.0041664596
0.0024374061
0.00078399303
0.063539363
0.062348281
0.060296871
0.057672255
0.054646512
0.051353482
0.047867736
0.044252055
0.040578052
0.036933716
0.033388102
0.03000068
0.026793163
0.02376659
0.020922445
0.018259936
0.015774012
0.013462068
0.011304838
0.0092854814
0.0073888381
0.0055991697
0.0039015805
0.0022868381
0.00074479646
0.062406914
0.060892309
0.058288245
0.054940941
0.050993874
0.046635081
0.042092713
0.037610801
0.033423167
0.029572765
0.026066211
0.022890857
0.020019265
0.017418478
0.015067154
0.012945235
0.011029002
0.0092972723
0.0077318621
0.006311135
0.0050113762
0.0038064518
0.0026745627
0.0015984979
0.00055225925
0.051955278
0.049572037
0.045336958
0.039810209
0.0338885
0.028282541
0.023369923
0.019234237
0.015751806
0.012839806
0.010427014
0.0084203039
0.0067491856
0.0053803136
0.0042667085
0.003365263
0.0026412147
0.0020672269
0.0016187775
0.0012689965
0.00099074709
0.00075618105
0.00055109103
0.00036067027
0.00015270635
0.0099369334
0.0055352175
-0.00047736574
-0.0047087705
-0.0078161502
-0.0095063792
-0.01025922
-0.010318401
-0.0098856349
-0.0091425888
-0.0083059106
-0.007457439
-0.0066038188
-0.0055255466
-0.0045351159
-0.0036731196
-0.0029438842
-0.0023415798
-0.0018534102
-0.0014592743
-0.0011356905
-0.00085667478
-0.00061071373
-0.00038489344
-0.0001757695
-0.13965298
-0.10724764
-0.096859548
-0.074467445
-0.05626135
-0.040047383
-0.026274679
-0.015292089
-0.0067955481
-0.00036053738
0.0044265915
0.0078279837
0.010089251
0.01127253
0.011801657
0.011772109
0.01130553
0.010500784
0.0094351334
0.0081715886
0.006764752
0.0052648584
0.0037114736
0.0021420765
0.00054887507
-0.21740372
-0.041640121
-0.0073235754
0.018911021
0.044351385
0.064408359
0.07582098
0.079382467
0.078162385
0.074625714
0.069917477
0.064562136
0.058889781
0.053128201
0.04743797
0.041915326
0.03661143
0.031548085
0.026723986
0.02212415
0.017725904
0.013505229
0.0094307745
0.0054855985
0.0015773193
-0.074110183
-0.075272216
-0.067986527
-0.055601672
-0.041638078
-0.028359338
-0.01694793
-0.0078090161
-0.00077873091
0.0044769511
0.0082144832
0.010725323
0.012247323
0.0130198
0.013192753
0.01288611
0.012199501
0.011219745
0.010012478
0.0086324136
0.0071257126
0.0055341568
0.0038938061
0.0022430084
0.00057335092
0.028237129
0.011948959
0.00025167375
-0.0073876648
-0.011861947
-0.014056098
-0.014834228
-0.014698369
-0.01396622
-0.012955147
-0.011769053
-0.010387772
-0.0089671341
-0.0076361432
-0.0064300648
-0.0053535539
-0.0043998232
-0.0035684707
-0.0028576228
-0.0022551721
-0.0017456209
-0.0013107167
-0.00093236393
-0.00058654805
-0.00025275645
0.08330475
0.066238221
0.051579376
0.039498177
0.029722339
0.021978265
0.015964914
0.011369626
0.0078870999
0.0052516039
0.0032558942
0.0017602212
0.00067255828
-8.584482e-05
-0.00058703533
-0.00089580926
-0.0010656028
-0.0011260617
-0.0010949012
-0.00099136977
-0.00083283389
-0.00063597733
-0.00041823071
-0.00019941082
-2.3479304e-05
0.090730572
0.079964012
0.069979345
0.060506176
0.051618547
0.0436055
0.036776875
0.03103065
0.026204222
0.02214289
0.018699322
0.015779781
0.013306382
0.011205094
0.0094121575
0.0078794312
0.0065663588
0.0054335361
0.0044515211
0.003593868
0.0028363545
0.0021560986
0.0015310096
0.00094049242
0.00034975911
0.081898548
0.074275746
0.067399121
0.060933147
0.055071526
0.049410162
0.044001129
0.038966033
0.034396443
0.030308569
0.026609977
0.023309273
0.020371237
0.017751428
0.015407932
0.013300745
0.011395972
0.0096613543
0.0080720164
0.0066060692
0.0052439716
0.0039685571
0.0027654008
0.0016249147
0.00053742425
0.071251659
0.065528497
0.060303971
0.055393763
0.050622011
0.046207911
0.041996532
0.037981996
0.034199495
0.030692431
0.027484931
0.024508703
0.021758919
0.019225856
0.016891269
0.014735806
0.012739217
0.010881507
0.0091462021
0.0075181523
0.0059839283
0.0045323006
0.0031536454
0.0018413465
0.00059202083
0.061403239
0.056962093
0.052856662
0.048991093
0.045292666
0.041775537
0.038374177
0.035088823
0.03191886
0.028872949
0.026017619
0.023355032
0.020861807
0.018528504
0.016346909
0.014309267
0.012404847
0.010617593
0.0089394237
0.0073593001
0.0058657097
0.0044499355
0.0031026967
0.0018155141
0.00058264569
0.05317313
0.049632267
0.046331664
0.043221642
0.040245859
0.03738567
0.034618599
0.031921862
0.029292679
0.026738473
0.024289251
0.021953901
0.019730962
0.017619526
0.015617783
0.013719794
0.011926704
0.010237098
0.0086413246
0.0071310107
0.0056966375
0.0043297402
0.0030239779
0.0017729789
0.00057001832
0.046497121
0.04360794
0.040882284
0.038306161
0.035845048
0.033478342
0.031186387
0.028950005
0.026756942
0.024607309
0.022514827
0.020488734
0.018532699
0.016649858
0.014842739
0.01311374
0.011457691
0.0098710933
0.0083563527
0.0069104337
0.0055296011
0.0042084903
0.0029424276
0.0017262763
0.00055501928
0.041032816
0.038611199
0.036315815
0.034136236
0.032056932
0.030057357
0.028120194
0.026227833
0.024368729
0.022539158
0.020744062
0.018988529
0.017275166
0.015605574
0.013983069
0.012411748
0.01089187
0.0094271906
0.0080129354
0.006648502
0.0053343189
0.0040687366
0.0028491864
0.0016744384
0.00054031655
0.036319081
0.034297007
0.032351016
0.030486496
0.028701528
0.026983797
0.025319005
0.023693272
0.022095584
0.020520169
0.018966517
0.017436289
0.015930941
0.014453127
0.013004735
0.011588796
0.010207427
0.0088627403
0.0075547088
0.0062843367
0.0050526623
0.003859864
0.0027056649
0.0015904603
0.00051272105
0.032158134
0.030470261
0.028816976
0.027213274
0.025667405
0.024174349
0.022725719
0.021311298
0.01992277
0.018553667
0.017200389
0.015861498
0.01453719
0.013229256
0.011940147
0.010672075
0.0094269995
0.0082069308
0.0070127463
0.0058461004
0.0047086409
0.0036016394
0.0025261658
0.0014853216
0.00048001838
0.028461191
0.027046388
0.025634376
0.024249604
0.022903262
0.021596933
0.020326371
0.019085324
0.017867728
0.016667922
0.015481779
0.014306819
0.013141686
0.011986888
0.010843746
0.0097136761
0.0085984829
0.0075001554
0.0064205483
0.0053613291
0.0043243063
0.0033109486
0.002321615
0.0013642581
0.00044652429
0.025168579
0.023976098
0.022767849
0.02156859
0.020391984
0.019243734
0.018123695
0.017028681
0.015954061
0.01489591
0.013850563
0.01281529
0.011788275
0.010768634
0.0097569076
0.0087540222
0.0077611227
0.0067798621
0.0058120491
0.0048594638
0.0039240886
0.0030079119
0.0021130636
0.0012440741
0.0004030933
0.022240696
0.021232181
0.020195453
0.01915437
0.018123716
0.017111317
0.016120054
0.015149351
0.014196632
0.013259012
0.012333458
0.011417603
0.010509582
0.0096082049
0.0087132921
0.0078251887
0.0069445873
0.0060725539
0.0052106163
0.0043605411
0.0035242355
0.0027037866
0.0019015168
0.0011205041
0.00036226572
0.019643856
0.018786785
0.017894687
0.016989029
0.016084483
0.015190045
0.014310403
0.013446992
0.012599125
0.011765017
0.010942558
0.010129716
0.0093248221
0.0085267196
0.0077348413
0.006949101
0.0061698381
0.0053977558
0.0046340031
0.0038800347
0.0031375409
0.0024084294
0.0016948081
0.00099927763
0.00032333575
0.017342175
0.01661046
0.015840673
0.015051367
0.014256462
0.013465277
0.012683488
0.011913931
0.01115736
0.010413196
0.0096801811
0.008956871
0.0082419121
0.0075342277
0.0068331069
0.0061382605
0.0054497618
0.0047680133
0.0040938292
0.0034283266
0.0027728856
0.0021290926
0.0014986739
0.00088375846
0.00028584149
0.01530227
0.014675009
0.014008956
0.013320063
0.012620903
0.011920624
0.011225377
0.010538841
0.0098627992
0.009197688
0.0085431052
0.0078982221
0.0072620823
0.0066338122
0.0060127371
0.0053984487
0.0047908263
0.0041900893
0.003596727
0.0030115548
0.0024356278
0.0018701817
0.0013165252
0.00077630912
0.00025086199
0.013494602
0.01295499
0.012377376
0.011775358
0.011160093
0.010540213
0.0099219559
0.0093094516
0.008705176
0.008110331
0.0075252307
0.0069496279
0.0063830028
0.0058247527
0.005274325
0.0047313135
0.0041955078
0.0036669482
0.0031458965
0.0026328777
0.0021286322
0.0016340686
0.0011501781
0.00067825547
0.00021936464
0.011893675
0.011428091
0.010926218
0.010399591
0.0098580282
0.0093094533
0.0087599412
0.0082137792
0.0076738861
0.0071419897
0.0066189432
0.0061050065
0.0056000658
0.0051038105
0.0046158546
0.0041358692
0.0036636235
0.0031990395
0.0027422144
0.0022934184
0.0018531092
0.0014218953
0.0010004815
0.00059004903
0.00019129004
0.010477443
0.010074756
0.0096379796
0.0091769609
0.0087002839
0.0082150876
0.0077270298
0.0072404766
0.0067585336
0.0062832568
0.0058158987
0.0053571286
0.0049071608
0.0044659589
0.0040333358
0.0036090648
0.0031929429
0.0027848296
0.0023847013
0.001992649
0.001608896
0.0012337847
0.00086773523
0.00051156755
0.00016566407
0.009226664
0.0088775977
0.0084970131
0.008093236
0.0076737123
0.0072448166
0.0068117934
0.0063788326
0.0059490799
0.0055248008
0.0051075197
0.0046982044
0.0042973262
0.003905092
0.0035215048
0.0031464532
0.0027797792
0.0024213257
0.0020709955
0.0017287526
0.001394638
0.0010687677
0.00075129938
0.00044274701
0.00014334248
0.0081240877
0.0078209422
0.0074890101
0.0071352557
0.0067661003
0.0063872153
0.0060033907
0.0056185579
0.0052358039
0.0048574755
0.0044852671
0.0041202918
0.0037632885
0.0034146378
0.0030745061
0.002742888
0.0024196839
0.0021047571
0.001797964
0.0014991799
0.0012083114
0.00092530171
0.00065011781
0.00038305324
0.00012414965
0.0071540525
0.0068904312
0.0066006961
0.0062906595
0.0059659176
0.0056314315
0.005291523
0.0049498534
0.0046093742
0.0042724031
0.0039407034
0.003615534
0.0032977625
0.0029879216
0.0026862886
0.0023929582
0.0021078982
0.0018310061
0.0015621133
0.0013010335
0.0010475854
0.00080160269
0.00056291891
0.00033166495
0.00010773699
0.006301539
0.0060725294
0.0058196587
0.0055478363
0.0052622504
0.0049671375
0.0046663932
0.0043633741
0.0040608524
0.0037610454
0.0034657407
0.0031762607
0.0028935542
0.0026182549
0.0023507175
0.0020911234
0.0018394919
0.0015957384
0.0013597021
0.0011311775
0.00090993294
0.0006957331
0.00048831364
0.00028768431
9.354999e-05
0.0055546297
0.0053547029
0.0051335562
0.0048956815
0.0046447874
0.0043846366
0.0041187282
0.0038502682
0.0035817769
0.0033152851
0.0030526095
0.0027950801
0.0025436783
0.0022990747
0.0020616951
0.0018317626
0.0016093672
0.0013944348
0.0011868206
0.00098631622
0.00079267564
0.00060563605
0.00042488698
0.00025035658
8.1687416e-05
0.0049010705
0.0047266998
0.0045332887
0.0043244669
0.0041036828
0.0038744192
0.0036397156
0.0034021821
0.0031642562
0.0029274652
0.0026939716
0.0024649794
0.0022414522
0.0020240837
0.0018133092
0.0016094253
0.0014125404
0.001222642
0.0010395888
0.00086317699
0.00069315902
0.00052925703
0.0003711156
0.00021873414
7.1608787e-05
0.00432961
0.0041774123
0.004008201
0.0038250543
0.0036309942
0.003428946
0.0032215812
0.0030112514
0.0028000404
0.0025902692
0.0023829497
0.0021794143
0.0019806645
0.0017874421
0.0016000724
0.0014190357
0.0012444131
0.0010762109
0.00091436997
0.00075866354
0.00060884867
0.00046464571
0.00032571252
0.00019192783
6.2828327e-05
0.0038302298
0.003697295
0.0035491951
0.0033885506
0.0032179662
0.0030399611
0.0028568847
0.0026708712
0.0024838563
0.0022976059
0.0021134137
0.0019324347
0.0017555845
0.0015835396
0.0014169616
0.0012559888
0.0011008217
0.00095149795
0.00080792274
0.00066995587
0.0005374065
0.00040996311
0.00028727585
0.00016929428
5.5524249e-05
0.0033938594
0.0032776738
0.0031479909
0.0030070447
0.0028570746
0.0027002602
0.0025386609
0.0023741771
0.0022085324
0.0020432549
0.0018796043
0.0017186435
0.0015612336
0.0014080458
0.0012596002
0.0011161805
0.00097796749
0.00084501981
0.00071728154
0.00059463437
0.0004768423
0.00036366304
0.00025476622
0.00015018048
4.9391373e-05
0.0030122849
0.002910671
0.0027970571
0.002673349
0.0025414706
0.0024033084
0.0022606611
0.0021152033
0.0019684621
0.0018217938
0.0016763595
0.001533138
0.0013929302
0.001256369
0.001123929
0.00099592122
0.00087253067
0.00075383033
0.00063979386
0.00053031733
0.00042521684
0.00032426641
0.00022716651
0.00013395526
4.4162511e-05
0.0026780982
0.002589171
0.0024895834
0.0023809617
0.0022649581
0.0021432024
0.0020172618
0.0018886059
0.0017585821
0.0016283975
0.0014991037
0.0013715939
0.0012466069
0.001124731
0.001006412
0.00089195972
0.00078156462
0.00067531138
0.00057319598
0.00047513908
0.00038099766
0.00029058067
0.00020360679
0.00012010454
3.9677196e-05
0.0023846514
0.0023067816
0.0022194471
0.0021240358
0.002021965
0.001914642
0.0018034286
0.0016896092
0.0015743716
0.0014587859
0.0013437962
0.0012302107
0.0011187049
0.0010098232
0.00090398369
0.00080148553
0.0007025212
0.00060718731
0.00051549867
0.00042740134
0.00034278639
0.00026150213
0.00018328404
0.00010817129
3.5825554e-05
0.0021260138
0.0020577965
0.0019811803
0.0018973494
0.0018075193
0.0017129032
0.0016146818
0.0015139757
0.0014118284
0.0013091868
0.0012068898
0.0011056668
0.0010061304
0.00090878056
0.00081400654
0.00072209444
0.00063323488
0.00054753354
0.00046502146
0.00038566718
0.00030938933
0.00023606812
0.00016547726
9.7704699e-05
3.2445912e-05
0.0018969267
0.0018371539
0.0017699326
0.0016962727
0.0016172162
0.0015338074
0.0014470677
0.001357974
0.0012674391
0.0011762971
0.0010852932
0.00099507916
0.00090620821
0.00081913555
0.00073422211
0.000651738
0.00057186949
0.00049472803
0.00042035723
0.00034874463
0.00027983124
0.0002135201
0.00014962553
8.8383314e-05
2.9468181e-05
0.0016927574
0.0016403942
0.001581431
0.0015167295
0.0014471818
0.0013736856
0.0012971226
0.0012183422
0.0011381407
0.0010572511
0.00097633189
0.00089596251
0.00081663979
0.00073877645
0.00066270409
0.00058867564
0.00051687102
0.00044740265
0.00038032509
0.00031564124
0.00025331249
0.00019326954
0.00013536695
8.0010301e-05
2.6786069e-05
0.0015094555
0.0014636183
0.001411941
0.0013551586
0.0012940343
0.0012293392
0.0011618332
0.0010922512
0.0010212865
0.00094957919
0.00087770946
0.00080619083
0.00073546718
0.00066591067
0.0005978233
0.00053144046
0.00046693325
0.00040441383
0.00034394285
0.00028553669
0.00022917623
0.00017481972
0.00012235312
7.2361648e-05
2.4346662e-05
0.0013435045
0.0013034441
0.0012582276
0.0012084803
0.0011548544
0.0010980121
0.0010386082
0.00097727404
0.00091460896
0.00085117164
0.00078747112
0.00072396068
0.00066103511
0.00059902884
0.00053821571
0.00047881172
0.00042097703
0.00036482092
0.00031040743
0.00025776237
0.00020688147
0.00015774623
0.00011026147
6.5250575e-05
2.2097747e-05
0.0011918663
0.0011569537
0.0011175052
0.0010740511
0.0010271465
0.00097735661
0.00092524177
0.00087134511
0.00081618436
0.00076024491
0.00070397167
0.0006477622
0.00059196584
0.00053688222
0.00048275887
0.00042979031
0.00037812385
0.00032786358
0.00027907396
0.00023178514
0.00018599935
0.00014170852
9.8817113e-05
5.8525891e-05
2.0024799e-05
0.0010519257
0.0010216358
0.00098737674
0.00094959576
0.00090876247
0.00086535559
0.00081984692
0.00077270842
0.00072438606
0.00067529988
0.00062583641
0.00057634345
0.0005271278
0.00047845452
0.00043054315
0.00038356929
0.00033766731
0.0002929342
0.00024943182
0.00020718995
0.00016620723
0.00012646928
8.7778873e-05
5.2086326e-05
1.8168034e-05
0.00092145493
0.00089534858
0.00086579567
0.00083316929
0.00079786358
0.00076027953
0.00072081894
0.00067988136
0.00063784941
0.00059508285
0.00055191665
0.00050865681
0.00046557497
0.00042289881
0.0003808162
0.0003394903
0.00029903901
0.00025954974
0.00022108103
0.00018366176
0.0001472832
0.00011191989
7.70295e-05
4.6001864e-05
1.6529621e-05
0.00079858957
0.00077630166
0.00075105742
0.0007231671
0.0006929476
0.00066073407
0.00062686766
0.00059168402
0.000555507
0.00051864192
0.00048137453
0.00044396718
0.00040665367
0.00036962998
0.00033306249
0.00029709343
0.00026183078
0.00022735512
0.00019372273
0.00016096437
0.0001290801
9.8063804e-05
6.7391592e-05
4.0320503e-05
1.458192e-05
0.00068200194
0.00066321471
0.00064191976
0.00061837582
0.00059284389
0.00056560342
0.00053693826
0.00050712783
0.00047644206
0.0004451371
0.00041344989
0.00038159123
0.00034975003
0.00031810017
0.00028679069
0.00025594295
0.00022565893
0.00019601747
0.00016707287
0.00013885812
0.00011138691
8.4666614e-05
5.8545237e-05
3.4837026e-05
1.2421716e-05
0.00057038542
0.00055483342
0.00053718097
0.00051764051
0.00049644818
0.0004738355
0.00045003174
0.00042526174
0.00039974367
0.00037368586
0.00034727973
0.00032069785
0.00029409628
0.00026761955
0.00024139434
0.00021552476
0.00019009934
0.00016518826
0.00014084269
0.00011709832
9.3980257e-05
7.1517237e-05
4.9679069e-05
2.9510657e-05
1.0349392e-05
0.00046215613
0.00044966007
0.00043546728
0.00041974769
0.00040269034
0.00038448087
0.00036530181
0.00034533128
0.00032474176
0.00030369692
0.00028234956
0.00026084226
0.00023930498
0.00021785196
0.00019658368
0.00017558717
0.00015493308
0.00013467839
0.00011486819
9.5537592e-05
7.6715235e-05
5.8433806e-05
4.0688357e-05
2.4160859e-05
8.4078056e-06
0.00035642134
0.00034685396
0.00033598913
0.00032395538
0.00031088577
0.00029691993
0.00028219768
0.00026685629
0.00025102789
0.00023483756
0.00021840278
0.00020183334
0.00018522955
0.00016867994
0.00015226141
0.00013604126
0.00012007474
0.00010440687
8.9074223e-05
7.4106237e-05
5.9527784e-05
4.5365039e-05
3.160851e-05
1.8772872e-05
6.5269555e-06
0.00025274926
0.00024600229
0.0002383395
0.00022984959
0.00022062461
0.00021076108
0.00020035683
0.00018950848
0.00017830935
0.0001668483
0.00015520901
0.00014346891
0.00013169841
0.00011996027
0.00010830937
9.6792824e-05
8.5450698e-05
7.431561e-05
6.3414239e-05
5.2768014e-05
4.2394017e-05
3.2306873e-05
2.247375e-05
1.3360353e-05
4.6809046e-06
0.00015079386
0.00014678244
0.00014222596
0.00013717645
0.00013168828
0.00012581819
0.00011962387
0.00011316256
0.00010648979
9.9658813e-05
9.2720034e-05
8.571957e-05
7.8699059e-05
7.169552e-05
6.4741694e-05
5.7865651e-05
5.1091283e-05
4.4438591e-05
3.7923684e-05
3.1559314e-05
2.5354417e-05
1.9314575e-05
1.3338996e-05
7.974155e-06
2.8657045e-06
4.9921856e-05
4.859467e-05
4.7087163e-05
4.5416469e-05
4.3600519e-05
4.1657979e-05
3.9607855e-05
3.7469014e-05
3.5259902e-05
3.2998482e-05
3.07013e-05
2.8383871e-05
2.6060021e-05
2.3741631e-05
2.1439435e-05
1.916278e-05
1.6919481e-05
1.4716273e-05
1.2558582e-05
1.0450621e-05
8.3955921e-06
6.3959074e-06
4.4458793e-06
2.6463867e-06
9.2056818e-07
)
;

boundaryField
{
    Walls
    {
        type            zeroGradient;
    }
    Inlet
    {
        type            fixedValue;
        value           uniform 500;
    }
    Outlet
    {
        type            fixedValue;
        value           uniform 0;
    }
    Front
    {
        type            wedge;
    }
    Back
    {
        type            wedge;
    }
    defaultFaces
    {
        type            empty;
    }
}


// ************************************************************************* //
