/*--------------------------------*- C++ -*----------------------------------*\
| =========                 |                                                 |
| \\      /  F ield         | OpenFOAM: The Open Source CFD Toolbox           |
|  \\    /   O peration     | Version:  4.0                                   |
|   \\  /    A nd           | Web:      www.OpenFOAM.org                      |
|    \\/     M anipulation  |                                                 |
\*---------------------------------------------------------------------------*/
FoamFile
{
    version     2.0;
    format      ascii;
    class       surfaceScalarField;
    location    "0.7";
    object      phi;
}
// * * * * * * * * * * * * * * * * * * * * * * * * * * * * * * * * * * * * * //

dimensions      [0 3 -1 0 0 0 0];

internalField   nonuniform List<scalar> 
3364
(
-9.8304571e-11
1.6456284e-08
-9.3200355e-10
5.0671898e-08
8.7680496e-08
-3.31579e-10
1.6787843e-08
-1.8085182e-09
5.2148866e-08
8.5871994e-08
-2.8551523e-10
1.7073372e-08
-6.6116235e-10
5.2524577e-08
8.5210833e-08
1.834e-10
1.6889949e-08
5.7926805e-10
5.2128671e-08
8.5790052e-08
3.402932e-10
1.6549615e-08
-8.0568262e-11
5.2549441e-08
8.5709428e-08
2.6074958e-10
1.6288807e-08
3.0640111e-10
5.2503711e-08
8.6015816e-08
-1.4697667e-10
1.643573e-08
9.2826108e-10
5.1428438e-08
8.6944074e-08
-4.6265043e-10
1.6898378e-08
1.6545438e-10
5.0800309e-08
8.7109493e-08
-4.9643903e-10
1.7394792e-08
-1.1951423e-11
5.0315793e-08
8.7097508e-08
-4.1003033e-10
1.7804764e-08
-4.6910845e-10
5.0374822e-08
8.6628379e-08
-1.8430668e-10
1.7989042e-08
-1.2776843e-09
5.1468134e-08
8.5350642e-08
2.9630589e-10
1.7692716e-08
-5.0961841e-11
5.1815339e-08
8.5299621e-08
3.2086218e-10
1.7371795e-08
3.290375e-10
5.1807117e-08
8.5628639e-08
2.4564466e-11
1.7347158e-08
-1.9398644e-10
5.2025645e-08
8.543464e-08
6.0508805e-10
1.6742034e-08
1.4329883e-10
5.2487401e-08
8.5577907e-08
5.079057e-10
1.6234106e-08
5.6336422e-10
5.2431898e-08
8.6141225e-08
-2.1018956e-10
1.6444277e-08
-3.8514502e-11
5.226019e-08
8.6102664e-08
-2.5007591e-10
1.669432e-08
-1.3193529e-09
5.3329426e-08
8.4783278e-08
-4.5830514e-10
1.7152576e-08
-1.9991003e-09
5.4870186e-08
8.2784156e-08
-7.1465704e-10
1.7867199e-08
-4.8814015e-11
5.4204307e-08
8.2735311e-08
-6.8381363e-10
1.8550978e-08
1.4948488e-09
5.2025614e-08
8.4230116e-08
1.2827681e-10
1.8422664e-08
1.2867593e-09
5.0867096e-08
8.5516826e-08
8.335214e-10
1.7589095e-08
8.9041724e-10
5.0810161e-08
8.64072e-08
4.7777499e-10
1.7111287e-08
5.753429e-10
5.0712577e-08
8.6982506e-08
3.9220093e-10
1.6719057e-08
2.4064075e-10
5.0864109e-08
8.7223114e-08
1.7630664e-10
1.6542696e-08
-8.7909994e-10
5.1919474e-08
8.6343978e-08
-2.045669e-10
1.6747199e-08
-4.2074195e-10
5.2135586e-08
8.5923193e-08
-5.2554571e-11
1.679972e-08
-2.854644e-11
5.2111545e-08
8.589461e-08
9.6111822e-11
1.6703666e-08
-8.825011e-10
5.3090251e-08
8.5012133e-08
1.2449639e-09
1.5458911e-08
4.9068095e-09
4.9428518e-08
8.9918921e-08
1.1110082e-08
4.3481648e-09
4.9077776e-08
1.1458957e-08
1.1192456e-08
1.2780167e-07
4.736129e-09
-3.8843011e-10
1.7157106e-08
-9.6348741e-10
-1.1103512e-09
2.9458056e-08
-3.6888445e-10
-1.9510485e-11
-1.2779486e-09
-5.4349918e-11
-1.7803617e-10
-2.2101653e-09
-7.4466933e-11
5.4971277e-11
-2.6896941e-10
1.4018788e-10
1.2831064e-10
-5.7527892e-10
1.1910124e-11
4.3062533e-11
3.8242765e-11
1.1385903e-10
1.4339341e-10
2.316346e-11
1.2467539e-11
3.0594958e-11
4.255616e-11
8.3770243e-11
1.1957427e-10
6.6375301e-11
7.9592851e-12
2.2635719e-11
2.9098095e-11
6.2631528e-11
9.2628008e-11
5.6044802e-11
6.2944792e-12
1.6341318e-11
2.2517972e-11
4.640807e-11
7.0135912e-11
4.5009999e-11
4.3520581e-12
1.1989316e-11
1.6340917e-11
3.441924e-11
5.3392173e-11
3.3084629e-11
2.7337198e-12
9.255666e-12
1.0363177e-11
2.6789888e-11
4.2379042e-11
2.1376444e-11
1.6467123e-12
7.60903e-12
6.2193698e-12
2.2217376e-11
3.543364e-11
1.3164988e-11
1.0886888e-12
6.5204075e-12
4.1511779e-12
1.9155021e-11
3.0638604e-11
8.9464177e-12
8.5984117e-13
5.6606141e-12
3.3256178e-12
1.6689342e-11
2.6684426e-11
7.2799431e-12
7.6743636e-13
4.8932086e-12
2.9552524e-12
1.4501586e-11
2.328529e-11
6.35448e-12
6.6202162e-13
4.231206e-12
2.5960821e-12
1.2567558e-11
2.026326e-11
5.6181642e-12
5.7336159e-13
3.6578561e-12
2.2681024e-12
1.0872835e-11
1.761212e-11
4.9192678e-12
4.849845e-13
3.1728789e-12
1.9158411e-12
9.441987e-12
1.5338613e-11
4.1893594e-12
4.0734774e-13
2.7655356e-12
1.6121198e-12
8.237218e-12
1.3414244e-11
3.5364923e-12
3.4457781e-13
2.4209603e-12
1.3634213e-12
7.2183737e-12
1.1775888e-11
3.0017744e-12
2.9761559e-13
2.1233454e-12
1.1785704e-12
6.3374143e-12
1.0362091e-11
2.5923583e-12
2.6061252e-13
1.8627322e-12
1.0343412e-12
5.5636782e-12
9.114396e-12
2.2820235e-12
2.2882834e-13
1.6339022e-12
9.104044e-13
4.882093e-12
8.0043723e-12
2.0204119e-12
2.0188952e-13
1.4320104e-12
8.046645e-13
4.2793075e-12
7.020486e-12
1.7885328e-12
1.7786268e-13
1.254145e-12
7.1311585e-13
3.7440433e-12
6.1392275e-12
1.5943553e-12
1.5829459e-13
1.0958475e-12
6.2432092e-13
3.2780057e-12
5.3872442e-12
1.376285e-12
1.3693722e-13
9.5890726e-13
5.4536999e-13
2.8695618e-12
4.7188417e-12
1.2137535e-12
1.2015676e-13
8.3874749e-13
4.7969864e-13
2.5100091e-12
4.127315e-12
1.0712069e-12
1.061127e-13
7.3263184e-13
4.2355797e-13
2.1925535e-12
3.6056478e-12
9.4520757e-13
9.3354656e-14
6.3927435e-13
3.7270603e-13
1.9131923e-12
3.1468921e-12
8.3144506e-13
8.144502e-14
5.5782667e-13
3.2524707e-13
1.6693811e-12
2.7462089e-12
7.2591488e-13
7.0544877e-14
4.8727933e-13
2.8153411e-13
1.4583836e-12
2.3995308e-12
6.2819806e-13
6.0936008e-14
4.2634107e-13
2.4324733e-13
1.2760647e-12
2.0997269e-12
5.4303838e-13
5.2373102e-14
3.7396594e-13
2.0914794e-13
1.119283e-12
1.8419572e-12
4.6690615e-13
4.4815132e-14
3.29149e-13
1.7884851e-13
9.8524351e-13
1.6217842e-12
3.9901126e-13
3.8032126e-14
2.9111529e-13
1.5180454e-13
8.7146572e-13
1.4347346e-12
3.3884521e-13
3.2060091e-14
2.5905382e-13
1.2802812e-13
7.7549301e-13
1.2769494e-12
2.8580546e-13
2.6842918e-14
2.3220972e-13
1.0716506e-13
6.9516683e-13
1.1449727e-12
2.391352e-13
2.2319349e-14
2.0988938e-13
8.906264e-14
6.2842014e-13
1.0352423e-12
1.9878745e-13
1.8416017e-14
1.9147255e-13
7.3468995e-14
5.7336434e-13
9.4474411e-13
1.6396256e-13
1.5087019e-14
1.7638488e-13
6.0236427e-14
5.2821265e-13
8.7071684e-13
1.3425998e-13
1.2252593e-14
1.6413179e-13
4.8862038e-14
4.916014e-13
8.1070229e-13
1.0887368e-13
9.8811047e-15
1.5425031e-13
3.9354483e-14
4.6212664e-13
7.624258e-13
8.7628781e-14
7.9364953e-15
1.4631356e-13
3.1543678e-14
4.3851847e-13
7.2390302e-13
7.0064902e-14
6.3545807e-15
1.3995883e-13
2.5028683e-14
4.1984372e-13
6.936035e-13
5.5327214e-14
4.6603159e-15
1.3529847e-13
1.8880526e-14
4.0562315e-13
6.7000965e-13
4.247388e-14
3.628593e-15
1.316699e-13
1.4668719e-14
3.9458291e-13
6.5172537e-13
3.2952905e-14
2.7888277e-15
1.2888116e-13
1.1281482e-14
3.8609033e-13
6.3770727e-13
2.5299792e-14
2.0785685e-15
1.2680271e-13
8.423112e-15
3.7974595e-13
6.2725807e-13
1.8872689e-14
1.508703e-15
1.2529412e-13
5.8772575e-15
3.7537758e-13
6.2011148e-13
1.3024247e-14
7.9040689e-16
2.9934615e-15
6.5557159e-15
1.3698833e-07
-9.1919305e-09
-8.5356932e-09
1.4551777e-07
2.1531942e-08
-1.2670041e-09
-1.2720585e-09
1.4267779e-08
-3.1813108e-09
-2.9573002e-10
-4.3830287e-10
-4.0149225e-09
-9.4692137e-10
7.5965234e-11
-1.0215034e-12
-1.3841394e-09
-5.1097038e-11
1.5023563e-10
1.3855188e-10
-1.9065528e-10
7.6210522e-11
1.4040249e-10
1.4809075e-10
6.6674528e-11
8.3942183e-11
1.1250522e-10
1.2619874e-10
1.0583413e-10
7.3413055e-11
8.4101822e-11
9.7965527e-11
1.0164566e-10
5.1588152e-11
6.5598154e-11
7.4541463e-11
7.501191e-11
3.3342913e-11
5.3631813e-11
6.0369471e-11
4.7514991e-11
2.1342148e-11
4.5454913e-11
5.2340952e-11
2.9370953e-11
1.4858033e-11
3.9543555e-11
4.6863922e-11
2.0335364e-11
1.1776953e-11
3.5046735e-11
4.18277e-11
1.68134e-11
1.0502673e-11
3.0898659e-11
3.7198307e-11
1.5132203e-11
9.4875928e-12
2.7029295e-11
3.2861061e-11
1.3824912e-11
8.3087611e-12
2.3639834e-11
2.8879678e-11
1.2290179e-11
7.1480746e-12
2.0681131e-11
2.5408569e-11
1.0619197e-11
6.0662668e-12
1.8151359e-11
2.2381772e-11
9.0930634e-12
5.1750856e-12
1.5978042e-11
1.9752522e-11
7.8043253e-12
4.4795606e-12
1.4090827e-11
1.7460782e-11
6.7712819e-12
3.9497746e-12
1.2423057e-11
1.5423368e-11
5.987164e-12
3.520034e-12
1.0923411e-11
1.3573213e-11
5.370158e-12
3.1446139e-12
9.5673044e-12
1.1955436e-11
4.7623564e-12
2.745544e-12
8.4160887e-12
1.0509288e-11
4.191657e-12
2.4056394e-12
7.3867071e-12
9.2127952e-12
3.7020973e-12
2.1322004e-12
6.4682333e-12
8.0822931e-12
3.2626678e-12
1.8813439e-12
5.6580703e-12
7.0746406e-12
2.8889628e-12
1.6588662e-12
4.9443867e-12
6.1851012e-12
2.5483735e-12
1.4582988e-12
4.3175095e-12
5.4032657e-12
2.2401042e-12
1.2738075e-12
3.7695951e-12
4.7189523e-12
1.9580929e-12
1.1041526e-12
3.2936208e-12
4.1239485e-12
1.699131e-12
9.5447077e-13
2.8821705e-12
3.6093306e-12
1.4690657e-12
8.202128e-13
2.5288478e-12
3.167622e-12
1.2619008e-12
7.0063944e-13
2.2272053e-12
2.7908777e-12
1.0773657e-12
5.9514099e-13
1.9708971e-12
2.4713582e-12
9.1464477e-13
5.017639e-13
1.754928e-12
2.2012898e-12
7.7181874e-13
4.1999232e-13
1.5740617e-12
1.9751544e-12
6.4611621e-13
3.4907286e-13
1.4237686e-12
1.7875109e-12
5.3670678e-13
2.8781546e-13
1.2999095e-12
1.6330502e-12
4.4226824e-13
2.3546521e-13
1.1986992e-12
1.5069467e-12
3.6156244e-13
1.9081918e-13
1.1167498e-12
1.4049641e-12
2.9279683e-13
1.5343421e-13
1.0509414e-12
1.3232029e-12
2.3519184e-13
1.2250239e-13
9.9850185e-13
1.2580701e-12
1.8763262e-13
9.6345866e-14
9.5748193e-13
1.2069863e-12
1.4742814e-13
7.4943415e-14
9.2501181e-13
1.166877e-12
1.1505212e-13
5.8053687e-14
8.99911e-13
1.1357179e-12
8.9212853e-14
4.4494295e-14
8.8071689e-13
1.1118453e-12
6.8367482e-14
3.3169053e-14
8.6642116e-13
1.0940635e-12
5.0951808e-14
2.2803619e-14
8.5664247e-13
1.0818928e-12
3.497523e-14
1.1397445e-14
1.7438352e-14
1.4996501e-11
-1.5002649e-11
3.0512251e-11
-1.5527335e-11
4.4893919e-11
-1.4390946e-11
5.6011528e-11
-1.1124291e-11
6.2469637e-11
-6.4624972e-12
6.2200025e-11
2.6714897e-13
5.399511e-11
8.2040564e-12
3.7127155e-11
1.6868397e-11
1.1392342e-11
2.5736243e-11
-2.2433238e-11
3.3827711e-11
-6.2941361e-11
4.0510698e-11
-1.0756399e-10
4.4625433e-11
-1.5400759e-10
4.6446447e-11
-2.0113058e-10
4.7125722e-11
-2.4836099e-10
4.7232907e-11
-2.951913e-10
4.6832481e-11
-3.4106371e-10
4.5874188e-11
-3.8442509e-10
4.3362761e-11
-4.2397527e-10
3.9551139e-11
-4.5872195e-10
3.474727e-11
-4.8791105e-10
2.9189386e-11
-5.1103107e-10
2.3120066e-11
-5.2773005e-10
1.669888e-11
-5.3757081e-10
9.8405679e-12
2.652812e-12
-2.0842741e-11
5.8447805e-12
-4.9728436e-11
1.3365845e-11
-8.9867136e-11
2.5756569e-11
-1.4405718e-10
4.3075127e-11
-2.1511517e-10
6.4605033e-11
-3.046788e-10
8.9840211e-11
-4.1464174e-10
1.1817613e-10
-5.4595206e-10
1.4818738e-10
-6.9568097e-10
1.7547322e-10
-8.5996477e-10
1.9811889e-10
-1.0347437e-09
2.152963e-10
-1.217767e-09
2.2765461e-10
-1.4069209e-09
2.3560561e-10
-1.5995422e-09
2.3975144e-10
-1.7929551e-09
2.4064965e-10
-1.9861135e-09
2.3999394e-10
-2.188276e-09
2.4803902e-10
-2.3804133e-09
2.3550179e-10
-2.5553089e-09
2.1444788e-10
-2.7080878e-09
1.8752664e-10
-2.8350112e-09
1.5611269e-10
-2.9332762e-09
1.2138456e-10
-3.0005993e-09
8.4021022e-11
-3.0329681e-09
4.2208081e-11
1.0886234e-11
-9.1908427e-11
9.7762591e-11
-2.0842425e-10
1.2989661e-10
-3.5592701e-10
1.7327695e-10
-5.4030312e-10
2.2746966e-10
-7.6652345e-10
2.9084362e-10
-1.0370509e-09
3.6038506e-10
-1.3544396e-09
4.3558106e-10
-1.779647e-09
5.7340932e-10
-2.2412748e-09
6.3711396e-10
-2.7127994e-09
6.6965464e-10
-3.1795148e-09
6.8202112e-10
-3.6325893e-09
6.8073689e-10
-4.0658428e-09
6.6886546e-10
-4.4735981e-09
6.4751176e-10
-4.8495603e-09
6.1661545e-10
-5.1874988e-09
5.779349e-10
-5.4721965e-09
5.3273819e-10
-5.718456e-09
4.8176159e-10
-5.9300406e-09
4.2603197e-10
-6.1091314e-09
3.6661606e-10
-6.2575245e-09
3.0450377e-10
-6.3763921e-09
2.4024943e-10
-6.4659224e-09
1.7354804e-10
-6.5283346e-09
1.0461655e-10
3.4690309e-11
-3.2410611e-10
4.2188648e-10
-7.0353165e-10
5.0934902e-10
-1.1634705e-09
6.3324557e-10
-1.9436775e-09
1.0077042e-09
-2.8021913e-09
1.1493816e-09
-3.6267507e-09
1.1849648e-09
-4.3617813e-09
1.1706284e-09
-4.9108944e-09
1.122536e-09
-5.3243992e-09
1.0506299e-09
-5.6174867e-09
9.6275107e-10
-5.8050264e-09
8.6956783e-10
-5.8997064e-09
7.7542237e-10
-5.912212e-09
6.8137525e-10
-5.8436217e-09
5.7892453e-10
-5.70977e-09
4.8276586e-10
-5.527851e-09
3.9601718e-10
-5.3149645e-09
3.1985233e-10
-5.0881532e-09
2.549504e-10
-4.8636395e-09
2.0151797e-10
-4.6557104e-09
1.5868612e-10
-4.4757502e-09
1.2454238e-10
-4.3327287e-09
9.7226444e-11
-4.2318299e-09
7.2647407e-11
-4.177172e-09
4.9956603e-11
2.6060317e-11
-2.1165745e-09
2.5384896e-09
-3.825189e-09
2.2179953e-09
-5.3221541e-09
2.1302416e-09
-6.0166935e-09
1.7022661e-09
-6.1110339e-09
1.2437405e-09
-5.6570146e-09
7.3096056e-10
-4.9061116e-09
4.1973792e-10
-3.9251779e-09
1.4161276e-10
-2.7794108e-09
-9.5128213e-11
-1.5264412e-09
-2.9021122e-10
-2.8374699e-10
-3.7312162e-10
9.5197414e-10
-4.6029953e-10
2.243856e-09
-6.1050777e-10
3.657025e-09
-8.3424451e-10
5.0401697e-09
-9.0037736e-10
6.3519717e-09
-9.1578142e-10
7.5692801e-09
-8.9745093e-10
8.6773057e-09
-8.5306828e-10
9.666001e-09
-7.8716865e-10
1.0527176e-08
-7.0247862e-10
1.1252665e-08
-6.0093517e-10
1.1834325e-08
-4.8441987e-10
1.226203e-08
-3.5504221e-10
1.2527356e-08
-2.1535445e-10
-6.440826e-11
1.1693055e-09
1.3692707e-09
4.3627602e-09
-9.7540704e-10
8.0459537e-09
-1.5528794e-09
1.1699779e-08
-1.951528e-09
1.5403047e-08
-2.4595029e-09
1.9037633e-08
-2.9035982e-09
2.2621337e-08
-3.1639349e-09
2.5993161e-08
-3.2301742e-09
2.9061059e-08
-3.1629848e-09
3.1796019e-08
-3.0251255e-09
3.4269367e-08
-2.8464215e-09
3.6443549e-08
-2.6344298e-09
3.8248322e-08
-2.4152269e-09
3.9622835e-08
-2.208704e-09
4.071718e-08
-1.9946671e-09
4.1582653e-08
-1.7811993e-09
4.2259455e-08
-1.5741986e-09
4.2781116e-08
-1.3746739e-09
4.3176679e-08
-1.1826764e-09
4.3471586e-08
-9.9733138e-10
4.3687553e-08
-8.1684784e-10
4.384198e-08
-6.3879269e-10
4.3947266e-08
-4.6027471e-10
4.4010739e-08
-2.7877407e-10
-8.851451e-11
1.4922173e-07
-2.3334671e-09
1.4775071e-07
4.9652738e-10
1.4516251e-07
1.0361025e-09
1.4171027e-07
1.5014072e-09
1.3717837e-07
2.0730088e-09
1.3171607e-07
2.5592276e-09
1.2569094e-07
2.8616415e-09
1.1949573e-07
2.9654138e-09
1.1340081e-07
2.9322694e-09
1.0756046e-07
2.8155083e-09
1.0204514e-07
2.6691472e-09
9.6905267e-08
2.5056705e-09
9.2172339e-08
2.3178993e-09
8.7845691e-08
2.1181213e-09
8.3935865e-08
1.9153191e-09
8.0440833e-08
1.7139784e-09
7.7349796e-08
1.5169723e-09
7.4649306e-08
1.3259388e-09
7.2325474e-08
1.1412683e-09
7.0365842e-08
9.6240666e-10
6.8761021e-08
7.8807151e-10
6.7505933e-08
6.1638866e-10
6.6601237e-08
4.4450933e-10
6.60528e-08
2.6974732e-10
8.6279567e-11
1.3443361e-08
-1.5089264e-09
1.565658e-08
-1.7165791e-09
1.8213236e-08
-1.5204392e-09
2.0889557e-08
-1.1748039e-09
2.3682286e-08
-7.1961383e-10
2.6583745e-08
-3.4213074e-10
2.950084e-08
-5.5361007e-11
3.2270118e-08
1.9622527e-10
3.4847611e-08
3.5486341e-10
3.7200535e-08
4.6267231e-10
3.928576e-08
5.8400816e-10
4.0919478e-08
8.7203693e-10
4.221489e-08
1.0225709e-09
4.3244254e-08
1.0888377e-09
4.4050067e-08
1.1095854e-09
4.4668795e-08
1.0953267e-09
4.513429e-08
1.0515521e-09
4.5476171e-08
9.8412977e-10
4.5720771e-08
8.9673817e-10
4.5891113e-08
7.9213173e-10
4.6006763e-08
6.7248688e-10
4.6083586e-08
5.3962932e-10
4.6133195e-08
3.9496134e-10
4.6162784e-08
2.4021779e-10
7.3083237e-11
-4.850496e-09
-6.7336297e-10
-5.6081203e-09
-9.5896393e-10
-6.0307647e-09
-1.0978045e-09
-6.0331944e-09
-1.1723835e-09
-5.5683636e-09
-1.1844524e-09
-4.7643467e-09
-1.1461532e-09
-3.7410893e-09
-1.0786214e-09
-2.553747e-09
-9.911172e-10
-1.3071638e-09
-8.9171741e-10
-5.5565676e-11
-7.8892098e-10
1.2130917e-09
-6.8464217e-10
2.6617311e-09
-5.7659316e-10
4.1556188e-09
-4.7130512e-10
5.6189849e-09
-3.7451457e-10
7.0162933e-09
-2.8770737e-10
8.3219892e-09
-2.1035204e-10
9.5365488e-09
-1.62989e-10
1.064558e-08
-1.2488143e-10
1.1636417e-08
-9.4079178e-11
1.249885e-08
-7.0280068e-11
1.3224165e-08
-5.2805955e-11
1.3804371e-08
-4.055578e-11
1.4231417e-08
-3.2062655e-11
1.449669e-08
-2.5034101e-11
-1.6054071e-11
-1.9850088e-09
-7.2493906e-11
-2.795343e-09
-1.4863148e-10
-3.653839e-09
-2.3931289e-10
-4.4910632e-09
-3.3516604e-10
-5.2438876e-09
-4.3163668e-10
-5.8058196e-09
-5.8423105e-10
-6.2352159e-09
-6.4923566e-10
-6.5409371e-09
-6.8540689e-10
-6.7302024e-09
-7.0246288e-10
-6.814191e-09
-7.0494297e-10
-6.8026917e-09
-6.9615171e-10
-6.7001428e-09
-6.7915166e-10
-6.51733e-09
-6.541268e-10
-6.2702834e-09
-6.2156936e-10
-5.9753817e-09
-5.8261651e-10
-5.6466202e-09
-5.3912005e-10
-5.3163729e-09
-4.9324225e-10
-4.9967176e-09
-4.4454184e-10
-4.6976467e-09
-3.9315469e-10
-4.4287268e-09
-3.3920405e-10
-4.1988123e-09
-2.8272411e-10
-4.0156723e-09
-2.2369903e-10
-3.8856076e-09
-1.6213045e-10
-3.8124426e-09
-9.8202083e-11
-3.3115956e-11
-3.7518507e-10
1.1203917e-10
-6.0925137e-10
8.5437911e-11
-8.9371268e-10
4.5150826e-11
-1.2215797e-09
-7.2974412e-12
-1.6012172e-09
-5.1998601e-11
-2.0869512e-09
-9.8497686e-11
-2.5927251e-09
-1.4346361e-10
-3.0980629e-09
-1.8007219e-10
-3.592221e-09
-2.0830883e-10
-4.0673638e-09
-2.2980526e-10
-4.5182874e-09
-2.4523397e-10
-4.9396036e-09
-2.5784201e-10
-5.3215795e-09
-2.7215797e-10
-5.6440148e-09
-2.9914148e-10
-5.9278512e-09
-2.9878787e-10
-6.1770811e-09
-2.898981e-10
-6.3960136e-09
-2.7431781e-10
-6.5871741e-09
-2.5338955e-10
-6.7526262e-09
-2.2771091e-10
-6.8940278e-09
-1.9781061e-10
-7.0125766e-09
-1.6418353e-10
-7.1088786e-09
-1.2740527e-10
-7.1827906e-09
-8.8226548e-11
-7.2342719e-09
-4.6728891e-11
-1.0417662e-11
2.6729719e-11
1.5198584e-10
-3.7612713e-11
1.4978231e-10
-1.3419318e-10
1.4173316e-10
-2.6398135e-10
1.2249237e-10
-4.133526e-10
9.7373958e-11
-5.8946963e-10
7.7620243e-11
-7.8635606e-10
5.3423244e-11
-9.9522758e-10
2.8799288e-11
-1.210273e-09
6.7361026e-12
-1.4281072e-09
-1.1972078e-11
-1.6499231e-09
-2.3419418e-11
-1.8746741e-09
-3.3092924e-11
-2.1061469e-09
-4.0687351e-11
-2.3592801e-09
-4.6010943e-11
-2.6089365e-09
-4.9134473e-11
-2.8485635e-09
-5.0274541e-11
-3.0733066e-09
-4.9578496e-11
-3.2794018e-09
-4.7298282e-11
-3.4634998e-09
-4.3617233e-11
-3.6226131e-09
-3.8701682e-11
-3.754067e-09
-3.2734222e-11
-3.8555349e-09
-2.5941971e-11
-3.925224e-09
-1.8542118e-11
-3.9612671e-09
-1.0690393e-11
-2.7623097e-12
1.233419e-10
1.3447854e-10
1.3440779e-10
1.3871681e-10
1.3499324e-10
1.4114804e-10
1.1908503e-10
1.3840084e-10
8.6784294e-11
1.2967485e-10
4.3994263e-11
1.2041033e-10
-1.1284541e-11
1.0870198e-10
-7.624351e-11
9.3758073e-11
-1.4799715e-10
7.848944e-11
-2.239146e-10
6.3944954e-11
-2.9981828e-10
5.2483725e-11
-3.7688768e-10
4.3975832e-11
-4.5388678e-10
3.6311007e-11
-5.2977126e-10
2.9872677e-11
-6.0351436e-10
2.4607663e-11
-6.7408274e-10
2.0292776e-11
-7.4036519e-10
1.6702792e-11
-8.0147552e-10
1.3810802e-11
-8.5640645e-10
1.1312382e-11
-9.0417813e-10
9.0686341e-12
-9.4394517e-10
7.0314392e-12
-9.7498646e-10
5.0979218e-12
-9.9680945e-10
3.279499e-12
-1.0092295e-09
1.7283766e-12
6.4439425e-13
1.300689e-10
1.0605547e-10
1.5810481e-10
1.1068101e-10
1.8441379e-10
1.1483912e-10
2.0585576e-10
1.1695891e-10
2.2030635e-10
1.1522428e-10
2.2795221e-10
1.1276449e-10
2.3172247e-10
1.0493174e-10
2.293452e-10
9.6135358e-11
2.2219319e-10
8.5641453e-11
2.1045151e-10
7.5686633e-11
1.9727352e-10
6.5661707e-11
1.8504012e-10
5.6209209e-11
1.7362896e-10
4.7722146e-11
1.6292377e-10
4.0577845e-11
1.5328026e-10
3.4251148e-11
1.4464357e-10
2.8929453e-11
1.3754207e-10
2.380428e-11
1.3151135e-10
1.9841517e-11
1.2657473e-10
1.6249011e-11
1.2261463e-10
1.3028744e-11
1.1935274e-10
1.0293364e-11
1.167424e-10
7.7082944e-12
1.1472396e-10
5.2979881e-12
1.1342145e-10
3.030951e-12
8.1959346e-13
9.9426848e-11
8.1640699e-11
1.230959e-10
8.7012096e-11
1.4657773e-10
9.1357406e-11
1.6967399e-10
9.3862769e-11
1.9050038e-10
9.439801e-11
2.0992103e-10
9.3343975e-11
2.250867e-10
8.976622e-11
2.3619295e-10
8.5029265e-11
2.4361807e-10
7.8216513e-11
2.4885219e-10
7.045269e-11
2.5233561e-10
6.2178486e-11
2.5452342e-10
5.4021604e-11
2.5511067e-10
4.7135104e-11
2.5521535e-10
4.0473392e-11
2.5569207e-10
3.3774663e-11
2.5636662e-10
2.8255146e-11
2.5684325e-10
2.332791e-11
2.5761681e-10
1.9068215e-11
2.5859527e-10
1.5270825e-11
2.5975466e-10
1.1869634e-11
2.6093342e-10
9.1148865e-12
2.6189535e-10
6.7466543e-12
2.6253735e-10
4.6562687e-12
2.6279979e-10
2.7688001e-12
1.083825e-12
6.2901266e-11
6.6254578e-11
7.8045744e-11
7.1867767e-11
9.3498333e-11
7.5904962e-11
1.0836498e-10
7.899627e-11
1.2282455e-10
7.9938596e-11
1.3634927e-10
7.9819409e-11
1.4763199e-10
7.8483666e-11
1.5592353e-10
7.6737896e-11
1.6121323e-10
7.2926991e-11
1.6436151e-10
6.730459e-11
1.6546397e-10
6.1076195e-11
1.6472875e-10
5.4757e-11
1.6310578e-10
4.8758256e-11
1.5991532e-10
4.3664023e-11
1.5613265e-10
3.7557498e-11
1.5230751e-10
3.2080459e-11
1.4846988e-10
2.7165702e-11
1.4470208e-10
2.2836182e-11
1.4130144e-10
1.8671613e-11
1.3831611e-10
1.4855118e-11
1.3589748e-10
1.1533665e-11
1.3406173e-10
8.5825502e-12
1.3289796e-10
5.8201729e-12
1.3237996e-10
3.2869404e-12
9.299136e-13
3.775779e-11
5.7867859e-11
4.6969929e-11
6.2655746e-11
5.5660911e-11
6.7214099e-11
6.4552913e-11
7.0104391e-11
7.2134677e-11
7.2356955e-11
7.9092247e-11
7.2861965e-11
8.4923569e-11
7.2652469e-11
8.9874454e-11
7.1787136e-11
9.3082576e-11
6.9718989e-11
9.3187322e-11
6.7199958e-11
9.1229252e-11
6.3034372e-11
8.7976621e-11
5.8009727e-11
8.367173e-11
5.3063233e-11
7.9009904e-11
4.8325923e-11
7.3380959e-11
4.3186505e-11
6.7293568e-11
3.8167902e-11
6.1088145e-11
3.3371166e-11
5.4820022e-11
2.9104336e-11
4.8939304e-11
2.4552353e-11
4.3545479e-11
2.0248957e-11
3.8812643e-11
1.6266508e-11
3.4854177e-11
1.2541016e-11
3.1687292e-11
8.9870523e-12
2.9401689e-11
5.5725344e-12
1.9756558e-12
2.5985768e-11
5.2217527e-11
3.1788914e-11
5.6852671e-11
3.8072443e-11
6.0930643e-11
4.3982283e-11
6.4194623e-11
4.917474e-11
6.7164573e-11
5.4060399e-11
6.7976379e-11
5.7607578e-11
6.9105359e-11
6.0577516e-11
6.8817263e-11
6.2422182e-11
6.7874383e-11
6.3328237e-11
6.6293957e-11
6.2607185e-11
6.3755467e-11
6.0242628e-11
6.0374318e-11
5.673466e-11
5.6571225e-11
5.2296191e-11
5.2764403e-11
4.7429754e-11
4.8052944e-11
4.2148776e-11
4.3448871e-11
3.6671412e-11
3.8848511e-11
3.1476919e-11
3.4298801e-11
2.6416597e-11
2.9612639e-11
2.1683796e-11
2.4981716e-11
1.7525129e-11
2.0425126e-11
1.4120708e-11
1.5945383e-11
1.1628475e-11
1.1479227e-11
1.0237886e-11
6.9630636e-12
2.3026736e-12
2.1729612e-11
4.7301353e-11
2.6766504e-11
5.1815816e-11
3.1961223e-11
5.5735961e-11
3.7173456e-11
5.8982427e-11
4.2683092e-11
6.1654974e-11
4.7192505e-11
6.3467003e-11
5.153074e-11
6.476716e-11
5.5072386e-11
6.5275651e-11
5.774359e-11
6.5203209e-11
5.987687e-11
6.4160701e-11
6.0818709e-11
6.2813647e-11
6.0681721e-11
6.0511317e-11
5.9676249e-11
5.7576701e-11
5.8163849e-11
5.4276801e-11
5.574273e-11
5.0474052e-11
5.2842858e-11
4.6348725e-11
4.9696125e-11
4.1995219e-11
4.6539157e-11
3.7455738e-11
4.3481721e-11
3.2670037e-11
4.0515513e-11
2.7947881e-11
3.7857263e-11
2.3083329e-11
3.5663778e-11
1.8138819e-11
3.3897697e-11
1.3245257e-11
3.2760556e-11
8.1001519e-12
2.3324804e-12
2.0029696e-11
4.2403873e-11
2.5068664e-11
4.6776862e-11
3.036332e-11
5.0441321e-11
3.5787237e-11
5.3558526e-11
4.1278432e-11
5.6163798e-11
4.648697e-11
5.8258484e-11
5.1513572e-11
5.9740579e-11
5.6316969e-11
6.0472273e-11
6.0494035e-11
6.1026161e-11
6.3953167e-11
6.0701586e-11
6.6911043e-11
5.9855785e-11
6.9116624e-11
5.8305746e-11
7.0799923e-11
5.5893409e-11
7.1772442e-11
5.3304282e-11
7.19274e-11
5.0319091e-11
7.1587911e-11
4.6688207e-11
7.0910643e-11
4.2672475e-11
6.9971116e-11
3.8395249e-11
6.8765933e-11
3.38752e-11
6.7560311e-11
2.915348e-11
6.6430003e-11
2.4213611e-11
6.5506615e-11
1.9062178e-11
6.5121553e-11
1.3630288e-11
6.507031e-11
8.1513647e-12
3.0271223e-12
1.8535369e-11
3.7693412e-11
2.3591451e-11
4.1720779e-11
2.882039e-11
4.5212383e-11
3.4207342e-11
4.8171578e-11
3.9761925e-11
5.0609222e-11
4.5348082e-11
5.2672334e-11
5.0838061e-11
5.4250609e-11
5.6014681e-11
5.5295664e-11
6.1152465e-11
5.5888389e-11
6.5929878e-11
5.5924184e-11
7.0266672e-11
5.5519003e-11
7.4091913e-11
5.4480515e-11
7.7148145e-11
5.2837185e-11
7.9718971e-11
5.0733463e-11
8.1871658e-11
4.8166408e-11
8.3507305e-11
4.5052563e-11
8.4763363e-11
4.1416416e-11
8.5595017e-11
3.7563592e-11
8.5991783e-11
3.3478429e-11
8.6167434e-11
2.8977822e-11
8.6208078e-11
2.4172958e-11
8.6166427e-11
1.9103817e-11
8.6034796e-11
1.3761905e-11
8.5862728e-11
8.3234203e-12
2.9028381e-12
1.6653637e-11
3.3329937e-11
2.1308434e-11
3.7065968e-11
2.6257296e-11
4.026351e-11
3.1411767e-11
4.3017099e-11
3.6704903e-11
4.5316081e-11
4.2133178e-11
4.7244057e-11
4.7592413e-11
4.8791374e-11
5.2964523e-11
4.9923557e-11
5.8254185e-11
5.0598731e-11
6.3315059e-11
5.0863315e-11
6.8211272e-11
5.0622795e-11
7.2759129e-11
4.9932665e-11
7.6812813e-11
4.8783508e-11
8.043565e-11
4.7110632e-11
8.3664512e-11
4.4937551e-11
8.6427076e-11
4.2290003e-11
8.8652508e-11
3.9190988e-11
9.0485087e-11
3.5731014e-11
9.2034736e-11
3.1928781e-11
9.3253569e-11
2.7758987e-11
9.4166032e-11
2.3260492e-11
9.4793377e-11
1.8476469e-11
9.5060573e-11
1.3494703e-11
9.5188862e-11
8.1951274e-12
2.5693005e-12
1.4492586e-11
2.9456517e-11
1.8646531e-11
3.2911996e-11
2.3130913e-11
3.5779105e-11
2.7788212e-11
3.8359781e-11
3.264207e-11
4.0462207e-11
3.766915e-11
4.2216965e-11
4.2794802e-11
4.3665713e-11
4.795475e-11
4.4763602e-11
5.3056645e-11
4.549683e-11
5.8091678e-11
4.582828e-11
6.2928762e-11
4.578571e-11
6.7547172e-11
4.5314255e-11
7.1927815e-11
4.4402866e-11
7.6013753e-11
4.3024694e-11
7.9713917e-11
4.1237388e-11
8.3009853e-11
3.8994068e-11
8.586914e-11
3.6331702e-11
8.834908e-11
3.3251075e-11
9.048584e-11
2.9792021e-11
9.2270302e-11
2.5974524e-11
9.3709706e-11
2.1821087e-11
9.4826233e-11
1.7359939e-11
9.5732462e-11
1.2588471e-11
9.6219762e-11
7.7078251e-12
2.6831728e-12
1.2490114e-11
2.6059426e-11
1.6183517e-11
2.9218556e-11
2.0054893e-11
3.1907697e-11
2.4234743e-11
3.4179901e-11
2.8589107e-11
3.6107817e-11
3.309286e-11
3.771319e-11
3.7746688e-11
3.9011865e-11
4.2488906e-11
4.0021367e-11
4.725598e-11
4.0729743e-11
5.1972194e-11
4.1112054e-11
5.6620709e-11
4.1137186e-11
6.1145189e-11
4.0789768e-11
6.5482928e-11
4.0065121e-11
6.9572293e-11
3.8935324e-11
7.3404079e-11
3.7405598e-11
7.6932497e-11
3.5465647e-11
8.0077229e-11
3.3186966e-11
8.2893916e-11
3.0434385e-11
8.5340806e-11
2.7345129e-11
8.7410454e-11
2.3904873e-11
8.9097084e-11
2.0134453e-11
9.0400972e-11
1.6056047e-11
9.1291868e-11
1.169757e-11
9.1850885e-11
7.1488055e-12
2.4646063e-12
1.077171e-11
2.3091993e-11
1.4048443e-11
2.5941778e-11
1.7530013e-11
2.8426086e-11
2.1229925e-11
3.0479951e-11
2.5111541e-11
3.2226168e-11
2.9153306e-11
3.3671395e-11
3.3323165e-11
3.484198e-11
3.7600226e-11
3.5744283e-11
4.1952363e-11
3.6377586e-11
4.6338212e-11
3.6726187e-11
5.0708294e-11
3.6767089e-11
5.4999248e-11
3.6498801e-11
5.9165466e-11
3.5898891e-11
6.3164809e-11
3.4935972e-11
6.6939978e-11
3.3630421e-11
7.0454518e-11
3.19511e-11
7.3723569e-11
2.9917909e-11
7.6642006e-11
2.7515942e-11
7.9220012e-11
2.4767119e-11
8.1428186e-11
2.1696694e-11
8.3246345e-11
1.8316289e-11
8.4644265e-11
1.4658123e-11
8.5613291e-11
1.0728538e-11
8.6202801e-11
6.5592926e-12
2.1721283e-12
9.4161236e-12
2.0447098e-11
1.2327648e-11
2.3030204e-11
1.5486545e-11
2.5267144e-11
1.8808063e-11
2.7158392e-11
2.2308499e-11
2.8725694e-11
2.5963068e-11
3.0016792e-11
2.9733783e-11
3.1071234e-11
3.3610313e-11
3.1867726e-11
3.757663e-11
3.2411244e-11
4.1608743e-11
3.2694052e-11
4.5651885e-11
3.2723928e-11
4.966562e-11
3.248505e-11
5.3602541e-11
3.1961955e-11
5.7424023e-11
3.1114478e-11
6.108628e-11
2.9968154e-11
6.4536113e-11
2.8501259e-11
6.7744222e-11
2.6709792e-11
7.0652375e-11
2.4607782e-11
7.3255538e-11
2.216395e-11
7.5517274e-11
1.9434953e-11
7.7405166e-11
1.6428392e-11
7.8890688e-11
1.3172596e-11
7.9843216e-11
9.7760055e-12
8.0485862e-11
5.9166435e-12
1.7850844e-12
8.342212e-12
1.8091993e-11
1.0985514e-11
2.038685e-11
1.3805323e-11
2.2447286e-11
1.6801996e-11
2.4161674e-11
1.9969289e-11
2.555836e-11
2.3331551e-11
2.6654493e-11
2.6756539e-11
2.7646212e-11
3.030784e-11
2.8316394e-11
3.3947216e-11
2.8771841e-11
3.7638958e-11
2.9002286e-11
4.1360965e-11
2.90019e-11
4.5086615e-11
2.8759381e-11
4.8773207e-11
2.8275347e-11
5.2359944e-11
2.7527728e-11
5.5830986e-11
2.64971e-11
5.9133214e-11
2.519902e-11
6.2228469e-11
2.3614529e-11
6.5080244e-11
2.1756001e-11
6.7629366e-11
1.9614821e-11
6.9858516e-11
1.7205798e-11
7.1750028e-11
1.4536876e-11
7.33038e-11
1.161882e-11
7.4725199e-11
8.354603e-12
7.545466e-11
5.1871803e-12
1.9148359e-12
7.4847787e-12
1.5977316e-11
9.795506e-12
1.807607e-11
1.2354877e-11
1.9887867e-11
1.5098167e-11
2.1418338e-11
1.7982262e-11
2.2674223e-11
2.0954348e-11
2.3682368e-11
2.4113299e-11
2.4487227e-11
2.7390449e-11
2.5039213e-11
3.0731015e-11
2.5431247e-11
3.4119962e-11
2.5613315e-11
3.7552473e-11
2.5569368e-11
4.0977973e-11
2.5333861e-11
4.4376095e-11
2.487721e-11
4.7708963e-11
2.4194845e-11
5.0950749e-11
2.3255303e-11
5.4069295e-11
2.2080464e-11
5.6998461e-11
2.0685355e-11
5.9700065e-11
1.905439e-11
6.2124614e-11
1.7190268e-11
6.4242797e-11
1.5087611e-11
6.6025954e-11
1.2753715e-11
6.7443703e-11
1.0201069e-11
6.8331425e-11
7.4668779e-12
6.8952515e-11
4.5660906e-12
1.5424931e-12
6.6483472e-12
1.409127e-11
8.7503008e-12
1.5974064e-11
1.1058403e-11
1.7579716e-11
1.3542285e-11
1.8934412e-11
1.616409e-11
2.0052377e-11
1.8900842e-11
2.0945579e-11
2.175545e-11
2.1632585e-11
2.4694938e-11
2.2099693e-11
2.7719044e-11
2.2407114e-11
3.0806239e-11
2.2526094e-11
3.3975469e-11
2.2400117e-11
3.7094814e-11
2.2214498e-11
4.0205182e-11
2.1766825e-11
4.3274518e-11
2.1125496e-11
4.6277697e-11
2.0252112e-11
4.9173999e-11
1.9184153e-11
5.1871606e-11
1.7987741e-11
5.4361755e-11
1.6564235e-11
5.6601835e-11
1.4950184e-11
5.8565938e-11
1.3123504e-11
6.0225304e-11
1.1094346e-11
6.1539814e-11
8.8865566e-12
6.2468359e-11
6.5383318e-12
6.3057515e-11
3.9769348e-12
1.2701236e-12
5.885773e-12
1.2397101e-11
7.7983056e-12