/*--------------------------------*- C++ -*----------------------------------*\
| =========                 |                                                 |
| \\      /  F ield         | OpenFOAM: The Open Source CFD Toolbox           |
|  \\    /   O peration     | Version:  4.0                                   |
|   \\  /    A nd           | Web:      www.OpenFOAM.org                      |
|    \\/     M anipulation  |                                                 |
\*---------------------------------------------------------------------------*/
FoamFile
{
    version     2.0;
    format      ascii;
    class       volVectorField;
    location    "0.7";
    object      U;
}
// * * * * * * * * * * * * * * * * * * * * * * * * * * * * * * * * * * * * * //

dimensions      [0 1 -1 0 0 0 0];

internalField   nonuniform List<vector> 
1740
(
(1.4802108 0.001424266 4.2505706e-06)
(1.5073626 -0.016093074 7.0475009e-07)
(1.6191814 -0.0097441382 3.4010031e-08)
(1.5681867 -0.0046145148 7.8077761e-06)
(1.6136975 -0.034829031 1.5587569e-06)
(1.6234459 -0.024635095 3.1043798e-07)
(1.5539204 -0.0086357366 1.1279885e-05)
(1.6100105 -0.016755305 2.5682936e-06)
(1.504993 -0.00800058 4.4713838e-07)
(1.5478735 -0.0018981196 1.3612708e-05)
(1.5918692 0.015182957 3.4081248e-06)
(1.5996949 0.0090485662 5.4796851e-07)
(1.5544949 0.011339032 1.4732431e-05)
(1.592349 0.0066498286 4.3626417e-06)
(1.6129189 -0.0037112923 8.2476913e-07)
(1.4853329 0.01354209 1.5750816e-05)
(1.6188592 0.0085618769 4.7832111e-06)
(1.5190977 -0.006442717 9.6928697e-07)
(1.5114883 -0.0059068285 1.7053478e-05)
(1.6263677 0.011870492 6.2009542e-06)
(1.6136342 0.0048259649 1.1749564e-06)
(1.5020429 -0.020706307 1.8302225e-05)
(1.4976673 -0.0036214299 6.8386924e-06)
(1.5939328 0.0055914572 1.3661701e-06)
(1.5560509 -0.015394594 1.8542435e-05)
(1.5707983 -0.0071614274 7.353145e-06)
(1.561814 0.000399958 1.5555624e-06)
(1.6445423 -0.012613552 1.916511e-05)
(1.5379832 -0.010047196 8.1276228e-06)
(1.6490168 -0.0064684556 1.7759727e-06)
(1.6380597 -0.012535558 2.0037873e-05)
(1.5498242 -0.015486242 8.6229009e-06)
(1.5711471 -0.0093849214 1.9434669e-06)
(1.657817 0.012463466 1.9899029e-05)
(1.5696327 0.0035997696 9.0649511e-06)
(1.5164039 -0.0017492978 2.1458598e-06)
(1.5772577 0.024985033 1.9656059e-05)
(1.5828006 0.0077510039 9.4534673e-06)
(1.5888421 -0.0077930524 2.339253e-06)
(1.5835498 0.0056627042 2.013145e-05)
(1.5953255 -0.0035170336 1.012843e-05)
(1.5746343 -0.0076349623 2.5256461e-06)
(1.5990197 0.0078300318 2.0663084e-05)
(1.564655 0.014252047 1.0467465e-05)
(1.5212852 0.0052322288 2.732786e-06)
(1.4980811 0.0036928286 2.0894021e-05)
(1.6735866 0.020776237 1.1010249e-05)
(1.6359137 0.012394227 2.8777979e-06)
(1.5094533 -0.0037628101 2.1330069e-05)
(1.5796099 -0.0046840513 1.1492379e-05)
(1.581672 -0.00094419503 3.0792906e-06)
(1.4970998 0.0022385161 2.1461277e-05)
(1.5833298 -0.025214482 1.1796833e-05)
(1.5690223 -0.019432944 3.2758387e-06)
(1.5475426 -0.011211302 2.1597906e-05)
(1.6771042 -0.038385192 1.2234613e-05)
(1.5484144 -0.022824953 3.4483384e-06)
(1.6176676 -0.025995923 2.1977518e-05)
(1.6928862 -0.011417732 1.24817e-05)
(1.4838743 -0.002233605 3.6345377e-06)
(1.6504783 -0.02948692 2.2143559e-05)
(1.6162133 0.011142292 1.2928539e-05)
(1.5303951 0.020679078 3.8255316e-06)
(1.746044 -0.0047505043 2.1976656e-05)
(1.5466977 0.022089193 1.3167856e-05)
(1.555758 0.020267844 3.9084274e-06)
(1.6514648 0.025593983 2.213174e-05)
(1.5560887 0.025943491 1.349206e-05)
(1.5921126 0.008737783 4.1277357e-06)
(1.5382288 0.016860189 2.2287975e-05)
(1.5332835 0.011262785 1.3806596e-05)
(1.5561369 0.0049113143 4.2670267e-06)
(1.5491109 0.012484222 2.2095367e-05)
(1.5162721 0.0078499841 1.3989863e-05)
(1.5709295 0.0017386808 4.4227231e-06)
(1.5097801 0.0098036937 2.2109913e-05)
(1.5832575 -0.0094093579 1.4296331e-05)
(1.6434048 -0.0067007531 4.5701295e-06)
(1.521001 -0.0050134143 2.2156484e-05)
(1.6149314 -0.0059661937 1.4523912e-05)
(1.5402639 -0.0047013359 4.709032e-06)
(1.5027651 -0.0042182789 2.2726435e-05)
(1.5077734 -0.0011927592 1.4865125e-05)
(1.5451472 0.0014051744 4.8423882e-06)
(1.376 0.00059901931 2.2281218e-05)
(1.4998355 -0.0097079779 1.4959188e-05)
(1.5288711 -0.011544778 4.8499777e-06)
(1.2706399 0.029712836 2.3264929e-05)
(1.3678794 0.091181264 1.5536916e-05)
(1.3686177 0.057494993 5.5383281e-06)
(0.83615257 0.36520667 1.1632388e-05)
(0.82078383 0.93387217 9.8440192e-06)
(0.76495538 1.2638774 5.3822249e-06)
(0.22789877 0.10929292 1.4540245e-06)
(0.20271828 0.36546836 3.0409556e-06)
(0.096896118 0.50409327 6.7575903e-07)
(-0.020296925 -0.012982329 1.227772e-06)
(-0.017174739 -0.025341862 1.6651015e-06)
(-0.012921713 -0.028455237 5.5450974e-07)
(0.0001296428 -0.0021563281 4.4973716e-07)
(-9.183091e-05 -0.0056047896 7.1895215e-07)
(-0.0013402542 -0.0076316172 3.0858052e-07)
(0.0044356771 0.00040340012 1.1145962e-07)
(0.0038816986 0.00073936287 2.2514261e-07)
(0.0024910363 0.00071981503 8.1963649e-08)
(0.0032957832 0.00037049563 1.7927626e-08)
(0.0030127449 0.00080946505 3.7856837e-08)
(0.0023713263 0.0010228829 -3.2185688e-08)
(0.0023983307 0.00023843947 -1.0494124e-08)
(0.0022299604 0.0005226524 -2.8218319e-08)
(0.0018817142 0.00075337509 -7.6335544e-08)
(0.0017647237 0.00018251915 -1.9034285e-08)
(0.0016620663 0.00040321874 -4.8183119e-08)
(0.0014642476 0.00059427501 -8.6756096e-08)
(0.0013080757 0.00012508448 -1.879329e-08)
(0.0012425301 0.00029066055 -4.8687996e-08)
(0.0011286789 0.00044071475 -8.0971512e-08)
(0.00099912411 8.0925218e-05 -1.5624287e-08)
(0.00095847328 0.00018564474 -4.2006048e-08)
(0.00087808028 0.00028170807 -6.8944355e-08)
(0.00079413299 4.9314537e-05 -1.2162355e-08)
(0.00076781297 0.00011275933 -3.3931108e-08)
(0.0007134241 0.00017253258 -5.6032436e-08)
(0.00065875343 3.2815761e-05 -9.4085772e-09)
(0.00064232876 7.5327781e-05 -2.6837179e-08)
(0.00060577978 0.00011747146 -4.4594848e-08)
(0.00056056999 2.5957137e-05 -7.4324011e-09)
(0.00055020295 5.9920732e-05 -2.117838e-08)
(0.00052489562 9.4993806e-05 -3.5177507e-08)
(0.00048180124 2.3019819e-05 -5.9389761e-09)
(0.00047446892 5.304639e-05 -1.6700954e-08)
(0.00045536783 8.2951151e-05 -2.756809e-08)
(0.00041520509 1.9737663e-05 -4.7111938e-09)
(0.00040972623 4.6788161e-05 -1.3062065e-08)
(0.00039504301 7.3296996e-05 -2.1393665e-08)
(0.00035847806 1.7047962e-05 -3.6639894e-09)
(0.00035466922 4.0416002e-05 -1.0053589e-08)
(0.00034365892 6.39151e-05 -1.6368307e-08)
(0.00031087316 1.4410177e-05 -2.7771119e-09)
(0.00030805587 3.4338247e-05 -7.5802738e-09)
(0.0002997795 5.4511941e-05 -1.229749e-08)
(0.00027076116 1.2115909e-05 -2.0503673e-09)
(0.00026870157 2.8885343e-05 -5.5877872e-09)
(0.00026224981 4.6007659e-05 -9.0544125e-09)
(0.00023663793 1.0266473e-05 -1.481778e-09)
(0.00023509879 2.444123e-05 -4.0317485e-09)
(0.00022998709 3.8999967e-05 -6.5310504e-09)
(0.00020730553 8.8685256e-06 -1.057777e-09)
(0.00020613718 2.1161166e-05 -2.8576863e-09)
(0.00020203841 3.3711654e-05 -4.6199564e-09)
(0.00018184348 7.7615188e-06 -7.473555e-10)
(0.00018094844 1.8556803e-05 -1.993221e-09)
(0.00017763104 2.9648116e-05 -3.2089801e-09)
(0.00015957252 6.8121109e-06 -5.2124426e-10)
(0.0001588763 1.6297424e-05 -1.3690053e-09)
(0.00015616402 2.6171576e-05 -2.1904844e-09)
(0.00014000219 6.009528e-06 -3.6166405e-10)
(0.0001394405 1.439771e-05 -9.2859982e-10)
(0.00013720441 2.31515e-05 -1.471351e-09)
(0.00012282461 5.2931313e-06 -2.5058323e-10)
(0.00012237485 1.2744584e-05 -6.2343046e-10)
(0.00012044144 2.0609395e-05 -9.7397778e-10)
(0.00010756826 4.7144985e-06 -1.7485418e-10)
(0.00010721383 1.1209822e-05 -4.1565687e-10)
(0.00010560144 1.7871072e-05 -6.36404e-10)
(9.4046941e-05 4.0733998e-06 -1.2312623e-10)
(9.3758835e-05 9.7667883e-06 -2.7660108e-10)
(9.2464382e-05 1.5704565e-05 -4.1177771e-10)
(8.2240291e-05 3.5713031e-06 -8.9195566e-11)
(8.2003941e-05 8.5834564e-06 -1.8538698e-10)
(8.0878706e-05 1.3844714e-05 -2.6504998e-10)
(7.1864021e-05 3.1512841e-06 -6.8050828e-11)
(7.166497e-05 7.5790203e-06 -1.2713449e-10)
(7.0695732e-05 1.2223103e-05 -1.7138629e-10)
(6.2768364e-05 2.7693408e-06 -5.4626747e-11)
(6.2599981e-05 6.6711753e-06 -9.0422795e-11)
(6.1766597e-05 1.0757231e-05 -1.1272153e-10)
(5.482137e-05 2.4132917e-06 -4.58241e-11)
(5.4678527e-05 5.8215833e-06 -6.7225491e-11)
(5.3961056e-05 9.3889042e-06 -7.6402772e-11)
(4.7905374e-05 2.0879716e-06 -4.0196567e-11)
(4.7783746e-05 5.040731e-06 -5.2607404e-11)
(4.7164845e-05 8.1231053e-06 -5.4108372e-11)
(4.1913861e-05 1.800614e-06 -3.6873625e-11)
(4.1809921e-05 4.3557765e-06 -4.360231e-11)
(4.1274974e-05 7.021525e-06 -4.0751909e-11)
(3.6749227e-05 1.5446843e-06 -3.4922624e-11)
(3.6660181e-05 3.7459345e-06 -3.8006587e-11)
(3.6196844e-05 6.0382702e-06 -3.281566e-11)
(3.232144e-05 1.3193508e-06 -3.4002894e-11)
(3.2245036e-05 3.2061217e-06 -3.455535e-11)
(3.1842813e-05 5.1614651e-06 -2.8127505e-11)
(2.8547219e-05 1.117301e-06 -3.3195788e-11)
(2.8481587e-05 2.7214975e-06 -3.218708e-11)
(2.8131486e-05 4.3817859e-06 -2.5414742e-11)
(2.5349706e-05 9.4010161e-07 -3.2699933e-11)
(2.529329e-05 2.2950001e-06 -3.0654583e-11)
(2.4987495e-05 3.6921594e-06 -2.3862818e-11)
(2.265781e-05 7.8497325e-07 -3.2410458e-11)
(2.260935e-05 1.9225489e-06 -2.956883e-11)
(2.2341145e-05 3.0922805e-06 -2.2938526e-11)
(2.0405971e-05 6.5031717e-07 -3.2219927e-11)
(2.0364435e-05 1.5990566e-06 -2.8740942e-11)
(2.0128193e-05 2.5706672e-06 -2.2367747e-11)
(1.8535733e-05 5.3507303e-07 -3.2102861e-11)
(1.8500204e-05 1.3197273e-06 -2.8131482e-11)
(1.8291001e-05 2.1195511e-06 -2.2055601e-11)
(1.699595e-05 4.364634e-07 -3.2045091e-11)
(1.6965221e-05 1.0829832e-06 -2.7706e-11)
(1.6778722e-05 1.7370747e-06 -2.1932921e-11)
(1.5738765e-05 3.5223615e-07 -3.204846e-11)
(1.5711993e-05 8.793196e-07 -2.7412225e-11)
(1.5544603e-05 1.4090212e-06 -2.1922351e-11)
(1.4718377e-05 2.8194046e-07 -3.2109286e-11)
(1.469584e-05 7.0885602e-07 -2.7222624e-11)
(1.4544904e-05 1.1345158e-06 -2.198622e-11)
(1.3887879e-05 2.2489262e-07 -3.2152531e-11)
(1.3868569e-05 5.6848226e-07 -2.7075322e-11)
(1.3730425e-05 9.0774693e-07 -2.2084861e-11)
(1.3218101e-05 1.7907296e-07 -3.2259115e-11)
(1.3199878e-05 4.5241931e-07 -2.7022868e-11)
(1.3070443e-05 7.1808896e-07 -2.2210674e-11)
(1.2711148e-05 1.2947224e-07 -3.2373874e-11)
(1.2695211e-05 3.3921854e-07 -2.7022873e-11)
(1.2574516e-05 5.4805367e-07 -2.2324701e-11)
(1.2345393e-05 1.0021e-07 -3.2527248e-11)
(1.233299e-05 2.6370486e-07 -2.7056784e-11)
(1.222102e-05 4.2538503e-07 -2.2364863e-11)
(1.2067844e-05 7.6664976e-08 -3.2674379e-11)
(1.2056904e-05 2.0265987e-07 -2.69813e-11)
(1.1950002e-05 3.2673061e-07 -2.211544e-11)
(1.1842676e-05 5.7057907e-08 -3.2673497e-11)
(1.1832032e-05 1.5137445e-07 -2.639117e-11)
(1.1727982e-05 2.437427e-07 -2.1090866e-11)
(1.1676389e-05 4.1780383e-08 -3.2116698e-11)
(1.1666228e-05 1.0736893e-07 -2.4304078e-11)
(1.1564532e-05 1.6886323e-07 -1.8381794e-11)
(1.1471271e-05 2.2114961e-08 -2.8873121e-11)
(1.1461003e-05 5.529139e-08 -1.8133806e-11)
(1.136134e-05 8.5563906e-08 -1.2307869e-11)
(-0.044270272 1.9594185 -3.7502578e-07)
(-0.032207994 1.6985415 -3.4529039e-06)
(-0.057415478 0.34712582 -2.7556528e-07)
(-0.041009141 0.15712825 -1.0290717e-06)
(-0.011396787 -0.036123152 -2.2937721e-07)
(-0.0093234526 -0.03934605 -6.5384383e-07)
(-0.0021291067 -0.010219409 -1.3621278e-07)
(-0.0028483579 -0.012045583 -4.3600501e-07)
(0.0014319298 -6.9821724e-05 -1.3803959e-07)
(0.00065732309 -0.0011741615 -3.2446485e-07)
(0.0017837426 0.00095574191 -1.4840412e-07)
(0.0013477041 0.00076098791 -2.6213445e-07)
(0.001554824 0.00091330899 -1.4661014e-07)
(0.0012883898 0.00097275672 -2.1909901e-07)
(0.0012669892 0.00076607161 -1.3453561e-07)
(0.0010951905 0.00088734852 -1.8381859e-07)
(0.0010012993 0.00054837824 -1.1643759e-07)
(0.00088520001 0.00063820541 -1.5205129e-07)
(0.00079115763 0.00035428022 -9.65859e-08)
(0.00071202958 0.00040856563 -1.2353842e-07)
(0.00064950639 0.00022624979 -7.797242e-08)
(0.00059177989 0.00025689558 -9.8920551e-08)
(0.0005604024 0.00015516603 -6.1966761e-08)
(0.00051315452 0.00017939724 -7.837237e-08)
(0.00049061011 0.00012428255 -4.879407e-08)
(0.00045169283 0.00014525112 -6.1591361e-08)
(0.00042842675 0.00010946475 -3.8109027e-08)
(0.00039871278 0.00013010686 -4.8003214e-08)
(0.000374869 9.7146965e-05 -2.9454752e-08)
(0.00035226119 0.00011801383 -3.7022337e-08)
(0.00032832137 8.5394786e-05 -2.2457386e-08)
(0.00031092427 0.00010423538 -2.817328e-08)
(0.00028804194 7.3328e-05 -1.6836316e-08)
(0.00027424235 8.9879187e-05 -2.1095347e-08)
(0.00025304027 6.2061295e-05 -1.2384871e-08)
(0.00024202122 7.666505e-05 -1.5509447e-08)
(0.00022264037 5.2810311e-05 -8.9316358e-09)
(0.00021373402 6.5619122e-05 -1.1183645e-08)
(0.00019609838 4.5693801e-05 -6.3156874e-09)
(0.00018881643 5.6822715e-05 -7.906911e-09)
(0.00017277749 4.028631e-05 -4.3814799e-09)
(0.00016676145 5.0195386e-05 -5.4826689e-09)
(0.00015215809 3.5810374e-05 -2.9839421e-09)
(0.00014714374 4.4946116e-05 -3.7301428e-09)
(0.00013385676 3.186154e-05 -1.996438e-09)
(0.00012965129 3.9965449e-05 -2.4911158e-09)
(0.0001176244 2.8041522e-05 -1.3136047e-09)
(0.00011405714 3.5042469e-05 -1.6342208e-09)
(0.00010325614 2.4422328e-05 -8.510048e-10)
(0.00010027804 3.0847731e-05 -1.0540904e-09)
(9.048421e-05 2.1608908e-05 -5.4375609e-10)
(8.7955375e-05 2.724837e-05 -6.6906109e-10)
(7.916761e-05 1.907084e-05 -3.4347271e-10)
(7.6951147e-05 2.4094271e-05 -4.1844558e-10)
(6.9229076e-05 1.6823631e-05 -2.1566611e-10)
(6.7335152e-05 2.1250373e-05 -2.5860249e-10)
(6.0506671e-05 1.4792918e-05 -1.3574678e-10)
(5.8876867e-05 1.8678178e-05 -1.5871065e-10)
(5.287585e-05 1.2917862e-05 -8.6617381e-11)
(5.1468823e-05 1.6323367e-05 -9.7453046e-11)
(4.6228108e-05 1.1188832e-05 -5.6832039e-11)
(4.5011067e-05 1.4158799e-05 -6.0534638e-11)
(4.0464947e-05 9.6722498e-06 -3.9170002e-11)
(3.941064e-05 1.2241376e-05 -3.8766199e-11)
(3.5495132e-05 8.3139736e-06 -2.8914637e-11)
(3.4580382e-05 1.0516323e-05 -2.6255919e-11)
(3.12337e-05 7.1035727e-06 -2.3121914e-11)
(3.0438563e-05 8.979696e-06 -1.9328687e-11)
(2.7601447e-05 6.0335047e-06 -1.9992674e-11)
(2.6908693e-05 7.6233572e-06 -1.5684457e-11)
(2.4524815e-05 5.0828161e-06 -1.8330793e-11)
(2.3919473e-05 6.4311181e-06 -1.3887609e-11)
(2.19357e-05 4.2564249e-06 -1.7506254e-11)
(2.140477e-05 5.3843864e-06 -1.309852e-11)
(1.9771356e-05 3.5380651e-06 -1.714401e-11)
(1.9303642e-05 4.4725523e-06 -1.2863805e-11)
(1.7975288e-05 2.9171026e-06 -1.7073917e-11)
(1.7560999e-05 3.6866538e-06 -1.2960118e-11)
(1.6497399e-05 2.3877083e-06 -1.71933e-11)
(1.6127831e-05 3.0153083e-06 -1.3252466e-11)
(1.5291992e-05 1.9355137e-06 -1.741766e-11)
(1.4959762e-05 2.4424069e-06 -1.3645424e-11)
(1.4316669e-05 1.5568955e-06 -1.7695257e-11)
(1.4015691e-05 1.9625364e-06 -1.4076866e-11)
(1.3521838e-05 1.2435391e-06 -1.7980824e-11)
(1.3246679e-05 1.5666153e-06 -1.4496211e-11)
(1.2876791e-05 9.7957999e-07 -1.8229808e-11)
(1.262274e-05 1.231325e-06 -1.4826869e-11)
(1.2394101e-05 7.5809943e-07 -1.8409183e-11)
(1.2157279e-05 9.5939564e-07 -1.5050527e-11)
(1.2052064e-05 5.875338e-07 -1.8435702e-11)
(1.1828498e-05 7.4350279e-07 -1.5082619e-11)
(1.1788505e-05 4.5059144e-07 -1.8078682e-11)
(1.1574436e-05 5.6977838e-07 -1.4707947e-11)
(1.1571446e-05 3.3601833e-07 -1.6896196e-11)
(1.1364407e-05 4.2474396e-07 -1.3561393e-11)
(1.1411686e-05 2.3139483e-07 -1.4199026e-11)
(1.1209612e-05 2.9184435e-07 -1.1142165e-11)
(1.1211657e-05 1.1618956e-07 -8.9780926e-12)
(1.1013792e-05 1.458874e-07 -6.8207558e-12)
(-0.0066483794 7.6162899e-05 -1.2095639e-07)
(-0.0065505244 0.00014497657 -2.87029e-07)
(-0.0063431962 0.00024072339 -4.06562e-07)
(-0.0060778086 0.00027157288 -4.8251776e-07)
(-0.0057702993 0.00029088541 -5.2418312e-07)
(-0.0054367579 0.00027167939 -5.4210694e-07)
(-0.0050829534 0.00023257494 -5.4417487e-07)
(-0.0047145674 0.00016809506 -5.3589257e-07)
(-0.0043384061 8.2819599e-05 -5.2110425e-07)
(-0.0039625034 -1.6574061e-05 -5.0248189e-07)
(-0.0035937578 -0.00012526614 -4.8189046e-07)
(-0.003237405 -0.00023591453 -4.6047362e-07)
(-0.0028968408 -0.00034181924 -4.3880315e-07)
(-0.0025741344 -0.00043949695 -4.1701493e-07)
(-0.0022703053 -0.00052800971 -3.9498704e-07)
(-0.0019853963 -0.00060725918 -3.7244884e-07)
(-0.0017188635 -0.00067852496 -3.4900133e-07)
(-0.0014694374 -0.00074038814 -3.2406427e-07)
(-0.0012354988 -0.00079007925 -2.9699717e-07)
(-0.0010156672 -0.00082857696 -2.6705507e-07)
(-0.00080860931 -0.00085477226 -2.3343209e-07)
(-0.00061289876 -0.00086856046 -1.9492241e-07)
(-0.0004270898 -0.00087121526 -1.5047646e-07)
(-0.00025011318 -0.00086697765 -9.9444173e-08)
(-8.077968e-05 -0.00082141583 -4.1148535e-08)
(-3.6616557e-06 -3.1004419e-05 -1.3684409e-07)
(2.1093686e-05 -0.00026994223 -3.2046642e-07)
(6.0965691e-05 -0.00038674492 -4.4572361e-07)
(0.00011284173 -0.00063357609 -5.186885e-07)
(0.0001754566 -0.00085588014 -5.5391411e-07)
(0.00024744484 -0.0011318368 -5.6545062e-07)
(0.000318632 -0.0014213533 -5.6218757e-07)
(0.00037870113 -0.001749312 -5.4983567e-07)
(0.00041847084 -0.0021064711 -5.3202246e-07)
(0.00043910181 -0.0024612496 -5.1112646e-07)
(0.00044351146 -0.0028051599 -4.8896304e-07)
(0.00043448495 -0.0031335117 -4.6653677e-07)
(0.00041571135 -0.0034427715 -4.4429212e-07)
(0.00039093041 -0.0037302863 -4.2220642e-07)
(0.00036221098 -0.0039930205 -4.0006903e-07)
(0.00033070272 -0.0042316431 -3.775776e-07)
(0.00029737881 -0.0044568805 -3.5438766e-07)
(0.00026223807 -0.0046613502 -3.2977979e-07)
(0.00022563533 -0.00482233 -3.0315729e-07)
(0.00018820299 -0.0049332504 -2.7369837e-07)
(0.00015068817 -0.0049918276 -2.4094662e-07)
(0.00011385696 -0.0050006708 -2.0294364e-07)
(7.8179486e-05 -0.0049634952 -1.5829843e-07)
(4.3978194e-05 -0.0048656555 -1.0526561e-07)
(1.215906e-05 -0.0046443279 -4.5440795e-08)
(0.00060672221 -0.00019500036 -1.7501533e-07)
(0.00067008301 -0.0012063716 -3.9532361e-07)
(0.00078447581 -0.0016130143 -5.2811778e-07)
(0.00093588685 -0.0024400331 -5.9038216e-07)
(0.0010870005 -0.0031572631 -6.1108591e-07)
(0.0012079034 -0.003951 -6.0965205e-07)
(0.0012826241 -0.0047643941 -5.9594311e-07)
(0.0013099088 -0.0057420947 -5.7602817e-07)
(0.0012999219 -0.0068409382 -5.527746e-07)
(0.0012615464 -0.0078531961 -5.2765116e-07)
(0.0012021355 -0.0087368975 -5.0268742e-07)
(0.0011297022 -0.0094880202 -4.7853427e-07)
(0.0010491008 -0.010105742 -4.5544978e-07)
(0.00096215989 -0.010599426 -4.3302922e-07)
(0.00087142433 -0.010976004 -4.1088884e-07)
(0.00077907089 -0.01123665 -3.8865229e-07)
(0.00068676911 -0.011373529 -3.6639496e-07)
(0.00059576023 -0.011406061 -3.4269711e-07)
(0.0005063254 -0.011363951 -3.1741171e-07)
(0.00041899232 -0.01126257 -2.8973677e-07)
(0.00033438283 -0.011111829 -2.5872257e-07)
(0.0002531254 -0.010920823 -2.2281156e-07)
(0.00017517826 -0.010696727 -1.7986111e-07)
(0.00010074171 -0.01041019 -1.2620259e-07)
(3.1015463e-05 -0.010014273 -6.1830056e-08)
(0.0027526665 -0.00085374218 -2.5742795e-07)
(0.0029074275 -0.0042162213 -5.3441711e-07)
(0.0030828584 -0.0053834344 -6.6382553e-07)
(0.0031252792 -0.0085790095 -6.9901524e-07)
(0.0030795523 -0.011515862 -6.9409402e-07)
(0.002938963 -0.01416138 -6.7248431e-07)
(0.002739219 -0.016060592 -6.4337642e-07)
(0.0025053465 -0.017088619 -6.1391922e-07)
(0.0022644206 -0.017423805 -5.8450213e-07)
(0.0020252098 -0.017326834 -5.5354005e-07)
(0.0017977077 -0.016907251 -5.251125e-07)
(0.001586928 -0.016288528 -4.9880104e-07)
(0.0013918204 -0.015491401 -4.7506126e-07)
(0.0011991964 -0.014569122 -4.5252878e-07)
(0.0010242714 -0.013573346 -4.3065456e-07)
(0.00086811454 -0.012550236 -4.0915991e-07)
(0.00072970724 -0.011539061 -3.8770139e-07)
(0.00060760545 -0.010573815 -3.6572569e-07)
(0.00050025344 -0.009678554 -3.4270284e-07)
(0.00040542674 -0.008873922 -3.1794143e-07)
(0.00032066585 -0.0081720698 -2.9054809e-07)
(0.00024324867 -0.0075779092 -2.5922216e-07)
(0.00017141039 -0.0070929926 -2.2202101e-07)
(0.0001035244 -0.0066757689 -1.757016e-07)
(3.8078197e-05 -0.0063741788 -1.1007791e-07)
(0.01003695 -0.0083071167 -4.4539343e-07)
(0.0082226498 -0.024818821 -7.6960763e-07)
(0.0074336486 -0.027314628 -8.5885553e-07)
(0.0059689492 -0.03174186 -8.4819255e-07)
(0.0047148876 -0.02936085 -8.0975925e-07)
(0.0035730419 -0.025708534 -7.6215126e-07)
(0.0025955865 -0.021091816 -7.1472762e-07)
(0.0018045172 -0.016194145 -6.7045062e-07)
(0.0011782982 -0.011285545 -6.3082536e-07)
(0.00068974362 -0.0067258243 -5.9437387e-07)
(0.00031354724 -0.0025923027 -5.6152072e-07)
(3.1107919e-05 0.00095592846 -5.30982e-07)
(-0.00017415152 0.0042465679 -5.0640063e-07)
(-0.00030727205 0.0073855851 -4.8313658e-07)
(-0.00039286801 0.010281887 -4.607119e-07)
(-0.0004382061 0.012797878 -4.3927057e-07)
(-0.00045147836 0.014899559 -4.1846565e-07)
(-0.00043929975 0.016604326 -3.978433e-07)
(-0.00040700488 0.017940322 -3.7690466e-07)
(-0.00035930128 0.018937038 -3.5508294e-07)
(-0.00030045848 0.019618832 -3.3167584e-07)
(-0.0002345495 0.020011687 -3.0570383e-07)
(-0.00016421096 0.020114778 -2.7560283e-07)
(-9.2514839e-05 0.019985862 -2.4609677e-07)
(-2.0683506e-05 0.019286147 -2.1669458e-07)
(0.01189002 0.024115605 -8.0408723e-07)
(0.0024557269 -0.00031410184 -1.1382446e-06)
(0.00034941219 0.049075819 -1.1417392e-06)
(-0.0012374699 0.051503914 -1.0690345e-06)
(-0.0027236061 0.065607622 -9.9190519e-07)
(-0.0038613807 0.075793006 -9.0575065e-07)
(-0.0044954794 0.082898204 -8.2869491e-07)
(-0.0046839038 0.088859801 -7.6196135e-07)
(-0.0045970595 0.093267704 -7.0409276e-07)
(-0.0043730082 0.096007678 -6.5469764e-07)
(-0.0040828981 0.097563558 -6.1313833e-07)
(-0.0037387583 0.09804873 -5.7002168e-07)
(-0.0033915761 0.097794822 -5.4549662e-07)
(-0.0030520492 0.096512766 -5.1910519e-07)
(-0.0027102452 0.094359355 -4.9294419e-07)
(-0.0023765778 0.091936819 -4.6955763e-07)
(-0.0020613691 0.089309319 -4.4785819e-07)
(-0.0017654682 0.086561938 -4.2720592e-07)
(-0.0014881507 0.083771959 -4.070631e-07)
(-0.0012275997 0.08099769 -3.8690369e-07)
(-0.00098142398 0.078276119 -3.6615927e-07)
(-0.00074702392 0.075649803 -3.4414122e-07)
(-0.00052214538 0.073091366 -3.2014294e-07)
(-0.00030519943 0.070788618 -2.9510664e-07)
(-9.1295216e-05 0.06730564 -2.7047583e-07)
(-0.0034404125 1.1751125 -2.5323697e-06)
(-0.0016809365 0.96170927 -2.0204492e-06)
(-0.0015142528 0.86548296 -1.6423929e-06)
(-0.00098933889 0.77319913 -1.3496661e-06)
(-0.00076609145 0.6774564 -1.1284408e-06)
(-0.00061182602 0.58627195 -9.6630696e-07)
(-0.00048787641 0.50800612 -8.4809694e-07)
(-0.00039119734 0.44437712 -7.620031e-07)
(-0.00031436073 0.39186556 -6.93267e-07)
(-0.00025258506 0.34703021 -6.4082264e-07)
(-0.0001976536 0.30833209 -6.00602e-07)
(-0.00015107107 0.27502502 -5.6586023e-07)
(-0.00011241228 0.24653881 -5.3725701e-07)
(-9.0928236e-05 0.22214909 -5.122795e-07)
(-7.2315571e-05 0.20119798 -4.8957642e-07)
(-5.7843222e-05 0.18320591 -4.6859388e-07)
(-4.6355729e-05 0.16774431 -4.4883155e-07)
(-3.7231631e-05 0.15445128 -4.2988989e-07)
(-2.9859383e-05 0.14302481 -4.1140612e-07)
(-2.3803692e-05 0.13321604 -3.9300022e-07)
(-1.8624451e-05 0.12480913 -3.7424148e-07)
(-1.3882722e-05 0.11766236 -3.5455484e-07)
(-9.3907458e-06 0.11153436 -3.335807e-07)
(-5.1924326e-06 0.10670787 -3.1106366e-07)
(-1.2542206e-06 0.10069222 -2.8651332e-07)
(-0.012740293 0.094214839 -1.2430498e-06)
(-0.0027828037 0.10037283 -1.2830011e-06)
(-0.00039567041 0.10532611 -1.2373029e-06)
(0.0013712008 0.1065036 -1.1458852e-06)
(0.002931998 0.10832094 -1.042389e-06)
(0.0040935312 0.10985913 -9.4214057e-07)
(0.0047303726 0.11141369 -8.5280757e-07)
(0.0049096653 0.11288137 -7.7627476e-07)
(0.0048080706 0.11364954 -6.959675e-07)
(0.0045462164 0.11368859 -6.5150307e-07)
(0.0042385882 0.11297851 -6.1162138e-07)
(0.0039084399 0.11131037 -5.6931684e-07)
(0.0035403967 0.10879241 -5.33994e-07)
(0.0031697716 0.10577341 -5.0380601e-07)
(0.0028093955 0.1024993 -4.7734369e-07)
(0.002464574 0.099095285 -4.5367039e-07)
(0.0021376699 0.095645739 -4.3206722e-07)
(0.0018297951 0.092219351 -4.1192082e-07)
(0.0015408225 0.088867517 -3.9266659e-07)
(0.0012693619 0.085628314 -3.7374265e-07)
(0.0010134382 0.082523577 -3.5451736e-07)
(0.00077085444 0.079583002 -3.3417435e-07)
(0.00053902597 0.076769383 -3.1301771e-07)
(0.00031578074 0.074274585 -2.8979143e-07)
(9.531794e-05 0.070578457 -2.662969e-07)
(-0.0082235344 -0.038098068 -8.7693755e-07)
(-0.0073941119 -0.036746795 -9.4208462e-07)
(-0.0062476656 -0.035669276 -9.2900395e-07)
(-0.0049690007 -0.032682505 -8.8248576e-07)
(-0.003728732 -0.028065043 -8.2380065e-07)
(-0.0026294292 -0.022664277 -7.6225401e-07)
(-0.0017191237 -0.017012194 -7.0504892e-07)
(-0.0010015138 -0.011473889 -6.5287558e-07)
(-0.00045226819 -0.006493062 -6.0434877e-07)
(-4.0068111e-05 -0.0020808231 -5.6795232e-07)
(0.00025931449 0.0017213011 -5.3468838e-07)
(0.00046841322 0.0054421185 -5.0372559e-07)
(0.00060449246 0.008990185 -4.7592578e-07)
(0.00068419357 0.012170296 -4.5095948e-07)
(0.00071913497 0.014909485 -4.2825507e-07)
(0.0007189805 0.01720435 -4.0728755e-07)
(0.00069172779 0.019089407 -3.8761095e-07)
(0.00064352957 0.020606241 -3.6871677e-07)
(0.00057874502 0.021775836 -3.5007228e-07)
(0.00050125241 0.022619426 -3.3106287e-07)
(0.00041438139 0.023158163 -3.1083865e-07)
(0.0003211871 0.023413113 -2.8796908e-07)
(0.00022428046 0.023393982 -2.6521492e-07)
(0.00012700542 0.02314516 -2.3764863e-07)
(3.1191994e-05 0.022294597 -2.104844e-07)
(-0.0032648976 -0.013914329 -6.1056609e-07)
(-0.0035550294 -0.016715318 -6.872911e-07)
(-0.0036455063 -0.019830272 -7.0255984e-07)
(-0.003548482 -0.022133028 -6.8580507e-07)
(-0.0033137794 -0.023616915 -6.5613216e-07)
(-0.0030109418 -0.024194935 -6.2325051e-07)
(-0.0026983547 -0.024058183 -5.8360427e-07)
(-0.002390703 -0.023448622 -5.4644952e-07)
(-0.0020998593 -0.022543776 -5.1260536e-07)
(-0.0018344117 -0.021420758 -4.836465e-07)
(-0.0015921027 -0.020168456 -4.5731678e-07)
(-0.0013670148 -0.018774129 -4.3301914e-07)
(-0.0011632422 -0.017310199 -4.1071321e-07)
(-0.00098366102 -0.015830743 -3.9021165e-07)
(-0.00082678381 -0.014373173 -3.7097785e-07)
(-0.00069029787 -0.012970279 -3.525881e-07)
(-0.00057184419 -0.011660437 -3.3488402e-07)
(-0.00046923558 -0.01047585 -3.1727467e-07)
(-0.00038084785 -0.0094224926 -2.9919637e-07)
(-0.00030466628 -0.0085020532 -2.799693e-07)
(-0.00023861218 -0.0077150474 -2.5866113e-07)
(-0.00018053139 -0.0070610445 -2.3399908e-07)
(-0.00012831554 -0.0065366297 -2.0467023e-07)
(-7.9591685e-05 -0.0061011679 -1.6501004e-07)
(-3.1488947e-05 -0.0058055553 -1.056532e-07)
(8.2266809e-05 -0.0023398949 -4.5198206e-07)
(-0.00041394879 -0.0034598417 -5.2315562e-07)
(-0.00082282345 -0.0046158877 -5.5146881e-07)
(-0.0011176879 -0.0057135882 -5.5288846e-07)
(-0.0013234649 -0.006802218 -5.3931238e-07)
(-0.0014332777 -0.008040385 -5.1795712e-07)
(-0.0014654752 -0.0093392958 -4.9163956e-07)
(-0.0014427686 -0.010453287 -4.648457e-07)
(-0.0013860181 -0.011382668 -4.3943966e-07)
(-0.001310068 -0.012131258 -4.1616745e-07)
(-0.0012208908 -0.012722419 -3.9460816e-07)
(-0.0011263223 -0.013161998 -3.7447608e-07)
(-0.0010292388 -0.013458768 -3.5561709e-07)
(-0.00093175506 -0.013599099 -3.3820824e-07)
(-0.00083539634 -0.013612886 -3.2132055e-07)
(-0.00074119903 -0.013540558 -3.0503061e-07)
(-0.00065041081 -0.013406607 -2.8866726e-07)
(-0.00056286939 -0.013226 -2.7189437e-07)
(-0.00047819568 -0.013008329 -2.5418106e-07)
(-0.00039625436 -0.012761128 -2.348551e-07)
(-0.0003169298 -0.012490361 -2.1290044e-07)
(-0.00024018556 -0.012201676 -1.8681597e-07)
(-0.00016615287 -0.01189854 -1.5440756e-07)
(-9.5257349e-05 -0.011543041 -1.1111856e-07)
(-2.9352387e-05 -0.011093677 -5.6236262e-08)
(0.0010288659 0.00040815591 -3.505343e-07)
(0.00076268496 -4.2267888e-05 -4.0812453e-07)
(0.00051219584 -0.00053636819 -4.3833147e-07)
(0.00027238659 -0.0010739298 -4.4838067e-07)
(5.6332745e-05 -0.0016216758 -4.4508863e-07)
(-0.00013281989 -0.0021765314 -4.3352813e-07)
(-0.00027050314 -0.0027412922 -4.1700773e-07)
(-0.00036165508 -0.0032686365 -3.9842042e-07)
(-0.00041663588 -0.0037479339 -3.7951867e-07)
(-0.00044587855 -0.0041742873 -3.6117519e-07)
(-0.00045843988 -0.0045556634 -3.4360331e-07)
(-0.00045561397 -0.0048994965 -3.268201e-07)
(-0.00044124133 -0.005218282 -3.1078623e-07)
(-0.00041870661 -0.0055372106 -2.9545156e-07)
(-0.00039040506 -0.0058461869 -2.8047957e-07)
(-0.00035785509 -0.0061099527 -2.6565303e-07)
(-0.0003221278 -0.0063217075 -2.5057815e-07)
(-0.00028425563 -0.0064800874 -2.3486094e-07)
(-0.00024491136 -0.0065853509 -2.1799589e-07)
(-0.00020471296 -0.0066376581 -1.9952101e-07)
(-0.00016421623 -0.0066385914 -1.7854643e-07)
(-0.00012400711 -0.0065915128 -1.5359878e-07)
(-8.4730371e-05 -0.0065012647 -1.23251e-07)
(-4.7073294e-05 -0.006349847 -8.4956691e-08)
(-1.2683851e-05 -0.0060637294 -3.9158561e-08)
(0.0010818094 0.00095977538 -2.8026551e-07)
(0.00091324643 0.00091855058 -3.2461273e-07)
(0.00076689231 0.00083183652 -3.5190394e-07)
(0.00062971271 0.00068830975 -3.6494726e-07)
(0.00051586671 0.00049959059 -3.6735234e-07)
(0.00040313438 0.00028699264 -3.6237187e-07)
(0.00029753986 6.5435633e-05 -3.5259269e-07)
(0.00020545924 -0.00016034813 -3.4011145e-07)
(0.00013180867 -0.00038054583 -3.2638455e-07)
(7.7023215e-05 -0.00058764897 -3.1228776e-07)
(3.262501e-05 -0.00077405966 -2.9825189e-07)
(-1.0233388e-06 -0.00093868752 -2.8446524e-07)
(-2.4513236e-05 -0.0010859846 -2.7098414e-07)
(-3.9679019e-05 -0.0012177659 -2.5777053e-07)
(-4.8290918e-05 -0.0013336352 -2.4466094e-07)
(-5.2047208e-05 -0.0014312129 -2.3145029e-07)
(-5.2165157e-05 -0.0015114532 -2.1785681e-07)
(-4.9500174e-05 -0.0015749403 -2.0355251e-07)
(-4.493737e-05 -0.0016220515 -1.8814553e-07)
(-3.904782e-05 -0.0016528309 -1.712031e-07)
(-3.2251084e-05 -0.0016675165 -1.5218223e-07)
(-2.4987893e-05 -0.0016668614 -1.3031747e-07)
(-1.7524481e-05 -0.0016535769 -1.047308e-07)
(-9.9121103e-06 -0.0016266134 -7.441126e-08)
(-2.3560827e-06 -0.0015441528 -3.7467588e-08)
(0.00095462148 0.0009632761 -2.2722937e-07)
(0.00083868286 0.0010164078 -2.6083797e-07)
(0.00073682099 0.0010475032 -2.8381428e-07)
(0.0006417943 0.0010530806 -2.9698865e-07)
(0.0005470197 0.0010292122 -3.0210559e-07)
(0.00046514578 0.00097920886 -3.0112878e-07)
(0.0003891096 0.00091629788 -2.9585263e-07)