/*--------------------------------*- C++ -*----------------------------------*\
| =========                 |                                                 |
| \\      /  F ield         | OpenFOAM: The Open Source CFD Toolbox           |
|  \\    /   O peration     | Version:  4.0                                   |
|   \\  /    A nd           | Web:      www.OpenFOAM.org                      |
|    \\/     M anipulation  |                                                 |
\*---------------------------------------------------------------------------*/
FoamFile
{
    version     2.0;
    format      ascii;
    class       volScalarField;
    location    "0.01";
    object      k;
}
// * * * * * * * * * * * * * * * * * * * * * * * * * * * * * * * * * * * * * //

dimensions      [0 2 -2 0 0 0 0];

internalField   nonuniform List<scalar> 
1740
(
0.00907095
0.0098970062
0.019406445
0.00940605
0.010426168
0.028370125
0.0096661374
0.010824351
0.035314703
0.0098728161
0.010934289
0.042446338
0.0099864285
0.011105238
0.048670827
0.010116039
0.011411547
0.052841137
0.01016165
0.011762968
0.057523302
0.010262161
0.012431508
0.061516988
0.010358232
0.012634079
0.063408491
0.010276637
0.012549697
0.066076979
0.010194424
0.012934791
0.06860477
0.010100301
0.013313789
0.06919632
0.010031727
0.013292997
0.070665962
0.009933438
0.0134674
0.072094419
0.009821483
0.01373114
0.072265654
0.0097242616
0.01398207
0.073169987
0.0095634966
0.014443212
0.073944583
0.0093851944
0.01430855
0.073402867
0.0092900482
0.0142013
0.074181584
0.0090788699
0.014379644
0.075060316
0.0088574551
0.014675406
0.074627637
0.0086195984
0.014398797
0.074956189
0.0083954857
0.014404778
0.075108159
0.0082847173
0.014488448
0.075258462
0.0080597459
0.014641487
0.074836289
0.0077563671
0.01456383
0.074636327
0.0075565542
0.014456744
0.074884422
0.0074657966
0.014796897
0.07453209
0.0072652769
0.014815315
0.073681227
0.0074523559
0.015782274
0.068506575
0.0097679726
0.016740382
0.048099848
0.013049955
0.020970199
0.031447168
0.0017885727
0.0033434857
0.0049189489
0.00016491719
0.00030928057
0.00047142873
2.6805555e-05
3.7109484e-05
4.9725209e-05
1.8641004e-05
1.9358711e-05
2.0376495e-05
1.9607122e-05
1.9741398e-05
2.0010346e-05
2.1127626e-05
2.1226131e-05
2.1441302e-05
2.2672512e-05
2.2763102e-05
2.2961263e-05
2.4210633e-05
2.4294311e-05
2.4476859e-05
2.5738124e-05
2.5815052e-05
2.598259e-05
2.7253249e-05
2.7323752e-05
2.7477178e-05
2.8754874e-05
2.8819373e-05
2.8959689e-05
3.0242303e-05
3.0301284e-05
3.0429501e-05
3.1715139e-05
3.1769086e-05
3.1886243e-05
3.3173379e-05
3.3222743e-05
3.3329833e-05
3.4617052e-05
3.4662233e-05
3.4760131e-05
3.6046121e-05
3.6087479e-05
3.6176972e-05
3.7460505e-05
3.7498366e-05
3.7580165e-05
3.8860029e-05
3.8894688e-05
3.8969432e-05
4.0244338e-05
4.0276064e-05
4.0344329e-05
4.1612858e-05
4.1641893e-05
4.1704208e-05
4.2964836e-05
4.2991403e-05
4.3048248e-05
4.4299335e-05
4.4323635e-05
4.4375446e-05
4.5615189e-05
4.5637408e-05
4.5684585e-05
4.6911014e-05
4.6931319e-05
4.6974228e-05
4.8185236e-05
4.8203782e-05
4.8242757e-05
4.9436079e-05
4.9453006e-05
4.9488357e-05
5.0661573e-05
5.0677013e-05
5.0709022e-05
5.1859557e-05
5.187363e-05
5.1902561e-05
5.3027702e-05
5.3040519e-05
5.3066614e-05
5.4163519e-05
5.4175184e-05
5.4198671e-05
5.5264376e-05
5.5274984e-05
5.5296073e-05
5.6327525e-05
5.6337165e-05
5.6356052e-05
5.7350121e-05
5.7358876e-05
5.7375743e-05
5.8329236e-05
5.8337184e-05
5.8352204e-05
5.9261901e-05
5.9269114e-05
5.9282448e-05
6.0145135e-05
6.0151681e-05
6.0163481e-05
6.0975972e-05
6.0981915e-05
6.0992323e-05
6.1751495e-05
6.1756895e-05
6.1766045e-05
6.2468868e-05
6.2473781e-05
6.2481801e-05
6.3125375e-05
6.3129852e-05
6.3136862e-05
6.3718445e-05
6.3722537e-05
6.372865e-05
6.4245697e-05
6.4249449e-05
6.425477e-05
6.4704888e-05
6.470834e-05
6.4712968e-05
6.509283e-05
6.509602e-05
6.510004e-05
6.5391584e-05
6.5394541e-05
6.5398022e-05
6.5429516e-05
6.5432251e-05
6.5435231e-05
6.3824773e-05
6.382722e-05
6.382966e-05
5.2695328e-05
5.269711e-05
5.2698767e-05
0.055789783
0.059429139
0.033686854
0.031242027
0.0044281053
0.0035570505
0.00041706739
0.00031719585
4.5209336e-05
3.7674834e-05
2.0385993e-05
2.0362176e-05
2.0335678e-05
2.0772003e-05
2.1763567e-05
2.2191481e-05
2.3259689e-05
2.3653522e-05
2.4750919e-05
2.5111297e-05
2.6233679e-05
2.6563247e-05
2.7706894e-05
2.8008263e-05
2.9169736e-05
2.9445295e-05
3.0621558e-05
3.0873574e-05
3.2061823e-05
3.2292369e-05
3.3490326e-05
3.3701231e-05
3.4906852e-05
3.5099761e-05
3.6311119e-05
3.6487561e-05
3.7702809e-05
3.7864198e-05
3.9081524e-05
3.9229111e-05
4.0446725e-05
4.0581625e-05
4.1797691e-05
4.192092e-05
4.3133533e-05
4.3246015e-05
4.4453182e-05
4.4555763e-05
4.5755366e-05
4.5848824e-05
4.7038602e-05
4.712365e-05
4.8301226e-05
4.837852e-05
4.954138e-05
4.9611525e-05
5.0757025e-05
5.0820576e-05
5.1945936e-05
5.2003409e-05
5.3105727e-05
5.31576e-05
5.423386e-05
5.4280579e-05
5.5327655e-05
5.5369635e-05
5.638432e-05
5.6421949e-05
5.7400973e-05
5.7434611e-05
5.8374653e-05
5.840464e-05
5.930236e-05
5.9329014e-05
6.0181083e-05
6.0204704e-05
6.100783e-05
6.10287e-05
6.1779659e-05
6.1798045e-05
6.2493714e-05
6.2509868e-05
6.3147254e-05
6.3161415e-05
6.3737692e-05
6.3750084e-05
6.4262623e-05
6.427346e-05
6.4719781e-05
6.4729262e-05
6.5105948e-05
6.511426e-05
6.5403143e-05
6.5410452e-05
6.5439648e-05
6.5446098e-05
6.383338e-05
6.3839026e-05
5.2701474e-05
5.2705871e-05
1.0189456e-06
7.0366464e-06
1.3197274e-05
1.5566315e-05
1.697844e-05
1.8237428e-05
1.9462577e-05
2.0660494e-05
2.1823965e-05
2.294528e-05
2.4017693e-05
2.5035428e-05
2.5993575e-05
2.6888026e-05
2.7715346e-05
2.8472782e-05
2.9158187e-05
2.9770014e-05
3.0307229e-05
3.0769251e-05
3.1155007e-05
3.1451801e-05
3.1522355e-05
3.0220077e-05
2.0694596e-05
4.9832815e-07
6.7812954e-06
1.2953428e-05
1.5508207e-05
1.7051814e-05
1.8336081e-05
1.9555481e-05
2.07461e-05
2.1904888e-05
2.3023185e-05
2.4093026e-05
2.5108127e-05
2.6063503e-05
2.6955162e-05
2.777989e-05
2.853509e-05
2.9218752e-05
2.9829396e-05
3.0366053e-05
3.0828195e-05
3.1215061e-05
3.1516716e-05
3.1616154e-05
3.0462284e-05
2.1355674e-05
8.8240548e-07
1.0093659e-05
1.7050802e-05
1.8604533e-05
1.9090023e-05
1.9595561e-05
2.0311542e-05
2.1200489e-05
2.2191075e-05
2.3224286e-05
2.4253435e-05
2.5248707e-05
2.6193464e-05
2.7078872e-05
2.7899964e-05
2.8653512e-05
2.9337234e-05
2.9949408e-05
3.048879e-05
3.0954641e-05
3.1346453e-05
3.1660522e-05
3.1840065e-05
3.1202013e-05
2.380481e-05
7.5962626e-06
6.256633e-05
8.1365097e-05
6.7984952e-05
5.2094519e-05
4.0065528e-05
3.2234482e-05
2.7728247e-05
2.5485033e-05
2.4795628e-05
2.5015613e-05
2.5672183e-05
2.6488163e-05
2.732971e-05
2.8138207e-05
2.8890159e-05
2.9576527e-05
3.0193315e-05
3.0738043e-05
3.1209559e-05
3.1607208e-05
3.1930617e-05
3.2174182e-05
3.227278e-05
3.1801419e-05
0.0001299351
0.000739517
0.0008853676
0.00071456932
0.00051271559
0.00034618203
0.00022322723
0.00014042405
8.629845e-05
5.4276624e-05
3.8109789e-05
3.1244302e-05
2.8991005e-05
2.867683e-05
2.9070325e-05
2.9649326e-05
3.0236803e-05
3.0781771e-05
3.127031e-05
3.1697968e-05
3.2062584e-05
3.2363e-05
3.2597014e-05
3.2760228e-05
3.280428e-05
0.0020596767
0.0074083734
0.0083510233
0.0070842828
0.0054140974
0.0038854018
0.0026344883
0.0016754027
0.00098567385
0.00053068777
0.00026258285
0.00012436178
6.3055042e-05
3.9981337e-05
3.2761916e-05
3.1026177e-05
3.0894184e-05
3.1165509e-05
3.1519304e-05
3.1872275e-05
3.2197231e-05
3.2481306e-05
3.2714622e-05
3.2895108e-05
3.2985291e-05
0.043269676
0.032251834
0.024435479
0.018821848
0.014642679
0.011394955
0.0087498111
0.0065059026
0.004569386
0.002937254
0.0016721649
0.00082384194
0.00035168483
0.00013772667
5.9225818e-05
3.607102e-05
3.0874063e-05
3.0355941e-05
3.0789312e-05
3.1325772e-05
3.1806582e-05
3.2208818e-05
3.2530044e-05
3.2775875e-05
3.2924103e-05
0.021759263
0.014603562
0.010860374
0.0082526151
0.0061187553
0.0043410889
0.0029223007
0.001850283
0.0010864414
0.00058380919
0.00028754127
0.00013477426
6.7053399e-05
4.1579278e-05
3.358216e-05
3.1628896e-05
3.1444457e-05
3.1705271e-05
3.2057778e-05
3.2411193e-05
3.2736892e-05
3.3021934e-05
3.3256626e-05
3.3439581e-05
3.3534703e-05
0.0023857704
0.0015893907
0.0011601965
0.00084944275
0.00059871065
0.00040332171
0.00026305069
0.00016394995
9.9089986e-05
6.1634329e-05
4.2618911e-05
3.4153424e-05
3.1141078e-05
3.0527557e-05
3.0772194e-05
3.125369e-05
3.1764388e-05
3.2244479e-05
3.2677668e-05
3.3058661e-05
3.3384815e-05
3.3654575e-05
3.3865281e-05
3.4014058e-05
3.4052083e-05
0.00020824377
0.00014536599
0.00010978655
8.3018923e-05
6.2415735e-05
4.7723226e-05
3.809711e-05
3.2204465e-05
2.9156166e-05
2.8000317e-05
2.7928171e-05
2.8387011e-05
2.9062299e-05
2.9790155e-05
3.0498736e-05
3.1160534e-05
3.1765432e-05
3.2309172e-05
3.2789375e-05
3.3204845e-05
3.35549e-05
3.3839092e-05
3.4052586e-05
3.4137635e-05
3.3679285e-05
3.0900527e-05
2.777044e-05
2.6188617e-05
2.5177609e-05
2.4677785e-05
2.4647768e-05
2.4980026e-05
2.5562466e-05
2.630166e-05
2.7116653e-05
2.7950389e-05
2.8768119e-05
2.9550571e-05
3.0287536e-05
3.0973437e-05
3.1604819e-05
3.2179209e-05
3.269467e-05
3.3149695e-05
3.3543196e-05
3.3874295e-05
3.4139305e-05
3.428483e-05
3.3631964e-05
2.5956968e-05
2.056883e-05
2.1100664e-05
2.1782343e-05
2.254941e-05
2.3382605e-05
2.4260871e-05
2.5162227e-05
2.6067821e-05
2.6962127e-05
2.7832978e-05
2.8671425e-05
2.9470935e-05
3.0226563e-05
3.093444e-05
3.1591398e-05
3.2194826e-05
3.2742608e-05
3.3233061e-05
3.3664933e-05
3.4037347e-05
3.4349239e-05
3.4591393e-05
3.4652175e-05
3.3461192e-05
2.3803405e-05
2.1327875e-05
2.199223e-05
2.2736735e-05
2.3539258e-05
2.4380606e-05
2.5243731e-05
2.6113957e-05
2.6979228e-05
2.7829609e-05
2.865687e-05
2.9454165e-05
3.021579e-05
3.0936926e-05
3.1613497e-05
3.2242072e-05
3.2819805e-05
3.3344391e-05
3.3814015e-05
3.4227348e-05
3.4583448e-05
3.4880982e-05
3.5107794e-05
3.5127281e-05
3.3729191e-05
2.3306698e-05
2.2717746e-05
2.3330698e-05
2.4014843e-05
2.4753375e-05
2.5529864e-05
2.6329479e-05
2.7139069e-05
2.7947488e-05
2.8745137e-05
2.9523895e-05
3.0276836e-05
3.0998085e-05
3.1682581e-05
3.2326045e-05
3.2924858e-05
3.3475994e-05
3.3976983e-05
3.4425868e-05
3.4821186e-05
3.516188e-05
3.544648e-05
3.5662392e-05
3.5669964e-05
3.4234308e-05
2.3487477e-05
2.4135175e-05
2.4694301e-05
2.5318521e-05
2.5994391e-05
2.6707989e-05
2.7446106e-05
2.8196974e-05
2.8950014e-05
2.969599e-05
3.0426921e-05
3.1135825e-05
3.1816714e-05
3.2464425e-05
3.3074525e-05
3.3643258e-05
3.416747e-05
3.4644563e-05
3.507247e-05
3.544962e-05
3.5774852e-05
3.6046617e-05
3.6252447e-05
3.6254283e-05
3.4826064e-05
2.4558522e-05
2.5551295e-05
2.6061841e-05
2.6632274e-05
2.725123e-05
2.7906979e-05
2.8587987e-05
2.9283492e-05
2.9983737e-05
3.0679991e-05
3.136443e-05
3.2030194e-05
3.2671309e-05
3.3282565e-05
3.3859448e-05
3.4398119e-05
3.4895325e-05
3.5348383e-05
3.5755139e-05
3.6113919e-05
3.6423478e-05
3.6682181e-05
3.6877643e-05
3.6877488e-05
3.5620261e-05
2.8720342e-05
2.6965165e-05
2.7431745e-05
2.7953764e-05
2.8521278e-05
2.912409e-05
2.9752148e-05
3.0395826e-05
3.1046094e-05
3.1694703e-05
3.2334202e-05
3.2957963e-05
3.3560087e-05
3.4135373e-05
3.4679325e-05
3.5188071e-05
3.5658304e-05
3.6087277e-05
3.6472759e-05
3.6813005e-05
3.7106695e-05
3.7352113e-05
3.7537175e-05
3.7540568e-05
3.648816e-05
3.1496813e-05
2.8375639e-05
2.8802336e-05
2.9280405e-05
2.9801152e-05
3.035559e-05
3.0934753e-05
3.1530001e-05
3.2133121e-05
3.2736406e-05
3.3332793e-05
3.3915916e-05
3.4480048e-05
3.502012e-05
3.5531671e-05
3.6010833e-05
3.6454284e-05
3.685925e-05
3.7223456e-05
3.7545112e-05
3.7822828e-05
3.8054836e-05
3.8229583e-05
3.8238594e-05
3.736946e-05
3.3641365e-05
2.9781311e-05
3.0171747e-05
3.0609796e-05
3.1087822e-05
3.1597849e-05
3.213188e-05
3.2682074e-05
3.3240894e-05
3.3801236e-05
3.4356475e-05
3.4900561e-05
3.5427974e-05
3.59338e-05
3.641367e-05
3.686377e-05
3.7280819e-05
3.7662039e-05
3.8005137e-05
3.8308291e-05
3.8570067e-05
3.8788682e-05
3.8953357e-05
3.8968761e-05
3.8253285e-05
3.5388661e-05
3.1181028e-05
3.1538533e-05
3.1940053e-05
3.2378937e-05
3.2848096e-05
3.3340351e-05
3.3848593e-05
3.4365904e-05
3.4885708e-05
3.5401825e-05
3.5908559e-05
3.6400648e-05
3.6873366e-05
3.732248e-05
3.7744262e-05
3.8135482e-05
3.8493391e-05
3.8815705e-05
3.910059e-05
3.9346594e-05
3.9551938e-05
3.9706576e-05
3.9725915e-05
3.9121145e-05
3.6808211e-05
3.2573798e-05
3.2901304e-05
3.326948e-05
3.367244e-05
3.410393e-05
3.4557474e-05
3.5026622e-05
3.5505061e-05
3.5986708e-05
3.6465801e-05
3.6936972e-05
3.7395257e-05
3.7836146e-05
3.8255562e-05
3.8649894e-05
3.9015999e-05
3.9351178e-05
3.9653171e-05
3.9920154e-05
4.015067e-05
4.0342966e-05
4.0487845e-05
4.051126e-05
4.0003368e-05
3.8074335e-05
3.3958883e-05
3.4258979e-05
3.4596665e-05
3.4966671e-05
3.5363403e-05
3.5781078e-05
3.6213834e-05
3.66559e-05
3.7101676e-05
3.7545801e-05
3.7983237e-05
3.8409303e-05
3.8819712e-05
3.9210577e-05
3.9578433e-05
3.9920236e-05
4.0233356e-05
4.0515584e-05
4.0765118e-05
4.0980507e-05
4.1160007e-05
4.1294772e-05
4.1314169e-05
4.0777137e-05
3.6582529e-05
3.533563e-05
3.5610602e-05
3.5920325e-05
3.6260057e-05
3.6624753e-05
3.7009193e-05
3.7408076e-05
3.7816142e-05
3.8228231e-05
3.8639373e-05
3.9044866e-05
3.9440312e-05
3.9821657e-05
4.0185208e-05
4.052765e-05
4.0846055e-05
4.1137884e-05
4.140099e-05
4.1633608e-05
4.1834307e-05
4.2001383e-05
4.2126449e-05
4.2140364e-05
4.1520191e-05
3.5241533e-05
3.6703455e-05
3.6955358e-05
3.7239364e-05
3.75512e-05
3.7886318e-05
3.8239988e-05
3.8607381e-05
3.8983691e-05
3.9364199e-05
3.9744299e-05
4.0119624e-05
4.0486052e-05
4.0839763e-05
4.1177263e-05
4.1495399e-05
4.1791369e-05
4.2062736e-05
4.2307422e-05
4.2523712e-05
4.2710202e-05
4.2865215e-05
4.2980395e-05
4.2981623e-05
4.2206505e-05
3.4119805e-05
3.8061767e-05
3.8292473e-05
3.8552803e-05
3.8838902e-05
3.9146664e-05
3.9471803e-05
3.9809923e-05
4.0156622e-05
4.050756e-05
4.0858493e-05
4.1205379e-05
4.1544365e-05
4.1871869e-05
4.2184591e-05
4.2479546e-05
4.2754071e-05
4.3005831e-05
4.3232835e-05
4.3433422e-05
4.360623e-05
4.3749627e-05
4.3855356e-05
4.3844395e-05
4.2937269e-05
3.3612226e-05
3.9409878e-05
3.9621082e-05
3.9859592e-05
4.0121932e-05
4.0404383e-05
4.0703054e-05
4.1013945e-05
4.133303e-05
4.1656319e-05
4.1979898e-05
4.2300016e-05
4.2613097e-05
4.2915798e-05
4.3205015e-05
4.3477929e-05
4.3732016e-05
4.3965056e-05
4.4175143e-05
4.4360682e-05
4.4520355e-05
4.465257e-05
4.4749083e-05
4.4727777e-05
4.3749416e-05
3.3964971e-05
4.0746951e-05
4.0940218e-05
4.1158605e-05
4.1398992e-05
4.1658012e-05
4.1932128e-05
4.22177e-05
4.2511043e-05
4.2808491e-05
4.3106443e-05
4.3401422e-05
4.3690111e-05
4.3969389e-05
4.4236354e-05
4.4488357e-05
4.4723019e-05
4.493823e-05
4.5132176e-05
4.5303335e-05
4.5450437e-05
4.557191e-05
4.5659129e-05
4.5621831e-05
4.4526614e-05
3.427563e-05
4.2072029e-05
4.224878e-05
4.2448614e-05
4.2668706e-05
4.290603e-05
4.3157372e-05
4.3419404e-05
4.3688759e-05
4.3962073e-05
4.4236034e-05
4.4507431e-05
4.4773188e-05
4.5030398e-05
4.5276352e-05
4.5508567e-05
4.5724804e-05
4.5923075e-05
4.6101661e-05
4.6259114e-05
4.6394216e-05
4.6505393e-05
4.6583332e-05
4.6527673e-05
4.5325487e-05
3.4949362e-05
4.3384027e-05
4.3545548e-05
4.3728265e-05
4.3929614e-05
4.4146843e-05
4.4377052e-05
4.4617202e-05
4.4864215e-05
4.5115007e-05
4.5366534e-05
4.5615832e-05
4.5860054e-05
4.6096499e-05
4.6322647e-05
4.6536176e-05
4.6734984e-05
4.6917205e-05
4.7081214e-05
4.7225638e-05
4.7349316e-05
4.745069e-05
4.7519991e-05
4.7451144e-05
4.6214346e-05
3.6549485e-05
4.4681697e-05
4.4829163e-05
4.499607e-05
4.5180095e-05
4.5378731e-05
4.5589335e-05
4.580915e-05
4.6035366e-05
4.6265159e-05
4.6495727e-05
4.6724339e-05
4.6948364e-05
4.7165302e-05
4.7372809e-05
4.7568722e-05
4.7751076e-05
4.7918118e-05
4.8068322e-05
4.8200393e-05
4.8313223e-05
4.8405263e-05
4.8466164e-05
4.8382773e-05
4.7086141e-05
3.7679542e-05
4.596362e-05
4.6098111e-05
4.6250408e-05
4.6418406e-05
4.6599826e-05
4.679226e-05
4.6993192e-05
4.7200057e-05
4.7410281e-05
4.7621287e-05
4.783056e-05
4.8035673e-05
4.8234313e-05
4.8424306e-05
4.8603642e-05
4.8770488e-05
4.8923206e-05
4.9060367e-05
4.9180748e-05
4.9283304e-05
4.9366486e-05
4.9419384e-05
4.9322782e-05
4.7993309e-05
3.90995e-05
4.7228175e-05
4.7350692e-05
4.7489491e-05
4.7642663e-05
4.780814e-05
4.7983729e-05
4.8167138e-05
4.8356023e-05
4.8548023e-05
4.8740782e-05
4.8931994e-05
4.9119419e-05
4.9300922e-05
4.947449e-05
4.9638256e-05
4.9790517e-05
4.9929746e-05
5.0054607e-05
5.0163953e-05
5.0256793e-05
5.0331553e-05
5.0376393e-05
5.0262958e-05
4.8865864e-05
3.9995592e-05
4.847357e-05
4.8585034e-05
4.8711361e-05
4.8850823e-05
4.9001541e-05
4.9161518e-05
4.9328668e-05
4.9500851e-05
4.9675906e-05
4.9851675e-05
5.0026039e-05
5.0196942e-05
5.0362416e-05
5.0520601e-05
5.0669768e-05
5.0808338e-05
5.0934889e-05
5.1048174e-05
5.1147123e-05
5.1230799e-05
5.1297606e-05
5.1334792e-05
5.1204436e-05
4.9724706e-05
4.0629873e-05
4.9697833e-05
4.9799095e-05
4.9913903e-05
5.0040689e-05
5.0177749e-05
5.0323264e-05
5.0475337e-05
5.0632015e-05
5.0791323e-05
5.0951288e-05
5.1109963e-05
5.1265458e-05
5.1415964e-05
5.1559765e-05
5.1695266e-05
5.1821005e-05
5.1935661e-05
5.2038075e-05
5.2127249e-05
5.2202301e-05
5.2261644e-05
5.229214e-05
5.215359e-05
5.067973e-05
4.1714318e-05
5.0898821e-05
5.0990666e-05
5.1094837e-05
5.120991e-05
5.1334338e-05
5.1466469e-05
5.1604573e-05
5.1746872e-05
5.1891561e-05
5.2036836e-05
5.2180914e-05
5.2322061e-05
5.2458612e-05
5.258899e-05
5.2711722e-05
5.2825457e-05
5.2928973e-05
5.3021196e-05
5.3101197e-05
5.3168149e-05
5.3220486e-05
5.3244799e-05
5.3097869e-05
5.15912e-05
4.2326721e-05
5.207422e-05
5.2157379e-05
5.2251734e-05
5.2355992e-05
5.2468749e-05
5.2588501e-05
5.2713676e-05
5.2842651e-05
5.2973782e-05
5.3105419e-05
5.3235933e-05
5.3363735e-05
5.3487296e-05
5.3605166e-05
5.3715989e-05
5.3818517e-05
5.3911623e-05
5.3994313e-05
5.4065724e-05
5.4125082e-05
5.4170813e-05
5.4189015e-05
5.4032303e-05
5.2492448e-05
4.3126949e-05
5.3221561e-05
5.3296716e-05
5.3382019e-05
5.3476298e-05
5.3578278e-05
5.3686593e-05
5.3799812e-05
5.3916459e-05
5.4035033e-05
5.415403e-05
5.4271959e-05
5.4387368e-05
5.4498855e-05
5.4605088e-05
5.4704821e-05
5.4796906e-05
5.4880303e-05
5.4954092e-05
5.5017479e-05
5.5069734e-05
5.5109287e-05
5.5121801e-05
5.495567e-05
5.3372158e-05
4.3747957e-05
5.4338233e-05
5.4406015e-05
5.4482978e-05
5.4568059e-05
5.46601e-05
5.4757859e-05
5.4860038e-05
5.4965292e-05
5.5072254e-05
5.5179551e-05
5.5285824e-05
5.5389744e-05
5.5490028e-05
5.5585455e-05
5.5674883e-05
5.5757254e-05
5.5831612e-05
5.5897111e-05
5.5953014e-05
5.5998643e-05
5.603245e-05
5.6039964e-05
5.5868311e-05
5.42622e-05
4.4085585e-05
5.542149e-05
5.5482491e-05
5.5551781e-05
5.5628394e-05
5.571128e-05
5.5799313e-05
5.5891311e-05
5.5986052e-05
5.6082291e-05
5.6178779e-05
5.6274274e-05
5.6367563e-05
5.6457473e-05
5.6542886e-05
5.6622755e-05
5.6696111e-05
5.6762074e-05
5.6819866e-05
5.6868807e-05
5.6908264e-05
5.6936683e-05
5.6939138e-05
5.675868e-05
5.5115541e-05
4.475553e-05
5.6468478e-05
5.652325e-05
5.6585489e-05
5.6654319e-05
5.6728787e-05
5.6807872e-05
5.6890498e-05
5.6975556e-05
5.7061914e-05
5.7148434e-05
5.7233983e-05
5.7317455e-05
5.7397779e-05
5.7473933e-05
5.7544957e-05
5.7609964e-05
5.7668147e-05
5.7718791e-05
5.7761271e-05
5.7794997e-05
5.7818426e-05
5.7816372e-05
5.7628448e-05
5.5930945e-05
4.5041886e-05
5.7476257e-05
5.7525316e-05
5.7581087e-05
5.7642775e-05
5.7709517e-05
5.7780384e-05
5.7854401e-05
5.793056e-05
5.8007831e-05
5.8085177e-05
5.816157e-05
5.8235998e-05
5.8307485e-05
5.8375098e-05
5.8437958e-05
5.8495254e-05
5.8546247e-05
5.859028e-05
5.8626779e-05
5.8655192e-05
5.8673955e-05
5.8667293e-05
5.8469577e-05
5.6719666e-05
4.5512432e-05
5.8441817e-05
5.848565e-05
5.8535501e-05
5.8590652e-05
5.8650317e-05
5.8713655e-05
5.8779781e-05
5.8847779e-05
5.8916713e-05
5.8985641e-05
5.9053624e-05
5.9119743e-05
5.9183105e-05
5.9242861e-05
5.9298207e-05
5.9348401e-05
5.9392766e-05
5.9430702e-05
5.9461682e-05
5.9485187e-05
5.9499645e-05
5.9488884e-05
5.9284172e-05
5.7502204e-05
4.6045235e-05
5.9362113e-05
5.9401174e-05
5.9445621e-05
5.9494802e-05
5.9548005e-05
5.9604465e-05
5.966338e-05
5.9723916e-05
5.9785225e-05
5.9846447e-05
5.9906731e-05
5.9965237e-05
6.0021153e-05
6.0073703e-05
6.0122154e-05
6.0165827e-05
6.0204104e-05
6.0236435e-05
6.0262336e-05
6.0281325e-05
6.0291827e-05
6.027741e-05
6.0067087e-05
5.8258916e-05
4.6612587e-05
6.0234091e-05
6.0268811e-05
6.0308339e-05
6.0352086e-05
6.0399404e-05
6.04496e-05
6.0501945e-05
6.0555682e-05
6.0610039e-05
6.0664234e-05
6.0717493e-05
6.076905e-05
6.0818166e-05
6.0864132e-05
6.0906279e-05
6.0943988e-05
6.0976692e-05
6.1003889e-05
6.1025136e-05
6.1039982e-05
6.1046869e-05
6.1029286e-05
6.0815497e-05
5.8995927e-05
4.7246801e-05
6.1054722e-05
6.1085504e-05
6.1120573e-05
6.1159391e-05
6.1201371e-05
6.1245884e-05
6.1292267e-05
6.1339833e-05
6.1387877e-05
6.1435689e-05
6.1482564e-05
6.1527804e-05
6.1570736e-05
6.1610711e-05
6.164712e-05
6.1679396e-05
6.1707022e-05
6.1729536e-05
6.1746535e-05
6.1757596e-05
6.1761178e-05
6.1740742e-05
6.1524647e-05
5.9703624e-05
4.7902171e-05
6.1821028e-05
6.1848256e-05
6.1879298e-05
6.1913666e-05
6.1950827e-05
6.1990208e-05
6.2031206e-05
6.2073195e-05
6.2115534e-05
6.2157577e-05
6.219868e-05
6.2238206e-05
6.2275541e-05
6.2310093e-05
6.2341305e-05
6.2368658e-05
6.2391678e-05
6.2409944e-05
6.2423083e-05
6.2430701e-05
6.243123e-05
6.2407667e-05
6.2184489e-05
6.0329831e-05
4.8376974e-05
6.2530121e-05
6.2554156e-05
6.2581583e-05
6.2611955e-05
6.2644789e-05
6.2679561e-05
6.2715722e-05
6.2752702e-05
6.2789916e-05
6.2826774e-05
6.2862688e-05
6.2897077e-05
6.2929378e-05
6.295905e-05
6.2985582e-05
6.30085e-05
6.3027369e-05
6.3041803e-05
6.3051458e-05
6.3055962e-05
6.3053722e-05
6.3027313e-05
6.2798229e-05
6.0920193e-05
4.8862784e-05
6.317923e-05
6.3200416e-05
6.3224617e-05
6.3251426e-05
6.3280399e-05
6.3311061e-05
6.3342909e-05
6.3375422e-05
6.3408064e-05
6.3440296e-05
6.347158e-05
6.3501383e-05
6.3529189e-05
6.3554502e-05
6.3576853e-05
6.3595806e-05
6.3610962e-05
6.3621964e-05
6.3628497e-05
6.3630205e-05
6.3625484e-05
6.359663e-05
6.336312e-05
6.146686e-05
4.9307912e-05
6.376574e-05
6.3784404e-05
6.380575e-05
6.3829406e-05
6.3854967e-05
6.3881995e-05
6.391003e-05
6.3938593e-05
6.3967194e-05
6.3995336e-05
6.4022524e-05
6.4048271e-05
6.40721e-05
6.4093556e-05
6.4112206e-05
6.4127648e-05
6.4139513e-05
6.4147471e-05
6.4151229e-05
6.4150449e-05
6.4143491e-05
6.4112019e-05
6.3868419e-05
6.1898866e-05
4.9394406e-05
6.428722e-05
6.4303671e-05
6.4322516e-05
6.4343414e-05
6.4365989e-05
6.4389839e-05
6.441454e-05
6.4439651e-05
6.4464718e-05
6.4489285e-05
6.4512894e-05
6.4535094e-05
6.4555446e-05
6.4573528e-05
6.458894e-05
6.4601309e-05
6.4610292e-05
6.4615583e-05
6.4616907e-05
6.4613938e-05
6.4605006e-05
6.4571326e-05
6.4321125e-05
6.231309e-05
4.9638408e-05
6.4741374e-05
6.4755909e-05
6.4772591e-05
6.4791106e-05
6.4811105e-05
6.4832216e-05
6.4854045e-05
6.4876182e-05
6.4898207e-05
6.4919695e-05
6.4940221e-05
6.4959367e-05
6.4976724e-05
6.4991898e-05
6.5004519e-05
6.5014241e-05
6.5020741e-05
6.5023733e-05
6.5022956e-05
6.5018095e-05
6.5007485e-05
6.497235e-05
6.47209e-05
6.270873e-05
4.9980386e-05
6.5124959e-05
6.5137859e-05
6.5152707e-05
6.5169201e-05
6.518702e-05
6.5205815e-05
6.5225216e-05
6.5244841e-05
6.5264298e-05
6.5283188e-05
6.5301113e-05
6.5317679e-05
6.5332492e-05
6.5345185e-05
6.5355445e-05
6.5362932e-05
6.5367339e-05
6.5368392e-05
6.5365846e-05
6.535939e-05
6.5347374e-05
6.531112e-05
6.5059038e-05
6.3040615e-05
5.0237127e-05
6.541996e-05
6.5431511e-05
6.5444927e-05
6.5459765e-05
6.5475786e-05
6.549267e-05
6.5510058e-05
6.5527618e-05
6.5544966e-05
6.5561724e-05
6.5577511e-05
6.5591916e-05
6.5604421e-05
6.5614782e-05
6.5623013e-05
6.5628659e-05
6.5631353e-05
6.5630794e-05
6.5626812e-05
6.5619072e-05
6.560589e-05
6.5568288e-05
6.5311998e-05
6.326808e-05
5.0347519e-05
6.5454636e-05
6.5465365e-05
6.5479102e-05
6.5492849e-05
6.5507437e-05
6.5522733e-05
6.5537946e-05
6.5553806e-05
6.5569469e-05
6.5584527e-05
6.5598561e-05
6.5610745e-05
6.5618946e-05
6.5625009e-05
6.5630904e-05
6.5634999e-05
6.5636273e-05
6.563362e-05
6.5628498e-05
6.5619867e-05
6.5605933e-05
6.556745e-05
6.5307076e-05
6.3225977e-05
5.0083665e-05
6.3846947e-05
6.3859913e-05
6.3889583e-05
6.3904915e-05
6.3918327e-05
6.3931009e-05
6.393169e-05
6.394495e-05
6.3959051e-05
6.3972575e-05
6.3984654e-05
6.3990961e-05
6.3976264e-05
6.3965232e-05
6.3965477e-05
6.3967787e-05
6.3966388e-05
6.3948003e-05
6.3940807e-05
6.3932038e-05
6.3918386e-05
6.3881083e-05
6.362943e-05
6.1621087e-05
4.8881599e-05
5.2713788e-05
5.274221e-05
5.2861421e-05
5.2889294e-05
5.2900535e-05
5.2896889e-05
5.2743986e-05
5.2741893e-05
5.275244e-05
5.276291e-05
5.2770268e-05
5.275557e-05
5.2649273e-05
5.2589979e-05
5.2576984e-05
5.2575868e-05
5.2559229e-05
5.2416493e-05
5.2396386e-05
5.2389135e-05
5.2378996e-05
5.2350853e-05
5.2166574e-05
5.0749779e-05
4.1854017e-05
)
;

boundaryField
{
    Walls
    {
        type            kqRWallFunction;
        value           nonuniform List<scalar> 
38
(
1.0189456e-06
4.9832815e-07
8.8240548e-07
7.5962626e-06
0.0001299351
0.0020596767
0.055789783
0.059429139
0.019406445
0.028370125
0.035314703
0.042446338
0.048670827
0.052841137
0.057523302
0.061516988
0.063408491
0.066076979
0.06860477
0.06919632
0.070665962
0.072094419
0.072265654
0.073169987
0.073944583
0.073402867
0.074181584
0.075060316
0.074627637
0.074956189
0.075108159
0.075258462
0.074836289
0.074636327
0.074884422
0.07453209
0.073681227
0.068506575
)
;
    }
    Inlet
    {
        type            turbulentIntensityKineticEnergyInlet;
        intensity       0.05;
        value           nonuniform List<scalar> 3(0.0086801728 0.0099538049 0.010255129);
    }
    Outlet
    {
        type            inletOutlet;
        inletValue      uniform 0;
        value           nonuniform List<scalar> 
86
(
5.2695328e-05
5.269711e-05
5.2698767e-05
5.2701474e-05
5.2705871e-05
5.2713788e-05
5.274221e-05
5.2861421e-05
5.2889294e-05
5.2900535e-05
5.2896889e-05
5.2743986e-05
5.2741893e-05
5.275244e-05
5.276291e-05
5.2770268e-05
5.275557e-05
5.2649273e-05
5.2589979e-05
5.2576984e-05
5.2575868e-05
5.2559229e-05
5.2416493e-05
5.2396386e-05
5.2389135e-05
5.2378996e-05
5.2350853e-05
5.2166574e-05
5.0749779e-05
4.1854017e-05
3.2924103e-05
3.3534703e-05
3.4052083e-05
3.3679285e-05
0
0
0
0
2.4558522e-05
2.8720342e-05
3.1496813e-05
3.3641365e-05
3.5388661e-05
3.6808211e-05
3.8074335e-05
0
0
0
0
0
0
0
0
0
0
0
0
0
0
0
0
0
0
0
0
0
0
0
0
0
0
0
0
0
0
0
0
0
0
0
0
0
0
3.1801419e-05
3.280428e-05
3.2985291e-05
)
;
    }
    Front
    {
        type            wedge;
    }
    Back
    {
        type            wedge;
    }
    defaultFaces
    {
        type            empty;
    }
}


// ************************************************************************* //
