/*--------------------------------*- C++ -*----------------------------------*\
| =========                 |                                                 |
| \\      /  F ield         | OpenFOAM: The Open Source CFD Toolbox           |
|  \\    /   O peration     | Version:  4.0                                   |
|   \\  /    A nd           | Web:      www.OpenFOAM.org                      |
|    \\/     M anipulation  |                                                 |
\*---------------------------------------------------------------------------*/
FoamFile
{
    version     2.0;
    format      ascii;
    class       volScalarField;
    location    "0.01";
    object      p;
}
// * * * * * * * * * * * * * * * * * * * * * * * * * * * * * * * * * * * * * //

dimensions      [0 2 -2 0 0 0 0];

internalField   nonuniform List<scalar> 
1740
(
491.83655
491.84862
491.86915
475.64355
475.55933
475.55651
459.4149
459.24825
459.15533
442.9227
442.86663
442.79044
426.39501
426.45511
426.48511
410.01902
410.07212
409.89822
393.46756
393.53692
393.27715
376.6061
376.63435
376.78456
359.99021
359.83558
359.98986
343.54441
343.48702
343.4474
327.05951
327.19944
327.14744
310.63007
310.62402
310.52119
293.96707
294.03944
293.95763
277.53385
277.63556
277.68586
261.19649
261.08092
261.10907
244.34141
244.37477
244.52259
227.87863
228.04718
228.23637
211.90174
211.94352
211.80276
195.54851
195.50036
195.2953
178.67375
178.70077
178.82969
161.70379
161.94942
162.32847
145.4107
145.51615
145.57855
129.399
129.10261
128.77647
113.27605
112.90061
112.81716
97.093815
97.101016
97.356649
80.782356
81.005731
81.217776
64.620491
64.442172
64.533981
48.154962
47.910761
47.986842
31.751345
31.86179
31.740864
16.618512
16.6354
15.970231
4.4441661
3.8613228
1.7287949
-0.6002819
-0.54470372
-0.40586484
-0.19363137
-0.17554193
-0.15427224
-0.071031255
-0.064680492
-0.062406327
-0.037702703
-0.035806278
-0.035200317
-0.021810458
-0.021368382
-0.021370975
-0.013072857
-0.013134582
-0.013449093
-0.0093401326
-0.0095575149
-0.010002746
-0.0086949762
-0.0089385513
-0.0093965446
-0.0090188639
-0.0092288719
-0.0095974039
-0.0092269046
-0.0093886283
-0.009682353
-0.0091003
-0.0092214164
-0.0094468579
-0.0085811613
-0.008671742
-0.0088437533
-0.0077678451
-0.0078385132
-0.0079744651
-0.0068241008
-0.0068797427
-0.0069882254
-0.0058847409
-0.0059291245
-0.0060168931
-0.005037304
-0.0050735351
-0.005145954
-0.0043165184
-0.0043465995
-0.0044072646
-0.0037214729
-0.0037465866
-0.0037976582
-0.0032393038
-0.003260225
-0.0033030349
-0.0028501879
-0.0028675689
-0.0029033204
-0.0025306742
-0.0025451052
-0.0025748899
-0.0022583467
-0.0022703116
-0.002295074
-0.0020159443
-0.0020258931
-0.0020465197
-0.0017921058
-0.0018004214
-0.0018176908
-0.0015807584
-0.0015877658
-0.0016023467
-0.0013797611
-0.0013857244
-0.0013981629
-0.0011891788
-0.0011943106
-0.0012050377
-0.0010099345
-0.0010143995
-0.0010237503
-0.00084324095
-0.00084717182
-0.00085542354
-0.00069032501
-0.0006938211
-0.00070118339
-0.00055209201
-0.00055523493
-0.00056187294
-0.00042913158
-0.00043197972
-0.00043801494
-0.00032171212
-0.00032431039
-0.00032983062
-0.00022959474
-0.0002319744
-0.00023704291
-0.00015207738
-0.00015426253
-0.00015892758
-8.8163152e-05
-9.0171549e-05
-9.4467805e-05
-3.6711018e-05
-3.8553324e-05
-4.2501392e-05
3.4856956e-06
1.8023207e-06
-1.8108878e-06
3.3639339e-05
3.2109688e-05
2.8821519e-05
5.4917967e-05
5.3538346e-05
5.0568344e-05
6.8424414e-05
6.7191382e-05
6.4534676e-05
7.518766e-05
7.4100208e-05
7.1754773e-05
7.6185111e-05
7.5242905e-05
7.3208613e-05
7.2337931e-05
7.1540521e-05
6.9817495e-05
6.4493552e-05
6.3840502e-05
6.2428962e-05
5.3442217e-05
5.2933709e-05
5.1834348e-05
3.9921332e-05
3.9557733e-05
3.8771416e-05
2.4731559e-05
2.4513058e-05
2.4039974e-05
8.4292031e-06
8.3562457e-06
8.1977838e-06
-1.348574
-0.96241766
-0.32360593
-0.24139743
-0.12913331
-0.11209512
-0.059207753
-0.055421198
-0.034028766
-0.032084198
-0.021003506
-0.019917433
-0.013536218
-0.013126438
-0.010338185
-0.010410675
-0.0098066315
-0.010003438
-0.0099833786
-0.010175519
-0.0099935333
-0.010219625
-0.0096971297
-0.0098941312
-0.0090431148
-0.0092131284
-0.0081361906
-0.0082803552
-0.0071200529
-0.0072432147
-0.0061263503
-0.0062340733
-0.0052385384
-0.0053334607
-0.0044862028
-0.0045697283
-0.00386509
-0.003938242
-0.0033602594
-0.0034236905
-0.0029516086
-0.0030059649
-0.0026154326
-0.0026615908
-0.0023289975
-0.0023679924
-0.0020749187
-0.0021078088
-0.0018415752
-0.0018694203
-0.0016226018
-0.0016463698
-0.0014155195
-0.0014360249
-0.001220073
-0.0012379613
-0.0010369153
-0.0010526922
-0.00086709048
-0.00088117221
-0.00071164315
-0.00072435592
-0.00057134955
-0.00058295541
-0.00044667685
-0.00045736635
-0.00033778854
-0.00034767962
-0.00024437978
-0.00025355689
-0.00016570585
-0.00017423127
-0.00010073086
-0.00010864623
-4.8274269e-05
-5.5602737e-05
-7.1086954e-06
-1.3860906e-05
2.3988639e-05
1.7807794e-05
4.6193926e-05
4.0582815e-05
6.0614813e-05
5.5573858e-05
6.8289001e-05
6.3822561e-05
7.0198696e-05
6.6313014e-05
6.7265438e-05
6.396611e-05
6.0336572e-05
5.7628368e-05
5.0203657e-05
4.8090984e-05
3.760451e-05
3.6091644e-05
2.3337663e-05
2.2426766e-05
7.9624192e-06
7.6571105e-06
-0.0056464895
-0.0054891724
-0.0051193331
-0.0045534312
-0.0038684169
-0.0031464818
-0.0024386642
-0.0017560464
-0.0011196382
-0.00055675031
-7.6586726e-05
0.00031618954
0.00062127813
0.00084221557
0.00098560749
0.0010602917
0.0010770837
0.0010453375
0.00097326349
0.00086833997
0.00073754801
0.00058732581
0.00042361036
0.00025294533
8.2558218e-05
-0.01097566
-0.010740257
-0.010213199
-0.009397528
-0.0083656652
-0.007215454
-0.0060602894
-0.0050087926
-0.0041023564
-0.0033715208
-0.0027670811
-0.0022658542
-0.0018512532
-0.0015106813
-0.0012321922
-0.0010039004
-0.00081333805
-0.00065354601
-0.00051926099
-0.00040601487
-0.00030988131
-0.00022733047
-0.00015484896
-8.8119432e-05
-2.2366382e-05
-0.020640547
-0.020367716
-0.019636428
-0.018568017
-0.017348655
-0.016118639
-0.015006478
-0.014074611
-0.013209755
-0.01235841
-0.011538102
-0.010744441
-0.0099675979
-0.0091988669
-0.0084284363
-0.0076453437
-0.006848873
-0.0060426037
-0.0052288961
-0.0044100822
-0.00358916
-0.0027699385
-0.0019568115
-0.0011526356
-0.00036242304
-0.037549305
-0.037042698
-0.035994304
-0.034682718
-0.033588898
-0.032452199
-0.03129083
-0.029987669
-0.028615467
-0.027166019
-0.025638651
-0.024047622
-0.022400115
-0.020680575
-0.018895509
-0.017081329
-0.015251283
-0.013412522
-0.011569446
-0.0097279836
-0.007895404
-0.0060796706
-0.0042893463
-0.0025259396
-0.00081217605
-0.08079304
-0.077326083
-0.073685352
-0.069093135
-0.06452584
-0.059899933
-0.055490443
-0.05123209
-0.047115775
-0.043198154
-0.039464247
-0.035894544
-0.032288826
-0.028780994
-0.025432274
-0.02224645
-0.019233193
-0.016397297
-0.013739087
-0.011252506
-0.0089263476
-0.0067451789
-0.0046928107
-0.0027490766
-0.00090896698
-0.23245796
-0.18085863
-0.15863511
-0.12610048
-0.1020229
-0.080718608
-0.062519327
-0.047651565
-0.035688699
-0.026101089
-0.018544154
-0.012647534
-0.0081655367
-0.0047770693
-0.0022168207
-0.00037671456
0.00088346637
0.0016761732
0.0020915107
0.0022058072
0.0020837855
0.0017821914
0.0013448431
0.00082718012
0.00021832937
-0.35493892
-0.13902401
-0.087332364
-0.050780732
-0.01555932
0.014419729
0.035340899
0.046797238
0.05179932
0.05355181
0.053383405
0.051662393
0.048752854
0.045054225
0.040891503
0.036501174
0.032056459
0.027677033
0.023436479
0.019372144
0.015493777
0.011795196
0.0082455711
0.0048457364
0.0014835847
-0.1903532
-0.1600531
-0.13451277
-0.11092066
-0.089647272
-0.070723705
-0.054552998
-0.041274186
-0.030369179
-0.021624182
-0.014723937
-0.0095945186
-0.0055698827
-0.0025340908
-0.0002958183
0.0012878881
0.0023271895
0.0029181419
0.0031446867
0.0030797608
0.0027860388
0.0023191671
0.0017214166
0.0010491865
0.00028722162
-0.099168424
-0.089277835
-0.080743648
-0.073706288
-0.067740748
-0.062445442
-0.057572109
-0.052945403
-0.048740273
-0.044768556
-0.0409543
-0.036917984
-0.033072945
-0.029454099
-0.02597575
-0.022676159
-0.019568596
-0.016656624
-0.013936988
-0.011400804
-0.0090346705
-0.0068213411
-0.0047435384
-0.0027788594
-0.00092121013
-0.050572456
-0.045965977
-0.04225545
-0.039487979
-0.037430429
-0.035698324
-0.0341299
-0.032629777
-0.03116334
-0.029652155
-0.028072388
-0.026395755
-0.024618661
-0.022723241
-0.020817224
-0.018878304
-0.016905738
-0.014904768
-0.012883316
-0.010850982
-0.0088183987
-0.0067966937
-0.004797441
-0.0028283541
-0.00090897036
-0.029530714
-0.026459005
-0.02346802
-0.02089105
-0.018851711
-0.017368781
-0.016239584
-0.015330386
-0.014556536
-0.013807326
-0.013082769
-0.012362082
-0.011619409
-0.010832403
-0.010012987
-0.0091584965
-0.0082686268
-0.0073453764
-0.0063926994
-0.0054163128
-0.004423337
-0.0034219229
-0.0024208091
-0.0014265348
-0.0004468657
-0.018233938
-0.016135418
-0.013927343
-0.011808014
-0.0099139515
-0.0082903889
-0.006948177
-0.0058746118
-0.0050324425
-0.0044042077
-0.0039002744
-0.003481529
-0.0031205467
-0.0027978614
-0.0025028604
-0.0022258635
-0.0019608015
-0.0017044117
-0.0014552411
-0.0012127343
-0.00097669797
-0.00074704433
-0.00052375174
-0.00030494703
-8.8278865e-05
-0.01222322
-0.010940367
-0.0094384481
-0.0079017877
-0.0064636345
-0.0051538042
-0.0040013991
-0.0030053609
-0.0021617917
-0.0014549296
-0.00087625441
-0.00041276496
-5.1357113e-05
0.00022054702
0.0004163985
0.00054605964
0.0006182303
0.000641314
0.00062344733
0.00057245296
0.00049575497
0.00040010578
0.00029101165
0.00017492431
5.9237508e-05
-0.010111651
-0.0094386497
-0.0085151566
-0.0074530739
-0.0063263192
-0.0052522252
-0.0042767128
-0.003415902
-0.002675512
-0.0020531532
-0.001536092
-0.0011114404
-0.00076474938
-0.00048450916
-0.00026606654
-0.00010124113
1.7398211e-05
9.7126903e-05
0.00014390998
0.00016321063
0.0001602301
0.00013960429
0.00010615943
6.4581496e-05
1.969035e-05
-0.0098861085
-0.0094568566
-0.0088044185
-0.0080127278
-0.0071504505
-0.0062830929
-0.0054549981
-0.0046925143
-0.004005849
-0.0034003771
-0.0028731522
-0.0024171556
-0.0020246164
-0.0016883016
-0.0014020522
-0.0011589073
-0.00095306481
-0.00077675837
-0.00062550983
-0.00049512235
-0.0003819807
-0.00028276028
-0.00019429176
-0.00011422938
-3.9133781e-05
-0.010144035
-0.009884787
-0.0094348397
-0.0088479916
-0.0081755268
-0.0074626142
-0.0067457746
-0.006050919
-0.0053947712
-0.0047859951
-0.0042282083
-0.0037212599
-0.0032627186
-0.0028491896
-0.0024767983
-0.0021409898
-0.0018371578
-0.001560166
-0.0013058318
-0.001070544
-0.00085119135
-0.00064522889
-0.0004505018
-0.00026516417
-8.7792799e-05
-0.01026288
-0.010116746
-0.0098090127
-0.0093760378
-0.0088473557
-0.0082547286
-0.0076308169
-0.0070000347
-0.0063793309
-0.0057795763
-0.0052080961
-0.0046691341
-0.0041642962
-0.0036935832
-0.0032558786
-0.0028491545
-0.0024708094
-0.0021175882
-0.0017863284
-0.001474089
-0.0011782536
-0.00089664106
-0.00062743595
-0.00036915257
-0.00012082548
-0.0099758183
-0.0099164117
-0.0097195476
-0.0094149008
-0.0090052009
-0.0085144103
-0.0079773186
-0.0074191503
-0.0068523938
-0.0062864216
-0.0057304536
-0.0051915774
-0.0046741768
-0.0041803258
-0.0037106119
-0.0032653531
-0.0028441619
-0.0024456175
-0.0020678614
-0.0017090194
-0.0013672711
-0.0010408805
-0.00072825202
-0.00042802393
-0.00013911584
-0.0093044148
-0.009287662
-0.0091572784
-0.0089126371
-0.0085912252
-0.0082161636
-0.0077945279
-0.0073337769
-0.0068446804
-0.006335612
-0.0058222537
-0.0053131538
-0.0048144042
-0.0043294717
-0.0038600215
-0.0034090333
-0.0029780469
-0.0025666816
-0.0021739412
-0.0017988371
-0.0014402507
-0.0010969124
-0.00076752526
-0.00045088564
-0.00014595446
-0.0083699129
-0.0083801473
-0.0083011766
-0.0081324139
-0.0078904117
-0.0075878422
-0.0072333018
-0.0068359094
-0.0064103162
-0.0059714427
-0.0055231778
-0.0050712541
-0.0046209431
-0.004177243
-0.0037447667
-0.0033247345
-0.0029175599
-0.0025239605
-0.0021439624
-0.0017779801
-0.0014259448
-0.0010873231
-0.00076137587
-0.00044732061
-0.00014443865
-0.0073297147
-0.0073591867
-0.0073205595
-0.0072115184
-0.0070383903
-0.0068086007
-0.006528785
-0.0062083783
-0.0058578134
-0.005486582
-0.0051000122
-0.0047041198
-0.0043043934
-0.0039058173
-0.0035122569
-0.0031261561
-0.0027491022
-0.0023825375
-0.0020277679
-0.001684792
-0.0013534004
-0.0010333485
-0.00072426528
-0.00042570518
-0.00013729246
-0.0063178418
-0.0063603736
-0.0063514536
-0.0062871328
-0.0061687418
-0.0059996616
-0.005784671
-0.0055313528
-0.0052472881
-0.0049393211
-0.0046136698
-0.0042755994
-0.0039299329
-0.0035810139
-0.0032324621
-0.0028868039
-0.0025463113
-0.0022127515
-0.0018874403
-0.0015710715
-0.0012639588
-0.00096621389
-0.00067781787
-0.00039850017
-0.00012830616
-0.0054132712
-0.0054635988
-0.0054747549
-0.0054418006
-0.0053636548
-0.0052419267
-0.0050800408
-0.0048824776
-0.0046548667
-0.0044025713
-0.0041311344
-0.003845432
-0.0035496771
-0.0032474856
-0.0029420627
-0.0026361689
-0.0023321928
-0.0020320666
-0.0017372783
-0.0014488448
-0.0011674483
-0.0008935353
-0.00062738947
-0.00036911266
-0.00011881905
-0.004644007
-0.0046971645
-0.004720478
-0.0047086449
-0.004659452
-0.0045732203
-0.0044519852
-0.0042987384
-0.0041174073
-0.0039121318
-0.0036871499
-0.0034466412
-0.0031942372
-0.002933309
-0.0026668243
-0.0023974121
-0.0021273575
-0.0018585875
-0.0015926886
-0.0013308827
-0.0010741213
-0.00082314346
-0.00057850719
-0.00034057684
-0.00010964765
-0.0040059793
-0.0040585845
-0.0040883461
-0.0040901682
-0.0040613256
-0.0040011699
-0.0039105863
-0.0037915257
-0.0036467613
-0.0034794267
-0.0032928081
-0.0030901867
-0.0028747704
-0.0026495414
-0.0024171402
-0.0021799444
-0.0019401411
-0.0016995455
-0.0014597987
-0.001222268
-0.00098808897
-0.00075820118
-0.00053336677
-0.00031415108
-0.00010105068
-0.0034845959
-0.0035345762
-0.0035669
-0.0035769262
-0.0035617939
-0.0035202982
-0.0034524993
-0.0033594449
-0.0032431007
-0.0031058607
-0.0029502681
-0.0027789335
-0.0025944556
-0.0023993416
-0.0021958724
-0.0019863155
-0.0017726699
-0.0015567262
-0.0013401081
-0.001124224
-0.0009103017
-0.00069939767
-0.00049241992
-0.00029009141
-9.3171473e-05
-0.0030594615
-0.0031054105
-0.003137945
-0.0031524267
-0.0031460726
-0.0031173211
-0.0030657672
-0.0029921884
-0.0028977951
-0.0027843439
-0.0026537428
-0.0025079771
-0.0023490577
-0.0021790035
-0.0020000321
-0.0018140084
-0.0016228517
-0.0014283195
-0.0012320114
-0.0010353261
-0.00083952513
-0.00064572581
-0.00045494299
-0.00026804227
-8.6048249e-05
-0.002707763
-0.002748505
-0.0027789969
-0.0027952235
-0.0027941577
-0.0027741527
-0.002734587
-0.0026756298
-0.0025982233
-0.0025034316
-0.0023926705
-0.0022675248
-0.0021296203
-0.0019807589
-0.0018226872
-0.0016571653
-0.0014858368
-0.0013103633
-0.0011322755
-0.00095297595
-0.00077374754
-0.00059573385
-0.00042004599
-0.00024760115
-7.9475834e-05
-0.0024075165
-0.0024430278
-0.0024704202
-0.0024863172
-0.0024881446
-0.0024741253
-0.0024433784
-0.0023957675
-0.0023315944
-0.0022515736
-0.0021567799
-0.0020485136
-0.0019282277
-0.0017974077
-0.0016575703
-0.0015102261
-0.0013568253
-0.0011988234
-0.0010376167
-0.00087455073
-0.00071090257
-0.00054783672
-0.0003866001
-0.00022797905
-7.3124121e-05
-0.0021414956
-0.0021722174
-0.0021964959
-0.0022113848
-0.0022145987
-0.0022045634
-0.0021803333
-0.0021414268
-0.0020878063
-0.0020199242
-0.0019385312
-0.001844666
-0.0017395616
-0.0016244893
-0.0015007698
-0.0013697514
-0.0012327324
-0.0010909796
-0.00094571546
-0.00079816409
-0.00064954785
-0.00050102844
-0.00035378817
-0.00020870842
-6.6897635e-05
-0.0018982085
-0.0019248252
-0.0019463248
-0.0019601451
-0.0019642321
-0.0019570936
-0.0019377818
-0.0019057403
-0.0018607725
-0.0018031024
-0.0017332773
-0.0016520942
-0.0015604938
-0.0014595564
-0.0013504368
-0.0012343179
-0.0011123613
-0.00098571947
-0.00085551129
-0.00072284849
-0.00058883684
-0.00045457429
-0.00032117906
-0.00018951442
-6.0674919e-05
-0.0016711736
-0.0016944224
-0.0017136213
-0.0017265405
-0.0017313326
-0.0017265912
-0.0017113591
-0.0016850694
-0.0016474611
-0.001598646
-0.0015389914
-0.0014690381
-0.0013896295
-0.0013015915
-0.0012059082
-0.0011035994
-0.00099570048
-0.00088325414
-0.0007672951
-0.00064885084
-0.00052894486
-0.00040859198
-0.00028885089
-0.00017045698
-5.4481966e-05
-0.0014576354
-0.0014781839
-0.001495547
-0.0015077866
-0.0015132511
-0.0015106354
-0.0014990072
-0.0014777766
-0.001446676
-0.001405705
-0.001355094
-0.0012952942
-0.0012269238
-0.0011506967
-0.0010674236
-0.00097798078
-0.00088327713
-0.00078424408
-0.00068182362
-0.00057696293
-0.00047060687
-0.00036368949
-0.00025728431
-0.0001518398
-4.8380093e-05
-0.0012570068
-0.0012753908
-0.0012913032
-0.0013030622
-0.0013092011
-0.001308525
-0.0013001404
-0.0012834573
-0.0012581904
-0.0012242784
-0.0011818634
-0.0011312584
-0.0010729578
-0.0010075663
-0.00093575553
-0.0008582708
-0.00077590872
-0.0006895036
-0.00059989919
-0.00050795206
-0.00041451937
-0.00032039748
-0.00022702663
-0.00013400613
-4.2229374e-05
-0.0010696674
-0.0010863091
-0.0011010786
-0.0011125204
-0.0011193384
-0.0011204504
-0.0011150161
-0.0011024578
-0.0010824416
-0.0010549147
-0.0010199298
-0.00097770335
-0.00092861287
-0.0008731599
-0.00081189438
-0.00074546652
-0.00067457676
-0.0005999599
-0.00052236832
-0.00044256679
-0.00036132768
-0.00027941914
-0.00019773257
-0.00011658197
-3.689915e-05
-0.00089648553
-0.00091173906
-0.00092561773
-0.00093686314
-0.00094433692
-0.00094707367
-0.0009443077
-0.00093547867
-0.00092022334
-0.00089841161
-0.00087010686
-0.00083545897
-0.00079474524
-0.0007483442
-0.00069674082
-0.00064049199
-0.00058019456
-0.00051647713
-0.00045001503
-0.0003814931
-0.0003115985
-0.00024101931
-0.00017046815
-0.00010044404
-3.1754171e-05
-0.00073832933
-0.00075247044
-0.00076565628
-0.00077679911
-0.00078490572
-0.00078911639
-0.00078873319
-0.00078322928
-0.00077224754
-0.00075556869
-0.00073322258
-0.00070534666
-0.00067214425
-0.00063392283
-0.0005910786
-0.00054407291
-0.0004934194
-0.00043967416
-0.00038341933
-0.0003252528
-0.0002657838
-0.0002056228
-0.00014539745
-8.5604877e-05
-2.6978189e-05
-0.00059584651
-0.00060909598
-0.00062174357
-0.0006328501
-0.00064154439
-0.00064706102
-0.00064876548
-0.00064616839
-0.00063892483
-0.00062681953
-0.00060977781
-0.00058790042
-0.00056137343
-0.00053044315
-0.00049543401
-0.00045672652
-0.00041475926
-0.00037000868
-0.00032297689
-0.00027418757
-0.00022417334
-0.00017347011
-0.00012262754
-7.2126105e-05
-2.2640208e-05
-0.00046936512
-0.00048188061
-0.00049408839
-0.00050517381
-0.0005143731
-0.00052100681
-0.0005245024
-0.00052440664
-0.00052039018
-0.0005122451
-0.00049987286
-0.00048328586
-0.00046262315
-0.00043811082
-0.0004100161
-0.000378657
-0.00034440331
-0.0003076575
-0.00026885256
-0.00022844255
-0.00018689096
-0.00014466296
-0.00010223642
-6.0078852e-05
-1.8777605e-05
-0.00035889706
-0.00037075986
-0.00038255715
-0.00039358294
-0.00040316909
-0.00041071201
-0.00041569465
-0.00041769884
-0.00041641199
-0.00041162865
-0.00040324222
-0.00039123545
-0.00037569282
-0.00035677446
-0.00033470331
-0.00030976505
-0.00028226774
-0.00025255212
-0.00022099122
-0.00018797464
-0.00015390252
-0.00011917828
-8.4223831e-05
-4.9444234e-05
-1.5366457e-05
-0.00026406008
-0.00027530898
-0.00028668975
-0.00029758765
-0.00030741554
-0.00031563821
-0.00032179031
-0.00032548977
-0.00032644428
-0.00032445309
-0.0003194034
-0.00031126461
-0.0003000824
-0.00028596997
-0.00026910581
-0.0002497153
-0.00022806304
-0.00020444619
-0.00017918444
-0.0001526095
-0.00012506589
-9.6902006e-05
-6.8484023e-05
-4.0152603e-05
-1.2377108e-05
-0.00018406391
-0.00019470944
-0.00020564103
-0.00021632371
-0.00022624222
-0.00023492158
-0.00024194453
-0.00024696355
-0.00024970749
-0.00024998322
-0.00024767395
-0.00024273567
-0.00023519062
-0.00022512141
-0.00021266466
-0.00019800016
-0.00018134946
-0.00016296446
-0.0001431129
-0.00012208156
-0.00010016514
-7.7665201e-05
-5.4893925e-05
-3.2128702e-05
-9.7819569e-06
-0.00011783708
-0.00012787821
-0.00013831561
-0.0001486881
-0.00015854656
-0.00016747183
-0.00017509049
-0.00018108679
-0.00018521022
-0.00018727653
-0.00018716735
-0.00018482844
-0.00018026514
-0.00017353592
-0.00016474613
-0.00015404172
-0.00014160358
-0.0001276395
-0.0001123761
-9.6056598e-05
-7.8932842e-05
-6.1261717e-05
-4.331128e-05
-2.5293478e-05
-7.5599817e-06
-6.416378e-05
-7.3590881e-05
-8.3491672e-05
-9.3466599e-05
-0.00010312407
-0.00011209723
-0.00012005574
-0.00012671536
-0.00013184523
-0.00013527139
-0.00013687732
-0.00013660215
-0.00013443658
-0.00013041966
-0.00012463184
-0.00011718977
-0.00010824039
-9.7955128e-05
-8.6524621e-05
-7.415324e-05
-6.1053942e-05
-4.7443778e-05
-3.3551206e-05
-1.953855e-05
-5.7036725e-06
-2.1791079e-05
-3.0584439e-05
-3.9902393e-05
-4.939784e-05
-5.8729916e-05
-6.7576924e-05
-7.5647405e-05
-8.2688258e-05
-8.8489577e-05
-9.2889783e-05
-9.577671e-05
-9.7085328e-05
-9.6795725e-05
-9.493049e-05
-9.1549369e-05
-8.6744263e-05
-8.0634089e-05
-7.3359888e-05
-6.5080133e-05
-5.5965646e-05
-4.6194992e-05
-3.595062e-05
-2.5424615e-05
-1.4751741e-05
-4.199563e-06
1.0514968e-05
2.3794118e-06
-6.3079747e-06
-1.5246906e-05
-2.4140623e-05
-3.2707781e-05
-4.0691206e-05
-4.786625e-05
-5.4044018e-05
-5.9077377e-05
-6.2859247e-05
-6.5323877e-05
-6.64448e-05
-6.6231967e-05
-6.4728003e-05
-6.2004163e-05
-5.8155808e-05
-5.3298015e-05
-4.7561387e-05
-4.1087739e-05
-3.4025899e-05
-2.6528453e-05
-1.8757011e-05
-1.0830564e-05
-2.9904145e-06
3.3935667e-05
2.6482005e-05
1.8470751e-05
1.0160211e-05
1.8071519e-06
-6.3431791e-06
-1.4064916e-05
-2.1157743e-05
-2.7453623e-05
-3.2819097e-05
-3.7155972e-05
-4.0400339e-05
-4.2521791e-05
-4.352109e-05
-4.3427261e-05
-4.2294758e-05
-4.0199187e-05
-3.7233536e-05
-3.3504588e-05
-2.9129309e-05
-2.4231132e-05
-1.8937305e-05
-1.3384112e-05
-7.6791283e-06
-2.0358555e-06
4.9582235e-05
4.2834507e-05
3.5542883e-05
2.7928012e-05
2.0210438e-05
1.2602154e-05
5.2998166e-06
-1.5210769e-06
-7.7114863e-06
-1.3150267e-05
-1.7748071e-05
-2.1445616e-05
-2.4211182e-05
-2.6039047e-05
-2.6948457e-05
-2.6980129e-05
-2.6193286e-05
-2.4662322e-05
-2.2473979e-05
-1.9724131e-05
-1.6514627e-05
-1.2951195e-05
-9.1483456e-06
-5.2016805e-06
-1.296944e-06
5.8498749e-05
5.2482184e-05
4.5952268e-05
3.9095696e-05
3.2099564e-05
2.5144981e-05
1.8400826e-05
1.2018614e-05
6.1287975e-06
8.384225e-07
-3.7709974e-06
-7.6434413e-06
-1.0747999e-05
-1.3076057e-05
-1.4639272e-05
-1.5467545e-05
-1.560667e-05
-1.5115928e-05
-1.406514e-05
-1.2532332e-05
-1.0600939e-05
-8.3584926e-06
-5.9009648e-06
-3.3093117e-06
-7.4111425e-07
6.1670993e-05
5.6409709e-05
5.0678508e-05
4.4633449e-05
3.8431504e-05
3.2225068e-05
2.6156847e-05
2.0355626e-05
1.4933249e-05
9.9824522e-06
5.5755244e-06
1.7636193e-06
-1.4226078e-06
-3.9723367e-06
-5.8926068e-06
-7.2050392e-06
-7.9448606e-06
-8.1586276e-06
-7.9020098e-06
-7.2376569e-06
-6.2334054e-06
-4.9611115e-06
-3.500272e-06
-1.9172901e-06
-3.4333922e-07
6.0017153e-05
5.5530284e-05
5.0627752e-05
4.5437737e-05
4.0089647e-05
3.4709257e-05
2.9414614e-05
2.4312997e-05
1.949804e-05
1.5048108e-05
1.1025082e-05
7.4739713e-06
4.423123e-06
1.8846309e-06
-1.4403947e-07
-1.6787099e-06
-2.7462908e-06
-3.3827555e-06
-3.6317802e-06
-3.542985e-06
-3.1705684e-06
-2.5723941e-06
-1.8129504e-06
-9.4603631e-07
-7.9067213e-08
5.4381647e-05
5.0685347e-05
4.6636765e-05
4.2338211e-05
3.7893154e-05
3.34025e-05
2.8961369e-05
2.465653e-05
2.0564045e-05
1.6747812e-05
1.325871e-05
1.0134398e-05
7.3995024e-06
5.0659503e-06
3.1338333e-06
1.5924215e-06
4.2201305e-07
-4.0492468e-07
-9.2186855e-07
-1.1672784e-06
-1.1833481e-06
-1.0152428e-06
-7.1367168e-07
-3.2117624e-07
7.6891917e-08
4.555503e-05
4.2663378e-05
3.9490109e-05
3.611323e-05
3.2611803e-05
2.9063164e-05
2.5540452e-05
2.2110623e-05
1.8832579e-05
1.5755897e-05
1.2920326e-05
1.0355572e-05
8.0815275e-06
6.1085224e-06
4.4378962e-06
3.0627979e-06
1.969308e-06
1.1375077e-06
5.4262013e-07
1.5600941e-07
-5.3885108e-08
-1.2085402e-07
-8.3131903e-08
2.7767025e-08
1.4810622e-07
3.427403e-05
3.2199073e-05
2.991888e-05
2.748834e-05
2.4963188e-05
2.2398116e-05
1.9844908e-05
1.7351031e-05
1.4958472e-05
1.2702668e-05
1.0612195e-05
8.708577e-06
7.0063159e-06
5.5132581e-06
4.2309256e-06
3.1551516e-06
2.2768022e-06
1.5824846e-06
1.0552144e-06
6.7520797e-07
4.2055827e-07
2.6778775e-07
1.8998954e-07
1.6656294e-07
1.5376029e-07
2.1331727e-05
2.0080684e-05
1.8704595e-05
1.7236113e-05
1.5708398e-05
1.4153989e-05
1.2603896e-05
1.1086438e-05
9.6267079e-06
8.2461778e-06
6.9622661e-06
5.7880539e-06
4.7323431e-06
3.7998802e-06
2.9917525e-06
2.3057908e-06
1.736835e-06
1.2771865e-06
9.1696482e-07
6.4457924e-07
4.4714173e-07
3.1084354e-07
2.1995979e-07
1.6244614e-07
1.1181025e-07
7.2900338e-06
6.8704665e-06
6.4087294e-06
5.9156897e-06
5.4023811e-06
4.8795771e-06
4.357478e-06
3.8459492e-06
3.3529138e-06
2.8858144e-06
2.45058e-06
2.051639e-06
1.6918737e-06
1.3728255e-06
1.0948568e-06
8.5727348e-07
6.5845499e-07
4.9589417e-07
3.6633118e-07
2.6597143e-07
1.9057433e-07
1.3568543e-07
9.6253525e-08
6.7835085e-08
4.0579964e-08
)
;

boundaryField
{
    Walls
    {
        type            zeroGradient;
    }
    Inlet
    {
        type            fixedValue;
        value           uniform 500;
    }
    Outlet
    {
        type            fixedValue;
        value           uniform 0;
    }
    Front
    {
        type            wedge;
    }
    Back
    {
        type            wedge;
    }
    defaultFaces
    {
        type            empty;
    }
}


// ************************************************************************* //
