/*--------------------------------*- C++ -*----------------------------------*\
| =========                 |                                                 |
| \\      /  F ield         | OpenFOAM: The Open Source CFD Toolbox           |
|  \\    /   O peration     | Version:  4.0                                   |
|   \\  /    A nd           | Web:      www.OpenFOAM.org                      |
|    \\/     M anipulation  |                                                 |
\*---------------------------------------------------------------------------*/
FoamFile
{
    version     2.0;
    format      ascii;
    class       surfaceScalarField;
    location    "0.01";
    object      phi;
}
// * * * * * * * * * * * * * * * * * * * * * * * * * * * * * * * * * * * * * //

dimensions      [0 3 -1 0 0 0 0];

internalField   nonuniform List<scalar> 
3364
(
-4.0666971e-10
1.700009e-08
-3.7059959e-10
5.3271407e-08
8.9809964e-08
-5.0417974e-10
1.7504263e-08
-1.1998005e-09
5.3967085e-08
8.8610197e-08
1.5317072e-10
1.7351079e-08
-4.0840506e-10
5.4528754e-08
8.8201814e-08
4.0806356e-10
1.6942969e-08
6.4413391e-10
5.4292685e-08
8.8845918e-08
3.4759475e-11
1.6908164e-08
4.6215423e-11
5.4281159e-08
8.8892083e-08
-1.0554332e-10
1.7013667e-08
9.5644556e-10
5.3219094e-08
8.9848479e-08
-1.4241461e-10
1.7156036e-08
1.2400028e-09
5.1836616e-08
9.1088437e-08
-3.6860367e-10
1.75246e-08
-1.2488171e-09
5.2716785e-08
8.9839596e-08
-3.782603e-10
1.790285e-08
-1.1659496e-09
5.3504468e-08
8.8673619e-08
-4.6852046e-11
1.7949686e-08
8.931538e-10
5.256443e-08
8.9566718e-08
-2.0565182e-10
1.8155293e-08
6.7467389e-11
5.2291242e-08
8.9634142e-08
-1.5356554e-10
1.830882e-08
-2.104328e-10
5.2348079e-08
8.942369e-08
-5.2926329e-10
1.8838064e-08
2.9672846e-11
5.1789129e-08
8.945334e-08
-3.4381128e-10
1.9181829e-08
-1.5424685e-10
5.1599498e-08
8.9299047e-08
4.7292131e-10
1.8708846e-08
1.18756e-10
5.1953612e-08
8.9417768e-08
4.5086366e-10
1.825796e-08
-1.127626e-10
5.2517189e-08
8.9304954e-08
1.9773007e-10
1.8060196e-08
-8.0181863e-10
5.3516668e-08
8.8503087e-08
-9.2367916e-11
1.8152497e-08
4.8944817e-10
5.2934826e-08
8.8992507e-08
-2.6964339e-10
1.8422083e-08
9.6863806e-10
5.1696512e-08
8.9961109e-08
-2.9343864e-10
1.8715491e-08
-7.3511402e-10
5.2138126e-08
8.9225946e-08
-2.7111317e-10
1.8986588e-08
-1.6917748e-09
5.3558736e-08
8.7534139e-08
6.1315199e-10
1.8373372e-08
1.1294893e-10
5.4058875e-08
8.7647062e-08
8.2594121e-10
1.7547368e-08
1.5760818e-09
5.3308658e-08
8.9223113e-08
2.4129746e-10
1.730603e-08
9.9776001e-11
5.345013e-08
8.9322851e-08
-4.2871073e-10
1.7734728e-08
-1.5155074e-09
5.4536915e-08
8.7807315e-08
-2.1390659e-10
1.794859e-08
-1.1405885e-09
5.5463584e-08
8.6666702e-08
2.0877585e-10
1.7739774e-08
-4.4774847e-10
5.6120063e-08
8.6218896e-08
1.2779953e-10
1.761198e-08
-8.973384e-10
5.7145174e-08
8.5321508e-08
-2.6097176e-10
1.7873e-08
3.9713268e-10
5.648715e-08
8.5718642e-08
1.2531184e-09
1.6620101e-08
6.5128274e-09
5.1227544e-08
9.2231455e-08
1.1607561e-08
5.0118878e-09
5.0493888e-08
1.2339281e-08
1.1808665e-08
1.3091407e-07
5.5001263e-09
-4.8876933e-10
1.9161758e-08
-1.3239604e-09
-1.4972576e-09
3.2465627e-08
-3.6387704e-10
-1.2485751e-10
-1.3654946e-09
-3.222647e-10
-4.5429585e-10
-2.408386e-09
-9.1805209e-11
-3.3043098e-11
-3.3234775e-10
-8.170483e-11
-1.3354799e-10
-6.5306616e-10
-1.511911e-11
-1.7923393e-11
-5.0909239e-11
-4.5912985e-11
-7.5742294e-11
-1.0871193e-10
-8.1508556e-12
-9.7720816e-12
-2.6824503e-11
-2.7238468e-11
-4.3810062e-11
-5.8755189e-11
-6.3975558e-12
-3.3741637e-12
-2.391985e-11
-9.7152498e-12
-1.6003033e-11
-5.17254e-11
-3.4610439e-12
8.7049177e-14
-1.3214215e-11
3.8431667e-14
-1.1248671e-12
-2.8091476e-11
-8.1604761e-13
9.0306754e-13
-3.1478667e-12
2.370232e-12
2.7020998e-12
-6.9747958e-12
4.0194116e-13
5.0101249e-13
1.4932429e-12
1.278705e-12
1.4541832e-12
2.7408588e-12
7.0817077e-13
-2.0728549e-13
2.7905862e-12
-8.0397333e-13
-1.7898054e-12
6.0341864e-12
6.5449281e-13
-8.6188182e-13
2.5699907e-12
-2.7196932e-12
-4.8473873e-12
5.6272409e-12
4.0660843e-13
-1.2685558e-12
1.5747562e-12
-3.8879842e-12
-6.6447994e-12
3.3719594e-12
1.0912878e-13
-1.3777091e-12
4.3272572e-13
-4.2116332e-12
-7.1767699e-12
9.6461535e-13
-6.7312744e-14
-1.3103935e-12
-2.8024207e-13
-3.9986958e-12
-6.795883e-12
-6.6112327e-13
-1.8086782e-13
-1.129507e-12
-7.4460105e-13
-3.4349209e-12
-5.8348818e-12
-1.7055469e-12
-2.209744e-13
-9.0850719e-13
-8.9546309e-13
-2.760378e-12
-4.6846606e-12
-2.0456094e-12
-2.0287618e-13
-7.0560596e-13
-8.2753598e-13
-2.1356653e-12
-3.6398994e-12
-1.8722246e-12
-1.6765948e-13
-5.3792544e-13
-6.6694167e-13
-1.6363391e-12
-2.79344e-12
-1.5133421e-12
-1.2219063e-13
-4.1571959e-13
-4.9325578e-13
-1.2652426e-12
-2.1626271e-12
-1.1240277e-12
-8.2358229e-14
-3.3335214e-13
-3.3338142e-13
-1.0142016e-12
-1.7336815e-12
-7.6230536e-13
-4.7839005e-14
-2.8550915e-13
-1.9326716e-13
-8.6876801e-13
-1.4844899e-12
-4.4245507e-13
-2.5249098e-14
-2.6026001e-13
-1.0329596e-13
-7.9072529e-13
-1.3465686e-12
-2.4122758e-13
-1.1780603e-14
-2.4848189e-13
-4.8794062e-14
-7.5372198e-13
-1.2793774e-12
-1.1600407e-13
-5.3261871e-15
-2.4315936e-13
-2.2629576e-14
-7.3643119e-13
-1.2459532e-12
-5.6075291e-14
-4.3009188e-15
-2.3886228e-13
-1.8376546e-14
-7.2236803e-13
-1.2189389e-12
-4.5411437e-14
-6.2408485e-15
-2.3262494e-13
-2.5442668e-14
-7.0317721e-13
-1.1844723e-12
-5.9927004e-14
-1.0086765e-14
-2.2254105e-13
-4.0094459e-14
-6.7317841e-13
-1.1324573e-12
-9.2123547e-14
-1.2668348e-14
-2.0987487e-13
-5.0673803e-14
-6.3517969e-13
-1.0657286e-12
-1.174131e-13
-1.6605031e-14
-1.932712e-13
-6.6366022e-14
-5.8542314e-13
-9.8228902e-13
-1.4981259e-13
-1.8014504e-14
-1.7525735e-13
-7.2697968e-14
-5.3074215e-13
-8.8996015e-13
-1.6503075e-13
-1.917037e-14
-1.5608701e-13
-7.690598e-14
-4.7300721e-13
-7.9332814e-13
-1.7353912e-13
-2.0673149e-14
-1.354134e-13
-8.3456139e-14
-4.1022343e-13
-6.8789612e-13
-1.8888692e-13
-2.0612078e-14
-1.1480056e-13
-8.2865381e-14
-3.4796846e-13
-5.8375331e-13
-1.8700543e-13
-1.9290286e-14
-9.5509326e-14
-7.762547e-14
-2.8963106e-13
-4.8595265e-13
-1.754224e-13
-1.7546766e-14
-7.7961515e-14
-7.0644372e-14
-2.3653092e-13
-3.968672e-13
-1.5972551e-13
-1.6220938e-14
-6.1739508e-14
-6.5096577e-14
-1.8765264e-13
-3.1552492e-13
-1.4643431e-13
-1.4758995e-14
-4.6979479e-14
-5.9260076e-14
-1.4314896e-13
-2.4159227e-13
-1.3318824e-13
-1.2995229e-14
-3.3983287e-14
-5.2354673e-14
-1.0378707e-13
-1.7587236e-13
-1.1807034e-13
-1.1080763e-14
-2.290165e-14
-4.4734159e-14
-7.013142e-14
-1.1961831e-13
-1.009843e-13
-9.2804695e-15
-1.362039e-14
-3.7436574e-14
-4.1973267e-14
-7.2130687e-14
-8.4920636e-14
-8.550218e-15
-5.0694484e-15
-3.4501277e-14
-1.6020316e-14
-2.8814333e-14
-7.7814348e-14
-7.0983871e-15
2.0295984e-15
-2.8628619e-14
5.511624e-15
6.975916e-15
-6.4415875e-14
-5.4903605e-15
7.5205549e-15
-2.1983933e-14
2.2006742e-14
3.4508637e-14
-4.9513912e-14
-4.3798914e-15
1.1901e-14
-1.7448316e-14
3.5076603e-14
5.6292995e-14
-3.9230078e-14
-3.7587919e-15
1.5660309e-14
-1.507168e-14
4.6390856e-14
7.501425e-14
-3.3790445e-14
-2.9738237e-15
1.8634618e-14
-1.2231727e-14
5.5650059e-14
9.0609198e-14
-2.7824287e-14
-2.1519815e-15
2.0787059e-14
-8.6871284e-15
6.2186454e-14
1.0152636e-13
-1.9601994e-14
-1.2035521e-15
2.1991055e-14
-4.643074e-15
6.5627194e-14
1.0723181e-13
-1.0346272e-14
-1.1907749e-16
-3.5673183e-16
-7.5095504e-16
1.4124184e-07
-1.0333212e-08
-9.7828192e-09
1.5101816e-07
2.3707456e-08
-1.5763646e-09
-1.411854e-09
1.5335907e-08
-3.4981971e-09
-4.8644577e-10
-5.1216611e-10
-4.3977398e-09
-9.6185971e-10
-1.7761505e-10
-2.145196e-10
-1.2594659e-09
-1.8131137e-10
-1.0501131e-10
-1.2473297e-10
-2.7109202e-10
-1.0445297e-10
-5.9311422e-11
-6.9734711e-11
-1.594485e-10
-8.9139844e-11
-2.1894998e-11
-2.620426e-11
-1.3266787e-10
-4.5769737e-11
-4.2156707e-12
-4.494995e-12
-6.7477826e-11
-1.2741649e-11
1.5512806e-12
2.4697067e-12
-1.9706235e-11
3.615151e-12
6.766074e-13
4.8496591e-13
5.5993969e-12
9.9411536e-12
-3.2308718e-12
-4.330256e-12
1.475572e-11
9.5358972e-12
-7.1399693e-12
-9.2532687e-12
1.4458349e-11
5.7446552e-12
-9.5129483e-12
-1.2385558e-11
8.8765872e-12
1.7186117e-12
-1.0267064e-11
-1.3364929e-11
2.6978212e-12
-1.2409674e-12
-9.687225e-12
-1.2536502e-11
-2.0694102e-12
-3.0858895e-12
-8.3068185e-12
-1.0780008e-11
-4.8423112e-12
-3.6450517e-12
-6.707286e-12
-8.7277276e-12
-5.6972277e-12
-3.3501526e-12
-5.2292697e-12
-6.8830431e-12
-5.1947362e-12
-2.708494e-12
-4.0340459e-12
-5.3571058e-12
-4.2343493e-12
-2.034275e-12
-3.123749e-12
-4.1552878e-12
-3.2360361e-12
-1.3787335e-12
-2.507296e-12
-3.3379795e-12
-2.1960141e-12
-8.0480078e-13
-2.1449487e-12
-2.8515325e-12
-1.2912483e-12
-4.4742051e-13
-1.938772e-12
-2.5716069e-12
-7.2736717e-13
-2.2030188e-13
-1.8345004e-12
-2.4221047e-12
-3.6983666e-13
-1.1203277e-13
-1.7785719e-12
-2.3370606e-12
-1.9711222e-13
-8.9843461e-14
-1.734167e-12
-2.2699622e-12
-1.5697464e-13
-1.1325326e-13
-1.6808639e-12
-2.1939079e-12
-1.893352e-13
-1.6894892e-13
-1.6040568e-12
-2.089077e-12
-2.738014e-13
-2.1662828e-13
-1.5048551e-12
-1.9537833e-12
-3.5193772e-13
-2.6991142e-13
-1.3847651e-12
-1.7955957e-12
-4.2810923e-13
-2.9541022e-13
-1.2543906e-12
-1.6230414e-12
-4.6797001e-13
-3.1055067e-13
-1.1173803e-12
-1.4448044e-12
-4.8878895e-13
-3.3626387e-13
-9.7000155e-13
-1.2565864e-12
-5.2447927e-13
-3.3370645e-13
-8.2329658e-13
-1.0673613e-12
-5.2292621e-13
-3.134703e-13
-6.8524339e-13
-8.8817532e-13
-4.9264942e-13
-2.8561562e-13
-5.5934716e-13
-7.2551696e-13
-4.4826608e-13
-2.5966778e-13
-4.4610722e-13
-5.7985539e-13
-4.0532104e-13
-2.3624812e-13
-3.4304093e-13
-4.4783899e-13
-3.682563e-13
-2.0987382e-13
-2.5123137e-13
-3.3092979e-13
-3.2677522e-13
-1.7970882e-13
-1.7250127e-13
-2.2980409e-13
-2.8082735e-13
-1.5197446e-13
-1.0544236e-13
-1.4348316e-13
-2.382889e-13
-1.388324e-13
-4.4419628e-14
-6.3700094e-14
-2.1860951e-13
-1.1445205e-13
5.6208151e-15
6.5761208e-16
-1.7880431e-13
-8.8064383e-14
4.4175227e-14
5.0035201e-14
-1.3743694e-13
-6.9797876e-14
7.4746762e-14
9.0029803e-14
-1.097877e-13
-5.9788342e-14
1.0074825e-13
1.2262519e-13
-9.2379138e-14
-4.9602928e-14
1.2253033e-13
1.5037153e-13
-7.7344874e-14
-3.5014732e-14
1.3794638e-13
1.7043656e-13
-5.5075529e-14
-1.8314452e-14
1.459178e-13
1.8067881e-13
-2.8552547e-14
-1.3103223e-15
-1.9890647e-15
-5.8572621e-11
5.8572588e-11
-1.2688838e-10
6.8315634e-11
-2.0282904e-10
7.5940484e-11
-2.8522821e-10
8.2398939e-11
-3.7409008e-10
8.8861878e-11
-4.6987832e-10
9.578825e-11
-5.7274765e-10
1.0286921e-10
-6.8227457e-10
1.095266e-10
-7.9822522e-10
1.1595016e-10
-9.219095e-10
1.2368365e-10
-1.052474e-09
1.3056383e-10
-1.1884839e-09
1.3600911e-10
-1.328153e-09
1.3966825e-10
-1.4694947e-09
1.4134078e-10
-1.6103345e-09
1.4083882e-10
-1.7482975e-09
1.3796187e-10
-1.8808499e-09
1.3255111e-10
-2.0055005e-09
1.2464928e-10
-2.1198445e-09
1.143428e-10
-2.2215955e-09
1.0174968e-10
-2.3086164e-09
8.7019708e-11
-2.3789411e-09
7.032353e-11
-2.4307572e-09
5.1815015e-11
-2.462411e-09
3.1652707e-11
1.0098763e-11
-5.5866932e-11
1.1443947e-10
-1.2167588e-10
1.3412439e-10
-1.9521424e-10
1.4947858e-10
-2.755647e-10
1.6274904e-10
-3.6220986e-10
1.755066e-10
-4.576588e-10
1.9123669e-10
-5.6708016e-10
2.1228999e-10
-6.9879552e-10
2.4124128e-10
-8.6495201e-10
2.8210586e-10
-1.0749075e-09
3.3363866e-10
-1.3075232e-09
3.6317901e-10
-1.5551359e-09
3.8362084e-10
-1.8126725e-09
3.9720382e-10
-2.0756613e-09
4.0432858e-10
-2.3393407e-09
4.045171e-10
-2.5978804e-09
3.9650045e-10
-2.8461868e-09
3.8085622e-10
-3.0796723e-09
3.5813344e-10
-3.2939321e-09
3.2860114e-10
-3.4846865e-09
2.9250263e-10
-3.6478381e-09
2.5016966e-10
-3.7795826e-09
2.0206636e-10
-3.876614e-09
1.4884457e-10
-3.9361422e-09
9.1179032e-11
2.9986674e-11
-6.9347568e-11
1.8378694e-10
-1.5165584e-10
2.164323e-10
-2.4666686e-10
2.4448913e-10
-3.5572956e-10
2.7181108e-10
-4.8796201e-10
3.0773824e-10
-6.4996408e-10
3.5323774e-10
-9.0457216e-10
4.6689677e-10
-1.2217702e-09
5.5843763e-10
-1.5501968e-09
6.1053046e-10
-1.8637305e-09
6.4717072e-10
-2.1704947e-09
6.6994147e-10
-2.4676083e-09
6.8073253e-10
-2.752337e-09
6.8193021e-10
-3.0190201e-09
6.7100928e-10
-3.2626547e-09
6.4814936e-10
-3.48314e-09
6.1698332e-10
-3.6808325e-09
5.7854627e-10
-3.855513e-09
5.3281144e-10
-4.0069074e-09
4.7999298e-10
-4.1349252e-09
4.2051788e-10
-4.2396788e-09
3.5492068e-10
-4.3213825e-09
2.8376747e-10
-4.3801953e-09
2.0765463e-10
-4.4157584e-09
1.2673939e-10
4.2965049e-11
-3.0249621e-10
4.8628263e-10
-6.0683735e-10
5.2077133e-10
-9.2130565e-10
5.5895502e-10
-1.2722759e-09
6.2277798e-10
-1.8335938e-09
8.6905207e-10
-2.3885213e-09
9.0816013e-10
-2.8200129e-09
8.9838363e-10
-3.1228415e-09
8.6126177e-10
-3.3162038e-09
8.0388838e-10
-3.4041855e-09
7.3514803e-10
-3.3945777e-09
6.6032925e-10
-3.2956868e-09
5.8183753e-10
-3.1066019e-09
4.9284167e-10
-2.837775e-09
4.0217918e-10
-2.5037302e-09
3.1410189e-10
-2.1453524e-09
2.5860342e-10
-1.7759013e-09
2.0909348e-10
-1.4071204e-09
1.6402936e-10
-1.0516669e-09
1.2453855e-10
-7.2238693e-10
9.1237417e-11
-4.3168744e-10
6.4221039e-11
-1.9100556e-10
4.3085777e-11
-1.0439791e-11
2.7089197e-11
1.0077942e-10
1.5520671e-11
6.9833042e-12
-2.1625742e-09
2.6488569e-09
-3.7631468e-09
2.1213397e-09
-5.1617375e-09
1.9575372e-09
-5.9847457e-09
1.4457676e-09
-6.0762787e-09
9.6056586e-10
-5.7012362e-09
5.3310063e-10
-5.0000969e-09
1.9723107e-10
-4.0297016e-09
-1.0914338e-10
-2.8494023e-09
-3.7641728e-10
-1.6112576e-09
-5.0300106e-10
-3.1704099e-10
-6.3388939e-10
1.0488745e-09
-7.8407763e-10
2.7043411e-09
-1.1626225e-09
4.424554e-09
-1.318029e-09
6.1300491e-09
-1.3913866e-09
7.7907886e-09
-1.4021276e-09
9.3665591e-09
-1.3666667e-09
1.0824106e-08
-1.2935063e-09
1.2137246e-08
-1.1885874e-09
1.328515e-08
-1.0566533e-09
1.4250971e-08
-9.0158377e-10
1.5020746e-08
-7.2667377e-10
1.5581723e-08
-5.3386993e-10
1.5924968e-08
-3.2770614e-10
-1.0711925e-10
5.5526907e-10
2.0936805e-09
3.3363764e-09
-6.5972233e-10
6.6417595e-09
-1.3477787e-09
9.793693e-09
-1.7061427e-09
1.3044804e-08
-2.2905261e-09
1.6441464e-08
-2.8635344e-09
1.9918685e-08
-3.2799589e-09
2.3292759e-08
-3.4831782e-09
2.6436387e-08
-3.5199981e-09
2.9406581e-08
-3.4731411e-09
3.2151678e-08
-3.3789296e-09
3.4604809e-08
-3.2371501e-09
3.6487662e-08
-3.0454147e-09
3.8003319e-08
-2.8336261e-09
3.9216945e-08
-2.6049537e-09
4.0167996e-08
-2.3531195e-09
4.0895906e-08
-2.0945191e-09
4.1437368e-08
-1.8349119e-09
4.182722e-08
-1.5783831e-09
4.2097742e-08
-1.3271207e-09
4.2277781e-08
-1.0815686e-09
4.2391982e-08
-8.4082278e-10
4.2460334e-08
-6.0216986e-10
4.2496417e-08
-3.6373834e-10
-1.1823315e-10
1.5593412e-07
-2.8209976e-09
1.5494349e-07
3.3187769e-10
1.5273931e-07
8.5721844e-10
1.4975163e-07
1.2822807e-09
1.4554596e-07
1.9157933e-09
1.4015297e-07
2.5300176e-09
1.338825e-07
2.9909932e-09
1.2716692e-07
3.2328062e-09
1.2035045e-07
3.2968212e-09
1.1360432e-07
3.273295e-09
1.0704103e-07
3.1846286e-09
1.0073366e-07
3.0704483e-09
9.4771415e-08
2.9170353e-09
8.9221547e-08
2.7164238e-09
8.4126425e-08
2.4903293e-09
7.9525089e-08
2.2483607e-09
7.543167e-08
1.9990297e-09
7.1848067e-08
1.7488094e-09
6.8767773e-08
1.5020183e-09
6.6179781e-08
1.2609711e-09
6.4072121e-08
1.0261831e-09
6.2434614e-08
7.9676978e-10
6.1262435e-08
5.7009024e-10
6.0554644e-08
3.4412967e-10
1.1194947e-10
1.3525718e-08
-1.0106693e-09
1.5326591e-08
-1.4688795e-09
1.7444565e-08
-1.2606449e-09
1.9674198e-08
-9.4724779e-10
2.2097435e-08
-5.0734613e-10
2.4839575e-08
-2.1203283e-10
2.7746085e-08
8.4565145e-11
3.0627742e-08
3.5123028e-10
3.3430426e-08
4.9421973e-10
3.6046498e-08
6.5730701e-10
3.8307164e-08
9.2404655e-10
4.008128e-08
1.2964163e-09
4.1538937e-08
1.45946e-09
4.270832e-08
1.54712e-09
4.3621582e-08
1.5771453e-09
4.4309377e-08
1.5606422e-09
4.480444e-08
1.50404e-09
4.5140723e-08
1.412598e-09
4.5351893e-08
1.2909167e-09
4.5469897e-08
1.1430333e-09
4.5523731e-08
9.7241289e-10
4.5538461e-08
7.8210183e-10
4.5534596e-08
5.7401491e-10
4.5526608e-08
3.5217577e-10
1.1518414e-10
-4.8612417e-09
-5.4718594e-10
-5.7166269e-09
-6.1351347e-10
-6.1645181e-09
-8.1277577e-10
-6.229644e-09
-8.8214407e-10
-5.8289989e-09
-9.0801191e-10
-5.136705e-09
-9.0434465e-10
-4.179221e-09
-8.7293311e-10
-3.0114782e-09
-8.1652215e-10
-1.7684284e-09
-7.4883587e-10
-4.3912671e-10
-6.7199693e-10
1.0726827e-09
-5.8776123e-10
2.8533727e-09
-4.8426809e-10
4.6923782e-09
-3.7953631e-10
6.5436794e-09
-3.0416863e-10
8.3665825e-09
-2.4574225e-10
1.0117465e-08
-1.9022251e-10
1.1761427e-08
-1.3990169e-10
1.327039e-08
-9.6342378e-11
1.4621875e-08
-6.0544897e-11
1.5797896e-08
-3.2962968e-11
1.6783858e-08
-1.3524004e-11
1.7567626e-08
-1.6397475e-12
1.8138083e-08
3.584072e-12
1.8486865e-08
3.4193259e-12
-8.8890009e-13
-1.5690767e-09
-2.3758266e-10
-1.925059e-09
-2.5754037e-10
-2.4541815e-09
-2.8366241e-10
-3.0148027e-09
-3.2153272e-10
-3.541368e-09
-3.8145709e-10
-3.9226424e-09
-5.2308107e-10
-4.2021199e-09
-5.9346642e-10
-4.3751498e-09
-6.4350281e-10
-4.4438222e-09
-6.8017352e-10
-4.4088573e-09
-7.0697114e-10
-4.2741775e-09
-7.2244968e-10
-4.0313442e-09
-7.2710904e-10
-3.6915269e-09
-7.1936035e-10
-3.2958688e-09
-6.9983249e-10
-2.868157e-09
-6.7345871e-10
-2.419018e-09
-6.3936534e-10
-1.961297e-09
-5.9762556e-10
-1.5090438e-09
-5.4859767e-10
-1.0768325e-09
-4.9275768e-10
-6.7916966e-10
-4.3062659e-10
-3.2996221e-10
-3.6273167e-10
-4.2020829e-11
-2.8958079e-10
1.7324242e-10
-2.1167847e-10
3.0604157e-10
-1.2937885e-10
-4.4172262e-11
-3.7494756e-10
-1.3372864e-10
-4.9049397e-10
-1.4199562e-10
-6.2531464e-10
-1.4884354e-10
-7.8856226e-10
-1.5828715e-10
-9.9751752e-10
-1.7250424e-10
-1.3262852e-09
-1.9431638e-10
-1.6980778e-09
-2.2167745e-10
-2.0880509e-09
-2.5353415e-10
-2.4654056e-09
-3.0282375e-10
-2.8173161e-09
-3.5506604e-10
-3.1556049e-09
-3.8416667e-10
-3.4773251e-09
-4.0539488e-10
-3.7772432e-09
-4.1944856e-10
-4.0518731e-09
-4.2520911e-10
-4.3018442e-09
-4.2349428e-10
-4.5265931e-09
-4.1462317e-10
-4.7255698e-09
-3.986556e-10
-4.8986478e-09
-3.7552636e-10
-5.0462123e-09
-3.4519996e-10
-5.169052e-09
-3.0779346e-10
-5.2681722e-09
-2.6361809e-10
-5.3445719e-09
-2.1318743e-10
-5.3990719e-09
-1.5718484e-10
-5.4321173e-09
-9.6339538e-11
-3.1699335e-11
-2.181089e-10
-7.5068913e-11
-2.8504744e-10
-7.5057857e-11
-3.6010097e-10
-7.3790904e-11
-4.4697067e-10
-7.1418489e-11
-5.5029322e-10
-6.9182902e-11
-6.7606717e-10
-6.8543857e-11
-8.2757609e-10
-7.0170221e-11
-1.0073611e-09
-7.3751079e-11
-1.2312839e-09
-7.8903286e-11
-1.5005324e-09
-8.5820244e-11
-1.791557e-09
-9.314522e-11
-2.0967105e-09
-1.0024497e-10
-2.4096579e-09
-1.0650505e-10
-2.7234482e-09
-1.1142305e-10
-3.032144e-09
-1.1480312e-10
-3.3306032e-09
-1.1616893e-10
-3.6141988e-09
-1.1506514e-10
-3.8785906e-09
-1.1114002e-10
-4.1195827e-09
-1.0421337e-10
-4.3330949e-09
-9.4286977e-11
-4.5151497e-09
-8.156912e-11
-4.6619591e-09
-6.6383862e-11
-4.7701265e-09
-4.9023225e-11
-4.8367304e-09
-2.9741446e-11
-9.1199541e-12
-1.7924738e-10
-2.8490043e-11
-2.3030734e-10
-2.3998657e-11
-2.8702552e-10
-1.7073603e-11
-3.4943635e-10
-9.0086525e-12
-4.1873104e-10
1.1068064e-13
-4.9464313e-10
7.3670096e-12
-5.7802013e-10
1.3205426e-11
-6.6975979e-10
1.7987106e-11
-7.7047065e-10
2.1805963e-11
-8.8119704e-10
2.4904395e-11
-1.0016683e-09
2.7324102e-11
-1.1309967e-09
2.9081427e-11
-1.2679905e-09
3.0486525e-11
-1.4112684e-09
3.1852468e-11
-1.5585704e-09
3.2496245e-11
-1.7071415e-09
3.2399396e-11
-1.8537472e-09
3.1537603e-11
-1.9947806e-09
2.9890274e-11
-2.126505e-09
2.7507709e-11
-2.2452664e-09
2.4471041e-11
-2.3477174e-09
2.0878413e-11
-2.4309516e-09
1.6846934e-11
-2.4923857e-09
1.240738e-11
-2.5298053e-09
7.6747985e-12
2.8462848e-12
-9.456793e-11
-1.4004436e-12
-1.2474523e-10
6.1780433e-12
-1.5557963e-10
1.3760103e-11
-1.8662653e-10
2.2037496e-11
-2.1777834e-10
3.1261679e-11
-2.503805e-10
3.9968293e-11
-2.849066e-10
4.7730584e-11
-3.2144242e-10
5.4521938e-11
-3.5968657e-10
6.004906e-11
-3.9910944e-10
6.4326171e-11
-4.3924717e-10
6.7460692e-11
-4.7965655e-10
6.9489622e-11
-5.1975434e-10
7.0583107e-11
-5.5876066e-10
7.0857553e-11
-5.9643387e-10
7.0168198e-11
-6.3253441e-10
6.8498656e-11
-6.6680129e-10
6.5803202e-11
-6.9888133e-10
6.1969029e-11
-7.2835504e-10
5.6980129e-11
-7.547203e-10
5.0835025e-11
-7.7744726e-10
4.3604096e-11
-7.9594439e-10
3.5342808e-11
-8.096459e-10
2.6107651e-11
-8.1809876e-10
1.6126445e-11
5.496178e-12
-2.8487346e-11
7.3804373e-12
-3.5190748e-11
1.28812e-11
-4.0803807e-11
1.9372909e-11
-4.5429978e-11
2.6663405e-11
-4.8608867e-11
3.4440304e-11
-5.0652837e-11
4.2011995e-11
-5.178443e-11
4.8861908e-11
-5.1834216e-11
5.4571454e-11
-5.0974928e-11
5.9189506e-11
-4.916981e-11
6.2520791e-11
-4.6296353e-11
6.458698e-11
-4.2317808e-11
6.5510835e-11
-3.7119304e-11
6.5384371e-11
-3.0550073e-11
6.4288105e-11
-2.266132e-11
6.2279244e-11
-1.3588357e-11
5.942551e-11
-3.5886487e-12
5.5803328e-11
6.8636117e-12
5.1516622e-11
1.7276983e-11
4.6566629e-11
2.714401e-11
4.0967886e-11
3.6058586e-11
3.4689423e-11
4.3622519e-11
2.7778791e-11
4.937229e-11
2.0357805e-11
5.3131302e-11
1.236736e-11
4.1144175e-12
9.2811747e-12
3.698622e-12
1.5094732e-11
7.0676295e-12
2.3287245e-11
1.118041e-11
3.3835191e-11
1.6115504e-11
4.6825455e-11
2.1450111e-11
6.2112738e-11
2.6724811e-11
7.929417e-11
3.16806e-11
9.7818406e-11
3.6047365e-11
1.1743698e-10
3.9571102e-11
1.3779837e-10
4.2159595e-11
1.5860518e-10
4.3780379e-11
1.7966224e-10
4.4453997e-11
2.0081496e-10
4.4231903e-11
2.2192752e-10
4.3175805e-11
2.4283599e-10
4.1371052e-11
2.633238e-10
3.8937986e-11
2.831585e-10
3.5968926e-11
3.0209161e-10
3.2583824e-11
3.197814e-10
2.887716e-11
3.3583997e-10
2.4909651e-11
3.4979942e-10
2.0730301e-11
3.6120831e-10
1.6370248e-11
3.6973719e-10
1.1829264e-11
3.7493516e-10
7.1697167e-12
2.2871484e-12
2.2625927e-11
-4.1715472e-12
3.2851011e-11
-3.1573856e-12
4.4979034e-11
-9.4751417e-13
5.9375074e-11
1.7195898e-12
7.6501619e-11
4.3237221e-12
9.583014e-11
7.3964766e-12
1.1712566e-10
1.0385294e-11
1.3978363e-10
1.3389639e-11
1.6302926e-10
1.6325745e-11
1.8653014e-10
1.8659013e-11
2.0998243e-10
2.032841e-11
2.3311661e-10
2.1320161e-11
2.557129e-10
2.1635969e-11
2.7759581e-10
2.1293259e-11
2.985506e-10
2.0416652e-11
3.1833162e-10
1.9157351e-11
3.3665262e-10
1.7648333e-11
3.5329998e-10
1.5936871e-11
3.6812365e-10
1.4053913e-11
3.80979e-10
1.2054718e-11
3.9172942e-10
9.9802981e-12
4.002565e-10
7.8435897e-12
4.0643879e-10
5.6473921e-12
4.1020905e-10
3.3998678e-12
1.0789698e-12
2.1160295e-11
-1.0873455e-11
2.9696323e-11
-1.1693352e-11
4.0136273e-11
-1.1387378e-11
5.2379973e-11
-1.0523998e-11
6.6426443e-11
-9.722609e-12
8.2329495e-11
-8.5064108e-12
9.9615357e-11
-6.9003776e-12
1.1775807e-10
-4.7528607e-12
1.3670685e-10
-2.6227981e-12
1.561673e-10
-8.0117209e-13
1.7565242e-10
8.4356457e-13
1.9474601e-10
2.2268747e-12
2.1307124e-10
3.3110459e-12
2.3029165e-10
4.0731793e-12
2.4619991e-10
4.5087209e-12
2.6066424e-10
4.6933699e-12
2.7363313e-10
4.6797981e-12
2.8508084e-10
4.4895166e-12
2.9498997e-10
4.1451521e-12
3.0336588e-10
3.6791851e-12
3.1022519e-10
3.1213556e-12
3.1557514e-10
2.4940144e-12
3.19409e-10
1.8139004e-12
3.2171826e-10
1.0909774e-12
3.3076234e-13
1.3020587e-11
-1.501743e-11
1.8363453e-11
-1.7036175e-11
2.5259624e-11
-1.8283486e-11
3.3490371e-11
-1.8754663e-11
4.2343077e-11
-1.8575215e-11
5.1946308e-11
-1.8109524e-11
6.235495e-11
-1.7308884e-11
7.3424955e-11
-1.5822712e-11
8.5253538e-11
-1.4451211e-11
9.7480321e-11
-1.3027768e-11
1.0977489e-10
-1.1450798e-11
1.2187424e-10
-9.8722637e-12
1.3357154e-10
-8.3860154e-12
1.4463211e-10
-6.9871546e-12
1.5501822e-10
-5.8771308e-12
1.6460634e-10
-4.8944857e-12
1.7326423e-10
-3.9778214e-12
1.8093417e-10
-3.1801515e-12
1.8760254e-10
-2.5229451e-12
1.9326006e-10
-1.9780572e-12
1.9790115e-10
-1.5194608e-12
2.0152321e-10
-1.1277675e-12
2.0412173e-10
-7.843543e-13
2.0568588e-10
-4.7290411e-13
-1.7704306e-13
3.9131854e-12
-1.6232744e-11
5.5481637e-12
-1.8671094e-11
7.8105588e-12
-2.0545812e-11
1.0757753e-11
-2.1701778e-11
1.4409559e-11
-2.2226932e-11
1.8554554e-11
-2.225442e-11
2.3276084e-11
-2.2030305e-11
2.8788813e-11
-2.1335322e-11
3.4580268e-11
-2.0242538e-11
4.0587834e-11
-1.9035197e-11
4.688024e-11
-1.774306e-11
5.3340582e-11
-1.6332454e-11
5.9802964e-11
-1.4848241e-11
6.6153988e-11
-1.3338018e-11
7.2172341e-11
-1.1895319e-11
7.7795435e-11
-1.0517414e-11
8.3000167e-11
-9.1823858e-12
8.7707945e-11
-7.8877606e-12
9.1910961e-11
-6.7257935e-12
9.5557735e-11
-5.6246644e-12
9.8596511e-11
-4.5580704e-12
1.0099364e-10
-3.5247326e-12
1.0272457e-10
-2.5151255e-12
1.0377008e-10
-1.5182586e-12
-5.1943091e-13
-3.0670939e-12
-1.5234997e-11
-4.0589361e-12
-1.7679189e-11
-4.9138937e-12
-1.9690792e-11
-5.4521931e-12
-2.1163414e-11
-5.587396e-12
-2.2091663e-11
-5.2661849e-12
-2.2575563e-11
-4.5972538e-12
-2.2699166e-11
-3.5087955e-12
-2.2423708e-11
-1.9689842e-12
-2.1782274e-11
5.406504e-14
-2.105817e-11
2.3475283e-12
-2.0036444e-11
4.7993558e-12
-1.8784202e-11
7.3340027e-12
-1.7382807e-11
9.9000725e-12
-1.5904007e-11
1.2384539e-11
-1.4379705e-11
1.4802141e-11
-1.2934936e-11
1.7120183e-11
-1.1500348e-11
1.9312859e-11
-1.0080359e-11
2.1291477e-11
-8.7043353e-12
2.3020788e-11
-7.3538993e-12
2.4481822e-11
-6.0190291e-12
2.565136e-11
-4.6941957e-12
2.6505366e-11
-3.3690574e-12
2.7035886e-11
-2.0487076e-12
-7.0501334e-13
-6.9163214e-12
-1.3160931e-11
-9.256302e-12
-1.5339159e-11
-1.170932e-11
-1.7237729e-11
-1.4094288e-11
-1.8778405e-11
-1.6236936e-11
-1.9948978e-11
-1.812185e-11
-2.0690613e-11
-1.9909364e-11
-2.0911618e-11
-2.1409218e-11
-2.0923822e-11
-2.257513e-11
-2.0616332e-11
-2.3480907e-11
-2.0152365e-11
-2.407945e-11
-1.9437874e-11
-2.4414667e-11
-1.8448959e-11
-2.4534426e-11
-1.7263023e-11
-2.4471945e-11
-1.5966466e-11
-2.4222557e-11
-1.4629072e-11
-2.3890815e-11
-1.326666e-11
-2.3507778e-11
-1.1883367e-11
-2.3100364e-11
-1.0487757e-11
-2.2712167e-11
-9.0925168e-12
-2.2359245e-11
-7.7068069e-12
-2.205231e-11
-6.3259507e-12
-2.1799913e-11
-4.9465779e-12
-2.1609371e-11
-3.5595851e-12
-2.1518611e-11
-2.1394547e-12
-7.1643569e-13
-8.1420788e-12
-1.0716038e-11
-1.0862459e-11
-1.2618744e-11
-1.3775427e-11
-1.4324733e-11
-1.6795142e-11
-1.5758667e-11
-1.9864669e-11
-1.6879433e-11
-2.2882085e-11
-1.7673184e-11
-2.5646172e-11
-1.8147521e-11
-2.8229214e-11
-1.8340773e-11
-3.0635405e-11
-1.8210137e-11
-3.295758e-11
-1.783019e-11
-3.5094343e-11
-1.7301113e-11
-3.7001457e-11
-1.6541849e-11
-3.8556398e-11
-1.570809e-11
-3.9799393e-11
-1.4723481e-11
-4.0825201e-11
-1.3603276e-11
-4.1700032e-11
-1.2391843e-11
-4.2451269e-11
-1.1132147e-11
-4.3088065e-11
-9.8509784e-12
-4.3631093e-11
-8.549508e-12
-4.40938e-11
-7.2441193e-12
-4.4476523e-11
-5.9432473e-12
-4.4775761e-11
-4.6473585e-12
-4.4987604e-11
-3.3477614e-12
-4.5107159e-11
-2.0199192e-12
-6.4720437e-13
-7.4734834e-12
-8.4372612e-12
-1.0104996e-11
-9.9872082e-12
-1.2908489e-11
-1.1521224e-11
-1.5879362e-11
-1.2787784e-11
-1.8943244e-11
-1.3815545e-11
-2.2063444e-11
-1.4552983e-11
-2.5105349e-11
-1.5105619e-11
-2.8024376e-11
-1.5421753e-11
-3.0838943e-11
-1.5395579e-11
-3.347777e-11
-1.5191377e-11
-3.6005361e-11
-1.4773538e-11
-3.8258063e-11
-1.4289166e-11
-4.0344113e-11
-1.3622061e-11
-4.2215476e-11
-1.2852143e-11
-4.3885496e-11
-1.1933281e-11
-4.5316244e-11
-1.0961124e-11
-4.6555814e-11
-9.8926064e-12
-4.7617251e-11
-8.7895743e-12
-4.8557346e-11
-7.6094459e-12
-4.9350619e-11
-6.450881e-12
-4.9994465e-11
-5.2994363e-12
-5.0495147e-11
-4.1467099e-12
-5.085816e-11
-2.9847823e-12
-5.1069241e-11
-1.8088724e-12
-6.2775497e-13
-6.0665784e-12
-6.6050147e-12
-8.1861244e-12
-7.8676502e-12
-1.0641525e-11
-9.0658169e-12
-1.3269113e-11
-1.0160193e-11
-1.5993117e-11
-1.1091545e-11
-1.8720418e-11
-1.1825688e-11
-2.1469158e-11
-1.2356889e-11
-2.4211364e-11
-1.2679561e-11
-2.6800073e-11
-1.2806887e-11
-2.9250113e-11
-1.2741356e-11
-3.15168e-11
-1.2506871e-11
-3.3687424e-11
-1.2118566e-11
-3.5696453e-11
-1.1613058e-11
-3.7493485e-11
-1.105514e-11
-3.8992574e-11
-1.0434222e-11
-4.0364351e-11
-9.5893791e-12
-4.1566183e-11
-8.6908092e-12
-4.2686326e-11
-7.6694663e-12
-4.3621668e-11
-6.674141e-12
-4.4393144e-11
-5.6794424e-12
-4.5014586e-11
-4.6780319e-12
-4.5493081e-11
-3.668251e-12
-4.5829652e-11
-2.6482474e-12
-4.6021193e-11
-1.6173688e-12
-5.5997428e-13
-4.6066676e-12
-5.2343797e-12
-6.1971688e-12
-6.2771492e-12
-8.0398549e-12
-7.2231345e-12
-1.0062471e-11
-8.137584e-12
-1.2200966e-11
-8.9530599e-12
-1.4363357e-11
-9.6633098e-12
-1.6469045e-11
-1.0251216e-11
-1.8548659e-11
-1.0599964e-11
-2.0579568e-11
-1.0775996e-11
-2.2531458e-11
-1.0789486e-11
-2.4386835e-11
-1.0651517e-11
-2.6117421e-11
-1.0388004e-11
-2.7699817e-11
-1.0030687e-11
-2.9067438e-11
-9.6875464e-12
-3.0337253e-11
-9.1644354e-12
-3.1434058e-11
-8.492605e-12
-3.2413846e-11
-7.7110529e-12
-3.3258455e-11
-6.8248896e-12
-3.396959e-11
-5.963039e-12
-3.4554255e-11
-5.0948117e-12
-3.5018789e-11
-4.2135311e-12
-3.536882e-11
-3.3182524e-12
-3.5610279e-11
-2.4068205e-12
-3.5754681e-11
-1.4729998e-12
-4.8457598e-13
-3.2094522e-12
-4.2209535e-12
-4.3510072e-12
-5.135608e-12
-5.5553293e-12
-6.0188279e-12
-6.8897977e-12
-6.8031324e-12
-8.3005707e-12
-7.5423049e-12
-9.7664694e-12
-8.1974302e-12
-1.1325834e-11
-8.6918708e-12
-1.28676e-11
-9.0582194e-12
-1.4387568e-11
-9.2560502e-12
-1.582927e-11
-9.3478059e-12
-1.7148934e-11
-9.3318752e-12
-1.8329258e-11
-9.2077037e-12
-1.9375129e-11
-8.9848404e-12
-2.0412544e-11
-8.6501557e-12
-2.1282402e-11
-8.2946029e-12
-2.2069805e-11
-7.7052271e-12
-2.2712865e-11
-7.0680196e-12
-2.3252228e-11
-6.2855531e-12
-2.3698613e-11
-5.5166806e-12
-2.4071979e-11
-4.7214727e-12
-2.4375103e-11
-3.9104342e-12
-2.4611653e-11
-3.0817269e-12
-2.4788913e-11
-2.2295856e-12
-2.4915221e-11
-1.3467169e-12
-4.4336083e-13
-1.9159208e-12
-3.596305e-12
-2.6822138e-12
-4.3693394e-12
-3.5385464e-12
-5.1625199e-12
-4.4006775e-12
-5.9410259e-12
-5.3148876e-12
-6.6281192e-12
-6.2728091e-12
-7.2395327e-12
-7.2537287e-12
-7.7109748e-12
-8.3080341e-12
-8.0039371e-12
-9.320389e-12
-8.2437179e-12
-1.0270762e-11
-8.3974553e-12
-1.1138137e-11
-8.4645215e-12
-1.1894292e-11
-8.4515702e-12
-1.2595801e-11
-8.2833515e-12
-1.3234098e-11
-8.0118797e-12
-1.3870775e-11
-7.6579467e-12
-1.438314e-11
-7.1928823e-12
-1.475343e-11
-6.6977502e-12
-1.5019619e-11
-6.0193842e-12
-1.5209825e-11
-5.3264934e-12