/*--------------------------------*- C++ -*----------------------------------*\
| =========                 |                                                 |
| \\      /  F ield         | OpenFOAM: The Open Source CFD Toolbox           |
|  \\    /   O peration     | Version:  4.0                                   |
|   \\  /    A nd           | Web:      www.OpenFOAM.org                      |
|    \\/     M anipulation  |                                                 |
\*---------------------------------------------------------------------------*/
FoamFile
{
    version     2.0;
    format      ascii;
    class       volVectorField;
    location    "0.01";
    object      U;
}
// * * * * * * * * * * * * * * * * * * * * * * * * * * * * * * * * * * * * * //

dimensions      [0 1 -1 0 0 0 0];

internalField   nonuniform List<vector> 
1740
(
(1.5152338 -0.013129239 5.0333155e-06)
(1.6286614 -0.014587474 7.6409183e-07)
(1.6564486 -0.00353867 3.0870974e-08)
(1.6288514 -0.015452185 7.6335576e-06)
(1.652613 -0.031506525 1.6319926e-06)
(1.6670918 -0.02273675 3.1910903e-07)
(1.6241339 0.011192468 1.1486196e-05)
(1.6580643 -0.011473545 2.3874147e-06)
(1.5439403 -0.010961937 4.5408149e-07)
(1.5384765 0.018200243 1.2999981e-05)
(1.6642656 0.015933933 3.3293248e-06)
(1.6686019 0.0036750523 5.3966779e-07)
(1.5650554 0.00063457933 1.503664e-05)
(1.6693192 0.0036022378 4.173511e-06)
(1.6806102 -0.0045657859 8.2939033e-07)
(1.5595795 -0.0027759364 1.6343677e-05)
(1.6725077 0.012355928 5.1688122e-06)
(1.5645106 0.0074210535 1.0011627e-06)
(1.5537479 -0.004402269 1.7345078e-05)
(1.561677 0.016663177 5.833692e-06)
(1.6854457 0.0076376666 1.1265285e-06)
(1.5588543 -0.01303339 1.8539382e-05)
(1.579124 -0.024068911 6.5886257e-06)
(1.6966776 -0.01622261 1.3713022e-06)
(1.6644952 -0.022007034 1.9424396e-05)
(1.6583445 -0.016178312 7.3587955e-06)
(1.5716931 -0.0046570919 1.5679527e-06)
(1.6514789 -0.012081846 1.9756922e-05)
(1.6393019 0.013681849 7.997672e-06)
(1.674534 0.017309094 1.6689948e-06)
(1.6467516 -0.0028070416 1.967995e-05)
(1.5758069 -0.00067975029 8.491463e-06)
(1.6781438 -0.0044830493 1.9863195e-06)
(1.6640953 -0.0040427697 2.0145445e-05)
(1.5963737 -0.0053716719 9.0568059e-06)
(1.5661465 -0.0076466003 2.1446655e-06)
(1.6633547 -0.018796958 2.0378313e-05)
(1.5932971 -0.007864881 9.6372763e-06)
(1.6763892 0.0014791199 2.2777449e-06)
(1.8062271 -0.016408613 2.0407458e-05)
(1.5894857 -0.0059974107 9.9770596e-06)
(1.6732022 -0.0016400174 2.5434931e-06)
(1.7315181 0.01369138 2.0784115e-05)
(1.5702674 0.0092117251 1.0517521e-05)
(1.5609038 0.0017276049 2.7247383e-06)
(1.6609781 0.015136588 2.1282468e-05)
(1.5626216 0.0088728494 1.0945577e-05)
(1.6777704 0.0024369916 2.8742621e-06)
(1.7005058 0.016733523 2.1154632e-05)
(1.6553322 -0.0099800332 1.1225089e-05)
(1.6690607 -0.016786613 3.0900387e-06)
(1.6322081 0.0017192146 2.1215759e-05)
(1.6591041 0.0032410089 1.1744402e-05)
(1.5516521 0.0037684723 3.2501981e-06)
(1.6803977 -0.014405467 2.1491873e-05)
(1.5681188 0.011708411 1.2013953e-05)
(1.6823236 0.016432485 3.3769779e-06)
(1.7137136 -0.014795012 2.172733e-05)
(1.58901 -0.012974087 1.2331436e-05)
(1.6811927 -0.0066794524 3.6055888e-06)
(1.6767063 -0.0058504049 2.1643945e-05)
(1.5648098 -0.028774366 1.2611246e-05)
(1.5674971 -0.021551916 3.7211749e-06)
(1.7824652 0.028541992 2.1486439e-05)
(1.6772324 0.010057266 1.2838654e-05)
(1.588621 -0.0084326761 3.8447854e-06)
(1.6355545 0.026123622 2.1849183e-05)
(1.6668946 0.037692002 1.3090802e-05)
(1.6286164 0.012172193 4.0011748e-06)
(1.5864713 -0.00058998421 2.1959304e-05)
(1.6306162 0.0097242656 1.3237352e-05)
(1.6947589 0.0085096647 4.1125336e-06)
(1.5837132 -0.022898964 2.2082515e-05)
(1.6283887 -0.027638759 1.3325065e-05)
(1.6096259 -0.013998459 4.2043908e-06)
(1.6379279 0.0010330758 2.1968311e-05)
(1.6730477 -0.022545725 1.3375598e-05)
(1.5616386 -0.014341902 4.2670937e-06)
(1.6435086 0.0025212066 2.2289202e-05)
(1.6932509 -0.0010042694 1.3387049e-05)
(1.5809709 0.00033620177 4.3315954e-06)
(1.524759 0.0022513414 2.2377854e-05)
(1.660484 -0.016561787 1.3447246e-05)
(1.5429583 -0.0070137528 4.3557419e-06)
(1.4988127 -0.0062121392 2.1501928e-05)
(1.6671671 -0.002963887 1.3247548e-05)
(1.5052357 0.0034676855 4.2927237e-06)
(1.3854676 0.028724014 2.2557097e-05)
(1.4042198 0.1160306 1.3492028e-05)
(1.4190276 0.067283639 4.7032157e-06)
(0.91331143 0.38086515 1.1382036e-05)
(0.87604893 0.96783789 8.2349638e-06)
(0.79323448 1.2792781 4.3992202e-06)
(0.25259365 0.13036312 1.806977e-06)
(0.21829317 0.40943222 2.2387151e-06)
(0.10000198 0.55755279 -1.0253702e-07)
(-0.029374155 -0.012570463 6.6671809e-07)
(-0.026720057 -0.027272306 4.0599985e-07)
(-0.01916872 -0.029610364 -2.6092427e-07)
(-0.0087037288 -0.0026463801 1.3514287e-07)
(-0.0078194963 -0.0067088956 1.0129448e-07)
(-0.00666987 -0.0088879409 -2.2178842e-08)
(-0.0027443103 -0.00047876217 5.494693e-09)
(-0.0024214582 -0.00092416931 9.1428153e-09)
(-0.0022986193 -0.0013417137 -4.071096e-09)
(-0.0013688637 -0.00025549684 -5.9927722e-09)
(-0.0012648312 -0.00048688495 -3.9137397e-09)
(-0.0012164189 -0.00072253123 -3.1941158e-09)
(-0.00069124678 -0.00018645992 1.2000756e-10)
(-0.00065776537 -0.00042886 -6.8562873e-10)
(-0.00063495784 -0.00065942651 -5.5480134e-10)
(-0.00024064078 -0.00010136565 3.2118448e-09)
(-0.00023203705 -0.00023659681 1.4559942e-09)
(-0.00022528986 -0.00036230828 9.1071505e-10)
(-1.5133951e-05 -2.3360261e-05 2.9553099e-09)
(-1.6088001e-05 -5.5899367e-05 1.6229374e-09)
(-2.1246689e-05 -8.6649436e-05 1.0554351e-09)
(3.1807836e-05 1.1160402e-05 2.1907945e-09)
(2.6989561e-05 2.5634914e-05 1.3137447e-09)
(1.7171813e-05 3.4673213e-05 8.1659222e-10)
(6.2761258e-06 2.0495511e-05 1.1202609e-09)
(1.0587117e-06 4.9014297e-05 7.3179395e-10)
(-7.3993976e-06 7.9295947e-05 4.0229372e-10)
(-3.4525231e-05 1.8559139e-05 2.5657812e-10)
(-3.8846756e-05 4.5560084e-05 1.7263309e-10)
(-4.6011032e-05 7.2853622e-05 6.4769818e-11)
(-7.299966e-05 1.1087702e-05 -2.3901929e-10)
(-7.6277532e-05 2.8722945e-05 -1.8606329e-10)
(-8.158027e-05 4.2986109e-05 -1.2281943e-10)
(-9.6821492e-05 2.3990795e-06 -3.3708519e-10)
(-9.9295888e-05 7.6733438e-06 -2.8115427e-10)
(-0.00010309986 1.1244874e-05 -1.7571038e-10)
(-0.00010398433 -2.5621653e-06 -3.7053787e-10)
(-0.00010597678 -4.8888424e-06 -2.5625003e-10)
(-0.0001088812 -9.1633603e-06 -1.603335e-10)
(-9.8737054e-05 -5.6120992e-06 -3.5788765e-10)
(-0.00010030461 -1.2977211e-05 -2.1546553e-10)
(-0.00010249545 -2.1753459e-05 -1.4087805e-10)
(-8.6659736e-05 -6.7907116e-06 -2.5207347e-10)
(-8.7877593e-05 -1.5629191e-05 -1.5512755e-10)
(-8.9536056e-05 -2.6540319e-05 -8.7368356e-11)
(-7.2681014e-05 -6.0923634e-06 -1.2496841e-10)
(-7.3652067e-05 -1.4553159e-05 -6.6193491e-11)
(-7.4962217e-05 -2.4153686e-05 -2.5497215e-11)
(-5.945503e-05 -4.9938314e-06 -3.2794106e-11)
(-6.025355e-05 -1.1980722e-05 -8.8324275e-12)
(-6.1346719e-05 -1.9321339e-05 5.774997e-12)
(-4.8038146e-05 -3.5981976e-06 1.5481383e-12)
(-4.8703123e-05 -8.8617808e-06 -5.8252943e-13)
(-4.963705e-05 -1.4264034e-05 1.1492687e-11)
(-3.9022277e-05 -2.4001797e-06 2.2135812e-11)
(-3.9575379e-05 -5.9579104e-06 6.4430495e-12)
(-4.0367311e-05 -9.712709e-06 1.5818436e-11)
(-3.2553535e-05 -1.3908453e-06 3.3201483e-11)
(-3.3015826e-05 -3.4780279e-06 1.4805977e-11)
(-3.3683561e-05 -5.7094215e-06 1.9294916e-11)
(-2.8288355e-05 -7.3158359e-07 2.8133275e-11)
(-2.8677654e-05 -1.8402212e-06 8.1246808e-12)
(-2.9235359e-05 -3.0537202e-06 1.3450564e-11)
(-2.5611973e-05 -3.5323332e-07 1.1222857e-11)
(-2.5941167e-05 -8.6206554e-07 -8.6714095e-12)
(-2.6400113e-05 -1.432439e-06 7.0343192e-13)
(-2.3902308e-05 -1.7976739e-07 1.094115e-12)
(-2.4182879e-05 -3.9376209e-07 -1.4903833e-11)
(-2.4556618e-05 -7.0370322e-07 -4.0250087e-12)
(-2.264684e-05 -1.5985636e-07 -3.2618552e-12)
(-2.288769e-05 -3.1844189e-07 -1.398877e-11)
(-2.3190115e-05 -5.7676517e-07 -4.2117238e-12)
(-2.1504565e-05 -2.199357e-07 -7.3503438e-12)
(-2.1712716e-05 -4.4319531e-07 -1.3358359e-11)
(-2.1957686e-05 -7.6685171e-07 -4.3474282e-12)
(-2.0305388e-05 -3.390036e-07 -1.0875036e-11)
(-2.0486381e-05 -7.0792036e-07 -1.4297735e-11)
(-2.0686032e-05 -1.1846573e-06 -5.5832667e-12)
(-1.8985696e-05 -4.1820223e-07 -1.7600706e-11)
(-1.9143684e-05 -8.8879588e-07 -1.9343435e-11)
(-1.9306835e-05 -1.4965833e-06 -9.1406728e-12)
(-1.7528816e-05 -5.3368704e-07 -1.5836147e-11)
(-1.7667014e-05 -1.1829002e-06 -1.5785106e-11)
(-1.7800857e-05 -1.9346729e-06 -7.3160079e-12)
(-1.5952098e-05 -5.7398932e-07 -1.8185885e-11)
(-1.6072977e-05 -1.2841937e-06 -1.5754533e-11)
(-1.6183907e-05 -2.1419535e-06 -6.6494821e-12)
(-1.4291234e-05 -6.0500347e-07 -1.7870203e-11)
(-1.4396823e-05 -1.3674789e-06 -1.3406624e-11)
(-1.4489876e-05 -2.2444021e-06 -5.1567574e-12)
(-1.2581877e-05 -6.4104351e-07 -1.6319967e-11)
(-1.2674098e-05 -1.4743022e-06 -1.0947665e-11)
(-1.2753702e-05 -2.4247293e-06 -3.4536462e-12)
(-1.0870288e-05 -6.36115e-07 -1.5899118e-11)
(-1.0950711e-05 -1.4689821e-06 -1.1502606e-11)
(-1.1020226e-05 -2.4011984e-06 -4.1005982e-12)
(-9.2105832e-06 -5.9483324e-07 -1.5859087e-11)
(-9.2806363e-06 -1.3773495e-06 -1.2045305e-11)
(-9.3423932e-06 -2.2559076e-06 -4.6468986e-12)
(-7.6450336e-06 -5.4034567e-07 -1.485082e-11)
(-7.7059044e-06 -1.255013e-06 -1.1211645e-11)
(-7.7616337e-06 -2.055276e-06 -4.2951447e-12)
(-6.1981316e-06 -4.9801639e-07 -1.2571254e-11)
(-6.2511019e-06 -1.1612303e-06 -9.6351525e-12)
(-6.302483e-06 -1.8913626e-06 -3.5351039e-12)
(-4.8815959e-06 -4.5190592e-07 -1.1142057e-11)
(-4.9278327e-06 -1.0575443e-06 -8.8057602e-12)
(-4.9761888e-06 -1.7211187e-06 -3.158393e-12)
(-3.6994189e-06 -3.975605e-07 -1.1179527e-11)
(-3.7398148e-06 -9.3145775e-07 -9.2916175e-12)
(-3.7858751e-06 -1.5218651e-06 -3.5303811e-12)
(-2.6494651e-06 -3.4000458e-07 -1.2002064e-11)
(-2.6847897e-06 -7.9468598e-07 -1.0559472e-11)
(-2.7290338e-06 -1.3000166e-06 -4.4699988e-12)
(-1.7256471e-06 -2.8584483e-07 -1.2660044e-11)
(-1.7565472e-06 -6.6431429e-07 -1.1411477e-11)
(-1.7993613e-06 -1.0901867e-06 -5.1310712e-12)
(-9.2022552e-07 -2.6157622e-07 -1.0242153e-11)
(-9.4736535e-07 -6.1382475e-07 -8.8541845e-12)
(-9.8912184e-07 -1.002617e-06 -3.5777829e-12)
(-2.2621619e-07 -2.176698e-07 -1.0027788e-11)
(-2.5025347e-07 -5.1024847e-07 -8.3242271e-12)
(-2.9131179e-07 -8.3179659e-07 -3.3137529e-12)
(3.6238445e-07 -1.6989901e-07 -1.1055189e-11)
(3.4096054e-07 -3.9235412e-07 -9.1934735e-12)
(3.0039237e-07 -6.389133e-07 -3.9574989e-12)
(8.5281444e-07 -1.3624696e-07 -1.1282071e-11)
(8.3358277e-07 -3.1188219e-07 -9.3776204e-12)
(7.9340373e-07 -5.0637212e-07 -4.1672454e-12)
(1.2523642e-06 -1.1621387e-07 -1.0551383e-11)
(1.2348934e-06 -2.6908709e-07 -8.6822553e-12)
(1.194996e-06 -4.3696783e-07 -3.7862901e-12)
(1.5671786e-06 -9.1343602e-08 -1.0481364e-11)
(1.5510536e-06 -2.1489461e-07 -8.6630894e-12)
(1.5113307e-06 -3.5715982e-07 -3.6516437e-12)
(1.7965991e-06 -6.602971e-08 -1.0240463e-11)
(1.781449e-06 -1.5391409e-07 -8.5495731e-12)
(1.7418602e-06 -2.5221585e-07 -3.6726562e-12)
(1.9510365e-06 -3.7210129e-08 -1.0225194e-11)
(1.936516e-06 -8.4010319e-08 -8.5346246e-12)
(1.896959e-06 -1.3394974e-07 -3.8021922e-12)
(1.9958327e-06 -4.3848235e-09 -9.7312966e-12)
(1.9814939e-06 -6.6193956e-09 -7.5247315e-12)
(1.9422151e-06 -9.9731384e-09 -3.4424487e-12)
(-0.049975536 2.0155497 -1.1633353e-06)
(-0.036956521 1.7654036 -4.2289608e-06)
(-0.066163675 0.38489157 -1.0138714e-06)
(-0.047138542 0.17053236 -1.7870288e-06)
(-0.014731593 -0.039508187 -4.8819038e-07)
(-0.010372026 -0.043654373 -5.4688523e-07)
(-0.0053272643 -0.010810979 -7.0251386e-08)
(-0.0044825801 -0.011534737 -7.4383983e-08)
(-0.0021427895 -0.0018899486 -9.9085813e-09)
(-0.001992289 -0.0022863322 -9.3312333e-09)
(-0.0011483425 -0.0010398667 -2.8357167e-09)
(-0.0010636419 -0.0013234106 -2.0541576e-09)
(-0.00059715389 -0.0009081705 -3.4326433e-10)
(-0.00053337051 -0.0011146427 -5.9807533e-11)
(-0.00020838374 -0.00047421491 6.7550742e-10)
(-0.00017526857 -0.00056932687 6.9605727e-10)
(-1.9286866e-05 -0.00012579486 7.5723862e-10)
(-1.3327566e-05 -0.00016082884 6.9465414e-10)
(1.0965933e-05 3.8054587e-05 5.5477546e-10)
(1.203845e-05 4.5971945e-05 4.6939802e-10)
(-1.5511937e-05 0.00010160087 2.9934291e-10)
(-1.5690124e-05 0.00012326155 2.2312983e-10)
(-5.2656711e-05 9.6046102e-05 5.4228294e-11)
(-5.6175577e-05 0.00011864828 2.8115579e-11)
(-8.683653e-05 5.8766238e-05 -9.0081944e-11)
(-9.0092118e-05 7.1662044e-05 -7.0931027e-11)
(-0.00010711624 1.6497473e-05 -1.1197671e-10)
(-0.00010997361 2.1644588e-05 -9.0760174e-11)
(-0.00011199283 -1.23433e-05 -1.0356039e-10)
(-0.00011421898 -1.7088954e-05 -7.6370408e-11)
(-0.00010483983 -3.0523511e-05 -9.3715661e-11)
(-0.00010657036 -4.0288738e-05 -6.1179698e-11)
(-9.1362398e-05 -3.6598188e-05 -6.5656298e-11)
(-9.2837802e-05 -4.7087726e-05 -4.3939283e-11)
(-7.6464787e-05 -3.3757968e-05 -2.0990287e-11)
(-7.7781533e-05 -4.2959545e-05 -1.65768e-11)
(-6.263847e-05 -2.7293603e-05 8.7937528e-12)
(-6.3843387e-05 -3.5001637e-05 2.8941144e-12)
(-5.0770552e-05 -2.0374078e-05 1.4431793e-11)
(-5.1888399e-05 -2.67652e-05 1.214726e-11)
(-4.1351725e-05 -1.374303e-05 1.6706151e-11)
(-4.2372865e-05 -1.8032526e-05 1.5390997e-11)
(-3.4529505e-05 -8.070115e-06 1.7627299e-11)
(-3.5434554e-05 -1.0532028e-05 1.5471455e-11)
(-2.9950192e-05 -4.364418e-06 1.3481979e-11)
(-3.073084e-05 -5.8748257e-06 1.2731402e-11)
(-2.6991848e-05 -2.1275486e-06 4.1185254e-12)
(-2.7648151e-05 -2.9546257e-06 5.3372926e-12)
(-2.5038089e-05 -1.0780419e-06 3.5520341e-13)
(-2.5576231e-05 -1.5766759e-06 1.8303262e-12)
(-2.3577746e-05 -8.7553788e-07 -3.0144113e-13)
(-2.4012321e-05 -1.2488337e-06 8.1653478e-13)
(-2.2269321e-05 -1.1176874e-06 -7.3182701e-13)
(-2.261904e-05 -1.5347825e-06 2.5005964e-13)
(-2.0937794e-05 -1.6847994e-06 -1.8999393e-12)
(-2.1220462e-05 -2.2384101e-06 -8.1511067e-13)
(-1.9510559e-05 -2.150261e-06 -4.2520344e-12)
(-1.9739431e-05 -2.8650139e-06 -2.2780376e-12)
(-1.7965782e-05 -2.7141191e-06 -3.2814157e-12)
(-1.8151246e-05 -3.5428454e-06 -1.7482736e-12)
(-1.6318546e-05 -2.9819632e-06 -2.8744315e-12)
(-1.6469512e-05 -3.846867e-06 -1.6562929e-12)
(-1.4601272e-05 -3.1384707e-06 -1.9036575e-12)
(-1.4725565e-05 -4.0380142e-06 -1.0547488e-12)
(-1.2848351e-05 -3.4012375e-06 -5.9909503e-13)
(-1.2954222e-05 -4.3481685e-06 6.7073386e-14)
(-1.1103048e-05 -3.3590665e-06 -1.0734382e-12)
(-1.1196596e-05 -4.3343014e-06 -8.4536373e-14)
(-9.4162087e-06 -3.1546812e-06 -1.5440436e-12)
(-9.5006888e-06 -4.0726914e-06 -4.5390637e-13)
(-7.828764e-06 -2.875462e-06 -1.3995656e-12)
(-7.9066896e-06 -3.7055669e-06 -3.9673611e-13)
(-6.3651176e-06 -2.6250928e-06 -1.0203144e-12)
(-6.4387795e-06 -3.3600547e-06 -1.8054201e-13)
(-5.035994e-06 -2.3891634e-06 -8.3001946e-13)
(-5.1072142e-06 -3.0572305e-06 -7.8220681e-14)
(-3.8437605e-06 -2.1207358e-06 -1.0760259e-12)
(-3.9136377e-06 -2.7146783e-06 -2.7188589e-13)
(-2.7855515e-06 -1.8126277e-06 -1.7606306e-12)
(-2.8546567e-06 -2.3267101e-06 -7.7143449e-13)
(-1.8549204e-06 -1.5284862e-06 -2.2551967e-12)
(-1.9236093e-06 -1.9661181e-06 -1.1578231e-12)
(-1.0441116e-06 -1.3992038e-06 -1.2847083e-12)
(-1.1127704e-06 -1.8052968e-06 -4.6771858e-13)
(-3.4609805e-07 -1.1563871e-06 -1.1896589e-12)
(-4.1509806e-07 -1.4828907e-06 -4.7018342e-13)
(2.4562738e-07 -8.8950787e-07 -1.6839541e-12)
(1.7617597e-07 -1.1398711e-06 -8.7000562e-13)
(7.3861762e-07 -7.0422615e-07 -1.8750412e-12)
(6.6876052e-07 -9.0674501e-07 -1.0225934e-12)
(1.1401508e-06 -6.0495056e-07 -1.6391819e-12)
(1.069921e-06 -7.6878472e-07 -8.5120946e-13)
(1.4563768e-06 -5.002385e-07 -1.4587389e-12)
(1.3857708e-06 -6.4147827e-07 -6.7340538e-13)
(1.6868343e-06 -3.525249e-07 -1.5043809e-12)
(1.6159495e-06 -4.5491492e-07 -7.1385317e-13)
(1.8418111e-06 -1.8509562e-07 -1.6743216e-12)
(1.7706522e-06 -2.3625437e-07 -8.836081e-13)
(1.8874291e-06 -1.3456582e-08 -1.6313712e-12)
(1.8167106e-06 -1.6607317e-08 -9.3813006e-13)
(0.00093154916 -0.00021042519 3.8380628e-10)
(0.00091201347 -0.0006824645 5.4518478e-10)
(0.00086210763 -0.0010004186 5.1371498e-10)
(0.00078491972 -0.0013105885 4.9756526e-10)
(0.00068883055 -0.0015875993 4.8017701e-10)
(0.00058392921 -0.0018388039 4.5795581e-10)
(0.00047944843 -0.0020749486 4.3419255e-10)
(0.00038212086 -0.0022990121 4.0988377e-10)
(0.0002954668 -0.002512537 3.861241e-10)
(0.00022275724 -0.0027196167 3.6422785e-10)
(0.00016175903 -0.0029217838 3.4471853e-10)
(0.00011144029 -0.0031165439 3.2706481e-10)
(7.0893951e-05 -0.0033013491 3.1075227e-10)
(3.9219989e-05 -0.0034725577 2.9530601e-10)
(1.5381615e-05 -0.0036279246 2.8057085e-10)
(-1.7814981e-06 -0.0037623936 2.6621959e-10)
(-1.3577127e-05 -0.0038741694 2.524979e-10)
(-2.0920175e-05 -0.0039638501 2.3952854e-10)
(-2.4564049e-05 -0.004028151 2.2694934e-10)
(-2.5182885e-05 -0.0040660946 2.1445763e-10)
(-2.3387423e-05 -0.0040765034 2.0205598e-10)
(-1.9733954e-05 -0.0040595437 1.8958821e-10)
(-1.4754403e-05 -0.0040176218 1.7833228e-10)
(-9.0500355e-06 -0.0039405497 1.7161103e-10)
(-3.3344697e-06 -0.0037774856 1.5245814e-10)
(0.00083817646 -0.00017529445 2.3233915e-10)
(0.00083365434 -0.00065554044 8.1235269e-11)
(0.00081346916 -0.00096529515 1.1603153e-10)
(0.00078521961 -0.0012614228 1.5408649e-10)
(0.00075510061 -0.0015262239 1.8918135e-10)
(0.00072639876 -0.0017746715 2.1529618e-10)
(0.00070351611 -0.0020304856 2.3749248e-10)
(0.00068937626 -0.0023154628 2.5653608e-10)
(0.00067647697 -0.0026540086 2.7169502e-10)
(0.00066024644 -0.0030698908 2.8127319e-10)
(0.00064116004 -0.0035298704 2.8389616e-10)
(0.00061870233 -0.003984549 2.7925373e-10)
(0.00059229704 -0.0044180291 2.6881101e-10)
(0.000561643 -0.0048237241 2.5425606e-10)
(0.00052656417 -0.0051952448 2.3705845e-10)
(0.00048693979 -0.0055261192 2.1803555e-10)
(0.00044332858 -0.0058093649 1.9786739e-10)
(0.00039645452 -0.0060408804 1.7727565e-10)
(0.00034690909 -0.0062199032 1.5697991e-10)
(0.0002952409 -0.0063446865 1.3728844e-10)
(0.00024200796 -0.0064137669 1.1852624e-10)
(0.00018778332 -0.0064270917 1.0109581e-10)
(0.00013314505 -0.0063881476 8.665995e-11)
(7.8590722e-05 -0.006285889 8.198294e-11)
(2.4864049e-05 -0.0060455284 9.0407825e-11)
(0.001485335 -0.00018325764 -1.7110903e-09)
(0.0014733103 -0.00085618214 -2.7007541e-09)
(0.0014439642 -0.0011603805 -2.1761485e-09)
(0.0014159482 -0.0016169363 -1.396076e-09)
(0.0014122097 -0.00199219 -8.6447429e-10)
(0.0014127443 -0.0024546442 -4.9102247e-10)
(0.0014122571 -0.0030891521 -2.6277102e-10)
(0.001398112 -0.0039200384 -1.3851801e-10)
(0.0013720371 -0.004728962 -9.2866059e-11)
(0.0013318408 -0.0054195619 -8.8160935e-11)
(0.0012801973 -0.0059875409 -1.0532526e-10)
(0.0012192053 -0.0064629278 -1.3295496e-10)
(0.0011502048 -0.0068520141 -1.6490662e-10)
(0.0010730189 -0.0071599771 -1.9751168e-10)
(0.00098860877 -0.0073889372 -2.2657062e-10)
(0.00089986443 -0.0075434434 -2.5238517e-10)
(0.00080811011 -0.0076360596 -2.743096e-10)
(0.00071414312 -0.0076729341 -2.9215258e-10)
(0.00061850512 -0.0076619753 -3.0546792e-10)
(0.00052177791 -0.0076088988 -3.1423021e-10)
(0.0004245881 -0.0075179367 -3.1858113e-10)
(0.00032757912 -0.007394576 -3.1844772e-10)
(0.00023142701 -0.0072451235 -3.1232363e-10)
(0.00013641101 -0.0070585788 -2.8696508e-10)
(4.4155966e-05 -0.0067700069 -1.7949899e-10)
(0.003362479 -0.00088764393 -1.9816819e-08)
(0.0031896472 -0.0037825108 -2.7131078e-08)
(0.0030262567 -0.0043932865 -2.1861088e-08)
(0.0028284912 -0.006037007 -1.3999432e-08)
(0.0026407634 -0.0074322603 -8.3256801e-09)
(0.0024504314 -0.0093392491 -4.3236181e-09)
(0.0022647912 -0.010477755 -2.2279554e-09)
(0.0020789084 -0.010972434 -1.2344783e-09)
(0.0018978464 -0.010986873 -9.1414707e-10)
(0.0017260288 -0.01066398 -9.2671719e-10)
(0.0015630011 -0.010085742 -1.0681105e-09)
(0.001407649 -0.0093157678 -1.2181785e-09)
(0.0012493476 -0.0083941706 -1.3333351e-09)
(0.0010960617 -0.0073578885 -1.4083795e-09)
(0.00095168756 -0.006263448 -1.4501061e-09)
(0.00081721698 -0.0051781357 -1.4638051e-09)
(0.0006931572 -0.0041583161 -1.4551254e-09)
(0.00057956942 -0.0032169191 -1.4289742e-09)
(0.00047633891 -0.0023681287 -1.3890916e-09)
(0.00038299661 -0.001628977 -1.3385091e-09)
(0.00029874805 -0.0010063178 -1.2798564e-09)
(0.00022251693 -0.00050746831 -1.2150776e-09)
(0.00015315171 -0.00013821391 -1.1448177e-09)
(8.9364384e-05 0.00012716361 -1.0549713e-09)
(3.0663413e-05 0.00020451255 -8.9351678e-10)
(0.010868654 -0.0081149449 -1.6353032e-07)
(0.0080356037 -0.0245816 -2.2453764e-07)
(0.0068447182 -0.026113633 -1.9090845e-07)
(0.0051042088 -0.031695931 -1.4287246e-07)
(0.0038278115 -0.029136285 -1.0239954e-07)
(0.002700634 -0.02586955 -6.7148262e-08)
(0.0017477141 -0.021410293 -4.1219013e-08)
(0.00098871342 -0.016551301 -2.2871862e-08)
(0.00039597841 -0.011649117 -1.1706606e-08)
(-5.9540832e-05 -0.0070516994 -6.5068796e-09)
(-0.00039701208 -0.0028787289 -4.783355e-09)
(-0.00063800422 0.0010089977 -4.4390319e-09)
(-0.00079666965 0.0049666572 -4.4171622e-09)
(-0.00089009616 0.0088986011 -4.3437212e-09)
(-0.00093350676 0.012466069 -4.1875854e-09)
(-0.00093498249 0.015618104 -3.9725105e-09)
(-0.00090309531 0.018337907 -3.7224313e-09)
(-0.00084454991 0.020609034 -3.4571261e-09)
(-0.00076463858 0.022430831 -3.189905e-09)
(-0.00066796628 0.023814697 -2.9292243e-09)
(-0.00055856305 0.024777942 -2.6800388e-09)
(-0.00044005111 0.025345982 -2.4447546e-09)
(-0.00031490264 0.025526785 -2.2260705e-09)
(-0.00018721803 0.025438302 -2.0063605e-09)
(-5.7671689e-05 0.024505286 -1.5673154e-09)
(0.015272403 0.022934936 -8.9627749e-07)
(0.0034410366 -0.0089749257 -1.1750875e-06)
(0.00075957145 0.044525232 -1.0893434e-06)
(-0.0010159271 0.039963153 -9.2481379e-07)
(-0.0027249855 0.055441843 -7.8697847e-07)
(-0.0041484588 0.065374241 -6.128707e-07)
(-0.0050723069 0.072242463 -4.5932076e-07)
(-0.0054765508 0.078821428 -3.0371641e-07)
(-0.0055281265 0.084102795 -1.652736e-07)
(-0.005408951 0.087924613 -7.3879404e-08)
(-0.0051922071 0.090746639 -3.009826e-08)
(-0.0048973531 0.092566257 -1.446679e-08)
(-0.0045096584 0.092988448 -1.0186724e-08)
(-0.0041102427 0.092212089 -8.8222927e-09)
(-0.00371091 0.090598928 -7.7790615e-09)
(-0.0032872104 0.088622963 -6.9014252e-09)
(-0.0028700594 0.086301624 -6.0693427e-09)
(-0.0024664289 0.083766464 -5.3040585e-09)
(-0.0020804638 0.081116927 -4.6196663e-09)
(-0.0017139236 0.078430494 -4.0171963e-09)
(-0.0013667346 0.075761644 -3.4914846e-09)
(-0.001037694 0.073177253 -3.0343269e-09)
(-0.00072417562 0.070607981 -2.6407325e-09)
(-0.00042510176 0.068499461 -2.3281498e-09)
(-0.00013373567 0.064956214 -1.484319e-09)
(-0.0023322713 1.2258447 -3.163996e-06)
(-0.0011543096 1.0060082 -2.6159367e-06)
(-0.0013411566 0.90880757 -2.1786613e-06)
(-0.00084494345 0.81565506 -1.8918188e-06)
(-0.00068907752 0.71839165 -1.6307283e-06)
(-0.00055670929 0.62475149 -1.3718507e-06)
(-0.00044385854 0.54069381 -1.2866916e-06)
(-0.00035543257 0.47212918 -1.203232e-06)
(-0.00029671105 0.41658748 -8.9260535e-07)
(-0.000249888 0.36778277 -4.7778346e-07)
(-0.00021339183 0.32438562 -1.7862165e-07)
(-0.00017065391 0.2869168 -4.2433229e-08)
(-0.00014515227 0.25471206 -2.7514705e-09)
(-0.00012546078 0.22690349 2.5624824e-09)
(-0.00010747003 0.20292309 6.98433e-10)
(-9.3135954e-05 0.18232081 -1.1910803e-09)
(-8.078673e-05 0.16468015 -2.2155986e-09)
(-6.9504833e-05 0.14962394 -2.6332244e-09)
(-5.8945357e-05 0.13682021 -2.7124623e-09)
(-4.8918879e-05 0.12598262 -2.6150256e-09)
(-3.9311236e-05 0.11685031 -2.4312895e-09)
(-3.0061329e-05 0.10925963 -2.2085138e-09)
(-2.1082894e-05 0.10283683 -1.9752904e-09)
(-1.2429892e-05 0.098159166 -1.81138e-09)
(-3.8466484e-06 0.092190004 -8.7920932e-10)
(-0.01423586 0.097794482 -1.7858779e-06)
(-0.00277334 0.098166014 -1.6134183e-06)
(-0.00036567478 0.10200011 -1.362622e-06)
(0.0012714334 0.10085183 -1.1307714e-06)
(0.0029112353 0.10151856 -8.9046782e-07)
(0.0042902623 0.10258101 -6.8784602e-07)
(0.0051881677 0.10428497 -5.087895e-07)
(0.0055716801 0.106529 -3.3268096e-07)
(0.0056184815 0.10841903 -1.7889011e-07)
(0.0054964019 0.10953552 -7.628869e-08)
(0.0052421553 0.10970633 -3.1389266e-08)
(0.0049232056 0.10877609 -1.4706528e-08)
(0.0045755519 0.10663354 -8.1049092e-09)
(0.0041683925 0.10416377 -6.5185101e-09)
(0.0037411986 0.10129266 -5.779399e-09)
(0.0033111592 0.098154464 -5.1475134e-09)
(0.0028887452 0.094861363 -4.5570679e-09)
(0.002480869 0.091501892 -4.023179e-09)
(0.0020914769 0.088150204 -3.5531627e-09)
(0.0017221709 0.084868125 -3.1446469e-09)
(0.0013727545 0.0816964 -2.7915768e-09)
(0.0010419236 0.078696368 -2.485651e-09)
(0.00072699121 0.075771471 -2.2229415e-09)
(0.00042675473 0.073422605 -2.0287791e-09)
(0.00013437987 0.069564894 -1.2098037e-09)
(-0.0078016148 -0.039610737 -4.1397341e-07)
(-0.006369181 -0.03692685 -3.4281441e-07)
(-0.0051582085 -0.036654573 -2.5364711e-07)
(-0.0039949135 -0.033700479 -1.832315e-07)
(-0.0029211545 -0.029291035 -1.2733565e-07)
(-0.0019599583 -0.024105495 -8.5486276e-08)
(-0.0011431814 -0.018627797 -5.4172232e-08)
(-0.00048409064 -0.013216305 -3.1452177e-08)
(4.4126658e-05 -0.0081751826 -1.7534296e-08)
(0.00044900912 -0.0036226812 -1.0709032e-08)
(0.0007468406 0.00089791288 -8.1507502e-09)
(0.00094015121 0.0055252284 -6.9701796e-09)
(0.0010659929 0.0099518212 -6.3098019e-09)
(0.0011298232 0.013983704 -5.7855909e-09)
(0.0011484444 0.017580929 -5.2695615e-09)
(0.0011285889 0.020714795 -4.7633964e-09)
(0.0010763769 0.023365937 -4.2831789e-09)
(0.0009974775 0.025534951 -3.8390334e-09)
(0.00089703253 0.027234229 -3.4353088e-09)
(0.0007796621 0.028484134 -3.0724688e-09)
(0.0006494697 0.02930793 -2.7489834e-09)
(0.00051019302 0.029733506 -2.460443e-09)
(0.00036449841 0.029773542 -2.2200619e-09)
(0.00021660612 0.029564232 -1.9698662e-09)
(6.6929936e-05 0.028422993 -1.4111747e-09)
(-0.0039012342 -0.011671868 -4.5682562e-08)
(-0.0035182736 -0.012198454 -3.2633494e-08)
(-0.0032070521 -0.013456037 -2.0649491e-08)
(-0.0029565431 -0.014879078 -1.2850054e-08)
(-0.002733995 -0.015925067 -7.9574417e-09)
(-0.0025211674 -0.016377824 -5.0031814e-09)
(-0.0023137534 -0.01625992 -3.2592306e-09)
(-0.0021053173 -0.015772119 -2.423195e-09)
(-0.0019133924 -0.015006993 -2.101563e-09)
(-0.0017330537 -0.01401879 -2.1260732e-09)
(-0.0015601354 -0.012849443 -2.2427788e-09)
(-0.0013745656 -0.011533468 -2.3251274e-09)
(-0.0012009309 -0.010105309 -2.3520575e-09)
(-0.0010423672 -0.0086411455 -2.3283982e-09)
(-0.00089356619 -0.0072212586 -2.2650307e-09)
(-0.00075671806 -0.0058818724 -2.1731279e-09)
(-0.00063259013 -0.0046376649 -2.0627181e-09)
(-0.0005212728 -0.003500924 -1.9413274e-09)
(-0.00042236415 -0.0024865735 -1.8143424e-09)
(-0.00033504803 -0.0016071769 -1.6857131e-09)
(-0.00025817653 -0.00087186603 -1.5582776e-09)
(-0.00019032868 -0.00028649866 -1.4337593e-09)
(-0.0001300488 0.0001427976 -1.311626e-09)
(-7.5717326e-05 0.00045080248 -1.1640718e-09)
(-2.6616547e-05 0.00052868253 -8.975367e-10)
(-0.0018140318 -0.0026685908 -4.0847712e-09)
(-0.001672626 -0.0030244111 -2.2102022e-09)
(-0.0015876278 -0.0033793148 -1.1556942e-09)
(-0.0015506283 -0.0037756282 -5.7613267e-10)
(-0.0015409818 -0.0042838895 -2.3503235e-10)
(-0.0015345936 -0.0050812555 -6.30168e-11)
(-0.0015217822 -0.0060619739 -3.0267811e-11)
(-0.0014978383 -0.0069805477 -8.6786053e-11)
(-0.0014628839 -0.0077648084 -1.8949469e-10)
(-0.0014134398 -0.0083806279 -2.9706289e-10)
(-0.0013532061 -0.0088550446 -3.8969932e-10)
(-0.0012827799 -0.0092302634 -4.6234063e-10)
(-0.0012034989 -0.0095134738 -5.1618072e-10)
(-0.0011153194 -0.0097052075 -5.5106624e-10)
(-0.0010251434 -0.0098196682 -5.7019638e-10)
(-0.00093212065 -0.0098673933 -5.7726003e-10)
(-0.00083654654 -0.0098570842 -5.7425608e-10)
(-0.00073889671 -0.0097947267 -5.6320441e-10)
(-0.00063969573 -0.0096882092 -5.4555029e-10)
(-0.00053951188 -0.0095436637 -5.2273712e-10)
(-0.00043895095 -0.0093670838 -4.9591406e-10)
(-0.00033864058 -0.0091643 -4.657661e-10)
(-0.00023922976 -0.0089426336 -4.3014197e-10)
(-0.00014119313 -0.0086869264 -3.679474e-10)
(-4.5878431e-05 -0.0083232045 -2.1237658e-10)
(-0.0009716853 -0.0015661941 -6.1266413e-10)
(-0.00087125251 -0.0017726812 -1.5640162e-10)
(-0.00078744487 -0.0019623619 -4.4858169e-11)
(-0.00072875325 -0.002159964 -7.3115105e-13)
(-0.0006946785 -0.0023838679 3.6246418e-11)
(-0.00068463458 -0.0026609438 6.7859562e-11)
(-0.00068565725 -0.0029879153 9.2516927e-11)
(-0.00069031966 -0.0033639304 1.1158448e-10)
(-0.00069409633 -0.0038059361 1.2139919e-10)
(-0.00069164967 -0.0043274184 1.2381815e-10)
(-0.00068343645 -0.0048808823 1.1997196e-10)
(-0.00066900461 -0.0054132279 1.1078004e-10)
(-0.00064763572 -0.0059130936 9.9403669e-11)
(-0.00061877511 -0.0063717934 8.7609478e-11)
(-0.00058385235 -0.0067734437 7.4937493e-11)
(-0.00054326657 -0.0071184466 6.3172713e-11)
(-0.00049748534 -0.0074069683 5.2934298e-11)
(-0.00044708995 -0.0076349437 4.3935274e-11)
(-0.00039275665 -0.0078022869 3.6218776e-11)
(-0.00033524299 -0.0079084065 2.9710965e-11)
(-0.00027536291 -0.0079531602 2.4348778e-11)
(-0.00021395068 -0.0079374929 2.0348884e-11)
(-0.00015180301 -0.0078655134 1.9654836e-11)
(-8.9609892e-05 -0.0077249425 3.1844597e-11)
(-2.8293687e-05 -0.0074266571 5.072136e-11)
(-0.00045645103 -0.0012882928 2.8984425e-10)
(-0.00037666722 -0.0014433538 3.5899157e-10)
(-0.00030453199 -0.0015780098 3.4930083e-10)
(-0.00024509256 -0.0017077078 3.1015645e-10)
(-0.00020190734 -0.0018434723 2.8934824e-10)
(-0.00017091941 -0.0019878829 2.8066646e-10)
(-0.00015017021 -0.0021318054 2.729463e-10)
(-0.00013807429 -0.00228439 2.6996766e-10)
(-0.00013223429 -0.0024451375 2.6839279e-10)
(-0.00013180403 -0.0026126881 2.6589413e-10)
(-0.00013247112 -0.0027890524 2.6293317e-10)
(-0.00013275782 -0.0029692928 2.5820665e-10)
(-0.00013193092 -0.0031469227 2.51446e-10)
(-0.00012953885 -0.0033242467 2.4437108e-10)
(-0.00012524531 -0.0034951699 2.361925e-10)
(-0.00011896223 -0.0036551954 2.269789e-10)
(-0.00011076316 -0.0038001723 2.170405e-10)
(-0.00010087186 -0.0039248166 2.064245e-10)
(-8.9540318e-05 -0.0040240678 1.9515532e-10)
(-7.7034129e-05 -0.0040942553 1.8337573e-10)
(-6.3639309e-05 -0.0041325374 1.7138134e-10)
(-4.963558e-05 -0.004137686 1.5939373e-10)
(-3.5270224e-05 -0.0041111067 1.4855626e-10)
(-2.0685975e-05 -0.0040455774 1.4089394e-10)
(-6.0383115e-06 -0.0038837456 1.0683381e-10)