/*--------------------------------*- C++ -*----------------------------------*\
| =========                 |                                                 |
| \\      /  F ield         | OpenFOAM: The Open Source CFD Toolbox           |
|  \\    /   O peration     | Version:  4.0                                   |
|   \\  /    A nd           | Web:      www.OpenFOAM.org                      |
|    \\/     M anipulation  |                                                 |
\*---------------------------------------------------------------------------*/
FoamFile
{
    version     2.0;
    format      ascii;
    class       volScalarField;
    location    "0.6";
    object      k;
}
// * * * * * * * * * * * * * * * * * * * * * * * * * * * * * * * * * * * * * //

dimensions      [0 2 -2 0 0 0 0];

internalField   nonuniform List<scalar> 
1740
(
0.0087177668
0.0092788763
0.018426761
0.0092112057
0.0099908487
0.027300623
0.0096128533
0.010594617
0.034311574
0.0097081438
0.010737698
0.041086339
0.00992751
0.010937474
0.047300476
0.0099579156
0.011359379
0.052181175
0.010100823
0.011808147
0.056127618
0.010091213
0.01224587
0.059396682
0.010068497
0.012574213
0.061870766
0.01001528
0.012639588
0.063910256
0.0099724497
0.012808095
0.066200076
0.0098873759
0.013357356
0.067568471
0.0098437901
0.013546315
0.068492789
0.0097104059
0.013498162
0.069850641
0.0095787287
0.013673627
0.070771157
0.0094584345
0.013926096
0.071541427
0.0093521264
0.014105174
0.072165795
0.0093097804
0.014476732
0.072159537
0.0092360445
0.01451739
0.072304217
0.0091408771
0.01447403
0.072536034
0.0090648403
0.014599451
0.07259016
0.0089981301
0.014507407
0.072513676
0.0088337384
0.014374363
0.072979818
0.0086739641
0.014371903
0.073039745
0.0085536223
0.014388602
0.07287994
0.0084423361
0.014482089
0.073258359
0.008356099
0.014845511
0.073042948
0.0083558361
0.015210736
0.072601841
0.0083463678
0.015290653
0.071963727
0.0089668514
0.016252349
0.06706843
0.012703342
0.018159798
0.047672998
0.024004069
0.031235981
0.039973211
0.010306863
0.012557985
0.013756984
0.0042529362
0.0045812727
0.004648636
0.0020681142
0.002110697
0.0020878181
0.0011411731
0.00114231
0.0011248413
0.00069145476
0.00068906411
0.000681267
0.00045083602
0.00044956861
0.00044697516
0.00031085716
0.00031054835
0.00031024453
0.00022328942
0.00022343991
0.00022400454
0.00016495792
0.00016526723
0.00016606786
0.00012396753
0.00012429432
0.00012507059
9.3890003e-05
9.417816e-05
9.4838142e-05
7.1110212e-05
7.1343425e-05
7.1867716e-05
5.3518416e-05
5.3697285e-05
5.409542e-05
3.9828566e-05
3.9960232e-05
4.0251629e-05
2.9207243e-05
2.9300672e-05
2.9506737e-05
2.1065362e-05
2.1129354e-05
2.1270178e-05
1.4942167e-05
1.4984484e-05
1.5077459e-05
1.044618e-05
1.0473212e-05
1.0532528e-05
7.2320471e-06
7.2487361e-06
7.2853313e-06
4.997829e-06
5.0078085e-06
5.0296961e-06
3.490299e-06
3.4961325e-06
3.5089176e-06
2.5038225e-06
2.5071924e-06
2.5145645e-06
1.878206e-06
1.8801564e-06
1.8844177e-06
1.4952854e-06
1.4964463e-06
1.4989806e-06
1.2713776e-06
1.2721129e-06
1.2737177e-06
1.1490895e-06
1.1496005e-06
1.1507162e-06
1.0901646e-06
1.0905578e-06
1.0914171e-06
1.0697413e-06
1.0700706e-06
1.0707909e-06
1.0720165e-06
1.0723076e-06
1.0729448e-06
1.0871192e-06
1.087384e-06
1.0879637e-06
1.1089421e-06
1.1091857e-06
1.1097189e-06
1.1336788e-06
1.1339034e-06
1.1343951e-06
1.1588602e-06
1.1590672e-06
1.15952e-06
1.1827266e-06
1.1829169e-06
1.1833328e-06
1.2038182e-06
1.2039927e-06
1.2043738e-06
1.2207028e-06
1.2208624e-06
1.2212108e-06
1.2317874e-06
1.2319331e-06
1.2322511e-06
1.2351842e-06
1.235317e-06
1.2356066e-06
1.2286156e-06
1.2287364e-06
1.2289996e-06
1.2093592e-06
1.2094688e-06
1.2097075e-06
1.1742487e-06
1.1743478e-06
1.1745634e-06
1.1197559e-06
1.119845e-06
1.1200386e-06
1.0421902e-06
1.0422694e-06
1.0424415e-06
9.3807891e-07
9.3814804e-07
9.3829848e-07
8.0477494e-07
8.0483356e-07
8.0496166e-07
6.4138383e-07
6.4143121e-07
6.4153615e-07
4.4995725e-07
4.4999226e-07
4.5007238e-07
2.3437944e-07
2.3439936e-07
2.3444727e-07
0.056475135
0.061084422
0.046225417
0.046684365
0.012507178
0.011363797
0.0043531433
0.0041246
0.0019991881
0.0019412358
0.0010956437
0.0010805702
0.00067239499
0.00067050361
0.00044528257
0.00044735148
0.00031100823
0.00031396512
0.00022546614
0.00022829609
0.00016756912
0.00016997236
0.00012638128
0.00012831163
9.5900191e-05
9.739901e-05
7.269032e-05
7.3824196e-05
5.4711192e-05
5.554838e-05
4.0698507e-05
4.1300983e-05
2.9821085e-05
3.0242608e-05
2.148424e-05
2.1770211e-05
1.5218429e-05
1.5406209e-05
1.0622288e-05
1.0741573e-05
7.3406346e-06
7.4139915e-06
5.062744e-06
5.1065073e-06
3.5281938e-06
3.5536687e-06
2.5256568e-06
2.5402814e-06
1.8908182e-06
1.8992377e-06
1.5027821e-06
1.5077734e-06
1.2761233e-06
1.2792789e-06
1.152389e-06
1.154584e-06
1.0927067e-06
1.0944009e-06
1.0718728e-06
1.0732959e-06
1.0739028e-06
1.0751638e-06
1.0888353e-06
1.0899828e-06
1.1105204e-06
1.1115753e-06
1.1351338e-06
1.1361051e-06
1.1601997e-06
1.1610925e-06
1.1839567e-06
1.184775e-06
1.2049449e-06
1.2056928e-06
1.2217323e-06
1.2224141e-06
1.2327263e-06
1.2333464e-06
1.2360389e-06
1.2366018e-06
1.2293921e-06
1.2299019e-06
1.2100628e-06
1.2105235e-06
1.174884e-06
1.1752986e-06
1.1203261e-06
1.1206971e-06
1.0426969e-06
1.043026e-06
9.3852203e-07
9.3881047e-07
8.0515353e-07
8.054033e-07
6.4169749e-07
6.4191354e-07
4.502031e-07
4.5038862e-07
2.345321e-07
2.3466112e-07
3.5090577e-06
2.6987961e-05
0.00013451804
0.0003051773
0.00046249499
0.0005735247
0.00064387919
0.0006875353
0.00071627569
0.00073723935
0.00075447841
0.00077104463
0.00078655208
0.00080077182
0.00081339772
0.00082388172
0.00083124026
0.00083380669
0.00082886158
0.00081212127
0.00077702725
0.00071387689
0.00060915334
0.0004458192
0.0002029176
2.5012839e-06
5.4764498e-05
0.00025113493
0.00051605763
0.00072801764
0.00085958209
0.00093557663
0.000980128
0.0010086743
0.0010292531
0.00104612
0.0010618281
0.0010762209
0.0010890391
0.0010998903
0.0011081527
0.0011126947
0.001111601
0.0011016697
0.0010777734
0.0010319052
0.00095178793
0.00081912896
0.00060837947
0.0002881997
7.9252721e-06
0.0001599611
0.00061609527
0.0010799968
0.0013630846
0.0015058621
0.0015733277
0.0016048991
0.0016205644
0.0016288009
0.0016339959
0.0016370509
0.0016392023
0.0016397889
0.0016383193
0.0016343182
0.0016267277
0.0016137522
0.0015919678
0.0015557736
0.0014961389
0.0013983388
0.0012376541
0.00097112637
0.00052304413
3.7543424e-05
0.00057927496
0.001685647
0.0024366436
0.0027733099
0.0028870959
0.0028964168
0.0028661876
0.0028261583
0.0027813082
0.002736715
0.0026942617
0.0026544446
0.0026140736
0.0025726304
0.0025305169
0.0024872273
0.0024413311
0.0023900716
0.0023286664
0.0022492004
0.0021383846
0.0019718853
0.0016967337
0.0011558506
0.00028096059
0.002447831
0.0049152881
0.0060351998
0.0063807694
0.0063188089
0.0060894899
0.0058264443
0.0055770493
0.0053264833
0.0050864848
0.0048623479
0.004659052
0.0044621188
0.0042708527
0.0040900225
0.0039205331
0.0037617884
0.00361196
0.003467544
0.0033228678
0.0031696797
0.0029969575
0.0027963428
0.0025861959
0.0023644337
0.010535441
0.016583864
0.018529212
0.018066874
0.016509771
0.014694453
0.01300628
0.011524485
0.010248141
0.009156658
0.0082274158
0.0074349761
0.0067554715
0.0061711966
0.0056689215
0.0052372956
0.0048659929
0.0045455845
0.0042672073
0.0040219837
0.0038009196
0.0035954088
0.0034047544
0.0032444096
0.045139981
0.034185425
0.026636281
0.021450774
0.01778413
0.015073419
0.012981085
0.011321564
0.0099868479
0.0089021282
0.0080101885
0.0072667364
0.0066378864
0.0060985318
0.0056305174
0.0052213319
0.0048623775
0.0045471909
0.0042702951
0.0040264414
0.003810015
0.003615012
0.0034356909
0.0032734075
0.0031433525
0.037299422
0.030989503
0.027777984
0.025142331
0.022267253
0.019290827
0.016572797
0.014274189
0.012393306
0.010852592
0.0095824812
0.0085261295
0.0076399849
0.0068942218
0.006265124
0.005733231
0.0052822089
0.0048983414
0.0045698646
0.0042862117
0.0040372772
0.0038132465
0.0036049497
0.0034115529
0.0032489496
0.010218963
0.0095450299
0.0092044713
0.0088832783
0.0084203826
0.0078555435
0.0072985136
0.0068029964
0.0063525833
0.0059550371
0.0056072763
0.0053033853
0.0050180902
0.0047544331
0.0045138399
0.0042955774
0.0040975632
0.0039168675
0.0037495571
0.0035905624
0.0034331341
0.0032683073
0.0030846062
0.0028734846
0.0026535543
0.0039664454
0.0038932285
0.0038707979
0.0038300071
0.0037357797
0.0036011518
0.0034619412
0.003332977
0.0032168007
0.0031155618
0.0030282798
0.0029518204
0.0028806033
0.0028140626
0.0027519997
0.0026935604
0.0026370477
0.0025798357
0.0025181196
0.002446381
0.0023562945
0.0022344405
0.002056471
0.0017686864
0.00120865
0.0019247698
0.0019385199
0.001963772
0.0019788297
0.0019726645
0.0019488326
0.0019183001
0.0018880265
0.00186108
0.0018387763
0.0018209001
0.0018061861
0.0017929515
0.0017805406
0.0017685478
0.0017557393
0.0017402148
0.0017191601
0.0016884957
0.0016422419
0.0015713425
0.0014614167
0.0012882694
0.0010089765
0.00054610252
0.0010851258
0.0011038333
0.0011277595
0.0011481249
0.0011604612
0.0011654939
0.001166828
0.0011674606
0.0011691225
0.001172552
0.0011776976
0.0011839745
0.0011905814
0.0011968187
0.001201901
0.0012045906
0.0012030424
0.0011946093
0.001175556
0.0011405944
0.0010821321
0.00098908382
0.00084513304
0.00062683682
0.00030332839
0.00067794948
0.00069246364
0.00071001925
0.0007267853
0.00074064261
0.00075154568
0.00076071136
0.00076944207
0.00077862749
0.00078868002
0.00079959074
0.00081104119
0.00082252443
0.00083342128
0.00084291033
0.00084981488
0.00085248928
0.00084868076
0.00083535426
0.00080846211
0.00076266179
0.00069102262
0.00058483089
0.00043332442
0.00021894851
0.00045415413
0.00046475146
0.0004773078
0.0004900405
0.00050187695
0.00051261883
0.00052266354
0.00053256086
0.00054273885
0.00055340776
0.00056454537
0.00057593058
0.00058718009
0.00059775948
0.00060693633
0.00061370345
0.00061670616
0.00061416812
0.00060382263
0.00058287299
0.00054805743
0.0004960199
0.000424542
0.00033634762
0.00025168995
0.00031951336
0.00032724518
0.00033630211
0.00034581897
0.00035522448
0.00036433371
0.0003732552
0.00038220895
0.0003913809
0.00040085427
0.00041058053
0.00042037739
0.00042993156
0.00043879137
0.00044633889
0.00045174871
0.00045395067
0.00045160381
0.00044309651
0.00042661041
0.00040033226
0.00036300477
0.00031523861
0.00026247039
0.00022073073
0.00023265807
0.0002383587
0.0002449842
0.00025209712
0.0002593825
0.0002667026
0.0002740632
0.00028153694
0.00028918942
0.00029703297
0.00030499892
0.00031292532
0.0003205487
0.00032749285
0.00033325087
0.00033716482
0.00033841069
0.00033599846
0.00032880154
0.00031564257
0.00029548675
0.00026783618
0.00023349129
0.00019596963
0.00016311176
0.00017334339
0.00017758236
0.00018248073
0.00018780965
0.00019338973
0.00019912314
0.00020498267
0.00021097761
0.00021711536
0.00022337113
0.00022966706
0.00023585915
0.00024172615
0.00024695949
0.00025115218
0.00025378911
0.00025424385
0.00025178826
0.00024562294
0.00023493827
0.00021901397
0.00019734172
0.00016963741
0.00013506751
8.6836875e-05
0.00013088523
0.00013404677
0.00013768599
0.00014167769
0.00014591603
0.00015033257
0.0001548931
0.00015958122
0.00016437806
0.00016924301
0.00017409872
0.00017881981
0.00018322314
0.00018705998
0.00019000885
0.00019167147
0.00019157394
0.00018917672
0.00018389521
0.00017513
0.00016229368
0.00014479109
0.00012182105
9.1587162e-05
4.8667411e-05
9.9340454e-05
0.00010169148
0.00010439089
0.00010736701
0.00011055514
0.00011390719
0.00011739096
0.00012098188
0.00012465161
0.00012835594
0.00013202424
0.00013555084
0.00013878728
0.0001415365
0.00014354843
0.00014451814
0.00014408806
0.00014185513
0.00013738236
0.00013021045
0.00011985683
0.00010577648
8.7238374e-05
6.3034426e-05
3.0982746e-05
7.5268066e-05
7.7001155e-05
7.8987555e-05
8.1184672e-05
8.3551599e-05
8.6054308e-05
8.8665514e-05
9.1360231e-05
9.4109213e-05
9.6871239e-05
9.9585777e-05
0.00010216669
0.00010449656
0.00010642236
0.00010775265
0.00010825659
0.00010766585
0.00010567914
0.00010196872
9.6185636e-05
8.7958084e-05
7.6877516e-05
6.2475903e-05
4.4220417e-05
2.1600238e-05
5.6603281e-05
5.7862517e-05
5.9303975e-05
6.0901381e-05
6.2628189e-05
6.4460293e-05
6.6375803e-05
6.835269e-05
7.0364786e-05
7.2376915e-05
7.433985e-05
7.618578e-05
7.7824332e-05
7.913935e-05
7.9987036e-05
8.0195265e-05
7.9564943e-05
7.7872992e-05
7.4876757e-05
7.0318899e-05
6.3932651e-05
5.5452231e-05
4.4646418e-05
3.1413702e-05
1.6113969e-05
4.2055128e-05
4.2951976e-05
4.3977622e-05
4.5115275e-05
4.6347383e-05
4.7656892e-05
4.9026989e-05
5.0439734e-05
5.187362e-05
5.3300465e-05
5.4682011e-05
5.5966766e-05
5.7087212e-05
5.7957537e-05
5.8472163e-05
5.8505319e-05
5.7911901e-05
5.6529637e-05
5.41828e-05
5.0687936e-05
4.5863783e-05
3.9552079e-05
3.1663296e-05
2.2262737e-05
1.176358e-05
3.076797e-05
3.1390996e-05
3.2102822e-05
3.2892481e-05
3.3748257e-05
3.4658124e-05
3.560964e-05
3.6589031e-05
3.7579646e-05
3.856005e-05
3.9501762e-05
4.0367101e-05
4.1107254e-05
4.1660642e-05
4.1951849e-05
4.189125e-05
4.1375521e-05
4.028936e-05
3.8508737e-05
3.5906702e-05
3.2364061e-05
2.7789788e-05
2.215794e-05
1.5558964e-05
8.2789867e-06
2.2125552e-05
2.2546e-05
2.302578e-05
2.3557709e-05
2.4133928e-05
2.4746086e-05
2.538522e-05
2.6041243e-05
2.6701906e-05
2.7351618e-05
2.797003e-05
2.8530574e-05
2.899914e-05
2.9332923e-05
2.9479632e-05
2.9377169e-05
2.8953934e-05
2.8130134e-05
2.6820493e-05
2.4939271e-05
2.240927e-05
1.9177541e-05
1.5240176e-05
1.0670616e-05
5.6605774e-06
1.5638984e-05
1.5913842e-05
1.6226968e-05
1.6573685e-05
1.6948731e-05
1.73464e-05
1.7760439e-05
1.8183706e-05
1.8607573e-05
1.902118e-05
1.9410511e-05
1.9757488e-05
2.0039066e-05
2.0226419e-05
2.0284376e-05
2.0171138e-05
1.9838458e-05
1.9232578e-05
1.829631e-05
1.6972907e-05
1.5212694e-05
1.2983808e-05
1.0287572e-05
7.1734918e-06
3.7866002e-06
1.088911e-05
1.1062961e-05
1.1260609e-05
1.1479013e-05
1.1714697e-05
1.1963826e-05
1.2222149e-05
1.2484781e-05
1.2745856e-05
1.2998058e-05
1.3232072e-05
1.3435974e-05
1.3594653e-05
1.3689254e-05
1.3696767e-05
1.3589794e-05
1.3336651e-05
1.2901988e-05
1.2248282e-05
1.1338597e-05
1.0141109e-05
8.6360298e-06
6.8250011e-06
4.7403368e-06
2.480504e-06
7.5045236e-06
7.6109847e-06
7.7317294e-06
7.8647883e-06
8.0078997e-06
8.1585354e-06
8.3138654e-06
8.4706389e-06
8.6249788e-06
8.7720959e-06
8.9059496e-06
9.018871e-06
9.1011833e-06
9.1408176e-06
9.1230274e-06
9.0302279e-06
8.8420358e-06
8.5356184e-06
8.0867377e-06
7.4716388e-06
6.6700271e-06
5.6694205e-06
4.4708357e-06
3.0945958e-06
1.6069917e-06
5.1604003e-06
5.2236298e-06
5.2951468e-06
5.3736915e-06
5.4578179e-06
5.5458941e-06
5.636081e-06
5.7262666e-06
5.8139456e-06
5.896048e-06
5.9687311e-06
6.0271376e-06
6.0651373e-06
6.0750492e-06
6.0474403e-06
5.9711094e-06
5.8331196e-06
5.618869e-06
5.3127821e-06
4.8996393e-06
4.3665168e-06
3.7055406e-06
2.9174118e-06
2.0151061e-06
1.0422841e-06
3.5849611e-06
3.621561e-06
3.6628125e-06
3.7079191e-06
3.7559648e-06
3.8059115e-06
3.8565843e-06
3.9066303e-06
3.9544481e-06
3.9980869e-06
4.0351178e-06
4.0624829e-06
4.076327e-06
4.0718138e-06
4.0429273e-06
3.9823194e-06
3.8814683e-06
3.7310677e-06
3.5210568e-06
3.2416047e-06
2.8844106e-06
2.4444856e-06
1.9223989e-06
1.3266305e-06
6.852119e-07
2.5581934e-06
2.5790668e-06
2.6024893e-06
2.6279608e-06
2.6549004e-06
2.6826474e-06
2.710448e-06
2.7374311e-06
2.7625617e-06
2.7845785e-06
2.8019143e-06
2.8125975e-06
2.8141445e-06
2.8034437e-06
2.7766095e-06
2.7288103e-06
2.654221e-06
2.5465042e-06
2.398993e-06
2.2051659e-06
1.9595414e-06
1.6588759e-06
1.3036363e-06
8.994295e-07
4.6460755e-07
1.9095199e-06
1.921458e-06
1.9347912e-06
1.9492035e-06
1.9643242e-06
1.9797257e-06
1.9949156e-06
2.0093155e-06
2.0222333e-06
2.0328182e-06
2.0400049e-06
2.0424469e-06
2.0384371e-06
2.0258246e-06
2.0019281e-06
1.9634596e-06
1.9064162e-06
1.826146e-06
1.7179234e-06
1.5771656e-06
1.4000446e-06
1.1843306e-06
9.3040345e-07
6.4210429e-07
3.3041384e-07
1.5138544e-06
1.5208924e-06
1.52872e-06
1.5371325e-06
1.5458867e-06
1.5546968e-06
1.5632258e-06
1.5710703e-06
1.5777375e-06
1.5826123e-06
1.5849146e-06
1.5836486e-06
1.5775414e-06
1.5649797e-06
1.5439441e-06
1.5119566e-06
1.4660577e-06
1.4027263e-06
1.3183063e-06
1.2092996e-06
1.0728062e-06
9.0716261e-07
7.1271217e-07
4.9243079e-07
2.5437459e-07
1.2831185e-06
1.2875546e-06
1.2924755e-06
1.2977427e-06
1.3031883e-06
1.3086096e-06
1.3137601e-06
1.3183365e-06
1.3219585e-06
1.3241411e-06
1.3242594e-06
1.3215061e-06
1.3148415e-06
1.3029401e-06
1.2841384e-06
1.2563934e-06
1.2172709e-06
1.1639255e-06
1.0933071e-06
1.0025049e-06
8.8911538e-07
7.5177248e-07
5.9078067e-07
4.0857645e-07
2.1156306e-07
1.1572555e-06
1.1603424e-06
1.1637659e-06
1.1674259e-06
1.1711976e-06
1.1749256e-06
1.1784146e-06
1.1814166e-06
1.1836118e-06
1.1845841e-06
1.1837887e-06
1.1805143e-06
1.1738387e-06
1.1625816e-06
1.1452596e-06
1.1200508e-06
1.0847843e-06
1.0369624e-06
9.7386743e-07
8.9289113e-07
7.9187809e-07
6.6960731e-07
5.2637085e-07
3.6440767e-07
1.895345e-07
1.0964656e-06
1.0988552e-06
1.1015095e-06
1.1043501e-06
1.1072766e-06
1.1101596e-06
1.1128319e-06
1.1150746e-06
1.1165992e-06
1.1170233e-06
1.1158405e-06
1.1123841e-06
1.1057852e-06
1.0949295e-06
1.078415e-06
1.0545205e-06
1.0211964e-06
9.7610366e-07
9.1668926e-07
8.4048497e-07
7.4544248e-07
6.3039672e-07
4.9563695e-07
3.4337137e-07
1.7915978e-07
1.0750331e-06
1.0770472e-06
1.0792884e-06
1.0816906e-06
1.0841666e-06
1.0866013e-06
1.0888419e-06
1.0906843e-06
1.0918549e-06
1.0919862e-06
1.0905874e-06
1.0870084e-06
1.0803995e-06
1.0696686e-06
1.0534416e-06
1.0300321e-06
9.974338e-07
9.5336348e-07
8.953353e-07
8.2093006e-07
7.2812956e-07
6.1577726e-07
4.8415747e-07
3.3551571e-07
1.760683e-07
1.0767045e-06
1.0784927e-06
1.0804843e-06
1.08262e-06
1.0848198e-06
1.0869759e-06
1.0889432e-06
1.0905242e-06
1.0914514e-06
1.0913622e-06
1.0897694e-06
1.0860252e-06
1.0792805e-06
1.068443e-06
1.0521375e-06
1.0286771e-06
9.9605691e-07
9.5199678e-07
8.9402264e-07
8.1971513e-07
7.2704652e-07
6.1484612e-07
4.8339006e-07
3.3498443e-07
1.7681689e-07
1.0913851e-06
1.0930126e-06
1.0948245e-06
1.0967653e-06
1.0987587e-06
1.1007012e-06
1.1024509e-06
1.1038132e-06
1.1045219e-06
1.1042143e-06
1.1024007e-06
1.098428e-06
1.0914386e-06
1.0803283e-06
1.0637063e-06
1.0398669e-06
1.0067843e-06
9.6215596e-07
9.0348973e-07
8.2834109e-07
7.3465413e-07
6.2123722e-07
4.8837375e-07
3.3844965e-07
1.7887459e-07
1.1128635e-06
1.1143572e-06
1.1160176e-06
1.1177909e-06
1.1196036e-06
1.1213539e-06
1.1229013e-06
1.1240522e-06
1.1245392e-06
1.1239969e-06
1.1219301e-06
1.1176768e-06
1.1103667e-06
1.0988778e-06
1.0817967e-06
1.0573904e-06
1.0236017e-06
9.7809377e-07
9.183418e-07
8.4186468e-07
7.4656914e-07
6.3123436e-07
4.9614398e-07
3.4380235e-07
1.8213479e-07
1.13729e-06
1.1386613e-06
1.1401817e-06
1.1417987e-06
1.14344e-06
1.145005e-06
1.1463537e-06
1.1472917e-06
1.1475499e-06
1.1467588e-06
1.1444162e-06
1.1398497e-06
1.1321742e-06
1.1202481e-06
1.1026324e-06
1.0775637e-06
1.0429494e-06
9.9641405e-07
9.3539508e-07
8.5737127e-07
7.6020919e-07
6.4265377e-07
5.0497837e-07
3.4976759e-07
1.8526899e-07
1.1621798e-06
1.1634353e-06
1.1648222e-06
1.1662893e-06
1.1677649e-06
1.169149e-06
1.1703015e-06
1.171027e-06
1.1710537e-06
1.1700075e-06
1.1673789e-06
1.1624846e-06
1.1544244e-06
1.1420364e-06
1.1238564e-06
1.0980899e-06
1.0626096e-06
1.0150017e-06
9.5266656e-07
8.7304508e-07
7.7396679e-07
6.5414368e-07
5.1383693e-07
3.5571239e-07
1.883297e-07
1.1857696e-06
1.1869146e-06
1.1881742e-06
1.1894976e-06
1.1908137e-06
1.1920228e-06
1.1929844e-06
1.1935017e-06
1.1933001e-06
1.1920007e-06
1.1890867e-06
1.1838641e-06
1.1754181e-06
1.1625676e-06
1.1438247e-06
1.1173663e-06
1.0810329e-06
1.0323766e-06
9.6876544e-07
8.8760963e-07
7.8671162e-07
6.6476452e-07
5.2203463e-07
3.6126796e-07
1.9124285e-07
1.2065996e-06
1.2076402e-06
1.2087791e-06
1.2099661e-06
1.2111305e-06
1.2121726e-06
1.2129514e-06
1.2132685e-06
1.2128467e-06
1.2113023e-06
1.2081116e-06
1.2025707e-06
1.1937515e-06
1.180456e-06
1.1611751e-06
1.1340616e-06
1.0969291e-06
1.0473026e-06
9.8252601e-07
8.9998942e-07
7.9748123e-07
6.736909e-07
5.2890075e-07
3.6591116e-07
1.9362679e-07
1.2232386e-06
1.2241812e-06
1.2252068e-06
1.2262656e-06
1.2272873e-06
1.2281721e-06
1.2287784e-06
1.2289063e-06
1.228276e-06
1.2264996e-06
1.2230471e-06
1.2172063e-06
1.208038e-06
1.1943301e-06
1.1745571e-06
1.1468535e-06
1.1090142e-06
1.0585468e-06
9.9278303e-07
9.0910639e-07
8.0530631e-07
6.8008558e-07
5.337688e-07
3.692544e-07
1.9473443e-07
1.2340943e-06
1.2349456e-06
1.2358655e-06
1.236805e-06
1.2376938e-06
1.2384319e-06
1.2388774e-06
1.2388291e-06
1.2380049e-06
1.2360135e-06
1.2323202e-06
1.2262061e-06
1.216724e-06
1.2026524e-06
1.1824556e-06
1.154258e-06
1.1158468e-06
1.0647254e-06
9.9822926e-07
9.1375285e-07
8.0910429e-07
6.8301341e-07
5.3584648e-07
3.705742e-07
1.9544418e-07
1.2372786e-06
1.2380452e-06
1.2388674e-06
1.2396964e-06
1.2404622e-06
1.2410651e-06
1.2413625e-06
1.2411527e-06
1.240152e-06
1.2379671e-06
1.2340602e-06
1.2277091e-06
1.2179626e-06
1.2035959e-06
1.1830713e-06
1.1545144e-06
1.1157192e-06
1.0642024e-06
9.9732268e-07
9.1250904e-07
8.0760995e-07
6.8139843e-07
5.3428219e-07
3.6927378e-07
1.9465239e-07
1.2305128e-06
1.2312012e-06
1.2319332e-06
1.2326604e-06
1.2333134e-06
1.2337927e-06
1.233956e-06
1.2336014e-06
1.2324452e-06
1.2300938e-06
1.2260093e-06
1.2194701e-06
1.2095271e-06
1.1949603e-06
1.1742411e-06
1.1455103e-06
1.1065877e-06
1.0550247e-06
9.8823001e-07
9.0369486e-07
7.9933532e-07
6.7398882e-07
5.2811227e-07
3.647448e-07
1.9213963e-07
1.2110733e-06
1.2116894e-06
1.2123382e-06
1.2129722e-06
1.2135225e-06
1.2138905e-06
1.2139349e-06
1.2134552e-06
1.2121693e-06
1.2096861e-06
1.2054719e-06
1.1988113e-06
1.1887651e-06
1.1741288e-06
1.1533969e-06
1.1247451e-06
1.0860404e-06
1.0348974e-06
9.6880692e-07
8.8535593e-07
7.8256061e-07
6.5935203e-07
5.1626507e-07
3.5639569e-07
1.8783663e-07
1.1757916e-06
1.1763406e-06
1.1769129e-06
1.1774617e-06
1.1779196e-06
1.1781894e-06
1.1781324e-06
1.177551e-06
1.1761679e-06
1.1735985e-06
1.1693186e-06
1.1626269e-06
1.1526048e-06
1.138077e-06
1.1175797e-06
1.0893455e-06
1.051317e-06
1.0012069e-06
9.366255e-07
8.5529342e-07
7.5536294e-07
6.3588477e-07
4.9747287e-07
3.4321207e-07
1.8015372e-07
1.1211368e-06
1.1216232e-06
1.1221248e-06
1.1225962e-06
1.1229719e-06
1.1231579e-06
1.1230195e-06
1.1223652e-06
1.120926e-06
1.1183294e-06
1.1140686e-06
1.1074666e-06
1.097639e-06
1.0834577e-06
1.0635232e-06
1.0361529e-06
9.9939977e-07
9.5111374e-07
8.890662e-07
8.1115374e-07
7.1570258e-07
6.0190726e-07
4.7045588e-07
3.2436455e-07
1.7022497e-07
1.0434148e-06
1.0438422e-06
1.0442782e-06
1.0446795e-06
1.044984e-06
1.0451023e-06
1.0449061e-06
1.0442137e-06
1.0427701e-06
1.0402223e-06
1.0360906e-06
1.0297359e-06
1.0203255e-06
1.0068008e-06
9.8785441e-07
9.6192275e-07
9.2720799e-07
8.817404e-07
8.2349771e-07
7.5059692e-07
6.6157504e-07
5.5578926e-07
4.3398127e-07
2.9897548e-07
1.5643309e-07
9.3915052e-07
9.395215e-07
9.3989571e-07
9.4023355e-07
9.4047848e-07
9.4054712e-07
9.4032047e-07
9.3963075e-07
9.382453e-07
9.3583983e-07
9.3197399e-07
9.2606395e-07
9.1734997e-07
9.0487019e-07
8.8744286e-07
8.6366239e-07
8.3192375e-07
7.9048352e-07
7.37571e-07
6.7156593e-07
5.9124791e-07
4.9614573e-07
3.8701839e-07
2.6641877e-07
1.3929121e-07
8.0569768e-07
8.0601327e-07
8.0632649e-07
8.0660417e-07
8.0680073e-07
8.0683945e-07
8.0661068e-07
8.0596454e-07
8.0470639e-07
8.0255055e-07
7.9910917e-07
7.9387592e-07
7.8618847e-07
7.7521235e-07
7.5993305e-07
7.3914621e-07
7.1148689e-07
6.7548361e-07
6.29655e-07
5.726793e-07
5.0360153e-07
4.2212145e-07
3.2898611e-07
2.2645803e-07
1.1892423e-07
6.4216752e-07
6.4242361e-07
6.4266589e-07
6.4287355e-07
6.430263e-07
6.43051e-07
6.4283722e-07
6.4224881e-07
6.411784e-07
6.3937968e-07
6.3652507e-07
6.3221863e-07
6.2591763e-07
6.1694122e-07
6.0450376e-07
5.8764421e-07
5.6528686e-07
5.3627307e-07
4.9942888e-07
4.5375542e-07
3.9857456e-07
3.3374237e-07
2.5994285e-07
1.7905553e-07
9.4588339e-08
4.5060316e-07
4.5078428e-07
4.5092662e-07
4.5102863e-07
4.5111762e-07
4.5112449e-07
4.5089857e-07
4.5026924e-07
4.4940678e-07
4.4805283e-07
4.4592609e-07
4.4278656e-07
4.3821743e-07
4.3168743e-07
4.2277722e-07
4.1078238e-07
3.949594e-07
3.7449396e-07
3.4851416e-07
3.1635513e-07
2.7761554e-07
2.3230038e-07
1.8090022e-07
1.2483092e-07
6.6417464e-08
2.3480565e-07
2.3489253e-07
2.3492148e-07
2.3490072e-07
2.348862e-07
2.3485089e-07
2.3455746e-07
2.336722e-07
2.3302991e-07
2.3222604e-07
2.3099839e-07
2.2927139e-07
2.2675285e-07
2.2303659e-07
2.1826885e-07
2.1196569e-07
2.0375382e-07
1.9318412e-07
1.7972364e-07
1.630438e-07
1.4301427e-07
1.1995646e-07
9.348577e-08
6.4812322e-08
3.5636635e-08
)
;

boundaryField
{
    Walls
    {
        type            kqRWallFunction;
        value           nonuniform List<scalar> 
38
(
3.5090577e-06
2.5012839e-06
7.9252721e-06
3.7543424e-05
0.00028096059
0.0023644337
0.056475135
0.061084422
0.018426761
0.027300623
0.034311574
0.041086339
0.047300476
0.052181175
0.056127618
0.059396682
0.061870766
0.063910256
0.066200076
0.067568471
0.068492789
0.069850641
0.070771157
0.071541427
0.072165795
0.072159537
0.072304217
0.072536034
0.07259016
0.072513676
0.072979818
0.073039745
0.07287994
0.073258359
0.073042948
0.072601841
0.071963727
0.06706843
)
;
    }
    Inlet
    {
        type            turbulentIntensityKineticEnergyInlet;
        intensity       0.05;
        value           nonuniform List<scalar> 3(0.0078488496 0.0094923069 0.0096205573);
    }
    Outlet
    {
        type            inletOutlet;
        inletValue      uniform 0;
        value           nonuniform List<scalar> 
86
(
2.3437944e-07
2.3439936e-07
2.3444727e-07
2.345321e-07
2.3466112e-07
2.3480565e-07
2.3489253e-07
2.3492148e-07
2.3490072e-07
2.348862e-07
2.3485089e-07
2.3455746e-07
2.336722e-07
2.3302991e-07
2.3222604e-07
2.3099839e-07
2.2927139e-07
2.2675285e-07
2.2303659e-07
2.1826885e-07
2.1196569e-07
2.0375382e-07
1.9318412e-07
1.7972364e-07
1.630438e-07
1.4301427e-07
1.1995646e-07
9.348577e-08
6.4812322e-08
3.5636635e-08
0.0031433525
0.0032489496
0.0026535543
0
0
0
0
0.00025168995
0.00022073073
0.00016311176
8.6836875e-05
0
3.0982746e-05
2.1600238e-05
1.6113969e-05
1.176358e-05
8.2789867e-06
5.6605774e-06
3.7866002e-06
2.480504e-06
1.6069917e-06
1.0422841e-06
6.852119e-07
4.6460755e-07
3.3041384e-07
2.5437459e-07
2.1156306e-07
1.895345e-07
1.7915978e-07
1.760683e-07
1.7681689e-07
1.7887459e-07
1.8213479e-07
1.8526899e-07
1.883297e-07
1.9124285e-07
1.9362679e-07
1.9473443e-07
1.9544418e-07
1.9465239e-07
1.9213963e-07
1.8783663e-07
1.8015372e-07
1.7022497e-07
1.5643309e-07
1.3929121e-07
1.1892423e-07
9.4588339e-08
6.6417464e-08
3.5636635e-08
0
0
0
0
0.0025861959
0.0032444096
)
;
    }
    Front
    {
        type            wedge;
    }
    Back
    {
        type            wedge;
    }
    defaultFaces
    {
        type            empty;
    }
}


// ************************************************************************* //
