/*--------------------------------*- C++ -*----------------------------------*\
| =========                 |                                                 |
| \\      /  F ield         | OpenFOAM: The Open Source CFD Toolbox           |
|  \\    /   O peration     | Version:  4.0                                   |
|   \\  /    A nd           | Web:      www.OpenFOAM.org                      |
|    \\/     M anipulation  |                                                 |
\*---------------------------------------------------------------------------*/
FoamFile
{
    version     2.0;
    format      ascii;
    class       volScalarField;
    location    "0.6";
    object      nut;
}
// * * * * * * * * * * * * * * * * * * * * * * * * * * * * * * * * * * * * * //

dimensions      [0 2 -1 0 0 0 0];

internalField   nonuniform List<scalar> 
1740
(
1.4639532e-05
1.3708062e-05
1.2349708e-06
9.3147721e-06
6.9097756e-06
1.8165465e-06
7.6696994e-06
5.4051604e-06
2.270234e-06
2.514386e-05
4.8717347e-06
2.7037854e-06
9.9298904e-06
4.453235e-06
3.0974193e-06
1.6730569e-05
4.1060778e-06
3.4041063e-06
1.3061952e-05
3.8781589e-06
3.6511037e-06
1.2132827e-05
3.7427003e-06
3.853988e-06
1.0828338e-05
3.6661405e-06
4.0062309e-06
9.680404e-06
3.5919202e-06
4.1319455e-06
8.7874372e-06
3.5469268e-06
4.2736112e-06
8.05677e-06
3.5415722e-06
4.3570014e-06
7.3917729e-06
3.5237433e-06
4.4128618e-06
6.8828134e-06
3.4978442e-06
4.4949869e-06
6.4978748e-06
3.494596e-06
4.5520077e-06
6.1565995e-06
3.5035415e-06
4.5993212e-06
5.8472403e-06
3.5120206e-06
4.6361569e-06
5.5602994e-06
3.5380016e-06
4.6366879e-06
5.3516037e-06
3.5365087e-06
4.6458609e-06
5.1692705e-06
3.5314252e-06
4.6590199e-06
5.0017848e-06
3.5354154e-06
4.6632827e-06
4.846255e-06
3.524417e-06
4.6580841e-06
4.7423505e-06
3.5131353e-06
4.6862463e-06
4.6325115e-06
3.5111587e-06
4.6907854e-06
4.5176667e-06
3.5102445e-06
4.6802727e-06
4.4174574e-06
3.5226604e-06
4.7029002e-06
4.3210512e-06
3.5542118e-06
4.6897541e-06
4.2209926e-06
3.582556e-06
4.6630292e-06
4.1796376e-06
3.5936364e-06
4.6252652e-06
2.561161e-06
3.7691723e-06
4.3265621e-06
1.8544e-06
2.2143477e-06
4.4263472e-06
7.2051003e-06
7.3734723e-06
6.7151087e-06
6.5475906e-06
6.749265e-06
6.3805752e-06
5.1713891e-06
5.1074655e-06
4.8640585e-06
4.3345675e-06
4.2626322e-06
4.1297167e-06
3.7986077e-06
3.7561244e-06
3.6969041e-06
3.4373675e-06
3.4202658e-06
3.405899e-06
3.1801919e-06
3.1787831e-06
3.1888796e-06
2.9793059e-06
2.9861079e-06
3.0079539e-06
2.8012601e-06
2.8116037e-06
2.8377683e-06
2.6222456e-06
2.6334871e-06
2.6598401e-06
2.4261397e-06
2.4368847e-06
2.4612642e-06
2.2040322e-06
2.2136079e-06
2.2349945e-06
1.9542601e-06
1.9623943e-06
1.9804148e-06
1.6823117e-06
1.688949e-06
1.7035921e-06
1.3999599e-06
1.4051675e-06
1.4166315e-06
1.1230499e-06
1.1269697e-06
1.1355889e-06
8.6793706e-07
8.7075905e-07
8.7696081e-07
6.4756451e-07
6.4950379e-07
6.5376506e-07
4.6877781e-07
4.7004975e-07
4.7284599e-07
3.3193504e-07
3.3273235e-07
3.3448888e-07
2.3258863e-07
2.3307059e-07
2.3413483e-07
1.639742e-07
1.6426126e-07
1.6489241e-07
1.1849341e-07
1.1866178e-07
1.1903095e-07
8.9423238e-08
8.9522211e-08
8.9738991e-08
7.1569371e-08
7.1629309e-08
7.1760625e-08
6.1151824e-08
6.119045e-08
6.1275249e-08
5.5533487e-08
5.5560648e-08
5.5620577e-08
5.2935812e-08
5.2956737e-08
5.3003295e-08
5.2191807e-08
5.2209171e-08
5.224821e-08
5.2552473e-08
5.2567626e-08
5.2602019e-08
5.3545686e-08
5.3559314e-08
5.3590443e-08
5.4878624e-08
5.4891083e-08
5.4919615e-08
5.637257e-08
5.638405e-08
5.6410323e-08
5.792015e-08
5.7930758e-08
5.7954975e-08
5.9457647e-08
5.9467455e-08
5.9489768e-08
6.0947402e-08
6.0956471e-08
6.0977022e-08
6.2366943e-08
6.2375329e-08
6.2394264e-08
6.3702533e-08
6.3710293e-08
6.3727762e-08
6.4945558e-08
6.4952754e-08
6.4968908e-08
6.6090725e-08
6.6097419e-08
6.6112411e-08
6.7135586e-08
6.7141848e-08
6.7155836e-08
6.8081385e-08
6.8087316e-08
6.8100483e-08
6.8920212e-08
6.892588e-08
6.8938361e-08
6.9628104e-08
6.9633513e-08
6.9645388e-08
7.0198893e-08
7.0204075e-08
7.021544e-08
7.0621494e-08
7.0626489e-08
7.0637439e-08
7.0874116e-08
7.0878961e-08
7.0889584e-08
7.0910089e-08
7.0914815e-08
7.0925184e-08
7.0580458e-08
7.0585076e-08
7.0595219e-08
4.1887484e-06
4.5124365e-06
6.65381e-06
8.3746592e-06
5.9977254e-06
6.0377593e-06
4.723348e-06
4.8296566e-06
4.0840348e-06
4.1936625e-06
3.7000632e-06
3.8021205e-06
3.4357492e-06
3.5299019e-06
3.2316009e-06
3.317796e-06
3.0551212e-06
3.1332071e-06
2.8844066e-06
2.9542005e-06
2.703144e-06
2.7645306e-06
2.4997834e-06
2.5528025e-06
2.268117e-06
2.3129875e-06
2.0080353e-06
2.0451375e-06
1.7259132e-06
1.7557659e-06
1.4340562e-06
1.4573088e-06
1.1486695e-06
1.1661059e-06
8.8636457e-07
8.9889182e-07
6.6022371e-07
6.6882362e-07
4.770844e-07
4.8272636e-07
3.371536e-07
3.4070056e-07
2.3574995e-07
2.378984e-07
1.6584751e-07
1.6711523e-07
1.1958836e-07
1.2032681e-07
9.0065967e-08
9.0498656e-08
7.1958742e-08
7.2220977e-08
6.1403464e-08
6.1573559e-08
5.571162e-08
5.5832951e-08
5.3074522e-08
5.3170025e-08
5.23084e-08
5.2389594e-08
5.2655398e-08
5.2727745e-08
5.3638961e-08
5.3704898e-08
5.4964153e-08
5.5024729e-08
5.645131e-08
5.6507018e-08
5.7992676e-08
5.8043834e-08
5.9524411e-08
5.9571318e-08
6.1008836e-08
6.1051817e-08
6.2423493e-08
6.2462897e-08
6.3754658e-08
6.3790846e-08
6.4993723e-08
6.5027054e-08
6.6135395e-08
6.6166217e-08
6.7177235e-08
6.7205881e-08
6.8120547e-08
6.8147338e-08
6.895728e-08
6.8982462e-08
6.9663341e-08
6.9687189e-08
7.0232599e-08
7.0255366e-08
7.0653964e-08
7.0675879e-08
7.090562e-08
7.0926892e-08
7.0940858e-08
7.0961674e-08
7.0610594e-08
7.0631067e-08
2.9101091e-10
1.3211983e-08
1.9318189e-07
8.2693044e-07
1.6442266e-06
2.2308851e-06
2.5759125e-06
2.7843089e-06
2.9283879e-06
3.043757e-06
3.1475739e-06
3.253902e-06
3.3594167e-06
3.4630636e-06
3.5640702e-06
3.6610907e-06
3.751671e-06
3.8316731e-06
3.8943946e-06
3.9292427e-06
3.9195882e-06
3.8391658e-06
3.6454947e-06
3.2620746e-06
2.4507884e-06
2.0743544e-10
2.6888149e-08
3.6001267e-07
1.3775158e-06
2.5707715e-06
3.379308e-06
3.8525763e-06
4.1593509e-06
4.3941006e-06
4.5995804e-06
4.7964014e-06
4.9970591e-06
5.1992457e-06
5.4019751e-06
5.6035845e-06
5.8013344e-06
5.9904766e-06
6.1632256e-06
6.3068552e-06
6.4010463e-06
6.4134263e-06
6.2915939e-06
5.9477566e-06
5.2210843e-06
3.6831065e-06
6.5725283e-10
7.8772607e-08
8.5725235e-07
2.5072933e-06
3.7931488e-06
4.5299772e-06
4.9938266e-06
5.3396492e-06
5.6400394e-06
5.9274144e-06
6.2171112e-06
6.5158839e-06
6.8222578e-06
7.1350844e-06
7.452939e-06
7.7727458e-06
8.0882736e-06
8.3895454e-06
8.6588426e-06
8.8674063e-06
8.9685324e-06
8.8845342e-06
8.4798893e-06
7.4960188e-06
5.2895461e-06
3.113434e-09
2.8507093e-07
2.0615595e-06
4.001972e-06
5.0426724e-06
5.6305842e-06
6.0375842e-06
6.3803513e-06
6.7090679e-06
7.0423614e-06
7.3910594e-06
7.7582265e-06
8.1404014e-06
8.5363179e-06
8.9458616e-06
9.3676662e-06
9.7967398e-06
1.0223518e-05
1.0631282e-05
1.0992056e-05
1.125952e-05
1.1355123e-05
1.1135038e-05
1.0290014e-05
7.8904665e-06
2.329395e-08
1.1380068e-06
3.987781e-06
5.595228e-06
6.4463648e-06
6.9671912e-06
7.3508652e-06
7.6973258e-06
8.047252e-06
8.4023359e-06
8.7759024e-06
9.1749821e-06
9.5889488e-06
1.001356e-05
1.045142e-05
1.0907298e-05
1.1380529e-05
1.1866493e-05
1.2355208e-05
1.2828346e-05
1.3254662e-05
1.3583838e-05
1.3739103e-05
1.3624597e-05
1.3212061e-05
1.9561289e-07
2.7553998e-06
5.9053194e-06
7.7077699e-06
8.6213756e-06
9.037603e-06
9.2332419e-06
9.3696981e-06
9.508291e-06
9.6672846e-06
9.8545906e-06
1.0076332e-05
1.0332855e-05
1.0624183e-05
1.0951553e-05
1.1316142e-05
1.1718269e-05
1.2156092e-05
1.2624612e-05
1.3113926e-05
1.3606201e-05
1.4072407e-05
1.4469243e-05
1.4747967e-05
1.4851194e-05
4.3535891e-06
4.326101e-06
4.3712148e-06
4.4834193e-06
4.6602656e-06
4.8907522e-06
5.1641756e-06
5.4771885e-06
5.8318211e-06
6.2305865e-06
6.6739818e-06
7.1594043e-06
7.680739e-06
8.2300504e-06
8.7998848e-06
9.3851437e-06
9.9833702e-06
1.0593383e-05
1.1213437e-05
1.1838994e-05
1.2459694e-05
1.3056291e-05
1.3597941e-05
1.4047783e-05
1.4338223e-05
9.1193485e-06
9.3754015e-06
9.7767296e-06
1.0193997e-05
1.0367965e-05
1.0329772e-05
1.0211508e-05
1.0113899e-05
1.007701e-05
1.0102357e-05
1.0185691e-05
1.0322219e-05
1.0509707e-05
1.0747795e-05
1.1036404e-05
1.1375087e-05
1.1762051e-05
1.2193492e-05
1.2662399e-05
1.3156459e-05
1.3654969e-05
1.4125722e-05
1.452226e-05
1.4794462e-05
1.488856e-05
6.4077965e-06
6.8176636e-06
7.2491089e-06
7.6485972e-06
7.950265e-06
8.1676549e-06
8.360279e-06
8.5685421e-06
8.8000217e-06
9.0693716e-06
9.3734301e-06
9.7028442e-06
1.005298e-05
1.0430067e-05
1.0838054e-05
1.1277605e-05
1.174581e-05
1.2235389e-05
1.2732752e-05
1.3215022e-05
1.3645494e-05
1.3967775e-05
1.4099337e-05
1.3941401e-05
1.3473086e-05
5.1427646e-06
5.4998781e-06
5.8509068e-06
6.1682102e-06
6.43517e-06
6.6643697e-06
6.8859358e-06
7.1202707e-06
7.3785047e-06
7.6672554e-06
7.9844982e-06
8.327556e-06
8.6963183e-06
9.0919192e-06
9.5139099e-06
9.9586057e-06
1.0417832e-05
1.087723e-05
1.1313656e-05
1.1691049e-05
1.19535e-05
1.2012053e-05
1.1712934e-05
1.0736583e-05
8.12773e-06
4.4373844e-06
4.727927e-06
5.0193338e-06
5.2913835e-06
5.5382386e-06
5.7680053e-06
5.9951301e-06
6.2324024e-06
6.4883734e-06
6.7672048e-06
7.0685858e-06
7.3913087e-06
7.7350219e-06
8.0987096e-06
8.4794386e-06
8.8702098e-06
9.2588516e-06
9.626125e-06
9.9430022e-06
1.0166557e-05
1.0233401e-05
1.0048156e-05
9.4599958e-06
8.2030919e-06
5.6412906e-06
3.991478e-06
4.2223894e-06
4.4620927e-06
4.6948016e-06
4.9170078e-06
5.1334072e-06
5.3521164e-06
5.5808918e-06
5.825425e-06
6.088549e-06
6.370473e-06
6.6702941e-06
6.9867274e-06
7.317016e-06
7.6557538e-06
7.9937891e-06
8.3168489e-06
8.6039174e-06
8.825136e-06
8.9389406e-06
8.8879654e-06
8.5925e-06
7.9374916e-06
6.7346889e-06
4.499601e-06
3.6821144e-06
3.8681042e-06
4.0667766e-06
4.2665918e-06
4.4642955e-06
4.662105e-06
4.8646124e-06
5.0766272e-06
5.3018539e-06
5.5422148e-06
5.7979141e-06
6.0679743e-06
6.35039e-06
6.6414205e-06
6.9346508e-06
7.2201094e-06
7.4833158e-06
7.7041622e-06
7.8556731e-06
7.9026415e-06
7.8001071e-06
7.4911956e-06
6.9014561e-06
5.911982e-06
4.1490298e-06
3.444076e-06
3.5972389e-06
3.7642026e-06
3.9368134e-06
4.1121187e-06
4.2908279e-06
4.4754382e-06
4.6688103e-06
4.8732121e-06
5.0897829e-06
5.3184028e-06
5.5577861e-06
5.8053808e-06
6.0568734e-06
6.305531e-06
6.5415604e-06
6.7514768e-06
6.9175167e-06
7.0172081e-06
7.0232999e-06
6.9044599e-06
6.6276634e-06
6.1650804e-06
5.5180585e-06
4.8296967e-06
3.2402309e-06
3.3687783e-06
3.5107833e-06
3.6606179e-06
3.8157457e-06
3.9760474e-06
4.1427333e-06
4.3173753e-06
4.5012032e-06
4.6946719e-06
4.897257e-06
5.1073423e-06
5.3220343e-06
5.5367958e-06
5.7450059e-06
5.9375406e-06
6.10244e-06
6.2247381e-06
6.2865951e-06
6.2680107e-06
6.1486786e-06
5.9123239e-06
5.5572027e-06
5.1235808e-06
4.7598811e-06
3.0458473e-06
3.1549931e-06
3.2766056e-06
3.406805e-06
3.5435009e-06
3.6861618e-06
3.8351947e-06
3.9913096e-06
4.1550059e-06
4.3262106e-06
4.5040423e-06
4.6866412e-06
4.8709692e-06
5.0525438e-06
5.225155e-06
5.3806315e-06
5.5087219e-06
5.5971694e-06
5.6321017e-06
5.5989353e-06
5.4841629e-06
5.2788129e-06
4.98552e-06
4.6344561e-06
4.3112797e-06
2.8430483e-06
2.9360122e-06
3.040197e-06
3.1529002e-06
3.2724264e-06
3.3980574e-06
3.5297157e-06
3.6675519e-06
3.8115665e-06
3.961312e-06
4.1156707e-06
4.2726762e-06
4.4293353e-06
4.5814404e-06
4.7233983e-06
4.8481215e-06
4.9470317e-06
5.0102314e-06
5.0268997e-06
4.9859607e-06
4.8770161e-06
4.6912564e-06
4.4206963e-06
4.046659e-06
3.4368921e-06
2.6195857e-06
2.6983966e-06
2.7871033e-06
2.8837841e-06
2.9870697e-06
3.0961894e-06
3.2107944e-06
3.3306886e-06
3.4555588e-06
3.5847345e-06
3.7169947e-06
3.8504068e-06
3.9821804e-06
4.1085399e-06
4.2246265e-06
4.3244629e-06
4.4010073e-06
4.4463222e-06
4.4518516e-06
4.4087343e-06
4.3078884e-06
4.1390485e-06
3.8859818e-06
3.5060742e-06
2.8110605e-06
2.3690303e-06
2.4350768e-06
2.5096771e-06
2.5914394e-06
2.679264e-06
2.7724061e-06
2.8703874e-06
2.9728245e-06
3.0792367e-06
3.1888602e-06
3.3004881e-06
3.4123408e-06
3.5219467e-06
3.62606e-06
3.7206079e-06
3.8006884e-06
3.8606324e-06
3.8941249e-06
3.8943475e-06
3.8540153e-06
3.7649915e-06
3.6166916e-06
3.3910589e-06
3.0454858e-06
2.4186264e-06
2.0912753e-06
2.1456438e-06
2.2072354e-06
2.2750347e-06
2.3481688e-06
2.4259663e-06
2.507916e-06
2.5935597e-06
2.6823602e-06
2.7735616e-06
2.8660638e-06
2.9583209e-06
3.0482541e-06
3.1331942e-06
3.2098558e-06
3.2743465e-06
3.3222138e-06
3.3485137e-06
3.3478479e-06
3.3142535e-06
3.2406869e-06
3.1175619e-06
2.928969e-06
2.6413533e-06
2.1428158e-06
1.7928107e-06
1.8364927e-06
1.8861038e-06
1.9409055e-06
2.0002191e-06
2.0634741e-06
2.1301886e-06
2.1999074e-06
2.2721133e-06
2.346128e-06
2.4210184e-06
2.4955188e-06
2.5679722e-06
2.6362884e-06
2.6979333e-06
2.7499356e-06
2.7889161e-06
2.8111105e-06
2.8123446e-06
2.7878711e-06
2.7319067e-06
2.6365675e-06
2.4895115e-06
2.2676662e-06
1.9106336e-06
1.4861393e-06
1.5201652e-06
1.558895e-06
1.6017954e-06
1.6483537e-06
1.6981097e-06
1.7506482e-06
1.8055652e-06
1.8624107e-06
1.9206231e-06
1.9794625e-06
2.0379556e-06
2.094856e-06
2.1486179e-06
2.1973865e-06
2.2390032e-06
2.2710171e-06
2.2906796e-06
2.2948912e-06
2.2800414e-06
2.2416556e-06
2.1737058e-06
2.0672486e-06
1.9069359e-06
1.6562212e-06
1.1877207e-06
1.213251e-06
1.2423628e-06
1.2746778e-06
1.3098205e-06
1.3474364e-06
1.3871933e-06
1.428762e-06
1.4717814e-06
1.5158188e-06
1.5603258e-06
1.6046023e-06
1.64777e-06
1.6887552e-06
1.7262821e-06
1.7588732e-06
1.7848484e-06
1.8023093e-06
1.8090824e-06
1.8025881e-06
1.7795958e-06
1.7357992e-06
1.6650118e-06
1.5568872e-06
1.3858566e-06
9.1442201e-07
9.327766e-07
9.537313e-07
9.7702533e-07
1.0023916e-06
1.0295695e-06
1.0583075e-06
1.0883558e-06
1.1194444e-06
1.1512616e-06
1.1834278e-06
1.2154732e-06
1.2468216e-06
1.2767778e-06
1.3045224e-06
1.3291083e-06
1.3494555e-06
1.3643359e-06
1.3723287e-06
1.3717282e-06
1.360385e-06
1.3354479e-06
1.2928571e-06
1.2257239e-06
1.1160426e-06
6.7948569e-07
6.9209094e-07
7.0649003e-07
7.2250847e-07
7.3996128e-07
7.5866416e-07
7.7843642e-07
7.9909798e-07
8.2045945e-07
8.4231033e-07
8.6440471e-07
8.8644961e-07
9.0809481e-07
9.2892329e-07
9.4844539e-07
9.660924e-07
9.812115e-07
9.9305734e-07
1.0007676e-06
1.0033066e-06
9.993685e-07
9.872188e-07
9.6436402e-07
9.264052e-07
8.6179012e-07
4.897202e-07
4.9798919e-07
5.0743517e-07
5.1794346e-07
5.2938971e-07
5.4164769e-07
5.5459289e-07
5.6810167e-07
5.8204783e-07
5.9629698e-07
6.1070054e-07
6.2508916e-07
6.3926711e-07
6.5300486e-07
6.6603081e-07
6.7802168e-07
6.8859852e-07
6.9732799e-07
7.0371779e-07
7.0718805e-07
7.070127e-07
7.0222127e-07
6.9139044e-07
6.719295e-07
6.367705e-07
3.4509585e-07
3.5029204e-07
3.562256e-07
3.6282226e-07
3.7000084e-07
3.7767773e-07
3.8576993e-07
3.9419609e-07
4.0287579e-07
4.1172765e-07
4.2066721e-07
4.2960463e-07
4.3844175e-07
4.4706545e-07
4.5533768e-07
4.6308151e-07
4.7007475e-07
4.760632e-07
4.8077357e-07
4.8390132e-07
4.8507261e-07
4.8377972e-07
4.7925257e-07
4.7005955e-07
4.523048e-07
2.4055793e-07
2.4369908e-07
2.472819e-07
2.5125952e-07
2.5558091e-07
2.6019317e-07
2.6504374e-07
2.7008177e-07
2.7525857e-07
2.8052754e-07
2.8584422e-07
2.9116617e-07
2.9645211e-07
3.0165673e-07
3.0671817e-07
3.1153901e-07
3.1597614e-07
3.1986647e-07
3.2305558e-07
3.2539159e-07
3.2669458e-07
3.2671169e-07
3.2503879e-07
3.2090796e-07
3.1228765e-07
1.6868103e-07
1.7052551e-07
1.7262374e-07
1.7494625e-07
1.774611e-07
1.8013526e-07
1.8293614e-07
1.8583271e-07
1.8879629e-07
1.9180125e-07
1.9482597e-07
1.9785459e-07
2.0088002e-07
2.0390551e-07
2.0692911e-07
2.0989409e-07
2.1267061e-07
2.1512949e-07
2.1718075e-07
2.187553e-07
2.1977388e-07
2.2011563e-07
2.1957364e-07
2.1775072e-07
2.1363716e-07
1.2123699e-07
1.2230652e-07
1.2351993e-07
1.2485902e-07
1.2630393e-07
1.2783427e-07
1.2942997e-07
1.3107221e-07
1.3274402e-07
1.3443097e-07
1.3612203e-07
1.3781069e-07
1.3949685e-07
1.4118925e-07
1.4290694e-07
1.44672e-07
1.4642373e-07
1.4798371e-07
1.4928443e-07
1.5030022e-07
1.5100136e-07
1.5133206e-07
1.5118661e-07
1.5035935e-07
1.4835456e-07
9.10313e-08
9.1656261e-08
9.2364041e-08
9.3143552e-08
9.3982661e-08
9.4868866e-08
9.5789971e-08
9.6734576e-08
9.7692705e-08
9.8656224e-08
9.9619428e-08
1.0057982e-07
1.0153916e-07
1.0250499e-07
1.0349271e-07
1.0452812e-07
1.0563134e-07
1.0665078e-07
1.0749694e-07
1.081602e-07
1.0863243e-07
1.0888805e-07
1.0887036e-07
1.0846178e-07
1.0736203e-07
7.2543872e-08
7.2922831e-08
7.3352102e-08
7.3824958e-08
7.4334023e-08
7.4871662e-08
7.5430399e-08
7.6003313e-08
7.6584417e-08
7.7168984e-08
7.7753929e-08
7.8338328e-08
7.8924078e-08
7.9517003e-08
8.0128465e-08
8.0778107e-08
8.1496558e-08
8.2205715e-08
8.2794509e-08
8.3257324e-08
8.3593933e-08
8.3792169e-08
8.3819133e-08
8.3601218e-08
8.2935396e-08
6.178353e-08
6.2030671e-08
6.2311524e-08
6.2621986e-08
6.2957509e-08
6.3313354e-08
6.3684823e-08
6.4067555e-08
6.445775e-08
6.4852409e-08
6.5249588e-08
6.5648766e-08
6.6051353e-08
6.6461508e-08
6.6887463e-08
6.7343862e-08
6.7855853e-08
6.8395489e-08
6.8846025e-08
6.920284e-08
6.9468039e-08
6.9634935e-08
6.9682151e-08
6.9560149e-08
6.9129397e-08
5.5983463e-08
5.6161603e-08
5.6365278e-08
5.6591926e-08
5.683864e-08
5.7102322e-08
5.7379853e-08
5.7668261e-08
5.7964878e-08
5.8267508e-08
5.8574622e-08
5.8885638e-08
5.920136e-08
5.9524652e-08
5.9861502e-08
6.0222794e-08
6.0627711e-08
6.1077101e-08
6.1454671e-08
6.175703e-08
6.1986554e-08
6.2138284e-08
6.2195781e-08
6.2120182e-08
6.1798862e-08
5.3289234e-08
5.3431292e-08
5.3594895e-08
5.3778351e-08
5.3979665e-08
5.4196644e-08
5.4427007e-08
5.4668505e-08
5.4919028e-08
5.5176733e-08
5.5440209e-08
5.5708722e-08
5.5982597e-08
5.6263809e-08
5.6556879e-08
5.6870188e-08
5.721812e-08
5.7616208e-08
5.7952895e-08
5.8225734e-08
5.843642e-08
5.8579889e-08
5.8641316e-08
5.8586767e-08
5.8318072e-08
5.2491536e-08
5.2613777e-08
5.2755453e-08
5.291534e-08
5.3091926e-08
5.3283496e-08
5.3488211e-08
5.3704193e-08
5.3929624e-08
5.4162843e-08
5.4402503e-08
5.4647776e-08
5.4898698e-08
5.5156685e-08
5.5425319e-08
5.5711495e-08
5.6027099e-08
5.6389975e-08
5.6699759e-08
5.6953744e-08
5.7152233e-08
5.7289188e-08
5.7349633e-08
5.7301118e-08
5.7053567e-08
5.2818969e-08
5.2928844e-08
5.3056735e-08
5.3201663e-08
5.3362374e-08
5.3537409e-08
5.3725178e-08
5.3924033e-08
5.4132353e-08
5.434864e-08
5.4571644e-08
5.4800555e-08
5.5035282e-08
5.5276907e-08
5.5528362e-08
5.5795465e-08
5.6088507e-08
5.6423685e-08
5.6712569e-08
5.695177e-08
5.7140094e-08
5.7270264e-08
5.7326393e-08
5.7275647e-08
5.7031487e-08
5.3788232e-08
5.3888845e-08
5.4006215e-08
5.4139492e-08
5.4287574e-08
5.4449169e-08
5.4622867e-08
5.480721e-08
5.5000772e-08
5.520224e-08
5.5410527e-08
5.5624926e-08
5.5845339e-08
5.6072652e-08
5.6309311e-08
5.6560239e-08
5.6834268e-08
5.7145571e-08
5.7416133e-08
5.7641983e-08
5.7820491e-08
5.7943107e-08
5.7992763e-08
5.7935412e-08
5.768334e-08
5.5101334e-08
5.519388e-08
5.5301901e-08
5.5424634e-08
5.5561087e-08
5.5710109e-08
5.5870459e-08
5.6040873e-08
5.6220137e-08
5.6407157e-08
5.6601054e-08
5.6801277e-08
5.7007789e-08
5.7221364e-08
5.7444066e-08
5.7680034e-08
5.7936753e-08
5.8226377e-08
5.8480018e-08
5.8693139e-08
5.8861795e-08
5.8976189e-08
5.9017937e-08
5.8951347e-08
5.8686805e-08
5.6577418e-08
5.6662415e-08
5.6761575e-08
5.6874204e-08
5.6999414e-08
5.7136196e-08
5.7283481e-08
5.7440208e-08
5.760539e-08
5.7778169e-08
5.7957891e-08
5.8144188e-08
5.8337116e-08
5.8537382e-08
5.8746736e-08
5.8968627e-08
5.9209309e-08
5.9479021e-08
5.9716886e-08
5.991782e-08
6.0076682e-08
6.0182506e-08
6.0215588e-08
6.0138359e-08
5.9857487e-08
5.8108389e-08
5.8186222e-08
5.8276926e-08
5.8379869e-08
5.8494271e-08
5.8619265e-08
5.8753957e-08
5.8897494e-08
5.904911e-08
5.9208186e-08
5.9374289e-08
5.9547238e-08
5.972719e-08
5.9914811e-08
6.0111585e-08
6.0320355e-08
6.054627e-08
6.0797813e-08
6.1021065e-08
6.1210443e-08
6.1359745e-08
6.1456961e-08
6.148121e-08
6.1393211e-08
6.1095891e-08
5.9630398e-08
5.970151e-08
5.9784268e-08
5.9878107e-08
5.9982353e-08
6.0096275e-08
6.0219152e-08
6.0350325e-08
6.0489245e-08
6.063551e-08
6.0788899e-08
6.0949399e-08
6.1117267e-08
6.1293143e-08
6.1478285e-08
6.1675006e-08
6.1887476e-08
6.2122607e-08
6.2332425e-08
6.2510931e-08
6.2651e-08
6.2739715e-08
6.2755189e-08
6.2656614e-08
6.2343058e-08
6.1105846e-08
6.1170762e-08
6.1246204e-08
6.1331675e-08
6.1426597e-08
6.1530371e-08
6.1642434e-08
6.1762306e-08
6.1889631e-08
6.2024206e-08
6.2165995e-08
6.231514e-08
6.2471985e-08
6.2637152e-08
6.2811703e-08
6.2997493e-08
6.3197838e-08
6.3418258e-08
6.3615748e-08
6.3784029e-08
6.3915178e-08
6.3995474e-08
6.4002099e-08
6.3892809e-08
6.356295e-08
6.2512336e-08
6.2571638e-08
6.2640468e-08
6.271839e-08
6.2804918e-08
6.2899571e-08
6.3001927e-08
6.3111664e-08
6.3228596e-08
6.3352692e-08
6.3484076e-08
6.3623025e-08
6.376996e-08
6.3925488e-08
6.4090507e-08
6.426648e-08
6.4455973e-08
6.4663202e-08
6.4849287e-08
6.5007865e-08
6.513034e-08
6.5202271e-08
6.519998e-08
6.507991e-08
6.4731461e-08
6.3836172e-08
6.3890459e-08
6.3953401e-08
6.4024614e-08
6.4103697e-08
6.4190271e-08
6.4284036e-08
6.4384808e-08
6.4492544e-08
6.4607361e-08
6.4729521e-08
6.4859416e-08
6.4997537e-08
6.5144478e-08
6.5301012e-08
6.546831e-08
6.5648333e-08
6.5843374e-08
6.6018619e-08
6.6167807e-08
6.6281744e-08
6.6345342e-08
6.6334104e-08
6.6203061e-08
6.5837997e-08
6.5068739e-08
6.5118599e-08
6.5176354e-08
6.5241672e-08
6.531422e-08
6.5393711e-08
6.5479948e-08
6.5572862e-08
6.5672534e-08
6.5779205e-08
6.5893259e-08
6.6015188e-08
6.6145546e-08
6.6284928e-08
6.6434049e-08
6.6594075e-08
6.6767438e-08
6.6949121e-08
6.7113409e-08
6.7253217e-08
6.7358609e-08
6.7413887e-08
6.7393854e-08
6.7252353e-08
6.6871904e-08
6.6204711e-08
6.6250699e-08
6.6303925e-08
6.6364101e-08
6.6430955e-08
6.6504274e-08
6.6583952e-08
6.6670017e-08
6.6762658e-08
6.6862226e-08
6.6969214e-08
6.7084212e-08
6.7207828e-08
6.7340653e-08
6.7483407e-08
6.763749e-08
6.7805123e-08
6.7972635e-08
6.8125494e-08
6.8255689e-08
6.8352402e-08
6.8399347e-08
6.8370876e-08
6.8220389e-08
6.7829372e-08
6.7241606e-08
6.7284231e-08
6.7333521e-08
6.7389225e-08
6.7451123e-08
6.7519071e-08
6.7593038e-08
6.767314e-08
6.7759665e-08
6.785307e-08
6.795396e-08
6.8063018e-08
6.8180886e-08
6.8308086e-08
6.8445281e-08
6.8594782e-08
6.8752229e-08
6.890606e-08
6.9047523e-08
6.9167971e-08
6.9255839e-08
6.9294392e-08
6.9257884e-08
6.910078e-08
6.8713521e-08
6.818068e-08
6.8220388e-08
6.8266241e-08
6.8318021e-08
6.8375557e-08
6.8438765e-08
6.8507688e-08
6.8582526e-08
6.8663666e-08
6.8751677e-08
6.8847282e-08
6.8951264e-08
6.9064272e-08
6.9186569e-08
6.9317859e-08
6.9457155e-08
6.9600931e-08
6.9742056e-08
6.98726e-08
6.9983366e-08
7.0062252e-08
7.0092206e-08
7.0047424e-08
6.9882891e-08
6.9488931e-08
6.9013721e-08
6.9050856e-08
6.9093655e-08
6.9141924e-08
6.9195527e-08
6.9254421e-08
6.9318693e-08
6.9388588e-08
6.946452e-08
6.9547071e-08
6.9636944e-08
6.9734864e-08
6.9841385e-08
6.9956629e-08
7.0080002e-08
7.0209867e-08
7.0342861e-08
7.0473311e-08
7.0593869e-08
7.0695233e-08
7.0765075e-08
7.0786194e-08
7.0732749e-08
7.0559762e-08
7.0156838e-08
6.971674e-08
6.9751787e-08
6.9792126e-08
6.9837582e-08
6.9888043e-08
6.9943495e-08
7.0004055e-08
7.0069992e-08
7.0141739e-08
7.0219868e-08
7.0305044e-08
7.0397916e-08
7.0498937e-08
7.0608105e-08
7.0724664e-08
7.0846769e-08
7.0971099e-08
7.1092503e-08
7.1203975e-08
7.1296289e-08
7.1357101e-08
7.1369222e-08
7.1306869e-08
7.1124906e-08
7.0709677e-08
7.0283545e-08
7.0316928e-08
7.0355316e-08
7.0398548e-08
7.044653e-08
7.0499268e-08
7.0556894e-08
7.0619692e-08
7.06881e-08
7.0762679e-08
7.084405e-08
7.0932793e-08
7.1029269e-08
7.1133371e-08
7.1244231e-08
7.1359891e-08
7.1476988e-08
7.1590529e-08
7.1693674e-08
7.1777314e-08
7.182921e-08
7.1832325e-08
7.1761078e-08
7.1570407e-08
7.1145863e-08
7.0702984e-08
7.073506e-08
7.0771915e-08
7.0813402e-08
7.0859448e-08
7.0910061e-08
7.0965373e-08
7.1025667e-08
7.10914e-08
7.116311e-08
7.1241377e-08
7.1326737e-08
7.1419478e-08
7.151943e-08
7.1625662e-08
7.1736095e-08
7.1847175e-08
7.1953875e-08
7.2049427e-08
7.2124863e-08
7.216814e-08
7.2162506e-08
7.2082819e-08
7.1884811e-08
7.1457413e-08
7.0953186e-08
7.0984246e-08
7.1019891e-08
7.1059994e-08
7.1104531e-08
7.1153485e-08
7.1206944e-08
7.1265164e-08
7.1328701e-08
7.1398045e-08
7.1473724e-08
7.1556275e-08
7.1645959e-08
7.1742618e-08
7.184544e-08
7.1952221e-08
7.2058738e-08
7.2159782e-08
7.2248638e-08
7.2316562e-08
7.2351823e-08
7.2338104e-08
7.2250947e-08
7.2047476e-08
7.1620893e-08
7.0987381e-08
7.1017629e-08
7.1052245e-08
7.1091161e-08
7.1134471e-08
7.1182072e-08
7.1233876e-08
7.1289989e-08
7.1351531e-08
7.1418775e-08
7.1492129e-08
7.1572235e-08
7.1659351e-08
7.1753495e-08
7.1854822e-08
7.1961396e-08
7.2065851e-08
7.2162945e-08
7.2246347e-08
7.2307815e-08
7.2336138e-08
7.2315735e-08
7.2222903e-08
7.2017052e-08
7.1596236e-08
7.0656303e-08
7.0685748e-08
7.0719242e-08
7.0756822e-08
7.0798852e-08
7.0845041e-08
7.0894607e-08
7.0946764e-08
7.1005731e-08
7.1070629e-08
7.1141369e-08
7.1218872e-08
7.1303239e-08
7.1394916e-08
7.149974e-08
7.1621642e-08
7.1730353e-08
7.182608e-08
7.1905583e-08
7.1962024e-08
7.1985299e-08
7.196286e-08
7.1867707e-08
7.1666234e-08
7.1282694e-08
)
;

boundaryField
{
    Walls
    {
        type            nutUWallFunction;
        Cmu             0.09;
        kappa           0.41;
        E               9.8;
        value           uniform 0;
    }
    Inlet
    {
        type            calculated;
        value           nonuniform List<scalar> 3(1.2936544e-05 3.1469928e-05 7.7347686e-07);
    }
    Outlet
    {
        type            calculated;
        value           nonuniform List<scalar> 
86
(
7.0580458e-08
7.0585076e-08
7.0595219e-08
7.0610594e-08
7.0631067e-08
7.0656303e-08
7.0685748e-08
7.0719242e-08
7.0756822e-08
7.0798852e-08
7.0845041e-08
7.0894607e-08
7.0946764e-08
7.1005731e-08
7.1070629e-08
7.1141369e-08
7.1218872e-08
7.1303239e-08
7.1394916e-08
7.149974e-08
7.1621642e-08
7.1730353e-08
7.182608e-08
7.1905583e-08
7.1962024e-08
7.1985299e-08
7.196286e-08
7.1867707e-08
7.1666234e-08
7.1282694e-08
1.4338223e-05
1.488856e-05
1.3473086e-05
0
0
0
0
4.8296967e-06
4.7598811e-06
4.3112797e-06
3.4368921e-06
0
2.4186264e-06
2.1428158e-06
1.9106336e-06
1.6562212e-06
1.3858566e-06
1.1160426e-06
8.6179012e-07
6.367705e-07
4.523048e-07
3.1228765e-07
2.1363716e-07
1.4835456e-07
1.0736203e-07
8.2935396e-08
6.9129397e-08
6.1798862e-08
5.8318072e-08
5.7053567e-08
5.7031487e-08
5.768334e-08
5.8686805e-08
5.9857487e-08
6.1095891e-08
6.2343058e-08
6.356295e-08
6.4731461e-08
6.5837997e-08
6.6871904e-08
6.7829372e-08
6.8713521e-08
6.9488931e-08
7.0156838e-08
7.0709677e-08
7.1145863e-08
7.1457413e-08
7.1620893e-08
7.1596236e-08
7.1282694e-08
0
0
0
0
1.3212061e-05
1.4851194e-05
)
;
    }
    Front
    {
        type            wedge;
    }
    Back
    {
        type            wedge;
    }
    defaultFaces
    {
        type            empty;
    }
}


// ************************************************************************* //
