/*--------------------------------*- C++ -*----------------------------------*\
| =========                 |                                                 |
| \\      /  F ield         | OpenFOAM: The Open Source CFD Toolbox           |
|  \\    /   O peration     | Version:  4.0                                   |
|   \\  /    A nd           | Web:      www.OpenFOAM.org                      |
|    \\/     M anipulation  |                                                 |
\*---------------------------------------------------------------------------*/
FoamFile
{
    version     2.0;
    format      ascii;
    class       surfaceScalarField;
    location    "0.6";
    object      phi;
}
// * * * * * * * * * * * * * * * * * * * * * * * * * * * * * * * * * * * * * //

dimensions      [0 3 -1 0 0 0 0];

internalField   nonuniform List<scalar> 
3364
(
-1.2627303e-10
1.5905092e-08
-5.3205008e-10
5.2462808e-08
8.6813848e-08
-7.6658021e-10
1.6671657e-08
-1.5444585e-09
5.3240731e-08
8.5269418e-08
-1.2374626e-09
1.790913e-08
-1.1917342e-09
5.3195078e-08
8.4077696e-08
-1.9244583e-10
1.8101562e-08
6.2570438e-10
5.2376924e-08
8.4703372e-08
7.982056e-10
1.73033e-08
1.2275542e-09
5.1947486e-08
8.5930867e-08
3.9463443e-10
1.6908603e-08
1.0281214e-09
5.1313897e-08
8.6958944e-08
-6.1014349e-10
1.7518726e-08
2.783226e-10
5.0425396e-08
8.7237251e-08
-2.3616489e-10
1.775488e-08
-9.8361313e-10
5.1172833e-08
8.6253625e-08
4.1036417e-10
1.7344474e-08
-2.8429881e-10
5.186749e-08
8.5969324e-08
1.565445e-10
1.7187873e-08
2.0275962e-09
4.9996413e-08
8.799691e-08
1.2305338e-10
1.7064782e-08
6.8523825e-10
4.9434169e-08
8.86821e-08
-1.9279023e-10
1.7257539e-08
-2.2562673e-09
5.1497573e-08
8.6425783e-08
-6.3697614e-10
1.7894477e-08
-1.675903e-09
5.2536437e-08
8.4749828e-08
-2.5191078e-10
1.8146362e-08
1.0310973e-09
5.125338e-08
8.5780875e-08
1.1603686e-10
1.8030295e-08
1.2861888e-09
5.0083185e-08
8.7067016e-08
3.2164577e-10
1.770859e-08
-1.0236697e-09
5.1428461e-08
8.6043312e-08
2.9490514e-10
1.7413635e-08
-3.7231304e-10
5.2095622e-08
8.5670959e-08
-1.3711604e-10
1.7550716e-08
1.1138636e-09
5.0844612e-08
8.6784803e-08
2.4961449e-11
1.7525713e-08
-9.8236075e-11
5.0967798e-08
8.6686556e-08
4.9920137e-10
1.7026472e-08
-4.702805e-10
5.1937242e-08
8.6216242e-08
2.2640939e-11
1.70038e-08
6.0636775e-11
5.1899196e-08
8.6276836e-08
-4.4424937e-10
1.7448039e-08
7.1169389e-10
5.0743238e-08
8.6988504e-08
-2.1573483e-11
1.7469587e-08
7.516304e-10
4.9970029e-08
8.7740113e-08
-1.0235641e-10
1.7571892e-08
-5.7580941e-10
5.0443427e-08
8.7164255e-08
-3.2016323e-10
1.789199e-08
-1.0776525e-09
5.1200849e-08
8.608655e-08
3.6193745e-10
1.7530022e-08
-6.6198879e-10
5.2224711e-08
8.5424517e-08
1.9556487e-10
1.733443e-08
2.3785697e-10
5.2182366e-08
8.5662337e-08
-5.8970621e-10
1.7924102e-08
1.403309e-09
5.0189348e-08
8.7065612e-08
4.6933578e-11
1.7877206e-08
6.0374616e-10
4.9632632e-08
8.7669382e-08
1.9666425e-09
1.5910782e-08
3.9397055e-09
4.765971e-08
9.1609074e-08
1.1462675e-08
4.447471e-09
4.8239655e-08
1.0880867e-08
1.1581083e-08
1.2826507e-07
4.9322845e-09
-4.8529191e-10
1.7165392e-08
-1.3537458e-09
-1.1854345e-09
2.9930009e-08
-3.7247376e-10
-1.1278762e-10
-1.4294836e-09
-2.9667462e-10
-2.7132099e-10
-2.3435108e-09
-1.0820846e-10
-4.5644532e-12
-4.028008e-10
-2.0471492e-12
2.9321455e-11
-7.0340434e-10
-1.5584239e-11
1.1021897e-11
-5.6862839e-11
3.9236996e-11
7.7109789e-11
-1.0464478e-10
-2.2945087e-12
1.3316589e-11
-6.2662356e-12
4.3209254e-11
7.3966789e-11
-3.1220846e-12
1.2991449e-12
1.2017488e-11
7.3489921e-12
3.7159455e-11
6.2295942e-11
1.9019821e-11
2.5539223e-12
9.4634998e-12
1.1027079e-11
2.8686086e-11
4.7273732e-11
2.6048921e-11
2.2042819e-12
7.2591823e-12
9.1117455e-12
2.1778501e-11
3.5779431e-11
2.0605842e-11
1.4344505e-12
5.8247443e-12
5.7603366e-12
1.7452633e-11
2.893481e-11
1.2604982e-11
7.9151691e-13
5.0332669e-12
3.1691506e-12
1.5075094e-11
2.4832316e-11
7.2717967e-12
5.2177341e-13
4.5115335e-12
2.1093688e-12
1.3487598e-11
2.208053e-11
4.8613145e-12
4.7164216e-13
4.0399201e-12
1.8720323e-12
1.2087279e-11
1.9763454e-11
4.1892241e-12
4.6336494e-13
3.5765728e-12
1.8403103e-12
1.0710375e-11
1.754785e-11
4.0559824e-12
4.3775943e-13
3.1388234e-12
1.7461755e-12
9.4019809e-12
1.5426285e-11
3.8677756e-12
3.9048753e-13
2.7483417e-12
1.5623456e-12
8.2301345e-12
1.3511194e-11
3.4774548e-12
3.358882e-13
2.4124573e-12
1.3431575e-12
7.2228717e-12
1.186595e-11
2.988411e-12
2.8439384e-13
2.1280659e-12
1.1366962e-12
6.3705728e-12
1.0475095e-11
2.5275566e-12
2.4160231e-13
1.8864651e-12
9.6434002e-13
5.6478366e-12
9.2947443e-12
2.1446922e-12
2.0745642e-13
1.6790095e-12
8.2712327e-13
5.0281694e-12
8.2813643e-12
1.840502e-12
1.7962354e-13
1.4993862e-12
7.1585346e-13
4.4919378e-12
7.4030334e-12
1.5941811e-12
1.5737291e-13
1.342013e-12
6.2774391e-13
4.0215641e-12
6.6324368e-12
1.3983355e-12
1.3791898e-13
1.2040935e-12
5.5059671e-13
3.6088832e-12
5.9548062e-12
1.2282214e-12
1.2088327e-13
1.0832095e-12
4.8263611e-13
3.2471269e-12
5.3603766e-12
1.0770595e-12
1.0579736e-13
9.774114e-13
4.2234569e-13
2.9305753e-12
4.8401062e-12
9.4261014e-13
9.2233083e-14
8.851776e-13
3.6856258e-13
2.6542427e-12
4.3860807e-12
8.2258269e-13
7.9667841e-14
8.0550911e-13
3.2002521e-13
2.4138826e-12
3.9909927e-12
7.1510837e-13
6.9623297e-14
7.3588526e-13
2.7524313e-13
2.2082605e-12
3.6501275e-12
6.1610436e-13
6.0312148e-14
6.7557264e-13
2.412776e-13
2.0272932e-12
3.3542016e-12
5.3720017e-13
5.2203532e-14
6.2336877e-13
2.0885199e-13
1.8706433e-12
3.0957381e-12
4.6731299e-13
4.5235151e-14
5.7813338e-13
1.8072867e-13
1.7351487e-12
2.8721398e-12
4.0432514e-13
3.9117165e-14
5.390161e-13
1.5606932e-13
1.6181959e-12
2.6789381e-12
3.4926993e-13
3.3856085e-14
5.0516001e-13
1.3444329e-13
1.5176084e-12
2.5118369e-12
3.0154403e-13
2.9158776e-14
4.7600131e-13
1.172389e-13
1.4295283e-12
2.3677889e-12
2.6128693e-13
2.5220929e-14
4.5078055e-13
1.0091998e-13
1.3538295e-12
2.243313e-12
2.2539641e-13
2.1763936e-14
4.2901685e-13
8.7150251e-14
1.2884437e-12
2.1354824e-12
1.9498171e-13
1.8870277e-14
4.1014687e-13
7.5575159e-14
1.2317395e-12
2.0416069e-12
1.694518e-13
1.6367309e-14
3.937799e-13
6.5479886e-14
1.1826278e-12
1.9603503e-12
1.4673797e-13
1.4171915e-14
3.7960836e-13
5.6671308e-14
1.1401293e-12
1.8900196e-12
1.270036e-13
1.2224922e-14
3.6738384e-13
4.8908404e-14
1.1034469e-12
1.8293566e-12
1.0957321e-13
1.0545275e-14
3.5683898e-13
4.2191619e-14
1.0718017e-12
1.7769794e-12
9.4570804e-14
9.0672389e-15
3.4777217e-13
3.62832e-14
1.0445868e-12
1.7319118e-12
8.1352771e-14
7.7108511e-15
3.4006175e-13
3.084176e-14
1.0214571e-12
1.6935507e-12
6.9204965e-14
6.4565377e-15
3.3360566e-13
2.5788427e-14
1.0021265e-12
1.6614555e-12
5.7885718e-14
5.3641444e-15
3.2824195e-13
2.1400943e-14
9.8609087e-13
1.6349166e-12
4.7941913e-14
4.3841413e-15
3.2385824e-13
1.7556787e-14
9.7291944e-13
1.6131804e-12
3.9295089e-14
3.4460887e-15
3.2041258e-13
1.3951589e-14
9.6241515e-13
1.5957293e-12
3.1404756e-14
2.5646237e-15
3.178484e-13
1.040683e-14
9.5457417e-13
1.5826712e-12
2.3467075e-14
1.7535369e-15
3.1609531e-13
6.9375987e-15
9.4939136e-13
1.5740751e-12
1.5535807e-14
8.4706232e-16
3.2745014e-15
7.272837e-15
1.3759156e-07
-9.3317968e-09
-8.6615591e-09
1.4624682e-07
2.1866572e-08
-1.2695788e-09
-1.2404778e-09
1.4444938e-08
-3.2852648e-09
-3.2770884e-10
-4.5317672e-10
-4.0724237e-09
-1.048145e-09
1.7082828e-11
-4.2009037e-11
-1.4592517e-09
-1.8122051e-10
9.3669543e-11
8.4231699e-11
-3.0744481e-10
-7.944266e-12
9.8493922e-11
1.0729492e-10
-3.1003887e-11
3.6356151e-11
8.1157516e-11
9.2894313e-11
5.0756732e-11
4.5015043e-11
6.219083e-11
7.1568423e-11
6.6340181e-11
3.4936558e-11
4.7859796e-11
5.4659353e-11
5.1845184e-11
2.1711836e-11
3.8752954e-11
4.4631126e-11
3.1740054e-11
1.2581754e-11
3.3443198e-11
3.9176538e-11
1.8036583e-11
8.5733022e-12
2.9731427e-11
3.5617361e-11
1.2132747e-11
7.2094676e-12
2.6711341e-11
3.2203032e-11
1.0623992e-11
6.9697513e-12
2.3797665e-11
2.9018403e-11
1.0154496e-11
6.6692564e-12
2.0996231e-11
2.5831915e-11
9.8558035e-12
6.040802e-12
1.8432908e-11
2.2813968e-11
9.0587765e-12
5.2101723e-12
1.6211159e-11
2.0143903e-11
7.880251e-12
4.4036565e-12
1.4335065e-11
1.7853637e-11
6.6939301e-12
3.7352946e-12
1.2744464e-11
1.5905452e-11
5.6834809e-12
3.2114767e-12
1.1373487e-11
1.4228599e-11
4.8883261e-12
2.789004e-12
1.0178659e-11
1.2758181e-11
4.259414e-12
2.4482638e-12
9.1287231e-12
1.1460746e-11
3.7456881e-12
2.1538316e-12
8.2031041e-12
1.0312821e-11
3.3017451e-12
1.890026e-12
7.3901286e-12
9.3015871e-12
2.9012483e-12
1.6547695e-12
6.6779606e-12
8.4143417e-12
2.5420037e-12
1.4440944e-12
6.056441e-12
7.6389373e-12
2.2194886e-12
1.2570505e-12
5.514492e-12
6.9628114e-12
1.9331675e-12
1.0905671e-12
5.0400234e-12
6.3738403e-12
1.6795307e-12
9.4101278e-13
4.6362062e-12
5.8615505e-12
1.4532966e-12
8.1897052e-13
4.2845451e-12
5.419052e-12
1.2614645e-12
7.1213958e-13
3.9767282e-12
5.0357313e-12
1.0954572e-12
6.1528485e-13
3.7107118e-12
4.7019478e-12
9.4906654e-13
5.314255e-13
3.4808297e-12
4.4139517e-12
8.19421e-13
4.5983213e-13
3.2822847e-12
4.1659062e-12
7.0787795e-13
3.9679491e-13
3.110887e-12
3.9482229e-12
6.1447934e-13
3.4387905e-13
2.961991e-12
3.7601951e-12
5.3190862e-13
2.9887652e-13
2.832568e-12
3.5972599e-12
4.6181406e-13
2.5895257e-13
2.7203555e-12
3.455718e-12
4.0049721e-13
2.2436459e-13
2.6229969e-12
3.3323863e-12
3.4769946e-13
1.9352476e-13
2.5390479e-12
3.2262224e-12
2.9969201e-13
1.671329e-13
2.4664886e-12
3.1341505e-12
2.5920846e-13
1.4379578e-13
2.4040485e-12
3.0549045e-12
2.2304555e-13
1.2260646e-13
2.3506499e-12
2.9873375e-12
1.9017723e-13
1.0287319e-13
2.3056655e-12
2.9305769e-12
1.5963769e-13
8.4435705e-14
2.2691747e-12
2.8837034e-12
1.3131314e-13
6.9236401e-14
2.2392364e-12
2.8456009e-12
1.0734274e-13
5.557637e-14
2.2150677e-12
2.815057e-12
8.6124137e-14
4.1646025e-14
2.1968918e-12
2.7918766e-12
6.4830363e-14
2.7520253e-14
2.1849104e-12
2.7765459e-12
4.2854916e-14
1.2834191e-14
1.9939461e-14
8.8657275e-12
-8.8633988e-12
1.6957052e-11
-8.0937312e-12
2.191587e-11
-4.9613207e-12
2.2872622e-11
-9.5851987e-13
2.0033926e-11
2.8376299e-12
1.3898625e-11
6.1348325e-12
4.8037718e-12
9.0949038e-12
-7.508411e-12
1.2312681e-11
-2.362614e-11
1.6118588e-11
-4.4131253e-11
2.0506241e-11
-6.9243111e-11
2.5113157e-11
-9.8591631e-11
2.9349888e-11
-1.3140904e-10
3.281875e-11
-1.6681553e-10
3.5407726e-11
-2.0396678e-10
3.7152308e-11
-2.4201464e-10
3.8048708e-11
-2.7991959e-10
3.7905576e-11
-3.1647555e-10
3.6556347e-11
-3.5063398e-10
3.4158611e-11
-3.8138657e-10
3.0752593e-11
-4.0777614e-10
2.6389456e-11
-4.2900694e-10
2.1230584e-11
-4.4445998e-10
1.5452805e-11
-4.5356007e-10
9.0998515e-12
2.4212088e-12
-2.9085091e-11
2.0226246e-11
-6.7366666e-11
3.019473e-11
-1.1791637e-10
4.5596324e-11
-1.8173089e-10
6.2864303e-11
-2.5914059e-10
8.0255716e-11
-3.5043443e-10
9.7436991e-11
-4.5640042e-10
1.1506906e-10
-5.7807538e-10
1.3399553e-10
-7.1479227e-10
1.5284296e-10
-8.6497187e-10
1.706928e-10
-1.0265597e-09
1.8670733e-10
-1.1972499e-09
2.0004589e-10
-1.3746851e-09
2.1025893e-10
-1.5567308e-09
2.1745782e-10
-1.7412727e-09
2.2169793e-10
-1.927492e-09
2.2427106e-10
-2.1244554e-09
2.348713e-10
-2.3123437e-09
2.2444643e-10
-2.4838011e-09
2.0561704e-10
-2.633804e-09
1.8075604e-10
-2.758553e-09
1.5113833e-10
-2.8551997e-09
1.1787673e-10
-2.9214047e-09
8.1656849e-11
-2.9530033e-09
4.0697218e-11
1.0369151e-11
-1.0231403e-10
1.2254985e-10
-2.3117515e-10
1.5907034e-10
-3.9041966e-10
2.048574e-10
-5.80779e-10
2.5324067e-10
-8.0312132e-10
3.0261481e-10
-1.0599544e-09
3.5428613e-10
-1.3595763e-09
4.1470601e-10
-1.7699401e-09
5.4437299e-10
-2.2211817e-09
6.0409678e-10
-2.6847879e-09
6.3430959e-10
-3.1452666e-09
6.4719506e-10
-3.5925581e-09
6.4734494e-10
-4.0196393e-09
6.3734628e-10
-4.4211958e-09
6.1901912e-10
-4.7913088e-09
5.9181444e-10
-5.1238995e-09
5.5686415e-10
-5.4041398e-09
5.1511299e-10
-5.6468752e-09
4.671822e-10
-5.8554885e-09
4.1422976e-10
-6.0320153e-09
3.5728149e-10
-6.1786458e-09
2.9776674e-10
-6.2961698e-09
2.3539799e-10
-6.3846598e-09
1.7014357e-10
-6.4463334e-09
1.0236711e-10
3.396006e-11
-3.493643e-10
4.7193213e-10
-7.519474e-10
5.6167996e-10
-1.2183462e-09
6.7128495e-10
-1.971417e-09
1.0063378e-09
-2.7996366e-09
1.1308575e-09
-3.6013135e-09
1.1559823e-09
-4.3214748e-09
1.1348832e-09
-4.8603268e-09
1.0832379e-09
-5.2672683e-09
1.0110488e-09
-5.5583635e-09
9.2541323e-10
-5.7452111e-09
8.3404944e-10
-5.8383338e-09
7.4047281e-10
-5.8474015e-09
6.4641803e-10
-5.7758411e-09
5.4746167e-10
-5.6393849e-09
4.5536029e-10
-5.4551288e-09
3.7260936e-10
-5.2400858e-09
3.0007066e-10
-5.0110489e-09
2.3814534e-10
-4.7836262e-09
1.8680669e-10
-4.5718965e-09
1.4555098e-10
-4.3908919e-09
1.16761e-10
-4.2469078e-09
9.1412422e-11
-4.1453274e-09
6.85613e-11
-4.0894735e-09
4.6511205e-11
2.5326482e-11
-2.1921337e-09
2.6640942e-09
-3.8869286e-09
2.2565064e-09
-5.3297761e-09
2.1141628e-09
-5.9838113e-09
1.6603948e-09
-6.0339928e-09
1.1810569e-09
-5.571957e-09
6.9396092e-10
-4.8161166e-09
3.7905473e-10
-3.8309771e-09
9.8108487e-11
-2.6791081e-09
-1.4081167e-10
-1.4380521e-09
-3.1563576e-10
-2.0109253e-10
-4.0290558e-10
1.0345369e-09
-4.9515739e-10
2.3258289e-09
-6.4487518e-10
3.7396479e-09
-8.6635732e-10
5.123156e-09
-9.2814606e-10
6.4357638e-09
-9.3999494e-10
7.6542221e-09
-9.1838234e-10
8.7633245e-09
-8.7095004e-10
9.7522605e-09
-8.0212054e-10
1.0612528e-08
-7.1470593e-10
1.1339507e-08
-6.1020669e-10
1.192231e-08
-4.9137671e-10
1.2350903e-08
-3.6001687e-10
1.2615994e-08
-2.1856405e-10
-6.5409348e-11
1.192122e-09
1.4720597e-09
4.4544718e-09
-1.0057926e-09
8.2030769e-09
-1.6343727e-09
1.1886871e-08
-2.0233705e-09
1.5578532e-08
-2.5105798e-09
1.9215187e-08
-2.9426659e-09
2.2790368e-08
-3.1960949e-09
2.6147215e-08
-3.2587018e-09
2.9194902e-08
-3.1884571e-09
3.1926976e-08
-3.0476635e-09
3.4391933e-08
-2.8678143e-09
3.6553667e-08
-2.6568396e-09
3.8349358e-08
-2.4405118e-09
3.971635e-08
-2.2332948e-09
4.0805548e-08
-2.0172893e-09
4.1667299e-08
-1.8016908e-09
4.234132e-08
-1.5923481e-09
4.2860841e-08
-1.3904154e-09
4.3254768e-08
-1.1959927e-09
4.354837e-08
-1.0082534e-09
4.3763684e-08
-8.2546598e-10
4.3917732e-08
-6.4537102e-10
4.4022772e-08
-4.6500321e-10
4.4085985e-08
-2.8172332e-10
-8.9494171e-11
1.500037e-07
-2.2835985e-09
1.4839342e-07
6.0541252e-10
1.4563284e-07
1.1269922e-09
1.4204619e-07
1.5639718e-09
1.3743435e-07
2.1018698e-09
1.3192125e-07
2.570964e-09
1.2586164e-07
2.863957e-09
1.1964086e-07
2.9624668e-09
1.1353474e-07
2.9179895e-09
1.0768511e-07
2.8022508e-09
1.0215587e-07
2.6616824e-09
9.7005352e-08
2.4938988e-09
9.2261649e-08
2.3033896e-09
8.7926122e-08
2.1024101e-09
8.4009634e-08
1.8993592e-09
8.0509345e-08
1.6987446e-09
7.7414069e-08
1.5030611e-09
7.4710335e-08
1.3134409e-09
7.2384164e-08
1.1302915e-09
7.0422937e-08
9.5307931e-10
6.8817105e-08
7.8046462e-10
6.7561342e-08
6.1048573e-10
6.6656147e-08
4.4027912e-10
6.6107327e-08
2.6718094e-10
8.5350804e-11
1.3680578e-08
-1.5191129e-09
1.5960799e-08
-1.6746933e-09
1.8530833e-08
-1.4429269e-09
2.1190036e-08
-1.09512e-09
2.3940589e-08
-6.4857642e-10
2.681809e-08
-3.064359e-10
2.9710803e-08
-2.8663117e-11
3.2458163e-08
2.1519517e-10
3.5012418e-08
3.638232e-10
3.734679e-08
4.679661e-10
3.9421662e-08
5.8689733e-10
4.1043444e-08
8.7220102e-10
4.2328229e-08
1.0186878e-09
4.3348839e-08
1.0818813e-09
4.4147927e-08
1.1003504e-09
4.4761035e-08
1.0857132e-09
4.5221244e-08
1.0429261e-09
4.5558844e-08
9.7591324e-10
4.5800095e-08
8.8911045e-10
4.5967855e-08
7.8538698e-10
4.6081532e-08
6.6685252e-10
4.615707e-08
5.3501117e-10
4.6205752e-08
3.9165858e-10
4.6234727e-08
2.3826538e-10
7.2203951e-11
-4.8640813e-09
-7.2746468e-10
-5.5502981e-09
-9.8848482e-10
-5.902449e-09
-1.0907848e-09
-5.8591986e-09
-1.138379e-09
-5.3681374e-09
-1.1396448e-09
-4.5699689e-09
-1.1046095e-09
-3.5542685e-09
-1.0443661e-09
-2.375424e-09
-9.6364926e-10
-1.1419704e-09
-8.6962775e-10
9.7526109e-11
-7.7152541e-10
1.3572876e-09
-6.7285699e-10
2.7980726e-09
-5.6857446e-10
4.2832503e-09
-4.6647817e-10
5.7370361e-09
-3.7189072e-10
7.1244387e-09
-2.8703653e-10
8.4239442e-09
-2.1377499e-10
9.633031e-09
-1.6614209e-10
1.0738267e-08
-1.2930319e-10
1.1726172e-08
-9.8774255e-11
1.2586331e-08
-7.4750398e-11
1.3309976e-08
-5.6771462e-11
1.3888846e-08
-4.3837453e-11
1.4315078e-08
-3.455139e-11
1.4579962e-08
-2.6597802e-11
-1.6821196e-11
-2.0530055e-09
-1.3371078e-10
-2.8272606e-09
-2.1423116e-10
-3.6360864e-09
-2.8196322e-10
-4.4281517e-09
-3.4632018e-10
-5.1459382e-09
-4.2186683e-10
-5.6873081e-09
-5.6324928e-10
-6.1074566e-09
-6.2422799e-10
-6.4114591e-09
-6.5965743e-10
-6.6028351e-09
-6.7826246e-10
-6.6906536e-09
-6.8371732e-10
-6.6843823e-09
-6.7913837e-10
-6.5867561e-09
-6.6621025e-10
-6.4085495e-09
-6.4469362e-10
-6.165056e-09
-6.1539228e-10
-5.8725899e-09
-5.7950997e-10
-5.548713e-09
-5.3765842e-10
-5.2225413e-09
-4.9231966e-10
-4.9071073e-09
-4.4474233e-10
-4.611628e-09
-3.9425803e-10
-4.3455581e-09
-3.4082436e-10
-4.1178259e-09
-2.8450721e-10
-3.9363036e-09
-2.2536299e-10
-3.8073773e-09
-1.6348075e-10
-3.7348565e-09
-9.9121557e-11
-3.3590789e-11
-4.9371567e-10
5.2563017e-11
-7.2034336e-10
1.2399217e-11
-9.7794317e-10
-2.4361323e-11
-1.2681524e-09
-5.6109666e-11
-1.605562e-09
-8.4456796e-11
-2.0561496e-09
-1.1266232e-10
-2.5398342e-09
-1.4054531e-10
-3.0319611e-09
-1.6753362e-10
-3.517764e-09
-1.9246368e-10
-3.9873777e-09
-2.1410869e-10
-4.4349945e-09
-2.3152739e-10
-4.8542513e-09
-2.4695993e-10
-5.2342139e-09
-2.6473808e-10
-5.5575527e-09
-2.9206095e-10
-5.8440496e-09
-2.9302077e-10
-6.0962536e-09
-2.8546239e-10
-6.3175641e-09
-2.7101723e-10
-6.5112121e-09
-2.5110252e-10
-6.6791485e-09
-2.263299e-10
-6.822831e-09
-1.9715007e-10
-6.9433357e-09
-1.6401068e-10
-7.0412151e-09
-1.2749169e-10
-7.1162861e-09
-8.8417906e-11
-7.1683668e-09
-4.7048841e-11
-1.0508526e-11
-7.8600712e-11
1.0016139e-10
-1.5308834e-10
8.6888382e-11
-2.4912994e-10
7.1681668e-11
-3.6349389e-10
5.8255474e-11
-4.9428569e-10
4.6335918e-11
-6.4276162e-10
3.5814204e-11
-8.0893455e-10
2.5627823e-11
-9.9069179e-10
1.4223391e-11
-1.1847975e-09
1.6414359e-12
-1.3874684e-09
-1.1438846e-11
-1.5993912e-09
-1.9606067e-11
-1.8174915e-09
-2.8861502e-11
-2.047039e-09
-3.5192869e-11
-2.2988647e-09
-4.0237986e-11
-2.5481842e-09
-4.3704312e-11
-2.788153e-09
-4.5497027e-11
-3.013632e-09
-4.5541976e-11
-3.220755e-09
-4.3983458e-11
-3.4061022e-09
-4.0986955e-11
-3.5665567e-09
-3.6700026e-11
-3.699297e-09
-3.1274923e-11
-3.8018822e-09
-2.4911039e-11
-3.872459e-09
-1.7845772e-11
-3.9092325e-09
-1.0279887e-11
-2.6406642e-12
5.6145614e-11
9.4772614e-11
5.2380205e-11
9.0653759e-11
4.0943916e-11
8.3117818e-11
2.2084626e-11
7.7114543e-11
-4.0896274e-12
7.2509882e-11
-3.803045e-11
6.9754673e-11
-7.8606197e-11
6.6203154e-11
-1.2591118e-10
6.1527893e-11
-1.7961807e-10
5.5347786e-11
-2.3982326e-10
4.8765726e-11
-3.0335139e-10
4.3921375e-11
-3.7056657e-10
3.8352922e-11
-4.3922836e-10
3.346807e-11
-5.0853645e-10
2.906918e-11
-5.774211e-10
2.5179312e-11
-6.4453069e-10
2.1611448e-11
-7.0848485e-10
1.8410987e-11
-7.6801429e-10
1.5544711e-11
-8.2192678e-10
1.2924208e-11
-8.6907321e-10
1.0445026e-11
-9.084319e-10
8.0823754e-12
-9.391867e-10
5.8423567e-12
-9.6079013e-10
3.7562885e-12
-9.7302391e-10
1.9525805e-12
6.797615e-13
8.6653329e-11
7.4459357e-11
1.0310657e-10
7.4200317e-11
1.1615785e-10
7.0066282e-11
1.2846884e-10
6.4803281e-11
1.3916161e-10
6.1816846e-11
1.4941598e-10
5.9500056e-11
1.5788563e-10
5.7733276e-11
1.6393766e-10
5.5475662e-11
1.6651321e-10
5.2772052e-11
1.6602647e-10
4.9252311e-11
1.6423231e-10
4.571538e-11
1.6102849e-10
4.155662e-11
1.5709714e-10
3.73993e-11
1.5301077e-10
3.3155449e-11
1.4912571e-10
2.9064291e-11
1.4560072e-10
2.5136377e-11
1.4265087e-10
2.1360782e-11
1.4028933e-10
1.7906225e-11
1.3828722e-10
1.4926303e-11
1.3656449e-10
1.2167755e-11
1.3507056e-10
9.5763305e-12
1.3371946e-10
7.1934799e-12
1.3251685e-10
4.9589481e-12
1.3164478e-10
2.8247183e-12
8.7536793e-13
6.841171e-11
5.7892864e-11
8.4827557e-11
5.7784456e-11
9.9961481e-11
5.4932313e-11
1.1364845e-10
5.111625e-11
1.2793122e-10
4.7534024e-11
1.4189171e-10
4.5539524e-11
1.5618391e-10
4.3441068e-11
1.7024332e-10
4.1416263e-11
1.8324678e-10
3.976863e-11
1.9485283e-10
3.7646334e-11
2.0537236e-10
3.5195939e-11
2.1451169e-10
3.2417413e-11
2.2239687e-10
2.9514264e-11
2.2916234e-10
2.639015e-11
2.3498e-10
2.3246818e-11
2.4019581e-10
1.9920773e-11
2.4471583e-10
1.6840991e-11
2.4880758e-10
1.3814716e-11
2.5251239e-10
1.122175e-11
2.5574834e-10
8.9320728e-12
2.5840623e-10
6.9187228e-12
2.6041333e-10
5.1866597e-12
2.6177696e-10
3.595612e-12
2.624782e-10
2.1237599e-12
7.2526292e-13
4.1412067e-11
4.8220991e-11
5.0480465e-11
4.8716168e-11
5.8426378e-11
4.698649e-11
6.5566638e-11
4.3976067e-11
7.2370881e-11
4.0729852e-11
7.9845884e-11
3.8064594e-11
8.7442313e-11
3.5844718e-11
9.4376547e-11
3.4482116e-11
1.0115649e-10
3.2988787e-11
1.0738376e-10
3.141917e-11
1.1276968e-10
2.9810133e-11
1.1723107e-10
2.7956154e-11
1.207425e-10
2.6002965e-11
1.2324095e-10
2.3891836e-11
1.2496113e-10
2.1526779e-11
1.2594209e-10
1.8939966e-11
1.2622751e-10
1.6555724e-11
1.2604812e-10
1.3994249e-11
1.2562115e-10
1.1648871e-11
1.2509041e-10
9.4629642e-12
1.2456417e-10
7.4451131e-12
1.241473e-10
5.6036759e-12
1.2380744e-10
3.9356148e-12
1.2370729e-10
2.2240471e-12
5.8672358e-13
2.3200036e-11
4.3057691e-11
2.7124826e-11
4.4791516e-11
3.0004024e-11
4.4107415e-11
3.1682626e-11
4.2297576e-11
3.2759589e-11
3.9652989e-11
3.3776457e-11
3.7047817e-11
3.4799753e-11
3.4821507e-11
3.628766e-11
3.2994288e-11
3.763869e-11
3.1637833e-11
3.8419956e-11
3.0637975e-11
3.8927834e-11
2.9302322e-11
3.9113322e-11
2.7770728e-11
3.8798876e-11
2.6317467e-11
3.7917518e-11
2.4773244e-11
3.6549541e-11
2.28948e-11
3.4448252e-11
2.1041293e-11
3.2082893e-11
1.8921113e-11
2.9300768e-11
1.6776398e-11
2.6503253e-11
1.4446403e-11
2.3767342e-11
1.2198888e-11
2.1183257e-11
1.0029207e-11
1.8939988e-11
7.8469478e-12
1.720911e-11
5.666492e-12
1.595023e-11
3.482924e-12
1.1966777e-12
1.5309805e-11
3.9880745e-11
1.7810973e-11
4.229045e-11
1.9018024e-11
4.2900455e-11
1.9406182e-11
4.1909496e-11
1.8883748e-11
4.0175489e-11
1.7846277e-11
3.8085342e-11
1.6619585e-11
3.6048244e-11
1.539631e-11
3.4217597e-11
1.4317924e-11
3.2716246e-11
1.3522575e-11
3.1433343e-11
1.3019436e-11
2.9805472e-11
1.1726884e-11
2.9063283e-11
1.0544052e-11
2.7500297e-11
9.2961569e-12
2.6021129e-11
7.5713021e-12
2.4619638e-11
5.5993293e-12
2.3013242e-11
3.3044157e-12
2.1215998e-11
9.088658e-13
1.9171913e-11
-1.5475433e-12
1.6902772e-11
-3.896095e-12
1.4547395e-11
-5.9683906e-12
1.2101454e-11
-7.6744286e-12
9.5529343e-12
-8.8988702e-12
6.8908797e-12
-9.5724117e-12
4.1564122e-12
1.3590233e-12
1.3799423e-11
3.6705387e-11
1.6463379e-11
3.9626561e-11
1.83574e-11
4.100649e-11
1.9290698e-11
4.0976244e-11
1.9424037e-11
4.0042187e-11
1.8959382e-11
3.8550024e-11
1.8159206e-11
3.6848438e-11
1.7211778e-11
3.5165036e-11
1.6329251e-11
3.3598776e-11
1.5723257e-11
3.2039334e-11
1.5275277e-11
3.0253444e-11
1.5267272e-11
2.9071274e-11
1.5040269e-11
2.7727281e-11
1.4698833e-11
2.6362542e-11
1.4117505e-11
2.5200938e-11
1.3367406e-11
2.3763309e-11
1.2571354e-11
2.2012014e-11
1.1694394e-11
2.0048833e-11
1.0707158e-11
1.7889965e-11
9.7231619e-12
1.5531346e-11
8.817566e-12
1.3007003e-11
8.025854e-12
1.0344598e-11
7.3304433e-12
7.5862408e-12
6.9212857e-12
4.5655221e-12
1.4034761e-12
1.3809549e-11
3.3050381e-11
1.7070659e-11
3.6365492e-11
1.984802e-11
3.8229165e-11
2.1983116e-11
3.8841177e-11
2.3511303e-11
3.8514022e-11
2.4492545e-11
3.7568797e-11
2.5104257e-11
3.6236736e-11
2.5536309e-11
3.4732989e-11
2.5951007e-11
3.3184078e-11
2.6377143e-11
3.1613193e-11
2.6823095e-11
2.9807483e-11
2.7600945e-11
2.8293412e-11
2.8324474e-11
2.7003737e-11
2.9089234e-11
2.5597766e-11
2.9923759e-11
2.4366394e-11
3.0659409e-11
2.3027639e-11
3.1263694e-11
2.1407707e-11
3.1736565e-11
1.9575938e-11
3.2099168e-11
1.7527337e-11
3.2358915e-11
1.5271573e-11
3.251767e-11
1.2848222e-11
3.2618011e-11
1.024423e-11
3.2739475e-11
7.4647483e-12
3.2666459e-11
4.6385125e-12
1.5917749e-12
1.3353144e-11
2.9553067e-11
1.700499e-11
3.2713672e-11
2.0287222e-11
3.4946955e-11
2.3204961e-11
3.5923455e-11
2.5718196e-11
3.60008e-11
2.7817367e-11
3.5469636e-11
2.9567136e-11
3.4486972e-11
3.1099795e-11
3.3200332e-11
3.253403e-11
3.1749842e-11
3.3921726e-11
3.0225494e-11
3.505878e-11
2.8670425e-11
3.6239399e-11
2.7112787e-11
3.7755371e-11
2.5487758e-11
3.9249462e-11
2.4103668e-11
4.0863715e-11
2.2752132e-11
4.2489304e-11
2.1402041e-11
4.3949353e-11
1.9947649e-11
4.5284467e-11
1.8240815e-11
4.6434824e-11
1.6376971e-11
4.7399037e-11
1.4307349e-11
4.8194286e-11
1.2052964e-11
4.8804588e-11
9.6339176e-12
4.9204018e-11
7.0653065e-12
4.9507909e-11
4.3346129e-12
1.4545981e-12
1.2252168e-11
2.6359689e-11
1.5722016e-11
2.9243837e-11
1.9151874e-11
3.1517108e-11
2.2318011e-11
3.2757328e-11
2.5153466e-11
3.3165351e-11
2.771624e-11
3.2906867e-11
2.9996759e-11
3.2206455e-11
3.2039071e-11
3.115802e-11
3.3908918e-11
2.9879994e-11
3.5673091e-11
2.8461318e-11
3.7363692e-11
2.697982e-11
3.9020529e-11
2.5455946e-11
4.0573064e-11
2.3935218e-11
4.2231807e-11
2.2444921e-11
4.4060823e-11
2.0923112e-11
4.5843645e-11
1.9619215e-11
4.769233e-11
1.8098961e-11
4.9421951e-11
1.6511191e-11
5.0926588e-11
1.4872331e-11
5.2262626e-11
1.2971308e-11
5.339862e-11
1.0916967e-11
5.4324482e-11
8.7080533e-12
5.5044927e-11
6.344858e-12
5.5495381e-11
3.8841584e-12
1.3799602e-12
1.0765028e-11
2.3474913e-11
1.3846197e-11
2.6162669e-11
1.7019327e-11
2.8343979e-11
2.0081118e-11
2.9695538e-11
2.2917039e-11
3.0329429e-11
2.5485487e-11
3.0338417e-11
2.7842698e-11
2.984924e-11
2.9990481e-11
2.9010233e-11
3.195039e-11
2.7920078e-11
3.3767732e-11
2.664397e-11
3.5511402e-11
2.5236144e-11
3.7283464e-11
2.3683876e-11
3.8932765e-11
2.2285911e-11
4.0548708e-11
2.0828972e-11
4.2109464e-11
1.9362351e-11
4.3791864e-11
1.7936811e-11
4.5555728e-11
1.6335093e-11
4.7218442e-11
1.4848474e-11
4.875464e-11
1.3336129e-11
5.0169659e-11
1.1556288e-11
5.1361837e-11
9.7247868e-12
5.2311838e-11
7.7580509e-12
5.2967643e-11
5.6890517e-12
5.3353334e-11
3.4984676e-12
1.147513e-12
9.2357024e-12
2.0933132e-11
1.1935664e-11
2.34627e-11
1.4759129e-11
2.5520507e-11
1.7529189e-11
2.692547e-11
2.0183058e-11
2.7675553e-11
2.2629889e-11
2.7891579e-11
2.4861982e-11
2.7617138e-11
2.6911378e-11
2.6960828e-11
2.8804068e-11
2.6027378e-11
3.0555058e-11
2.489297e-11
3.2206927e-11
2.3584264e-11
3.3831136e-11
2.2059657e-11
3.5341658e-11
2.077538e-11
3.6805819e-11
1.9364802e-11
3.8252379e-11
1.7915783e-11
3.9735286e-11
1.6453896e-11
4.1112447e-11
1.4957926e-11
4.2484599e-11
1.3476316e-11
4.3855787e-11
1.1964937e-11
4.5086975e-11
1.0325096e-11
4.619595e-11
8.6158077e-12
4.7075925e-11
6.8780733e-12
4.7722751e-11
5.0422226e-12
4.8164689e-11
3.0565288e-12
9.7755492e-13
7.8941514e-12
1.8722445e-11
1.0276242e-11
2.1080594e-11
1.2780694e-11
2.301604e-11
1.5286073e-11
2.4420078e-11
1.7677531e-11
2.5284081e-11
1.9964439e-11
2.5604657e-11
2.207169e-11
2.5509873e-11
2.3993444e-11
2.503906e-11
2.5754307e-11
2.4266501e-11
2.7388796e-11
2.3258468e-11
2.8901601e-11
2.2071446e-11
3.0316548e-11
2.0644698e-11
3.1646603e-11
1.9445313e-11
3.2940407e-11
1.8070986e-11
3.420321e-11
1.6652969e-11
3.5442174e-11
1.5214923e-11
3.6628953e-11
1.3771138e-11
3.7778332e-11
1.232693e-11
3.8898877e-11
1.0844385e-11
3.9907128e-11
9.3168383e-12
4.0777583e-11
7.7453479e-12
4.1527755e-11
6.1278963e-12
4.2152464e-11
4.4175091e-12
4.2447965e-11
2.7610257e-12
9.2628141e-13
6.825287e-12
1.6785463e-11
8.9372341e-12
1.8968628e-11
1.1157734e-11
2.0795522e-11
1.3425777e-11
2.2152017e-11
1.5648892e-11
2.3060949e-11
1.7751525e-11
2.3502007e-11
1.9723301e-11
2.3538081e-11
2.1549786e-11
2.3212559e-11
2.3223884e-11
2.2592387e-11
2.4747192e-11
2.1735145e-11
2.6132389e-11
2.0686235e-11
2.7390363e-11
1.938671e-11
2.8604933e-11
1.8230729e-11
2.9747657e-11
1.692825e-11
3.0828469e-11
1.5572146e-11
3.1856212e-11
1.4187169e-11
3.2833761e-11
1.279358e-11
3.377151e-11
1.1389172e-11
3.4646273e-11
9.9696135e-12
3.5431173e-11
8.5319319e-12
3.6105535e-11
7.0709804e-12
3.6658101e-11
5.5753243e-12
3.6962127e-11
4.1134777e-12
3.7223466e-11
2.4996847e-12
7.7201834e-13
5.9680504e-12
1.5076804e-11
7.8416368e-12
1.7095019e-11
9.8327215e-12
1.8804416e-11
1.1877278e-11
2.0107441e-11
1.3916654e-11
2.1021554e-11
1.5865855e-11
2.1552787e-11
1.7725272e-11
2.1678647e-11
1.9461271e-11
2.1476543e-11
2.1061483e-11
2.0992159e-11
2.2519903e-11
2.0276709e-11
2.3840335e-11
1.9365788e-11
2.4968923e-11
1.8258107e-11
2.6109295e-11
1.7090344e-11
2.7129721e-11
1.590781e-11
2.8069569e-11
1.4632286e-11
2.8941803e-11
1.3314924e-11
2.9758275e-11
1.1977099e-11
3.0510961e-11
1.0636477e-11
3.1196808e-11
9.2837589e-12
3.1807208e-11
7.921526e-12
3.2334095e-11
6.5440876e-12
3.2782319e-11
5.1270949e-12
3.307059e-11
3.8252018e-12
3.3275731e-11
2.2945424e-12
6.6394347e-13
5.2488252e-12
1.3573643e-11
6.9192004e-12
1.5424622e-11
8.711238e-12
1.7012358e-11
1.0559024e-11
1.8259634e-11
1.2417669e-11
1.916289e-11
1.4248972e-11
1.9721466e-11
1.5984043e-11
1.9943559e-11
1.760163e-11
1.9858939e-11
1.9112608e-11
1.9481164e-11
2.0486826e-11
1.8902476e-11
2.1730375e-11
1.8122223e-11
2.2806989e-11
1.7181479e-11
2.38532e-11
1.604412e-11
2.4780025e-11
1.4980974e-11
2.5613778e-11
1.3798523e-11
2.637116e-11
1.2557533e-11
2.70551e-11
1.129315e-11
2.767964e-11
1.0011929e-11
2.8245895e-11
8.717498e-12
2.8738565e-11
7.4288497e-12
2.9150575e-11
6.1320733e-12
2.943634e-11
4.841325e-12
2.9915755e-11
3.3457833e-12
3.0168229e-11
2.0420667e-12
7.5746006e-13
4.6359138e-12
1.2239453e-11
6.1163236e-12
1.3944191e-11
7.7183899e-12
1.5410272e-11
9.3838026e-12
1.6594203e-11
1.1069879e-11
1.7476795e-11
1.2751797e-11
1.803953e-11
1.4401632e-11
1.8293707e-11
1.5903607e-11
1.8356948e-11
1.7262697e-11
1.8122059e-11
1.8529565e-11
1.7635593e-11
1.9680716e-11
1.6971058e-11
2.0715443e-11
1.614674e-11
2.1585164e-11
1.5174387e-11
2.2500468e-11
1.4065659e-11
2.3266152e-11
1.3032829e-11
2.3932735e-11
1.1890941e-11
2.4525958e-11
1.069992e-11
2.5055148e-11
9.4827317e-12
2.552467e-11
8.2479703e-12
2.5923762e-11
7.0297528e-12
2.6265726e-11
5.7901048e-12
2.6571113e-11
4.5359353e-12
2.6639047e-11
3.2778457e-12
2.6741662e-11
1.9394513e-12
6.2477368e-13
4.0830887e-12