/*--------------------------------*- C++ -*----------------------------------*\
| =========                 |                                                 |
| \\      /  F ield         | OpenFOAM: The Open Source CFD Toolbox           |
|  \\    /   O peration     | Version:  4.0                                   |
|   \\  /    A nd           | Web:      www.OpenFOAM.org                      |
|    \\/     M anipulation  |                                                 |
\*---------------------------------------------------------------------------*/
FoamFile
{
    version     2.0;
    format      ascii;
    class       volVectorField;
    location    "0.6";
    object      U;
}
// * * * * * * * * * * * * * * * * * * * * * * * * * * * * * * * * * * * * * //

dimensions      [0 1 -1 0 0 0 0];

internalField   nonuniform List<vector> 
1740
(
(1.4553114 -0.0042078403 4.1512183e-06)
(1.5863485 -0.010017656 6.5519001e-07)
(1.6016866 -0.0062614204 3.7204531e-08)
(1.4880823 -0.023902379 6.9406789e-06)
(1.6489486 -0.041905327 1.5481747e-06)
(1.6118675 -0.022153748 3.1408041e-07)
(1.5792962 -0.036913074 1.0924926e-05)
(1.6257364 -0.043542437 2.3846117e-06)
(1.5136728 -0.016147112 4.463395e-07)
(1.7114253 -0.0071502669 1.3353743e-05)
(1.6236582 0.0068432134 3.5427013e-06)
(1.5489397 0.0046078247 5.6359453e-07)
(1.6222638 0.024579471 1.5067005e-05)
(1.5684157 0.036126542 4.2416634e-06)
(1.5786085 0.013652796 7.6976441e-07)
(1.5210228 0.013319578 1.6255443e-05)
(1.5898868 0.025590148 5.0870211e-06)
(1.5628803 0.0064881492 9.7379968e-07)
(1.563173 -0.022323822 1.7290241e-05)
(1.5663 -0.0083927168 5.9607205e-06)
(1.62193 -0.0018579558 1.1546345e-06)
(1.6633825 -0.0035847094 1.7876449e-05)
(1.4994012 -0.02284208 6.6737011e-06)
(1.6069395 -0.014928023 1.3594552e-06)
(1.5840241 0.019555748 1.823791e-05)
(1.6045586 -0.00059431677 7.1271387e-06)
(1.5201852 -0.0090030694 1.5514422e-06)
(1.5825539 0.00070506856 1.9126488e-05)
(1.5945955 0.032978258 8.1397199e-06)
(1.5915443 0.017325886 1.7350831e-06)
(1.6071001 -0.0065396 1.9794806e-05)
(1.4923931 0.01732469 8.6147556e-06)
(1.6952167 0.012565753 1.9691908e-06)
(1.5193312 -0.010314414 1.9879633e-05)
(1.5127194 -0.028878058 9.1507415e-06)
(1.6036203 -0.019815215 2.2064454e-06)
(1.5993096 -0.02003715 2.0035769e-05)
(1.613443 -0.030149216 9.5514942e-06)
(1.5316902 -0.015844533 2.3483277e-06)
(1.7126583 -0.0089684478 2.0673703e-05)
(1.6167487 0.012325918 1.0176597e-05)
(1.5372857 0.011404319 2.5180666e-06)
(1.6375652 0.0052254712 2.0830631e-05)
(1.5261781 0.019811556 1.050603e-05)
(1.6170398 0.013871757 2.7149947e-06)
(1.6412258 0.013552027 2.0877391e-05)
(1.5207724 -0.010270626 1.0978435e-05)
(1.6151843 -0.012192754 2.8608752e-06)
(1.605278 0.012953348 2.1086484e-05)
(1.609427 -0.0004972092 1.133111e-05)
(1.5220862 -0.007251676 3.0850368e-06)
(1.6028983 1.5244982e-05 2.1111308e-05)
(1.6037437 0.0089130158 1.1818699e-05)
(1.6023675 0.0061814885 3.2450971e-06)
(1.6208476 0.00014643411 2.1392695e-05)
(1.5150216 -0.0021096891 1.2186028e-05)
(1.6073602 -0.001029028 3.4106671e-06)
(1.5606972 0.015921588 2.1709687e-05)
(1.540821 0.0017430178 1.2549422e-05)
(1.5383089 -0.0050647996 3.6085749e-06)
(1.5424743 0.0018164994 2.214501e-05)
(1.627145 0.00048972803 1.2875072e-05)
(1.612725 -1.7828824e-05 3.7832558e-06)
(1.6040029 -0.01861923 2.244517e-05)
(1.5965532 0.00056522513 1.3285419e-05)
(1.5802938 0.0057106203 3.9306561e-06)
(1.63403 -0.00061067214 2.2314634e-05)
(1.5052188 0.0085083288 1.3593395e-05)
(1.6029778 0.0058813835 4.0857873e-06)
(1.541983 -0.0010122318 2.2177586e-05)
(1.5313295 -0.0087710855 1.3823215e-05)
(1.6334803 -0.0044860834 4.3141661e-06)
(1.6489842 -0.013453994 2.234758e-05)
(1.5503298 -0.018164198 1.4119537e-05)
(1.5536929 -0.0063078193 4.4343495e-06)
(1.6349256 0.0038374143 2.2310736e-05)
(1.5364146 0.0012292538 1.4364686e-05)
(1.5575026 -0.0046175605 4.5820822e-06)
(1.5217393 0.0034427953 2.2220937e-05)
(1.6017927 0.0096390773 1.4620494e-05)
(1.5276579 0.00059631277 4.6960948e-06)
(1.5716209 -0.013122713 2.2434178e-05)
(1.5445248 0.0045153167 1.4942685e-05)
(1.5523168 0.013100419 4.832229e-06)
(1.5535819 0.0015978667 2.2046681e-05)
(1.3858291 0.0072631651 1.5023794e-05)
(1.5957556 -0.00080244645 4.8412693e-06)
(1.3297739 0.052697878 2.3320344e-05)
(1.2768614 0.086924122 1.5598462e-05)
(1.4198261 0.051132504 5.5721709e-06)
(0.84256386 0.37179147 1.1682654e-05)
(0.81393058 0.92959983 9.9126343e-06)
(0.76119502 1.254841 5.4141384e-06)
(0.22917382 0.11468392 1.5048808e-06)
(0.19120958 0.37024587 3.1057668e-06)
(0.099714621 0.50929704 7.1985558e-07)
(-0.027699292 -0.013027733 1.2115056e-06)
(-0.026040445 -0.027293577 1.6765598e-06)
(-0.014816172 -0.030731081 5.7614836e-07)
(-0.0055545998 -0.0031768509 4.4504464e-07)
(-0.0051664341 -0.0080596979 7.2087691e-07)
(-0.0034021396 -0.010117065 3.1581486e-07)
(0.00029567076 -0.00043000577 1.2198262e-07)
(0.00056793416 -0.0010879776 2.3356742e-07)
(0.00097541026 -0.0013404272 8.9787168e-08)
(0.0010599586 -5.6500069e-05 2.2298111e-08)
(0.0012074828 -9.2459925e-05 4.2389928e-08)
(0.0013851106 -4.6873463e-05 -2.555942e-08)
(0.0010719176 3.7499148e-05 -7.8598703e-09)
(0.0011413158 0.00012377938 -2.4007849e-08)
(0.0012218094 0.00023976968 -6.9941797e-08)
(0.00094430601 7.4021459e-05 -1.6918655e-08)
(0.00096424275 0.00019394676 -4.4078695e-08)
(0.00096955239 0.00032836931 -8.0437865e-08)
(0.00076948515 6.4167852e-05 -1.7120856e-08)
(0.00077295532 0.0001619596 -4.4834311e-08)
(0.00075979287 0.00026314921 -7.4801092e-08)
(0.00061791856 4.2507981e-05 -1.4179272e-08)
(0.00061569345 0.0001029527 -3.8340037e-08)
(0.00059916903 0.00016341587 -6.2954535e-08)
(0.00051115988 2.3904753e-05 -1.0773557e-08)
(0.00050859724 5.6961473e-05 -3.0354663e-08)
(0.00049535571 9.4545596e-05 -5.02116e-08)
(0.00044224297 1.6450804e-05 -8.1025464e-09)
(0.00044110701 3.8078613e-05 -2.3400853e-08)
(0.00043265098 6.2724207e-05 -3.9034042e-08)
(0.00038893929 1.4849187e-05 -6.2338602e-09)
(0.0003878868 3.407767e-05 -1.798196e-08)
(0.00038109987 5.4396039e-05 -2.9987271e-08)
(0.00034323844 1.4042097e-05 -4.8517456e-09)
(0.00034224009 3.3107266e-05 -1.3793404e-08)
(0.00033629415 5.2973679e-05 -2.2833329e-08)
(0.00030244404 1.314665e-05 -3.7486653e-09)
(0.00030163928 3.1272596e-05 -1.0467518e-08)
(0.00029673699 5.0194886e-05 -1.7163047e-08)
(0.0002660803 1.1697286e-05 -2.8196751e-09)
(0.00026539446 2.789446e-05 -7.7829202e-09)
(0.00026128463 4.5002991e-05 -1.2662554e-08)
(0.00023429555 1.0058004e-05 -2.0564912e-09)
(0.00023371977 2.401596e-05 -5.6384094e-09)
(0.00023027503 3.8664793e-05 -9.1260468e-09)
(0.0002068758 8.5252405e-06 -1.4528567e-09)
(0.00020641266 2.0319612e-05 -3.9694571e-09)
(0.00020354548 3.276361e-05 -6.4097639e-09)
(0.00018328695 7.2494403e-06 -9.9989191e-10)
(0.00018292512 1.7243784e-05 -2.7219378e-09)
(0.00018054389 2.7793521e-05 -4.3881627e-09)
(0.00016292333 6.2275088e-06 -6.7593055e-10)
(0.00016264522 1.4801425e-05 -1.8263556e-09)
(0.00016066015 2.3821757e-05 -2.934454e-09)
(0.00014525593 5.3928371e-06 -4.5242903e-10)
(0.00014504437 1.2813769e-05 -1.2053775e-09)
(0.00014337856 2.0615383e-05 -1.9227376e-09)
(0.00012985923 4.7217105e-06 -3.049115e-10)
(0.00012970025 1.1231638e-05 -7.8982308e-10)
(0.00012829292 1.8085291e-05 -1.2410164e-09)
(0.00011640162 4.1355997e-06 -2.0627213e-10)
(0.00011628405 9.8444073e-06 -5.1386145e-10)
(0.00011508762 1.5875254e-05 -7.9008305e-10)
(0.00010462687 3.6230632e-06 -1.4167548e-10)
(0.00010454206 8.628653e-06 -3.3401703e-10)
(0.00010351916 1.3921649e-05 -4.9773461e-10)
(9.4328519e-05 3.1697095e-06 -9.9809203e-11)
(9.4270125e-05 7.551853e-06 -2.186493e-10)
(9.3391849e-05 1.2184074e-05 -3.1171729e-10)
(8.5333572e-05 2.7621243e-06 -7.2794536e-11)
(8.5296746e-05 6.5886601e-06 -1.4563291e-10)
(8.4539883e-05 1.063344e-05 -1.9554789e-10)
(7.7489915e-05 2.3844154e-06 -5.5468292e-11)
(7.7471721e-05 5.7127817e-06 -9.9975236e-11)
(7.681657e-05 9.2402352e-06 -1.2429633e-10)
(7.0665435e-05 2.0879162e-06 -4.5579428e-11)
(7.0660315e-05 4.9387901e-06 -7.2187125e-11)
(7.0089897e-05 7.9537807e-06 -8.1495337e-11)
(6.4738575e-05 1.8044505e-06 -3.9115326e-11)
(6.4744157e-05 4.3177482e-06 -5.5996449e-11)
(6.4245272e-05 6.9570377e-06 -5.6695052e-11)
(5.9599602e-05 1.5620331e-06 -3.5258777e-11)
(5.9613558e-05 3.7378689e-06 -4.5851398e-11)
(5.917628e-05 6.0422029e-06 -4.2133676e-11)
(5.5148512e-05 1.3491007e-06 -3.2816223e-11)
(5.5168144e-05 3.2324512e-06 -3.9615984e-11)
(5.4782278e-05 5.2230013e-06 -3.3734697e-11)
(5.1294317e-05 1.1649468e-06 -3.1280164e-11)
(5.1320689e-05 2.7932267e-06 -3.5760947e-11)
(5.0977239e-05 4.5103599e-06 -2.8910314e-11)
(4.7960213e-05 1.0071926e-06 -3.024633e-11)
(4.79915e-05 2.4106414e-06 -3.3158792e-11)
(4.7683899e-05 3.8908163e-06 -2.6075616e-11)
(4.5074756e-05 8.6552836e-07 -2.9152443e-11)
(4.5109695e-05 2.095256e-06 -3.1528329e-11)
(4.4832074e-05 3.3802512e-06 -2.454842e-11)
(4.2577938e-05 7.4768415e-07 -2.8362248e-11)
(4.2615586e-05 1.8058317e-06 -3.0219055e-11)
(4.2362847e-05 2.9132638e-06 -2.3629232e-11)
(4.0419424e-05 6.4434664e-07 -2.7814354e-11)
(4.0458826e-05 1.5601812e-06 -2.9370208e-11)
(4.022639e-05 2.5195074e-06 -2.313698e-11)
(3.8552004e-05 5.5828068e-07 -2.7165721e-11)
(3.8592468e-05 1.3521289e-06 -2.8550109e-11)
(3.8376568e-05 2.1882122e-06 -2.286159e-11)
(3.6932409e-05 4.8380627e-07 -2.6630726e-11)
(3.6973373e-05 1.1724482e-06 -2.7947668e-11)
(3.6770912e-05 1.8955492e-06 -2.2618217e-11)
(3.5525647e-05 4.1836179e-07 -2.6109466e-11)
(3.556671e-05 1.0153179e-06 -2.7447928e-11)
(3.5375147e-05 1.6406267e-06 -2.2458031e-11)
(3.430521e-05 3.6052451e-07 -2.5612891e-11)
(3.4346116e-05 8.7626413e-07 -2.7045363e-11)
(3.4163417e-05 1.4156492e-06 -2.2405909e-11)
(3.3249308e-05 3.108017e-07 -2.5153324e-11)
(3.3289898e-05 7.5593676e-07 -2.6707009e-11)
(3.3114448e-05 1.2217669e-06 -2.2401857e-11)
(3.2339053e-05 2.6718784e-07 -2.4723748e-11)
(3.237922e-05 6.4996421e-07 -2.6416816e-11)
(3.2209678e-05 1.0509411e-06 -2.2423574e-11)
(3.1558977e-05 2.2733348e-07 -2.4296984e-11)
(3.1598645e-05 5.5240921e-07 -2.6140142e-11)
(3.1433863e-05 8.9330849e-07 -2.2432795e-11)
(3.0896958e-05 1.9034567e-07 -2.3963498e-11)
(3.0936089e-05 4.6201953e-07 -2.5978541e-11)
(3.0775102e-05 7.4692447e-07 -2.2487732e-11)
(3.0342943e-05 1.5803629e-07 -2.3958082e-11)
(3.0381563e-05 3.8414794e-07 -2.6147039e-11)
(3.0223606e-05 6.19991e-07 -2.2704312e-11)
(2.9887398e-05 1.2887791e-07 -2.4099767e-11)
(2.992558e-05 3.1482073e-07 -2.6434561e-11)
(2.9770044e-05 5.0868115e-07 -2.2930311e-11)
(2.9519617e-05 1.0094838e-07 -2.4100096e-11)
(2.9557428e-05 2.4867099e-07 -2.6384375e-11)
(2.9403806e-05 4.0542285e-07 -2.275829e-11)
(2.9235608e-05 7.4905624e-08 -2.3979915e-11)
(2.9273124e-05 1.8535651e-07 -2.5681465e-11)
(2.9120944e-05 3.0246819e-07 -2.1639035e-11)
(2.9020567e-05 5.1113724e-08 -2.3337888e-11)
(2.905781e-05 1.2507135e-07 -2.3373896e-11)
(2.8906731e-05 2.0066541e-07 -1.8716595e-11)
(2.8927825e-05 2.4528881e-08 -2.0268143e-11)
(2.8965057e-05 5.9833748e-08 -1.6876563e-11)
(2.8814524e-05 9.4281055e-08 -1.2314845e-11)
(-0.044121582 1.9676408 -3.5837544e-07)
(-0.032343291 1.7089989 -3.4336183e-06)
(-0.058431656 0.35286562 -2.3668831e-07)
(-0.042161162 0.15952972 -1.0008599e-06)
(-0.012731971 -0.037610052 -2.2272337e-07)
(-0.010394856 -0.040335698 -6.3680427e-07)
(-0.0032223186 -0.011747589 -1.2708665e-07)
(-0.003552584 -0.012956265 -4.2597469e-07)
(0.00053546091 -0.0017544343 -1.2919736e-07)
(-0.00012506529 -0.0024366304 -3.1435549e-07)
(0.0012584126 -3.827084e-05 -1.3989259e-07)
(0.00093050292 -0.00016499752 -2.5193318e-07)
(0.0011765298 0.00036342703 -1.3810571e-07)
(0.0010196884 0.00044826008 -2.0871894e-07)
(0.00093415972 0.00046100538 -1.2607357e-07)
(0.00083419413 0.0005581367 -1.7335763e-07)
(0.00071609216 0.00035854698 -1.0805903e-07)
(0.00064809956 0.0004390236 -1.4164411e-07)
(0.00056758334 0.00022173148 -8.8370391e-08)
(0.00052297279 0.00027047727 -1.1327693e-07)
(0.00047316776 0.000129516 -6.999212e-08)
(0.00044034791 0.00015476142 -8.8953742e-08)
(0.00041400044 8.7109217e-05 -5.4364343e-08)
(0.00038648042 0.00010464621 -6.8876638e-08)
(0.00036770872 7.3707882e-05 -4.1698703e-08)
(0.00034605675 8.9989418e-05 -5.2725159e-08)
(0.00032581741 7.1639648e-05 -3.1622662e-08)
(0.00031026917 8.6637195e-05 -3.9885032e-08)
(0.00028827805 6.8210452e-05 -2.3647953e-08)
(0.00027603606 8.3602425e-05 -2.9741396e-08)
(0.00025441227 6.1488285e-05 -1.7366878e-08)
(0.00024466166 7.6465022e-05 -2.1784811e-08)
(0.00022462086 5.290532e-05 -1.2476961e-08)
(0.00021669372 6.620695e-05 -1.5621222e-08)
(0.00019888822 4.4718882e-05 -8.7488828e-09)
(0.00019240677 5.6025571e-05 -1.0941754e-08)
(0.00017670668 3.7989604e-05 -5.9850315e-09)
(0.00017140298 4.7548421e-05 -7.4805546e-09)
(0.00015748045 3.2681676e-05 -3.9981566e-09)
(0.00015311213 4.0882472e-05 -4.9939211e-09)
(0.00014072076 2.8343198e-05 -2.6128479e-09)
(0.00013708328 3.5588519e-05 -3.259646e-09)
(0.00012605244 2.4859006e-05 -1.6756563e-09)
(0.00012299404 3.1311119e-05 -2.0843502e-09)
(0.00011318549 2.1851027e-05 -1.0562069e-09)
(0.00011059503 2.7577985e-05 -1.3073364e-09)
(0.00010189444 1.9169496e-05 -6.5543471e-10)
(9.9686152e-05 2.4208573e-05 -8.0503087e-10)
(9.1997318e-05 1.6780268e-05 -4.0140268e-10)
(9.0104538e-05 2.1203119e-05 -4.8727438e-10)
(8.3337966e-05 1.4644373e-05 -2.4357781e-10)
(8.1708481e-05 1.8505912e-05 -2.9034435e-10)
(7.5776547e-05 1.2742263e-05 -1.4756441e-10)
(7.4368461e-05 1.6114548e-05 -1.709585e-10)
(6.9185462e-05 1.1025381e-05 -9.0439738e-11)
(6.7963182e-05 1.3994107e-05 -1.0024866e-10)
(6.3453688e-05 9.5553086e-06 -5.7318317e-11)
(6.2382352e-05 1.2095755e-05 -5.9365383e-11)
(5.847759e-05 8.3148235e-06 -3.8450286e-11)
(5.7530738e-05 1.0506695e-05 -3.630471e-11)
(5.4163199e-05 7.215608e-06 -2.7973194e-11)
(5.3325966e-05 9.1302932e-06 -2.3685114e-11)
(5.0427381e-05 6.23005e-06 -2.222101e-11)
(4.9684466e-05 7.9025235e-06 -1.7022459e-11)
(4.7191124e-05 5.3800476e-06 -1.9169407e-11)
(4.6525719e-05 6.8234958e-06 -1.3645821e-11)
(4.4386447e-05 4.6575654e-06 -1.7653123e-11)
(4.3784465e-05 5.8951336e-06 -1.2085649e-11)
(4.1955986e-05 4.0164415e-06 -1.700125e-11)
(4.1405995e-05 5.1073208e-06 -1.1598306e-11)
(3.9851263e-05 3.4794806e-06 -1.6849877e-11)
(3.9343955e-05 4.4238301e-06 -1.1667294e-11)
(3.8027424e-05 3.025871e-06 -1.6975052e-11)
(3.7555203e-05 3.8426371e-06 -1.2015373e-11)
(3.6442945e-05 2.620967e-06 -1.7075347e-11)
(3.5999346e-05 3.3306094e-06 -1.2379416e-11)
(3.5064339e-05 2.2694041e-06 -1.7236328e-11)
(3.464398e-05 2.8887965e-06 -1.279006e-11)
(3.386655e-05 1.9575056e-06 -1.7481974e-11)
(3.3465072e-05 2.4907752e-06 -1.3247949e-11)
(3.2828976e-05 1.6902385e-06 -1.7740998e-11)
(3.2442914e-05 2.1530043e-06 -1.3690589e-11)
(3.1933517e-05 1.4542381e-06 -1.799775e-11)
(3.156008e-05 1.852638e-06 -1.4110614e-11)
(3.116524e-05 1.2388462e-06 -1.8234915e-11)
(3.080208e-05 1.5799832e-06 -1.4499433e-11)
(3.0512511e-05 1.038067e-06 -1.8455222e-11)
(3.0157603e-05 1.3259438e-06 -1.4831767e-11)
(2.9965819e-05 8.5492212e-07 -1.8683709e-11)
(2.9617458e-05 1.0889027e-06 -1.5091497e-11)
(2.9516077e-05 7.0129542e-07 -1.8855218e-11)
(2.9172905e-05 8.9181023e-07 -1.5237992e-11)
(2.9152869e-05 5.6216697e-07 -1.8598448e-11)
(2.8813821e-05 7.161555e-07 -1.4966076e-11)
(2.8872318e-05 4.2043169e-07 -1.7363313e-11)
(2.8536432e-05 5.3777833e-07 -1.3812771e-11)
(2.8659888e-05 2.7786164e-07 -1.451676e-11)
(2.8326448e-05 3.5513767e-07 -1.1313252e-11)
(2.8568503e-05 1.2988429e-07 -9.0723728e-12)
(2.8236178e-05 1.6552584e-07 -6.8716274e-12)
(-0.0053897819 4.9374895e-05 -1.1689985e-07)
(-0.0052669359 8.0777755e-05 -2.7724138e-07)
(-0.0050145692 0.00012988705 -3.923849e-07)
(-0.0046986903 0.00011745913 -4.6526852e-07)
(-0.0043550709 0.00010619573 -5.0490299e-07)
(-0.0040086612 7.5263844e-05 -5.2152872e-07)
(-0.0036735646 3.9921551e-05 -5.228327e-07)
(-0.003355804 -3.7220804e-06 -5.1419937e-07)
(-0.0030565077 -5.2423249e-05 -4.9938493e-07)
(-0.0027746181 -0.00010645437 -4.8099449e-07)
(-0.0025086937 -0.000166868 -4.6084216e-07)
(-0.0022577423 -0.00023236977 -4.4002607e-07)
(-0.0020210701 -0.00030052396 -4.1908952e-07)
(-0.0017980917 -0.0003691857 -3.9814252e-07)
(-0.001588235 -0.00043575346 -3.7705353e-07)
(-0.0013909519 -0.00049828978 -3.5554495e-07)
(-0.0012057716 -0.000556677 -3.3321879e-07)
(-0.001032027 -0.00060922503 -3.0950517e-07)
(-0.00086866996 -0.00065330356 -2.8377123e-07)
(-0.00071478176 -0.00068837962 -2.5528867e-07)
(-0.00056945775 -0.00071336217 -2.232751e-07)
(-0.00043181291 -0.00072847582 -1.8654676e-07)
(-0.00030101781 -0.00073380617 -1.4410073e-07)
(-0.00017648418 -0.00073351711 -9.5359479e-08)
(-5.7411076e-05 -0.00069438767 -3.9645941e-08)
(0.00010086813 -6.1293698e-05 -1.3285429e-07)
(0.0001328982 -0.00036966732 -3.1093179e-07)
(0.00017879356 -0.00052868327 -4.3205007e-07)
(0.00021946384 -0.00081592 -5.0221023e-07)
(0.00025134544 -0.0010591687 -5.3561271e-07)
(0.00027736816 -0.001327603 -5.4599785e-07)
(0.00030239615 -0.0015956406 -5.4207846e-07)
(0.00032900179 -0.0018846812 -5.294522e-07)
(0.00035153133 -0.0021934999 -5.1165692e-07)
(0.00036725177 -0.0024995252 -4.9101272e-07)
(0.0003748596 -0.0028005974 -4.6928367e-07)
(0.00037388218 -0.0030937781 -4.474348e-07)
(0.00036500742 -0.0033737914 -4.2588126e-07)
(0.00034957179 -0.0036374261 -4.0457991e-07)
(0.00032874285 -0.0038820697 -3.8330928e-07)
(0.00030361716 -0.0041084233 -3.6176259e-07)
(0.00027530509 -0.0043264113 -3.3959462e-07)
(0.00024471387 -0.0045270659 -3.1610346e-07)
(0.000212288 -0.0046862945 -2.9069971e-07)
(0.00017849873 -0.0047969434 -2.62584e-07)
(0.00014398308 -0.004856339 -2.3130261e-07)
(0.00010937152 -0.0048670474 -1.9492864e-07)
(7.5259624e-05 -0.0048324463 -1.5216296e-07)
(4.2241552e-05 -0.0047381837 -1.0128484e-07)
(1.1568052e-05 -0.0045233405 -4.3815551e-08)
(0.00081906367 -0.00023406672 -1.7120813e-07)
(0.00090406265 -0.0013277261 -3.8630718e-07)
(0.0010071752 -0.0017916427 -5.1546552e-07)
(0.0010963091 -0.002640304 -5.7538864e-07)
(0.0011625952 -0.0033429841 -5.9459724e-07)
(0.0012049955 -0.0040806945 -5.9225574e-07)
(0.0012256517 -0.0048203247 -5.7807839e-07)
(0.0012233265 -0.0057336959 -5.5801842e-07)
(0.0012022609 -0.006790557 -5.3483936e-07)
(0.0011648567 -0.0077773127 -5.0997967e-07)
(0.0011139322 -0.0086449619 -4.8542128e-07)
(0.0010520532 -0.0093849697 -4.6178017e-07)
(0.00098201995 -0.009992926 -4.3928983e-07)
(0.00090595109 -0.010477378 -4.1752962e-07)
(0.00082544637 -0.010846017 -3.9610802e-07)
(0.00074204996 -0.011100487 -3.7464832e-07)
(0.000657442 -0.011233207 -3.5321316e-07)
(0.00057272981 -0.011263869 -3.3042813e-07)
(0.00048854139 -0.011221465 -3.0613151e-07)
(0.00040557503 -0.011120718 -2.7954968e-07)
(0.00032495733 -0.010971631 -2.4975768e-07)
(0.00024665833 -0.010783221 -2.1523336e-07)
(0.0001708454 -0.010562121 -1.7389164e-07)
(9.8031956e-05 -0.010279445 -1.2215254e-07)
(3.0115226e-05 -0.0098903788 -5.9926385e-08)
(0.0031895916 -0.00094700504 -2.5366747e-07)
(0.0032809733 -0.0044699942 -5.2604281e-07)
(0.0033303022 -0.0056986308 -6.5257316e-07)
(0.0032323254 -0.0087998528 -6.8608401e-07)
(0.0030799767 -0.011577759 -6.8010807e-07)
(0.0028773926 -0.014100869 -6.5794291e-07)
(0.0026524723 -0.015929944 -6.2863693e-07)
(0.0024124595 -0.016922314 -5.9920057e-07)
(0.0021740476 -0.017241114 -5.6999421e-07)
(0.0019424059 -0.017143261 -5.3926047e-07)
(0.0017238509 -0.016731456 -5.1115865e-07)
(0.0015197813 -0.016120281 -4.8522715e-07)
(0.0013296883 -0.015326224 -4.6190798e-07)
(0.0011463334 -0.014404983 -4.3982791e-07)
(0.00098091671 -0.013410998 -4.18435e-07)
(0.00083337578 -0.012390252 -3.9744854e-07)
(0.00070230255 -0.011381718 -3.7652772e-07)
(0.00058605648 -0.010419007 -3.5514619e-07)
(0.00048318957 -0.0095253079 -3.3278298e-07)
(0.00039185975 -0.0087206718 -3.0876525e-07)
(0.00030950633 -0.0080204643 -2.8222486e-07)
(0.00023460378 -0.0074302762 -2.518953e-07)
(0.00016555197 -0.0069493439 -2.1587934e-07)
(0.00010051048 -0.0065361628 -1.7100338e-07)
(3.7266863e-05 -0.0062418047 -1.0726188e-07)
(0.010743957 -0.0085913791 -4.4112214e-07)
(0.0085598793 -0.025300886 -7.6175417e-07)
(0.007544079 -0.027526301 -8.4922416e-07)
(0.0059425317 -0.031670021 -8.3799225e-07)
(0.0046153333 -0.029095145 -7.9922806e-07)
(0.0034507127 -0.025354945 -7.5157722e-07)
(0.0024666512 -0.020743287 -7.0421673e-07)
(0.0016770837 -0.015856641 -6.6001443e-07)
(0.0010574011 -0.010955192 -6.205395e-07)
(0.00057801124 -0.0064275806 -5.8424976e-07)
(0.00021252767 -0.0023383131 -5.5154724e-07)
(-5.4729589e-05 0.0011866514 -5.2115549e-07)
(-0.00024236791 0.0044621074 -4.9674727e-07)
(-0.0003634375 0.0075895377 -4.7365929e-07)
(-0.00043897712 0.010476491 -4.5142168e-07)
(-0.00047574075 0.012984347 -4.3018017e-07)
(-0.00048174689 0.015079476 -4.0958476e-07)
(-0.00046360982 0.016778467 -3.8919754e-07)
(-0.00042659492 0.018108329 -3.6853519e-07)
(-0.00037508097 0.019097604 -3.4704992e-07)
(-0.00031346704 0.019773588 -3.2406269e-07)
(-0.0002446631 0.020162885 -2.9862515e-07)
(-0.0001711111 0.020262132 -2.6921294e-07)
(-9.6136118e-05 0.02012849 -2.4043092e-07)
(-2.1656024e-05 0.019420831 -2.1175548e-07)
(0.01259258 0.024580228 -7.9685747e-07)
(0.0024600778 0.00020858443 -1.1279679e-06)
(0.00018352906 0.049688439 -1.1316528e-06)
(-0.0014018534 0.052468034 -1.0599312e-06)
(-0.0028643489 0.066466017 -9.8386468e-07)
(-0.0039810045 0.076560894 -8.9861518e-07)
(-0.0046032619 0.083586244 -8.2226588e-07)
(-0.0047845662 0.0894511 -7.5591564e-07)
(-0.0046912935 0.093755778 -6.98256e-07)
(-0.0044609098 0.096425296 -6.4900358e-07)
(-0.0041646928 0.097938727 -6.0745759e-07)
(-0.0038097049 0.098371764 -5.6411745e-07)
(-0.0034505177 0.098071795 -5.3953125e-07)
(-0.0031032807 0.096754471 -5.129297e-07)
(-0.0027538166 0.094573077 -4.8660676e-07)
(-0.0024137431 0.092130212 -4.6311028e-07)
(-0.0020926539 0.089486824 -4.413174e-07)
(-0.0017913947 0.086726459 -4.205773e-07)
(-0.0015092087 0.083925817 -4.0036694e-07)
(-0.0012443366 0.081142521 -3.8017945e-07)
(-0.00099395102 0.078413496 -3.5946694e-07)
(-0.00075611878 0.075781107 -3.375674e-07)
(-0.0005284397 0.073217384 -3.1380309e-07)
(-0.00030906817 0.070909654 -2.8909627e-07)
(-9.2476901e-05 0.067419666 -2.6483503e-07)
(-0.0029825101 1.1817744 -2.5095666e-06)
(-0.0014024521 0.96566954 -1.9939835e-06)
(-0.0013984958 0.86866999 -1.6135383e-06)
(-0.00095529295 0.7753993 -1.3241713e-06)
(-0.00076007027 0.67886154 -1.1096423e-06)
(-0.00061839843 0.58726585 -9.5376456e-07)
(-0.00050126015 0.50875884 -8.4005021e-07)
(-0.00040821404 0.44495278 -7.5647015e-07)
(-0.00033256228 0.39233641 -6.8871771e-07)
(-0.00027031434 0.34743962 -6.3692728e-07)
(-0.00021632524 0.30868083 -5.9724365e-07)
(-0.00017429831 0.27531664 -5.6261976e-07)
(-0.00014113722 0.24678566 -5.3370991e-07)
(-0.0001198699 0.22235871 -5.0824552e-07)
(-9.9808025e-05 0.20137863 -4.8510789e-07)
(-8.2914166e-05 0.18336475 -4.6380221e-07)
(-6.8458599e-05 0.16788578 -4.4376859e-07)
(-5.6219009e-05 0.15457886 -4.2456426e-07)
(-4.5776291e-05 0.14314155 -4.0582844e-07)
(-3.67597e-05 0.13332434 -3.8720037e-07)
(-2.8742964e-05 0.12491084 -3.6826994e-07)
(-2.1415675e-05 0.11775876 -3.4848802e-07)
(-1.4625069e-05 0.11162631 -3.275207e-07)
(-8.3100966e-06 0.10679569 -3.0513047e-07)
(-2.2785133e-06 0.10077462 -2.8080623e-07)
(-0.012774209 0.095726005 -1.2263585e-06)
(-0.0023161515 0.10226376 -1.2698452e-06)
(3.9635714e-05 0.10710684 -1.2264658e-06)
(0.0016663431 0.10817102 -1.1369907e-06)
(0.0031167868 0.10966816 -1.0351659e-06)
(0.0042037754 0.11093207 -9.3608516e-07)
(0.0047969666 0.1122995 -8.475803e-07)
(0.0049483805 0.11361553 -7.714034e-07)
(0.00480807 0.11425433 -6.8998153e-07)
(0.0045393763 0.11418747 -6.4818328e-07)
(0.004242215 0.113398 -6.0722415e-07)
(0.0039007999 0.11166791 -5.6470691e-07)
(0.0035264217 0.10910397 -5.2913154e-07)
(0.0031523861 0.10604398 -4.986838e-07)
(0.0027903492 0.10273745 -4.720263e-07)
(0.0024459067 0.099307744 -4.4818651e-07)
(0.0021209643 0.095836662 -4.2641571e-07)
(0.0018148612 0.09239208 -4.0609932e-07)
(0.0015277736 0.089025454 -3.8668914e-07)
(0.0012583808 0.085774257 -3.6764321e-07)
(0.0010046363 0.082659712 -3.4835246e-07)
(0.00076420971 0.079711175 -3.2803012e-07)
(0.00053441375 0.076891064 -3.0699323e-07)
(0.00031305411 0.074390604 -2.8401277e-07)
(9.4280037e-05 0.070687426 -2.6083094e-07)
(-0.0086533515 -0.038481827 -8.6723047e-07)
(-0.0074299864 -0.036570654 -9.3280538e-07)
(-0.0061002002 -0.035102669 -9.2012775e-07)
(-0.0047661251 -0.031869961 -8.7405593e-07)
(-0.0035392856 -0.027166328 -8.1565986e-07)
(-0.0024847093 -0.021804332 -7.5431055e-07)
(-0.0016148044 -0.016255029 -6.972775e-07)
(-0.00092889729 -0.010803519 -6.451841e-07)
(-0.00040401805 -0.0059107507 -5.9682693e-07)
(-1.0209887e-05 -0.0015770107 -5.6059327e-07)
(0.00027696048 0.0021626725 -5.273398e-07)
(0.00047720945 0.0058321513 -4.9636115e-07)
(0.00060657548 0.0093359939 -4.6856906e-07)
(0.00068176348 0.012474616 -4.4362749e-07)
(0.000713583 0.015175627 -4.2095155e-07)
(0.00071068377 0.01743922 -4.0000797e-07)
(0.00068104056 0.019300706 -3.8036132e-07)
(0.00063232297 0.02079883 -3.6151678e-07)
(0.00056817688 0.021953751 -3.4295786e-07)
(0.00049195735 0.022785213 -3.2409068e-07)
(0.00040668691 0.023313935 -3.040931e-07)
(0.00031504024 0.023560379 -2.8151873e-07)
(0.00021992075 0.023534205 -2.593229e-07)
(0.00012445775 0.023279248 -2.3230561e-07)
(3.0354274e-05 0.022420426 -2.0578226e-07)
(-0.0039608076 -0.014505068 -6.0045138e-07)
(-0.0039852773 -0.017069786 -6.7669222e-07)
(-0.0038006674 -0.019877481 -6.9167829e-07)
(-0.003535196 -0.021920166 -6.7484947e-07)
(-0.0032313773 -0.023230074 -6.4493718e-07)
(-0.0029147403 -0.023724733 -6.1252058e-07)
(-0.0026107292 -0.023568117 -5.7280951e-07)
(-0.00231671 -0.0229777 -5.3574715e-07)
(-0.002039069 -0.022108129 -5.0206402e-07)
(-0.0017859079 -0.021024592 -4.7324391e-07)
(-0.0015576401 -0.019811089 -4.4706517e-07)
(-0.0013427376 -0.01845269 -4.2294535e-07)
(-0.0011468997 -0.017019541 -4.0083524e-07)
(-0.0009731676 -0.015565599 -3.8053755e-07)
(-0.00082094309 -0.01412871 -3.6152247e-07)
(-0.00068884692 -0.012746011 -3.4336438e-07)
(-0.00057445028 -0.011456049 -3.2592638e-07)
(-0.00047392407 -0.010288968 -3.0862765e-07)
(-0.00038630674 -0.009251236 -2.9092068e-07)
(-0.00031008647 -0.0083438172 -2.7214754e-07)
(-0.0002434904 -0.0075675368 -2.5140511e-07)
(-0.00018456688 -0.006922388 -2.2745922e-07)
(-0.00013133073 -0.0064053001 -1.9903872e-07)
(-8.1465987e-05 -0.0059763441 -1.6060148e-07)
(-3.2077423e-05 -0.0056883088 -1.0295423e-07)
(-0.00071125699 -0.0033076573 -4.409747e-07)
(-0.0010676384 -0.0042549314 -5.1134234e-07)
(-0.00126276 -0.0052110593 -5.3902896e-07)
(-0.0013673965 -0.0060668438 -5.4003532e-07)
(-0.0014193331 -0.0069256706 -5.261882e-07)
(-0.0014315758 -0.0079833839 -5.0470654e-07)
(-0.0014181333 -0.0091731715 -4.7835688e-07)
(-0.0013818488 -0.010235618 -4.5160369e-07)
(-0.0013263089 -0.011144335 -4.2631479e-07)
(-0.0012566729 -0.011887431 -4.0321561e-07)
(-0.0011773594 -0.012481272 -3.8188678e-07)
(-0.0010937233 -0.012927759 -3.6203346e-07)
(-0.0010050721 -0.013232663 -3.4348342e-07)
(-0.00091495362 -0.01338402 -3.2643307e-07)
(-0.00082469421 -0.013412768 -3.0992274e-07)
(-0.00073448676 -0.013356386 -2.9406856e-07)
(-0.00064594668 -0.013236809 -2.7818266e-07)
(-0.00056061393 -0.013068766 -2.6195003e-07)
(-0.0004776447 -0.012862638 -2.4485679e-07)
(-0.00039678645 -0.012625839 -2.2625215e-07)
(-0.000317994 -0.012364186 -2.0514369e-07)
(-0.00024135586 -0.012083309 -1.8008506e-07)
(-0.00016715142 -0.011786739 -1.4894174e-07)
(-9.5937348e-05 -0.011437087 -1.0728585e-07)
(-2.9708041e-05 -0.010994692 -5.4360133e-08)
(0.00055682483 -0.00044368503 -3.3892851e-07)
(0.00026500986 -0.00081343617 -3.9540862e-07)
(6.2052748e-05 -0.0012321579 -4.2472632e-07)
(-7.2186278e-05 -0.0016482215 -4.3411733e-07)
(-0.00017210074 -0.0020549314 -4.3036638e-07)
(-0.00025212735 -0.0024685725 -4.1851324e-07)
(-0.00031507718 -0.0028925824 -4.0184969e-07)
(-0.0003636368 -0.0033021171 -3.8323856e-07)
(-0.00039791269 -0.0036972555 -3.644186e-07)
(-0.00041846326 -0.0040698869 -3.4625039e-07)
(-0.00042845633 -0.0044208099 -3.2893569e-07)
(-0.0004256325 -0.0047499788 -3.1247926e-07)
(-0.00041485486 -0.0050660589 -2.9683266e-07)
(-0.00039715084 -0.0053892741 -2.8194147e-07)
(-0.00037358494 -0.0057039002 -2.6747611e-07)
(-0.00034497309 -0.0059745457 -2.5321669e-07)
(-0.00031238357 -0.0061937357 -2.3877467e-07)
(-0.00027715322 -0.0063595994 -2.237669e-07)
(-0.00023997534 -0.0064722387 -2.0769745e-07)
(-0.00020146437 -0.0065315339 -1.9014657e-07)
(-0.00016218948 -0.0065390375 -1.7016837e-07)
(-0.00012278381 -0.0064977536 -1.4642751e-07)
(-8.4012548e-05 -0.0064125928 -1.1750204e-07)
(-4.6693537e-05 -0.0062660705 -8.0962947e-08)
(-1.2607588e-05 -0.0059857849 -3.727964e-08)
(0.00081219792 0.00045209285 -2.6833062e-07)
(0.00062005538 0.00038951532 -3.113163e-07)
(0.00047306387 0.00029009549 -3.3750216e-07)
(0.00036501281 0.00017381044 -3.4970225e-07)
(0.0002867194 4.7199599e-05 -3.5149022e-07)
(0.00022614307 -9.0441321e-05 -3.4609198e-07)
(0.00017726383 -0.00023237221 -3.3606959e-07)
(0.00013416063 -0.00037492303 -3.2349703e-07)
(9.4915959e-05 -0.00051813059 -3.098122e-07)
(5.8979209e-05 -0.00066195453 -2.95875e-07)
(2.6963571e-05 -0.00080208636 -2.8210168e-07)
(3.3611268e-06 -0.00093458158 -2.6866838e-07)
(-1.5781646e-05 -0.0010584802 -2.5562235e-07)
(-2.9472269e-05 -0.0011734555 -2.4291985e-07)
(-3.8191495e-05 -0.0012781047 -2.3039685e-07)
(-4.2931356e-05 -0.0013690709 -2.1784697e-07)
(-4.4310277e-05 -0.0014460243 -2.049918e-07)
(-4.3072881e-05 -0.0015084135 -1.9150919e-07)
(-3.9866775e-05 -0.0015558125 -1.7701561e-07)
(-3.5221688e-05 -0.0015877592 -1.6108415e-07)
(-2.9530143e-05 -0.0016040699 -1.4320023e-07)
(-2.3138306e-05 -0.0016052025 -1.2257824e-07)
(-1.6344731e-05 -0.0015937238 -9.8407417e-08)
(-9.2885515e-06 -0.0015689526 -6.9743273e-08)
(-2.1947502e-06 -0.0014899787 -3.4950771e-08)
(0.00070571734 0.00063199365 -2.1499677e-07)
(0.00057416626 0.00067104145 -2.4714949e-07)
(0.00046726468 0.00067066523 -2.6893453e-07)
(0.00038400933 0.00066000849 -2.8113766e-07)
(0.00032407934 0.00064655599 -2.8552085e-07)
(0.00027602412 0.00063095113 -2.8402856e-07)