/*--------------------------------*- C++ -*----------------------------------*\
| =========                 |                                                 |
| \\      /  F ield         | OpenFOAM: The Open Source CFD Toolbox           |
|  \\    /   O peration     | Version:  4.0                                   |
|   \\  /    A nd           | Web:      www.OpenFOAM.org                      |
|    \\/     M anipulation  |                                                 |
\*---------------------------------------------------------------------------*/
FoamFile
{
    version     2.0;
    format      ascii;
    class       volScalarField;
    location    "0.48";
    object      k;
}
// * * * * * * * * * * * * * * * * * * * * * * * * * * * * * * * * * * * * * //

dimensions      [0 2 -2 0 0 0 0];

internalField   nonuniform List<scalar> 
1740
(
0.0090699389
0.0093344416
0.018291285
0.0092528186
0.0098710985
0.027032542
0.0095230265
0.010390062
0.034791686
0.0098132769
0.010790541
0.041631834
0.010029164
0.011159788
0.047462417
0.010130348
0.011321167
0.052586019
0.010178184
0.011710584
0.056730662
0.010221904
0.012310195
0.060006938
0.010231825
0.012812716
0.06274896
0.010190282
0.012947018
0.064792845
0.010149241
0.013199356
0.066452184
0.010063853
0.013526741
0.067960766
0.0099868834
0.01364526
0.068740459
0.0098622564
0.013531873
0.069527507
0.0097514352
0.013527549
0.070593657
0.0096640764
0.013845223
0.071295819
0.0094793621
0.014241393
0.072094002
0.0093664474
0.014402119
0.072762611
0.0092319911
0.014470924
0.072643882
0.009128861
0.014455645
0.073027962
0.0089858407
0.014661538
0.073362587
0.0088774977
0.014615425
0.07320946
0.008791203
0.014521987
0.073310535
0.0087494929
0.014854476
0.073303979
0.0086090043
0.015121619
0.072885082
0.0084703331
0.014846589
0.072499801
0.0084096253
0.014643749
0.072395252
0.0083787512
0.015075526
0.072656099
0.0084237763
0.015275247
0.07201656
0.0090192131
0.016245441
0.066907294
0.012794907
0.018188467
0.047497001
0.023980058
0.031251349
0.039871567
0.010272827
0.012531714
0.013728996
0.0042589455
0.0045878312
0.0046445746
0.0020701176
0.0021117283
0.0020845351
0.0011395436
0.0011401449
0.00112178
0.00068926921
0.00068666711
0.00067853687
0.00044749371
0.00044612154
0.00044333586
0.0003060015
0.00030561992
0.00030516989
0.00021687307
0.00021695935
0.00021738809
0.00015707095
0.00015731617
0.00015797749
0.00011483267
0.00011509391
0.0001157267
8.3873155e-05
8.4095581e-05
8.4611701e-05
6.06928e-05
6.0862414e-05
6.1247651e-05
4.3238173e-05
4.3358218e-05
4.3627638e-05
3.0203391e-05
3.0283246e-05
3.0461218e-05
2.0657868e-05
2.070804e-05
2.081936e-05
1.3857553e-05
1.3887402e-05
1.3953412e-05
9.1663464e-06
9.1831749e-06
9.2203166e-06
6.0387953e-06
6.0478054e-06
6.067697e-06
4.0274963e-06
4.0321585e-06
4.0424454e-06
2.7811796e-06
2.7835793e-06
2.7888583e-06
2.0380591e-06
2.0393462e-06
2.0421719e-06
1.6146282e-06
1.6154086e-06
1.6171201e-06
1.3881333e-06
1.3887019e-06
1.3899488e-06
1.2794822e-06
1.279969e-06
1.2810371e-06
1.2393918e-06
1.2398464e-06
1.2408441e-06
1.238071e-06
1.2385075e-06
1.2394655e-06
1.2580023e-06
1.2584213e-06
1.2593409e-06
1.2891342e-06
1.289533e-06
1.2904078e-06
1.3258088e-06
1.3261846e-06
1.3270085e-06
1.3648623e-06
1.3652134e-06
1.365983e-06
1.4044839e-06
1.40481e-06
1.4055244e-06
1.4435422e-06
1.4438436e-06
1.4445037e-06
1.4811856e-06
1.4814633e-06
1.4820712e-06
1.5165954e-06
1.5168505e-06
1.517409e-06
1.5488137e-06
1.5490478e-06
1.5495598e-06
1.5766034e-06
1.5768178e-06
1.5772866e-06
1.5983125e-06
1.5985085e-06
1.5989372e-06
1.6117338e-06
1.611913e-06
1.6123047e-06
1.6139616e-06
1.6141253e-06
1.6144829e-06
1.6012584e-06
1.6014077e-06
1.6017339e-06
1.5689654e-06
1.5691012e-06
1.5693978e-06
1.5115116e-06
1.5116344e-06
1.5119026e-06
1.4226081e-06
1.4227176e-06
1.4229569e-06
1.2957556e-06
1.2958507e-06
1.2960588e-06
1.1251964e-06
1.1252753e-06
1.1254486e-06
9.0734446e-07
9.0740517e-07
9.0753998e-07
6.4212189e-07
6.4216315e-07
6.4225561e-07
3.3256587e-07
3.3258649e-07
3.3263121e-07
0.056313053
0.060874092
0.046046709
0.046550698
0.01248169
0.011350238
0.0043493248
0.0041229125
0.0019961342
0.0019394516
0.0010928145
0.0010782565
0.0006695338
0.00066759084
0.00044145201
0.00044332817
0.00030574488
0.00030847953
0.00021865697
0.00022124229
0.00015927463
0.00016141286
0.00011682382
0.00011847457
8.5458035e-05
8.6672685e-05
6.1861048e-05
6.2718268e-05
4.4049422e-05
4.4629412e-05
3.0736947e-05
3.1112209e-05
2.0990662e-05
2.1222189e-05
1.4054515e-05
1.4190483e-05
9.2770287e-06
9.3530235e-06
6.0980255e-06
6.1385529e-06
4.0581009e-06
4.0789592e-06
2.7968697e-06
2.8075079e-06
2.0464504e-06
2.0521163e-06
1.6197075e-06
1.6231294e-06
1.3918328e-06
1.3943251e-06
1.2826508e-06
1.284788e-06
1.2423517e-06
1.2443497e-06
1.2409129e-06
1.2428312e-06
1.2607297e-06
1.2625698e-06
1.2917281e-06
1.2934764e-06
1.3282511e-06
1.3298955e-06
1.367143e-06
1.3686767e-06
1.4066005e-06
1.4080221e-06
1.4454975e-06
1.4468094e-06
1.482986e-06
1.4841927e-06
1.5182489e-06
1.5193562e-06
1.5503296e-06
1.5513436e-06
1.5779909e-06
1.5789182e-06
1.599581e-06
1.600428e-06
1.6128926e-06
1.6136655e-06
1.6150194e-06
1.615724e-06
1.6022228e-06
1.6028645e-06
1.5698424e-06
1.5704253e-06
1.5123044e-06
1.5128309e-06
1.4233156e-06
1.4237859e-06
1.2963717e-06
1.2967833e-06
1.1257114e-06
1.1260604e-06
9.0774719e-07
9.0802435e-07
6.4239585e-07
6.425595e-07
3.3268232e-07
3.326488e-07
3.4022164e-06
2.6933344e-05
0.00013437668
0.00030483654
0.00046195497
0.0005728654
0.00064314789
0.00068677412
0.00071550887
0.00073647892
0.00075372207
0.00077024644
0.00078573396
0.00079993928
0.00081255015
0.00082301694
0.00083035661
0.0008329044
0.00082794321
0.00081119091
0.00077608941
0.00071293556
0.00060819929
0.00044476321
0.00020171236
2.4966944e-06
5.4747137e-05
0.00025108146
0.00051587497
0.00072767818
0.00085912647
0.0009350366
0.00097953441
0.001008043
0.0010285879
0.0010454157
0.0010610561
0.0010753959
0.0010881641
0.0010989666
0.0011071824
0.0011116809
0.001110549
0.0011005884
0.0010766738
0.0010308014
0.00095070144
0.0008180961
0.00060745762
0.00028753272
7.9164294e-06
0.00015997919
0.00061621189
0.001080158
0.0013632122
0.0015059224
0.0015733288
0.001604827
0.0016204202
0.0016285666
0.0016336507
0.0016366131
0.0016386406
0.0016390973
0.0016374959
0.00163337
0.0016256647
0.0016125872
0.0015907249
0.0015544791
0.0014948228
0.0013970389
0.0012364272
0.00097007435
0.00052238536
3.748572e-05
0.0005792958
0.0016861633
0.002437378
0.0027741129
0.0028879149
0.0028971818
0.0028668288
0.0028267524
0.0027818475
0.0027371457
0.0026945329
0.0026545124
0.0026139351
0.0025722468
0.0025298775
0.002486342
0.00244022
0.0023887725
0.0023272301
0.002247683
0.002136843
0.0019703777
0.001695334
0.0011547708
0.00028008707
0.00244586
0.0049146617
0.0060357503
0.0063816297
0.0063197027
0.0060902428
0.0058268129
0.0055778321
0.0053273051
0.005087379
0.0048631323
0.0046597277
0.0044628
0.004271343
0.0040901998
0.0039203422
0.0037612089
0.0036110167
0.003466304
0.0033214252
0.0031681274
0.0029953795
0.002794806
0.0025847428
0.0023539928
0.010517448
0.016561953
0.018509505
0.018051412
0.016497512
0.014685569
0.013000269
0.011520235
0.010245588
0.0091554125
0.0082271628
0.0074355652
0.0067567193
0.0061727702
0.0056704714
0.0052385319
0.0048667295
0.0045457502
0.0042668286
0.0040211568
0.0037997766
0.0035940815
0.0034033512
0.0032429955
0.044949511
0.034018525
0.02650179
0.021354998
0.017721185
0.015033576
0.01295621
0.011306593
0.0099788462
0.0088988302
0.0080095145
0.0072671749
0.0066387354
0.0060996388
0.0056318602
0.0052227795
0.00486368
0.0045480808
0.0042705879
0.0040260835
0.0038090732
0.0036136298
0.0034340359
0.003271625
0.0031415354
0.037261522
0.030956233
0.02774089
0.025110871
0.022245815
0.019275971
0.016562987
0.014267347
0.012388494
0.010849243
0.0095803066
0.0085249588
0.007639658
0.0068945193
0.0062657338
0.0057338059
0.005282447
0.0048980433
0.0045689577
0.0042847422
0.0040353752
0.0038110829
0.0036026946
0.0034093363
0.0032468235
0.010211686
0.0095401986
0.0092020977
0.0088830706
0.0084212326
0.0078563037
0.0072987698
0.0068032596
0.006352542
0.0059548314
0.0056070623
0.0053031161
0.0050177693
0.0047539378
0.0045130081
0.004294273
0.0040957399
0.0039145431
0.0037468168
0.003587539
0.0034299871
0.0032652012
0.0030816884
0.0028708589
0.0026512293
0.0039654276
0.0038930377
0.0038712479
0.0038307912
0.0037365114
0.003601582
0.0034620041
0.0033327863
0.0032163447
0.0031148162
0.0030272042
0.0029503915
0.0028787928
0.0028118288
0.0027493148
0.0026904327
0.0026335308
0.0025760196
0.0025141223
0.0024423398
0.0023523578
0.0022307591
0.0020531885
0.0017659473
0.001206737
0.0019237993
0.0019378669
0.0019631776
0.0019781218
0.001971762
0.0019476847
0.0019168681
0.0018862864
0.0018589926
0.0018363014
0.0018180093
0.0018028698
0.0017892156
0.0017763879
0.0017640212
0.0017509014
0.001735151
0.0017139754
0.0016833114
0.0016371924
0.0015665738
0.001457086
0.0012845516
0.0010061001
0.00054447134
0.0010831524
0.0011019645
0.0011258206
0.0011460335
0.0011581165
0.0011628476
0.0011638344
0.0011640807
0.0011653189
0.0011682984
0.0011729802
0.0011787987
0.0011849692
0.0011908089
0.0011955575
0.0011979972
0.0011963014
0.0011878396
0.0011688903
0.0011341781
0.0010761245
0.00098366317
0.00084051255
0.00062331852
0.00030143175
0.00067495833
0.0006893462
0.00070670579
0.00072322193
0.00073676866
0.00074731491
0.0007560728
0.00076435076
0.00077304899
0.00078259208
0.00079299004
0.00080394023
0.00081495692
0.00082544223
0.00083459702
0.00084126657
0.00084382599
0.00084003901
0.00082688349
0.00080032409
0.00075503219
0.0006840979
0.00057885301
0.00042866081
0.00021625362
0.0004499067
0.00046024642
0.00047251066
0.00048491381
0.00049637286
0.00050668595
0.00051625335
0.00052563099
0.0005352574
0.00054535376
0.00055591509
0.0005667415
0.00057747436
0.00058760562
0.00059642886
0.00060296194
0.00060587211
0.00060340004
0.00059329144
0.00057276019
0.00053855687
0.00048734548
0.00041695521
0.00033020898
0.00024717539
0.00031376522
0.00032118677
0.00032989075
0.00033901027
0.00034796603
0.00035657316
0.00036494247
0.00037329789
0.00038183873
0.00039066383
0.00039974351
0.00040891872
0.0004179042
0.00042627868
0.00043345412
0.00043863348
0.00044077141
0.00043854571
0.00043035808
0.00041440109
0.00038887455
0.00035253919
0.00030602945
0.00025478646
0.00021455476
0.00022530838
0.00023065964
0.00023688281
0.00024353912
0.00025031174
0.00025706231
0.00026379973
0.0002706041
0.00027755445
0.00028468005
0.00029193419
0.00029918159
0.00030618993
0.00031261698
0.00031799034
0.00032168466
0.00032290449
0.00032068255
0.00031390941
0.00030142296
0.00028220828
0.00025579913
0.00022304453
0.0001875395
0.0001584409
0.00016445866
0.00016831339
0.00017276832
0.00017759338
0.0001826091
0.00018771851
0.000192899
0.00019816886
0.00020354912
0.00020903374
0.00021456879
0.00022003934
0.00022525805
0.0002299536
0.00023375773
0.00023619293
0.00023666686
0.0002344803
0.00022885777
0.00021901217
0.00020425188
0.00018411322
0.0001583885
0.00012639347
8.1727618e-05
0.00012070341
0.00012345692
0.00012662501
0.00013008219
0.00013372331
0.00013748224
0.00014132999
0.00014525979
0.00014926694
0.00015333031
0.00015739743
0.00016137356
0.00016511156
0.0001684027
0.00017096793
0.00017245154
0.00017242002
0.00017037018
0.00016574968
0.00015798998
0.00014654007
0.00013085533
0.00011020603
8.2922533e-05
4.435822e-05
8.8262997e-05
9.0197956e-05
9.241682e-05
9.4848611e-05
9.7430123e-05
0.00010011624
0.00010288046
0.00010570779
0.00010858398
0.0001114841
0.00011436249
0.00011714435
0.00011971811
0.00012192843
0.00012357044
0.00012438601
0.00012406362
0.00012224358
0.00011852874
0.00011249748
0.00010370749
9.1663246e-05
7.5695721e-05
5.4682123e-05
2.676897e-05
6.3819673e-05
6.5146589e-05
6.6664075e-05
6.833061e-05
7.0107388e-05
7.1963848e-05
7.3878364e-05
7.5835105e-05
7.7818206e-05
7.9804689e-05
8.1757957e-05
8.362181e-05
8.5314993e-05
8.6726266e-05
8.7710401e-05
8.8085631e-05
8.7633385e-05
8.6100678e-05
8.3204769e-05
7.8637896e-05
7.2067282e-05
6.3124239e-05
5.1383541e-05
3.6373542e-05
1.7852839e-05
4.5365759e-05
4.6246805e-05
4.7251877e-05
4.8356169e-05
4.953534e-05
5.0768752e-05
5.2040129e-05
5.3335732e-05
5.4641514e-05
5.5938842e-05
5.7200362e-05
5.8385949e-05
5.9439026e-05
6.028325e-05
6.0819664e-05
6.092479e-05
6.0449976e-05
5.922204e-05
5.7045071e-05
5.3703006e-05
4.8963183e-05
4.2584977e-05
3.4348927e-05
2.4148056e-05
1.2171013e-05
3.1584825e-05
3.2147283e-05
3.2787266e-05
3.348971e-05
3.4239285e-05
3.5022195e-05
3.5826651e-05
3.6642077e-05
3.7457435e-05
3.8258817e-05
3.9026995e-05
3.9734795e-05
4.0344671e-05
4.0806531e-05
4.1055788e-05
4.1011868e-05
4.0577352e-05
3.9637788e-05
3.806239e-05
3.5706286e-05
3.2416475e-05
2.8047531e-05
2.2500097e-05
1.5803354e-05
8.2419518e-06
2.1512069e-05
2.1855502e-05
2.224506e-05
2.2671555e-05
2.3125414e-05
2.3597582e-05
2.4079892e-05
2.4564706e-05
2.5044062e-05
2.5508306e-05
2.5944613e-05
2.6335471e-05
2.6657135e-05
2.68782e-05
2.6958295e-05
2.684695e-05
2.6482743e-05
2.5792849e-05
2.4693354e-05
2.3091275e-05
2.0890438e-05
1.8005683e-05
1.4392525e-05
1.0098221e-05
5.308208e-06
1.4359926e-05
1.4559849e-05
1.4785748e-05
1.5032075e-05
1.5292903e-05
1.5562452e-05
1.5835288e-05
1.6106213e-05
1.6369814e-05
1.6619749e-05
1.6847909e-05
1.7043492e-05
1.719211e-05
1.7274855e-05
1.7267445e-05
1.7139397e-05
1.6853298e-05
1.6364355e-05
1.5620569e-05
1.4564346e-05
1.3137035e-05
1.1288941e-05
8.998125e-06
6.2989699e-06
3.3016624e-06
9.4473641e-06
9.5582344e-06
9.682951e-06
9.8181968e-06
9.9603698e-06
1.0105873e-05
1.0251222e-05
1.0393042e-05
1.0527835e-05
1.0651616e-05
1.075944e-05
1.0844888e-05
1.0899517e-05
1.0912274e-05
1.0868933e-05
1.0751532e-05
1.0537813e-05
1.0200859e-05
9.7091747e-06
9.0278601e-06
8.1217108e-06
6.9614806e-06
5.5348674e-06
3.8628365e-06
2.0191169e-06
6.1886965e-06
6.2473849e-06
6.3130599e-06
6.3837753e-06
6.4574029e-06
6.531757e-06
6.6046987e-06
6.6741183e-06
6.737844e-06
6.7934516e-06
6.8380027e-06
6.8677538e-06
6.877815e-06
6.8617805e-06
6.811324e-06
6.7157849e-06
6.5619863e-06
6.3338756e-06
6.0124592e-06
5.5766352e-06
5.0052533e-06
4.2808683e-06
3.3960105e-06
2.3622905e-06
1.2229295e-06
4.104668e-06
4.1346097e-06
4.1678926e-06
4.2034001e-06
4.2398969e-06
4.2760957e-06
4.3107126e-06
4.3424732e-06
4.3700562e-06
4.3920037e-06
4.4065738e-06
4.4115699e-06
4.4041304e-06
4.3804992e-06
4.3357547e-06
4.2634774e-06
4.1554228e-06
4.0015467e-06
3.7902035e-06
3.5083627e-06
3.1430234e-06
2.6835328e-06
2.1254123e-06
1.4761222e-06
7.6281108e-07
2.8205639e-06
2.835685e-06
2.8523662e-06
2.8699738e-06
2.8877962e-06
2.9050833e-06
2.9210706e-06
2.9349867e-06
2.9460239e-06
2.9532823e-06
2.955686e-06
2.9518741e-06
2.9400663e-06
2.9179105e-06
2.8823014e-06
2.8291517e-06
2.7531047e-06
2.6474082e-06
2.504283e-06
2.3152176e-06
2.0717673e-06
1.7670766e-06
1.3983659e-06
9.7065886e-07
5.0159477e-07
2.0590471e-06
2.0670406e-06
2.0758127e-06
2.0850015e-06
2.0941957e-06
2.1029522e-06
2.1108097e-06
2.117287e-06
2.1218644e-06
2.1239475e-06
2.1228091e-06
2.117512e-06
2.1068134e-06
2.0890481e-06
2.0619933e-06
2.0227183e-06
1.9674377e-06
1.8913554e-06
1.7886907e-06
1.6532976e-06
1.47915e-06
1.2614206e-06
9.9821036e-07
6.9300744e-07
3.5803976e-07
1.6273125e-06
1.6321387e-06
1.6374426e-06
1.643013e-06
1.648604e-06
1.6539435e-06
1.6587375e-06
1.6626647e-06
1.6653607e-06
1.666388e-06
1.6651919e-06
1.6610391e-06
1.6529401e-06
1.6395539e-06
1.6190793e-06
1.5891383e-06
1.5466638e-06
1.487849e-06
1.4080664e-06
1.3023434e-06
1.165867e-06
9.9483062e-07
7.8778673e-07
5.4763477e-07
2.8467416e-07
1.397379e-06
1.4009211e-06
1.4048489e-06
1.409031e-06
1.4133101e-06
1.4175058e-06
1.4214131e-06
1.4247947e-06
1.4273651e-06
1.4287637e-06
1.4285151e-06
1.4259761e-06
1.4202661e-06
1.4101843e-06
1.394113e-06
1.3699184e-06
1.3348612e-06
1.2855528e-06
1.2179638e-06
1.1276871e-06
1.0104837e-06
8.6302621e-07
6.8406907e-07
4.7624274e-07
2.489935e-07
1.2874149e-06
1.2904811e-06
1.2939166e-06
1.2976308e-06
1.3015128e-06
1.3054295e-06
1.3092218e-06
1.3126949e-06
1.3156017e-06
1.3176161e-06
1.3182961e-06
1.3170327e-06
1.3129849e-06
1.3050008e-06
1.2915283e-06
1.270523e-06
1.2393685e-06
1.19484e-06
1.1331524e-06
1.0501481e-06
9.4183203e-07
8.0508258e-07
6.3876226e-07
4.4556242e-07
2.3529273e-07
1.2468108e-06
1.2496959e-06
1.2529512e-06
1.2565069e-06
1.2602753e-06
1.2641477e-06
1.2679883e-06
1.2716232e-06
1.2748228e-06
1.2772757e-06
1.2785507e-06
1.2780475e-06
1.274932e-06
1.2680589e-06
1.2558848e-06
1.2363782e-06
1.2069458e-06
1.1643988e-06
1.1050142e-06
1.0247148e-06
9.1958122e-07
7.8656734e-07
6.246148e-07
4.3657456e-07
2.3302501e-07
1.2451963e-06
1.2479745e-06
1.2511201e-06
1.2545739e-06
1.2582602e-06
1.2620827e-06
1.2659176e-06
1.2696012e-06
1.272912e-06
1.2755431e-06
1.277065e-06
1.2768743e-06
1.2741292e-06
1.2676721e-06
1.2559412e-06
1.2368825e-06
1.2078763e-06
1.1657066e-06
1.1066262e-06
1.026547e-06
9.2154114e-07
7.8857738e-07
6.2666729e-07
4.3885212e-07
2.3581737e-07
1.2648384e-06
1.2675046e-06
1.2705271e-06
1.2738522e-06
1.2774109e-06
1.2811138e-06
1.2848433e-06
1.2884412e-06
1.2916893e-06
1.2942816e-06
1.2957853e-06
1.2955894e-06
1.2928385e-06
1.2863536e-06
1.2745432e-06
1.2553139e-06
1.2259963e-06
1.1833163e-06
1.1234625e-06
1.0422874e-06
9.3580951e-07
8.009793e-07
6.3686666e-07
4.4667217e-07
2.4106753e-07
1.2956307e-06
1.2981618e-06
1.3010309e-06
1.3041879e-06
1.3075677e-06
1.3110851e-06
1.3146266e-06
1.3180369e-06
1.3210992e-06
1.3235062e-06
1.3248205e-06
1.3244213e-06
1.3214368e-06
1.3146633e-06
1.3024746e-06
1.2827301e-06
1.2527007e-06
1.2090391e-06
1.1478505e-06
1.0649028e-06
9.5613377e-07
8.1844545e-07
6.5093901e-07
4.5702916e-07
2.4690423e-07
1.3319201e-06
1.334297e-06
1.3369894e-06
1.3399495e-06
1.3431152e-06
1.3464044e-06
1.3497063e-06
1.3528675e-06
1.3556714e-06
1.357809e-06
1.358837e-06
1.358124e-06
1.354781e-06
1.3475783e-06
1.3348525e-06
1.3144131e-06
1.2834665e-06
1.2385862e-06
1.1757848e-06
1.0907328e-06
9.7927133e-07
8.3823019e-07
6.6671287e-07
4.6837982e-07
2.5430953e-07
1.3705635e-06
1.3727764e-06
1.3752803e-06
1.3780294e-06
1.3809641e-06
1.3840046e-06
1.3870423e-06
1.389925e-06
1.3924361e-06
1.3942638e-06
1.394959e-06
1.3938791e-06
1.3901174e-06
1.3824177e-06
1.369079e-06
1.3478598e-06
1.3159005e-06
1.2696932e-06
1.2051545e-06
1.1178521e-06
1.003523e-06
8.5891207e-07
6.830947e-07
4.7985419e-07
2.6066388e-07
1.4097695e-06
1.4118167e-06
1.4141302e-06
1.4166659e-06
1.4193664e-06
1.4221539e-06
1.4249215e-06
1.427518e-06
1.4297261e-06
1.4312311e-06
1.4315775e-06
1.4301117e-06
1.425909e-06
1.4176866e-06
1.4037061e-06
1.381675e-06
1.348668e-06
1.3010958e-06
1.2347792e-06
1.1451823e-06
1.0279376e-06
8.7970216e-07
6.9949651e-07
4.910509e-07
2.6588336e-07
1.4484205e-06
1.4503059e-06
1.4524334e-06
1.4547609e-06
1.4572327e-06
1.4597728e-06
1.4622757e-06
1.4645907e-06
1.4664997e-06
1.4676848e-06
1.467684e-06
1.4658321e-06
1.461187e-06
1.4524393e-06
1.4378136e-06
1.4149677e-06
1.3809118e-06
1.3319771e-06
1.2638912e-06
1.1720173e-06
1.0518872e-06
9.0007909e-07
7.1559411e-07
5.0225177e-07
2.7179502e-07
1.4856732e-06
1.4874039e-06
1.4893538e-06
1.4914825e-06
1.4937359e-06
1.4960396e-06
1.4982891e-06
1.5003342e-06
1.5019554e-06
1.5028315e-06
1.5024937e-06
1.5002657e-06
1.4951875e-06
1.4859242e-06
1.4706644e-06
1.4470177e-06
1.4119323e-06
1.3616638e-06
1.2918511e-06
1.1977629e-06
1.0748388e-06
9.1959401e-07
7.3105601e-07
5.1324614e-07
2.7710006e-07
1.5207134e-06
1.5222981e-06
1.5240806e-06
1.5260219e-06
1.5280695e-06
1.5301503e-06
1.5321607e-06
1.5339503e-06
1.5352985e-06
1.5358804e-06
1.5352203e-06
1.5326308e-06
1.5271348e-06
1.5173726e-06
1.5014983e-06
1.4770762e-06
1.4409964e-06
1.3894443e-06
1.3179782e-06
1.2217813e-06
1.0962126e-06
9.3773684e-07
7.4542507e-07
5.2356351e-07
2.8335398e-07
1.5525854e-06
1.5540335e-06
1.5556596e-06
1.5574259e-06
1.5592811e-06
1.5611534e-06
1.5629398e-06
1.5644898e-06
1.5655811e-06
1.565885e-06
1.5649193e-06
1.5619856e-06
1.5560904e-06
1.5458508e-06
1.5293888e-06
1.5042271e-06
1.4672037e-06
1.4144419e-06
1.3414301e-06
1.2432796e-06
1.1152828e-06
9.538597e-07
7.5809004e-07
5.3237975e-07
2.8816209e-07
1.5800527e-06
1.5813739e-06
1.5828546e-06
1.5844582e-06
1.5861346e-06
1.587813e-06
1.5893908e-06
1.5907172e-06
1.591568e-06
1.5916109e-06
1.5903573e-06
1.5870985e-06
1.5808259e-06
1.5701352e-06
1.5531203e-06
1.5272677e-06
1.4893713e-06
1.435504e-06
1.3610993e-06
1.2612155e-06
1.1310983e-06
9.6713659e-07
7.6839988e-07
5.3930186e-07
2.9144094e-07
1.6014632e-06
1.6026669e-06
1.6040131e-06
1.6054662e-06
1.6069772e-06
1.6084759e-06
1.6098602e-06
1.6109787e-06
1.6116055e-06
1.6114049e-06
1.6098822e-06
1.6063197e-06
1.5996953e-06
1.588587e-06
1.5710654e-06
1.5445885e-06
1.5059179e-06
1.4510915e-06
1.3755091e-06
1.2742016e-06
1.1423966e-06
9.7647816e-07
7.7552082e-07
5.4395402e-07
2.9355057e-07
1.6146091e-06
1.6157046e-06
1.6169267e-06
1.618241e-06
1.6195993e-06
1.620932e-06
1.6221374e-06
1.6230636e-06
1.6234831e-06
1.6230572e-06
1.6212862e-06
1.6174449e-06
1.6105011e-06
1.5990193e-06
1.5810544e-06
1.554047e-06
1.5147417e-06
1.4591632e-06
1.382706e-06
1.280408e-06
1.147519e-06
9.8045707e-07
7.7832407e-07
5.4553315e-07
2.939227e-07
1.6165833e-06
1.6175791e-06
1.618687e-06
1.6198734e-06
1.6210909e-06
1.6222707e-06
1.6233113e-06
1.6240605e-06
1.6242898e-06
1.6236585e-06
1.6216634e-06
1.6175745e-06
1.610354e-06
1.5985599e-06
1.5802418e-06
1.5528379e-06
1.5130972e-06
1.4570602e-06
1.3801532e-06
1.277467e-06
1.1443261e-06
9.772369e-07
7.7537402e-07
5.4313039e-07
2.9116533e-07
1.603646e-06
1.6045497e-06
1.6055522e-06
1.6066205e-06
1.6077081e-06
1.608747e-06
1.6096363e-06
1.6102239e-06
1.6102814e-06
1.6094674e-06
1.6072781e-06
1.6029831e-06
1.5955452e-06
1.5835264e-06
1.5649851e-06
1.537378e-06
1.4974869e-06
1.4414067e-06
1.3646429e-06
1.262398e-06
1.1301365e-06
9.6451805e-07
7.6484432e-07
5.3549871e-07
2.8457678e-07
1.5711341e-06
1.5719521e-06
1.5728562e-06
1.5738146e-06
1.5747816e-06
1.5756904e-06
1.5764412e-06
1.5768833e-06
1.5767897e-06
1.5758209e-06
1.5734768e-06
1.5690329e-06
1.5614625e-06
1.5493454e-06
1.5307691e-06
1.5032367e-06
1.463601e-06
1.4080592e-06
1.3322577e-06
1.231582e-06
1.1017117e-06
9.3952784e-07
7.4450256e-07
5.2103421e-07
2.7695831e-07
1.5134704e-06
1.5142067e-06
1.5150174e-06
1.5158717e-06
1.5167254e-06
1.5175135e-06
1.5181383e-06
1.5184524e-06
1.5182326e-06
1.5171456e-06
1.5147005e-06
1.5101885e-06
1.5026074e-06
1.4905741e-06
1.4722327e-06
1.4451695e-06
1.4063569e-06
1.3521558e-06
1.2784295e-06
1.1808299e-06
1.0553368e-06
8.9912014e-07
7.1183405e-07
4.9778406e-07
2.6446584e-07
1.4243568e-06
1.425013e-06
1.4257327e-06
1.4264863e-06
1.427232e-06
1.4279076e-06
1.4284196e-06
1.4286264e-06
1.4283129e-06
1.4271571e-06
1.4246865e-06
1.4202212e-06
1.4128024e-06
1.4011106e-06
1.3833823e-06
1.3573348e-06
1.3201209e-06
1.2683421e-06
1.1981656e-06
1.1056058e-06
9.8703646e-07
8.3999129e-07
6.6433484e-07
4.642004e-07
2.4654535e-07
1.2972845e-06
1.2978608e-06
1.2984906e-06
1.2991461e-06
1.2997894e-06
1.3003623e-06
1.3007777e-06
1.3009043e-06
1.300541e-06
1.2993849e-06
1.2969936e-06
1.2927349e-06
1.2857189e-06
1.2747221e-06
1.2581184e-06
1.2338165e-06
1.1992248e-06
1.1512738e-06
1.0865338e-06
1.0014834e-06
8.929865e-07
7.5901652e-07
5.996946e-07
4.1897612e-07
2.2305017e-07
1.126489e-06
1.126988e-06
1.1275353e-06
1.1281029e-06
1.1286573e-06
1.1291446e-06
1.1294863e-06
1.129569e-06
1.1292146e-06
1.1281491e-06
1.1259769e-06
1.1221391e-06
1.1158473e-06
1.106006e-06
1.0911843e-06
1.0695534e-06
1.0388669e-06
9.9648359e-07
9.3948106e-07
8.6490112e-07
7.7018126e-07
6.5378004e-07
5.1604476e-07
3.605859e-07
1.9319381e-07
9.0836392e-07
9.0879642e-07
9.0929883e-07
9.0982403e-07
9.103243e-07
9.1075601e-07
9.1105469e-07
9.1113606e-07
9.1085657e-07
9.0998834e-07
9.082035e-07
9.0505471e-07
8.9990496e-07
8.9178247e-07
8.7954508e-07
8.6168575e-07
8.3641042e-07
8.0160956e-07
7.5497803e-07
6.941978e-07
6.1734171e-07
5.2336247e-07
4.1274774e-07
2.8855891e-07
1.5526453e-07
6.4270979e-07
6.4308486e-07
6.4365728e-07
6.4429441e-07
6.4479905e-07
6.4519921e-07
6.454724e-07
6.4557507e-07
6.4539987e-07
6.4481694e-07
6.4358523e-07
6.4143993e-07
6.3805396e-07
6.3232697e-07
6.2370017e-07
6.1093247e-07
5.9277332e-07
5.6769818e-07
5.342615e-07
4.9070931e-07
4.358467e-07
3.6912712e-07
2.9093527e-07
2.0362981e-07
1.1109154e-07
3.3240487e-07
3.3265929e-07
3.3336746e-07
3.3429401e-07
3.3478918e-07
3.3509526e-07
3.352899e-07
3.3536137e-07
3.3521947e-07
3.3493294e-07
3.343583e-07
3.3354026e-07
3.329744e-07
3.3042714e-07
3.2673359e-07
3.2104758e-07
3.1220092e-07
2.9900946e-07
2.8203003e-07
2.5890369e-07
2.2980376e-07
1.9499373e-07
1.5371408e-07
1.0786696e-07
6.028888e-08
)
;

boundaryField
{
    Walls
    {
        type            kqRWallFunction;
        value           nonuniform List<scalar> 
38
(
3.4022164e-06
2.4966944e-06
7.9164294e-06
3.748572e-05
0.00028008707
0.0023539928
0.056313053
0.060874092
0.018291285
0.027032542
0.034791686
0.041631834
0.047462417
0.052586019
0.056730662
0.060006938
0.06274896
0.064792845
0.066452184
0.067960766
0.068740459
0.069527507
0.070593657
0.071295819
0.072094002
0.072762611
0.072643882
0.073027962
0.073362587
0.07320946
0.073310535
0.073303979
0.072885082
0.072499801
0.072395252
0.072656099
0.07201656
0.066907294
)
;
    }
    Inlet
    {
        type            turbulentIntensityKineticEnergyInlet;
        intensity       0.05;
        value           nonuniform List<scalar> 3(0.0093961289 0.0087729906 0.0094208518);
    }
    Outlet
    {
        type            inletOutlet;
        inletValue      uniform 0;
        value           nonuniform List<scalar> 
86
(
3.3256587e-07
3.3258649e-07
3.3263121e-07
3.3268232e-07
3.326488e-07
3.3240487e-07
3.3265929e-07
3.3336746e-07
3.3429401e-07
3.3478918e-07
3.3509526e-07
3.352899e-07
3.3536137e-07
3.3521947e-07
3.3493294e-07
3.343583e-07
3.3354026e-07
3.329744e-07
3.3042714e-07
3.2673359e-07
3.2104758e-07
3.1220092e-07
2.9900946e-07
2.8203003e-07
2.5890369e-07
2.2980376e-07
1.9499373e-07
1.5371408e-07
1.0786696e-07
6.028888e-08
0.0031415354
0.0032468235
0.0026512293
0
0
0
0
0.00024717539
0.00021455476
0.0001584409
0
0
0
0
0
0
0
0
0
0
0
0
0
0
0
0
0
0
0
0
0
0
0
0
0
0
0
0
0
0
0
0
0
0
0
0
0
0
0
6.028888e-08
0
0
0
0
0.0025847428
0.0032429955
)
;
    }
    Front
    {
        type            wedge;
    }
    Back
    {
        type            wedge;
    }
    defaultFaces
    {
        type            empty;
    }
}


// ************************************************************************* //
