/*--------------------------------*- C++ -*----------------------------------*\
| =========                 |                                                 |
| \\      /  F ield         | OpenFOAM: The Open Source CFD Toolbox           |
|  \\    /   O peration     | Version:  4.0                                   |
|   \\  /    A nd           | Web:      www.OpenFOAM.org                      |
|    \\/     M anipulation  |                                                 |
\*---------------------------------------------------------------------------*/
FoamFile
{
    version     2.0;
    format      ascii;
    class       volScalarField;
    location    "0.48";
    object      nut;
}
// * * * * * * * * * * * * * * * * * * * * * * * * * * * * * * * * * * * * * //

dimensions      [0 2 -1 0 0 0 0];

internalField   nonuniform List<scalar> 
1740
(
3.3149543e-05
1.5183532e-05
1.2259993e-06
3.7776101e-05
7.8903569e-06
1.7990126e-06
3.6452852e-05
5.8200723e-06
2.3012472e-06
1.8225319e-05
4.9618074e-06
2.7387398e-06
1.7882226e-05
4.4750871e-06
3.1077492e-06
1.7355168e-05
4.1861141e-06
3.4293945e-06
1.4384206e-05
3.9564245e-06
3.6878463e-06
1.2179329e-05
3.8006749e-06
3.8910958e-06
1.0766611e-05
3.7063813e-06
4.0606016e-06
9.6262748e-06
3.629215e-06
4.1865822e-06
8.6435886e-06
3.5788385e-06
4.2881036e-06
7.9351432e-06
3.5567805e-06
4.3808579e-06
7.4060795e-06
3.5350943e-06
4.4284209e-06
7.048237e-06
3.5038429e-06
4.4763592e-06
6.6190684e-06
3.4869042e-06
4.5407978e-06
6.2225191e-06
3.4966166e-06
4.5840834e-06
5.9576843e-06
3.5190917e-06
4.6324519e-06
5.6708736e-06
3.5299254e-06
4.6720487e-06
5.4242036e-06
3.5317865e-06
4.664873e-06
5.201183e-06
3.5279305e-06
4.6892111e-06
5.0239076e-06
3.5391851e-06
4.7097209e-06
4.866658e-06
3.5342513e-06
4.6997214e-06
4.7162949e-06
3.5279996e-06
4.7058682e-06
4.5900249e-06
3.5556155e-06
4.705539e-06
4.4966427e-06
3.5755997e-06
4.6802455e-06
4.4085601e-06
3.5539744e-06
4.6561467e-06
4.3150064e-06
3.537659e-06
4.6502104e-06
4.2241175e-06
3.5712616e-06
4.6672433e-06
4.167041e-06
3.5912282e-06
4.6278338e-06
2.8204723e-06
3.5623881e-06
4.31615e-06
1.9177635e-06
2.2067132e-06
4.4154742e-06
7.1683158e-06
7.3533887e-06
6.6893208e-06
6.5376263e-06
6.741106e-06
6.3730744e-06
5.1754428e-06
5.1116452e-06
4.8624862e-06
4.3348916e-06
4.2621734e-06
4.126143e-06
3.7936649e-06
3.7506427e-06
3.6904407e-06
3.4243905e-06
3.4069002e-06
3.3916892e-06
3.1511232e-06
3.1491971e-06
3.1580979e-06
2.9230672e-06
2.9290785e-06
2.9491486e-06
2.7041163e-06
2.7133228e-06
2.7369818e-06
2.4697131e-06
2.4794502e-06
2.502518e-06
2.2063792e-06
2.2152809e-06
2.2356488e-06
1.9119255e-06
1.9193856e-06
1.9361712e-06
1.5952439e-06
1.601089e-06
1.614128e-06
1.2743942e-06
1.2786975e-06
1.2882529e-06
9.7197194e-07
9.7494572e-07
9.8153332e-07
7.0840146e-07
7.1032628e-07
7.1458577e-07
4.960195e-07
4.9718553e-07
4.9976652e-07
3.3698524e-07
3.3764641e-07
3.3911478e-07
2.2546901e-07
2.2582365e-07
2.2661623e-07
1.5189033e-07
1.5207904e-07
1.5249766e-07
1.0569757e-07
1.0579699e-07
1.0601651e-07
7.7950812e-08
7.8005296e-08
7.8125483e-08
6.2107681e-08
6.2141175e-08
6.221524e-08
5.3683037e-08
5.3707328e-08
5.3761406e-08
4.974168e-08
4.9762017e-08
4.9807768e-08
4.8432502e-08
4.8450972e-08
4.8492981e-08
4.86225e-08
4.8639842e-08
4.8679594e-08
4.9635479e-08
4.9651915e-08
4.9689711e-08
5.1077351e-08
5.1092925e-08
5.1128699e-08
5.272407e-08
5.2738767e-08
5.2772396e-08
5.4451429e-08
5.4465226e-08
5.4496637e-08
5.6191948e-08
5.6204835e-08
5.6234019e-08
5.7909056e-08
5.7921042e-08
5.7948049e-08
5.9582155e-08
5.9593263e-08
5.9618185e-08
6.119836e-08
6.1208629e-08
6.1231582e-08
6.2748207e-08
6.2757683e-08
6.2778798e-08
6.4223613e-08
6.4232349e-08
6.4251767e-08
6.5617082e-08
6.5625136e-08
6.5643003e-08
6.6921549e-08
6.6928984e-08
6.6945447e-08
6.8130513e-08
6.8137392e-08
6.8152604e-08
6.9238287e-08
6.9244677e-08
6.9258789e-08
7.0240305e-08
7.0246275e-08
7.0259443e-08
7.1133384e-08
7.1139023e-08
7.1151412e-08
7.1902806e-08
7.1908159e-08
7.1919888e-08
7.2535301e-08
7.2540406e-08
7.255158e-08
7.3015694e-08
7.3020594e-08
7.3031317e-08
7.3317019e-08
7.3321754e-08
7.3332115e-08
7.3383304e-08
7.3387905e-08
7.3397974e-08
7.3039169e-08
7.3043642e-08
7.3053426e-08
4.1772891e-06
4.497785e-06
6.651139e-06
8.3525924e-06
5.9919231e-06
6.0349931e-06
4.7216964e-06
4.8287535e-06
4.080485e-06
4.1907369e-06
3.6933095e-06
3.7950865e-06
3.4204353e-06
3.5132149e-06
3.1989996e-06
3.2828498e-06
2.9936228e-06
3.0682198e-06
2.7798685e-06
2.844809e-06
2.5409415e-06
2.5960215e-06
2.2682171e-06
2.3135334e-06
1.962455e-06
1.9984349e-06
1.6343197e-06
1.661717e-06
1.3029616e-06
1.3228217e-06
9.9163985e-07
1.005249e-06
7.211094e-07
7.2988081e-07
5.0371792e-07
5.0902744e-07
3.4136615e-07
3.443921e-07
2.2783419e-07
2.2947106e-07
1.5313817e-07
1.5399643e-07
1.0635142e-07
1.0679921e-07
7.830878e-08
7.8553835e-08
6.2328456e-08
6.2480215e-08
5.3844497e-08
5.3956411e-08
4.9878545e-08
4.9974367e-08
4.8558385e-08
4.8647278e-08
4.874174e-08
4.882637e-08
4.9748867e-08
4.9829422e-08
5.1184606e-08
5.1260613e-08
5.2824785e-08
5.2895819e-08
5.4545374e-08
5.461125e-08
5.6279116e-08
5.6339878e-08
5.7989622e-08
5.8045471e-08
5.9656417e-08
5.9707641e-08
6.126669e-08
6.131362e-08
6.2811015e-08
6.2853997e-08
6.4281333e-08
6.4320713e-08
6.5670159e-08
6.570628e-08
6.6970436e-08
6.7003636e-08
6.8175666e-08
6.8206275e-08
6.9280162e-08
6.9308503e-08
7.027936e-08
7.0305744e-08
7.1170104e-08
7.1194826e-08
7.1937549e-08
7.1960878e-08
7.2568393e-08
7.2590584e-08
7.3047445e-08
7.3068729e-08
7.3347703e-08
7.3368272e-08
7.3413119e-08
7.3433075e-08
7.3068095e-08
7.308718e-08
2.8215042e-10
1.3185438e-08
1.9301952e-07
8.2632408e-07
1.6431053e-06
2.229467e-06
2.5743038e-06
2.7826321e-06
2.9267184e-06
3.0421418e-06
3.1460028e-06
3.2520984e-06
3.3575171e-06
3.4611084e-06
3.5620669e-06
3.6590369e-06
3.7495637e-06
3.8295129e-06
3.8921881e-06
3.9270071e-06
3.9173562e-06
3.8369857e-06
3.6433593e-06
3.2595303e-06
2.4455216e-06
2.0705483e-10
2.6878716e-08
3.5998304e-07
1.3773786e-06
2.5702858e-06
3.3783139e-06
3.8511655e-06
4.1577203e-06
4.3923349e-06
4.5977136e-06
4.7943841e-06
4.9946469e-06
5.1965534e-06
5.399018e-06
5.6003728e-06
5.7978769e-06
5.9867853e-06
6.1593247e-06
6.3027899e-06
6.3968866e-06
6.4092866e-06
6.287654e-06
5.9442547e-06
5.2182439e-06
3.6806328e-06
6.5651951e-10
7.8780488e-08
8.5741945e-07
2.5076618e-06
3.7932682e-06
4.5298e-06
4.9933623e-06
5.338931e-06
5.6390792e-06
5.9261789e-06
6.2155251e-06
6.5138393e-06
6.8197152e-06
7.131999e-06
7.4492721e-06
7.7684799e-06
8.0834078e-06
8.3841052e-06
8.6529181e-06
8.8611279e-06
8.9620864e-06
8.8781801e-06
8.4739882e-06
7.4911528e-06
5.2865776e-06
3.1086491e-09
2.8506942e-07
2.0621528e-06
4.0029586e-06
5.0436033e-06
5.6313518e-06
6.0381513e-06
6.3806994e-06
6.7092477e-06
7.0423365e-06
7.3907358e-06
7.7575788e-06
8.1392619e-06
8.5345344e-06
8.943256e-06
9.3640948e-06
9.7921017e-06
1.0217782e-05
1.0624511e-05
1.0984406e-05
1.1251239e-05
1.1346537e-05
1.1126585e-05
1.0282486e-05
7.8856278e-06
2.3221559e-08
1.1369981e-06
3.9881784e-06
5.597023e-06
6.448475e-06
6.9691762e-06
7.3524475e-06
7.6983121e-06
8.0480486e-06
8.4028356e-06
8.7761162e-06
9.1752262e-06
9.5889619e-06
1.0013421e-05
1.0450785e-05
1.09058e-05
1.1377819e-05
1.1862293e-05
1.2349387e-05
1.2820957e-05
1.3245944e-05
1.357417e-05
1.3728967e-05
1.3614545e-05
1.3202641e-05
1.947512e-07
2.7473404e-06
5.8958291e-06
7.7019977e-06
8.6186761e-06
9.0368371e-06
9.2335735e-06
9.370572e-06
9.5091619e-06
9.6679016e-06
9.8548326e-06
1.0076339e-05
1.0332952e-05
1.0624613e-05
1.0952287e-05
1.1316846e-05
1.1718371e-05
1.2154932e-05
1.262162e-05
1.3108768e-05
1.3598862e-05
1.4063182e-05
1.4458654e-05
1.4736634e-05
1.483966e-05
4.3325489e-06
4.3026137e-06
4.3488853e-06
4.4652037e-06
4.6468005e-06
4.8814509e-06
5.1583116e-06
5.4743918e-06
5.83186e-06
6.2327623e-06
6.6769817e-06
7.1619055e-06
7.6821005e-06
8.2304355e-06
8.7998316e-06
9.3850172e-06
9.9830448e-06
1.0592255e-05
1.1210687e-05
1.1833926e-05
1.2451987e-05
1.3046087e-05
1.3585773e-05
1.4034395e-05
1.4324338e-05
9.1045663e-06
9.3602178e-06
9.7649762e-06
1.0186124e-05
1.036429e-05
1.0328863e-05
1.0212067e-05
1.0114846e-05
1.0077649e-05
1.0102295e-05
1.0184905e-05
1.032093e-05
1.0508217e-05
1.0746326e-05
1.1034909e-05
1.137319e-05
1.175911e-05
1.2188772e-05
1.2655287e-05
1.3146656e-05
1.3642582e-05
1.4111265e-05
1.4506552e-05
1.4778424e-05
1.4872854e-05
6.4059861e-06
6.8165763e-06
7.2492118e-06
7.6500901e-06
7.9523489e-06
8.1694673e-06
8.3613173e-06
8.5688827e-06
8.7995062e-06
9.0681548e-06
9.37151e-06
9.7003299e-06
1.0049783e-05
1.0425901e-05
1.0832491e-05
1.1270167e-05
1.1736078e-05
1.2223094e-05
1.2717876e-05
1.3197858e-05
1.3626664e-05
1.3948203e-05
1.408017e-05
1.392384e-05
1.3457863e-05
5.1420401e-06
5.4995475e-06
5.8509569e-06
6.1683267e-06
6.4349211e-06
6.6634603e-06
6.8842361e-06
7.1177493e-06
7.3750422e-06
7.6626861e-06
7.9786419e-06
8.3201652e-06
8.6870942e-06
9.0805303e-06
9.5000618e-06
9.9421068e-06
1.039865e-05
1.0855534e-05
1.1289865e-05
1.1665857e-05
1.1927894e-05
1.1987314e-05
1.1690648e-05
1.071884e-05
8.117823e-06
4.4347751e-06
4.7252045e-06
5.0162297e-06
5.2876179e-06
5.5335674e-06
5.7622158e-06
5.9880037e-06
6.2236799e-06
6.4777655e-06
6.7544044e-06
7.0533024e-06
7.373269e-06
7.713989e-06
8.0744917e-06
8.4519884e-06
8.8396361e-06
9.2254561e-06
9.590432e-06
9.9057863e-06
1.012887e-05
1.0196602e-05
1.0013938e-05
9.4304557e-06
8.1809275e-06
5.6300837e-06
3.9838684e-06
4.2139024e-06
4.4524421e-06
4.6837513e-06
4.9042028e-06
5.118493e-06
5.3347066e-06
5.5605918e-06
5.8018412e-06
6.0613105e-06
6.3392516e-06
6.6348318e-06
6.9468571e-06
7.2727102e-06
7.6071703e-06
7.9413062e-06
8.2610908e-06
8.5457706e-06
8.7657614e-06
8.879787e-06
8.8307918e-06
8.5394188e-06
7.8911121e-06
6.6986355e-06
4.4799492e-06
3.6637838e-06
3.8478877e-06
4.0443888e-06
4.2416822e-06
4.4364067e-06
4.630731e-06
4.8292025e-06
5.0366277e-06
5.256749e-06
5.4915465e-06
5.7413167e-06
6.0052e-06
6.2813587e-06
6.5662702e-06
6.8537821e-06
7.1342224e-06
7.3934274e-06
7.6116007e-06
7.7620606e-06
7.8098742e-06
7.7103338e-06
7.4068172e-06
6.8253032e-06
5.848326e-06
4.1077679e-06
3.406337e-06
3.5563335e-06
3.7197378e-06
3.8882969e-06
4.0589342e-06
4.2322661e-06
4.4107622e-06
4.5973042e-06
4.794221e-06
5.0027554e-06
5.2229345e-06
5.453674e-06
5.6926835e-06
5.9359699e-06
6.1771698e-06
6.4068872e-06
6.6120359e-06
6.7752209e-06
6.8742851e-06
6.8822236e-06
6.7678633e-06
6.4982228e-06
6.0454344e-06
5.4108222e-06
4.7351536e-06
3.1710786e-06
3.2948596e-06
3.4315024e-06
3.5752779e-06
3.7235153e-06
3.876008e-06
4.0339398e-06
4.1989216e-06
4.3722997e-06
4.5547008e-06
4.7458253e-06
4.9443569e-06
5.1477729e-06
5.3519784e-06
5.5508449e-06
5.7357664e-06
5.8952905e-06
6.0149062e-06
6.0771497e-06
6.0623023e-06
5.9502329e-06
5.7246902e-06
5.3837114e-06
4.9667563e-06
4.6182531e-06
2.930654e-06
3.0331435e-06
3.1472457e-06
3.26899e-06
3.3961699e-06
3.5281715e-06
3.6653935e-06
3.8086259e-06
3.9585308e-06
4.1152758e-06
4.278302e-06
4.4461578e-06
4.616301e-06
4.7848267e-06
4.9461633e-06
5.0928059e-06
5.2151566e-06
5.3015608e-06
5.338675e-06
5.3123773e-06
5.2096024e-06
5.0218802e-06
4.7525112e-06
4.4324793e-06
4.1573801e-06
2.6669714e-06
2.7512188e-06
2.8455515e-06
2.9471966e-06
3.0543682e-06
3.1662892e-06
3.282903e-06
3.4044764e-06
3.5312218e-06
3.6630026e-06
3.7991121e-06
3.9381004e-06
4.0775953e-06
4.2141083e-06
4.3428441e-06
4.4575587e-06
4.5505256e-06
4.6126739e-06
4.6339724e-06
4.604135e-06
4.5136643e-06
4.3549755e-06
4.1220458e-06
3.7998354e-06
3.2747561e-06
2.3710272e-06
2.4390882e-06
2.5156191e-06
2.5986632e-06
2.6867969e-06
2.7792258e-06
2.8756501e-06
2.9760215e-06
3.0802806e-06
3.1881228e-06
3.2988089e-06
3.4110145e-06
3.5226836e-06
3.6308952e-06
3.7317497e-06
3.8203086e-06
3.8906169e-06
3.9358445e-06
3.9485607e-06
3.9210915e-06
3.8457308e-06
3.7140076e-06
3.5122917e-06
3.2027653e-06
2.6237476e-06
2.0437003e-06
2.0972161e-06
2.1575904e-06
2.2234376e-06
2.2936467e-06
2.3674853e-06
2.4445516e-06
2.5246322e-06
2.6075241e-06
2.6928613e-06
2.7799643e-06
2.8677201e-06
2.954475e-06
3.0379454e-06
3.1151589e-06
3.1824353e-06
3.2354238e-06
3.2692031e-06
3.2784151e-06
3.2573299e-06
3.1995512e-06
3.0966024e-06
2.9332538e-06
2.6718497e-06
2.175797e-06
1.696028e-06
1.7365853e-06
1.7824602e-06
1.8326774e-06
1.8863938e-06
1.9429851e-06
2.0020368e-06
2.0632705e-06
2.1264322e-06
2.1911663e-06
2.2569097e-06
2.3228016e-06
2.387613e-06
2.449693e-06
2.5069414e-06
2.5568097e-06
2.5963334e-06
2.6221799e-06
2.6306695e-06
2.6176617e-06
2.5780792e-06
2.5045632e-06
2.3840498e-06
2.18823e-06
1.8324643e-06
1.3476351e-06
1.3769735e-06
1.4102231e-06
1.4467114e-06
1.485817e-06
1.5270399e-06
1.5700118e-06
1.614453e-06
1.6601141e-06
1.7066929e-06
1.7537632e-06
1.8007143e-06
1.8467085e-06
1.8906546e-06
1.9311981e-06
1.9667288e-06
1.995401e-06
2.0151415e-06
2.0236043e-06
2.0179888e-06
1.9945807e-06
1.9477555e-06
1.8678948e-06
1.7364268e-06
1.5048281e-06
1.0222312e-06
1.0423128e-06
1.0650995e-06
1.0901391e-06
1.1169914e-06
1.1452788e-06
1.1747005e-06
1.2050167e-06
1.2360141e-06
1.2674583e-06
1.2990532e-06
1.330403e-06
1.3609898e-06
1.3901628e-06
1.4171379e-06
1.4410058e-06
1.4607391e-06
1.4751802e-06
1.4829763e-06
1.4824089e-06
1.4710456e-06
1.4451143e-06
1.3983993e-06
1.3199034e-06
1.185043e-06
7.4081777e-07
7.5374932e-07
7.6842765e-07
7.8455767e-07
8.0184174e-07
8.2000997e-07
8.388355e-07
8.5813055e-07
8.7773111e-07
8.9747114e-07
9.171598e-07
9.3656392e-07
9.5539661e-07
9.7331413e-07
9.8991805e-07
1.0047588e-06
1.0173353e-06
1.0270768e-06
1.0332911e-06
1.0350454e-06
1.03095e-06
1.0188217e-06
9.9517001e-07
9.541067e-07
8.8236131e-07
5.1564436e-07
5.2346558e-07
5.3233824e-07
5.4207676e-07
5.5248726e-07
5.6338749e-07
5.7461764e-07
5.8604257e-07
5.975457e-07
6.0901797e-07
6.2034691e-07
6.3140829e-07
6.4206282e-07
6.5215516e-07
6.6151473e-07
6.6995419e-07
6.7726271e-07
6.8319052e-07
6.8742117e-07
6.8951104e-07
6.8877658e-07
6.8413665e-07
6.7389826e-07
6.552307e-07
6.2122755e-07
3.481624e-07
3.5261727e-07
3.576654e-07
3.6319356e-07
3.6908046e-07
3.7520905e-07
3.8147342e-07
3.8778304e-07
3.9406117e-07
4.0024094e-07
4.0626104e-07
4.1206308e-07
4.1759108e-07
4.2279136e-07
4.2761176e-07
4.3199386e-07
4.3586256e-07
4.3911205e-07
4.4160237e-07
4.4314485e-07
4.434489e-07
4.4204849e-07
4.3821161e-07
4.3069482e-07
4.1633935e-07
2.3150902e-07
2.339139e-07
2.3663288e-07
2.3959939e-07
2.4274155e-07
2.4598805e-07
2.4927393e-07
2.5254283e-07
2.5574801e-07
2.5885142e-07
2.6182237e-07
2.6463768e-07
2.6728226e-07
2.6975046e-07
2.7204493e-07
2.7416017e-07
2.7607207e-07
2.7772257e-07
2.7903557e-07
2.7993564e-07
2.8031647e-07
2.7999614e-07
2.7866675e-07
2.7576553e-07
2.6981636e-07
1.5506174e-07
1.5631393e-07
1.5772273e-07
1.5924987e-07
1.6085365e-07
1.6249217e-07
1.641268e-07
1.6572422e-07
1.6725725e-07
1.6870535e-07
1.7005462e-07
1.7129859e-07
1.7244011e-07
1.7349577e-07
1.7450045e-07
1.7549228e-07
1.7644872e-07
1.7729839e-07
1.7797263e-07
1.7844473e-07
1.786869e-07
1.7863328e-07
1.7814686e-07
1.7694449e-07
1.7427443e-07
1.073537e-07
1.0800348e-07
1.0873157e-07
1.0951645e-07
1.1033431e-07
1.1116109e-07
1.119743e-07
1.1275453e-07
1.1348625e-07
1.1415832e-07
1.1476428e-07
1.1530291e-07
1.1577913e-07
1.1620596e-07
1.166072e-07
1.1701873e-07
1.1748886e-07
1.179861e-07
1.183779e-07
1.1864639e-07
1.1879342e-07
1.1879747e-07
1.1859353e-07
1.1804087e-07
1.1680192e-07
7.8857284e-08
7.9212859e-08
7.9611285e-08
8.0040568e-08
8.0487296e-08
8.0937729e-08
8.1378939e-08
8.1799654e-08
8.2190889e-08
8.2546362e-08
8.2862734e-08
8.3139893e-08
8.3381479e-08
8.3595775e-08
8.3797235e-08
8.400875e-08
8.4260869e-08
8.4595886e-08
8.4888432e-08
8.5093887e-08
8.521911e-08
8.5257933e-08
8.5176834e-08
8.4898308e-08
8.422646e-08
6.2668807e-08
6.2890894e-08
6.3141391e-08
6.3413635e-08
6.3699983e-08
6.3992492e-08
6.4283532e-08
6.4566326e-08
6.483533e-08
6.5086495e-08
6.531747e-08
6.5527787e-08
6.5719189e-08
6.5896202e-08
6.6067136e-08
6.6245667e-08
6.6453474e-08
6.6724248e-08
6.7001223e-08
6.7209277e-08
6.7353164e-08
6.7431366e-08
6.7424171e-08
6.7281731e-08
6.6864628e-08
5.4096349e-08
5.4262577e-08
5.4452253e-08
5.4661531e-08
5.4885865e-08
5.5120385e-08
5.5360254e-08
5.5600982e-08
5.5838659e-08
5.6070136e-08
5.6293173e-08
5.6506619e-08
5.6710692e-08
5.6907434e-08
5.7101427e-08
5.7300939e-08
5.7520157e-08
5.7780524e-08
5.8071403e-08
5.8301177e-08
5.8473259e-08
5.858689e-08
5.8627485e-08
5.8557999e-08
5.827503e-08
5.0094903e-08
5.023927e-08
5.0405771e-08
5.0591977e-08
5.0794902e-08
5.1011209e-08
5.1237426e-08
5.1470143e-08
5.1706167e-08
5.1942663e-08
5.2177298e-08
5.240843e-08
5.2635355e-08
5.2858681e-08
5.3080863e-08
5.3306988e-08
5.3546012e-08
5.3813079e-08
5.4118372e-08
5.436662e-08
5.4560873e-08
5.4699507e-08
5.4769071e-08
5.4737307e-08
5.4518465e-08
4.8759546e-08
4.889473e-08
4.9051675e-08
4.9228614e-08
4.9423282e-08
4.963306e-08
4.9855114e-08
5.0086533e-08
5.0324461e-08
5.0566231e-08
5.0809507e-08
5.1052463e-08
5.1294e-08
5.1534038e-08
5.1773929e-08
5.2017071e-08
5.2269896e-08
5.2543567e-08
5.2852176e-08
5.3109062e-08
5.3315452e-08
5.3467971e-08
5.355276e-08
5.3539271e-08
5.3351986e-08
4.8933436e-08
4.9062659e-08
4.9213111e-08
4.9383303e-08
4.9571298e-08
4.9774811e-08
4.999133e-08
5.0218234e-08
5.0452914e-08
5.0692905e-08
5.0936023e-08
5.1180522e-08
5.1425263e-08
5.1669935e-08
5.1915364e-08
5.2164003e-08
5.2420775e-08
5.2694659e-08
5.2997709e-08
5.3254722e-08
5.3464622e-08
5.362219e-08
5.3712578e-08
5.3705336e-08
5.3527492e-08
4.9931308e-08
5.0054285e-08
5.0197501e-08
5.0359591e-08
5.0538782e-08
5.0732993e-08
5.0939939e-08
5.1157247e-08
5.1382575e-08
5.1613735e-08
5.1848816e-08
5.2086313e-08
5.232525e-08
5.2565332e-08
5.2807163e-08
5.3052608e-08
5.3305452e-08
5.3572592e-08
5.3865514e-08
5.4117037e-08
5.4324587e-08
5.4481247e-08
5.4570841e-08
5.4561895e-08
5.4380603e-08
5.135659e-08
5.1472263e-08
5.1606798e-08
5.1758906e-08
5.1926941e-08
5.2108997e-08
5.2303012e-08
5.2506875e-08
5.2718545e-08
5.2936159e-08
5.3158146e-08
5.3383314e-08
5.3610946e-08
5.384088e-08
5.4073659e-08
5.4310779e-08
5.4555209e-08
5.4812422e-08
5.5091948e-08
5.5334679e-08
5.5536461e-08
5.5688686e-08
5.5773602e-08
5.5758071e-08
5.5565136e-08
5.2985294e-08
5.3092877e-08
5.3217741e-08
5.3358671e-08
5.3514146e-08
5.3682445e-08
5.3861736e-08
5.4050188e-08
5.4246073e-08
5.4447874e-08
5.4654366e-08
5.4864698e-08
5.5078432e-08
5.5295593e-08
5.5516738e-08
5.5743119e-08
5.5977076e-08
5.6222878e-08
5.6488055e-08
5.6720623e-08
5.691502e-08
5.706104e-08
5.7139307e-08
5.7114712e-08
5.6908169e-08
5.4693992e-08
5.479321e-08
5.4908092e-08
5.5037498e-08
5.5180047e-08
5.5334202e-08
5.5498369e-08
5.5670991e-08
5.5850649e-08
5.6036154e-08
5.6226623e-08
5.6421525e-08
5.6620702e-08
5.6824374e-08
5.7033147e-08
5.7248101e-08
5.7471056e-08
5.7705239e-08
5.7956348e-08
5.8178589e-08
5.836509e-08
5.8504212e-08
5.8575026e-08
5.8540155e-08
5.8315334e-08
5.6415978e-08
5.6506981e-08
5.6612101e-08
5.6730283e-08
5.6860282e-08
5.7000746e-08
5.7150304e-08
5.7307659e-08
5.7471678e-08
5.7641478e-08
5.7816483e-08
5.7996461e-08
5.8181513e-08
5.8372045e-08
5.8568729e-08
5.8772511e-08
5.898478e-08
5.9207861e-08
5.9445853e-08
5.9658157e-08
5.9836817e-08
5.9968899e-08
6.0032038e-08
5.998671e-08
5.9743347e-08
5.811523e-08
5.8198436e-08
5.8294338e-08
5.8401968e-08
5.8520211e-08
5.8647888e-08
5.8783834e-08
5.8926986e-08
5.9076472e-08
5.9231677e-08
5.9392305e-08
5.9558388e-08
5.9730262e-08
5.9908506e-08
6.0093858e-08
6.0287163e-08
6.0489441e-08
6.0702239e-08
6.0928261e-08
6.1131285e-08
6.1302417e-08
6.1427563e-08
6.1483121e-08
6.1428058e-08
6.1169929e-08
5.9771471e-08
5.9847432e-08
5.9934811e-08
6.0032724e-08
6.0140182e-08
6.0256159e-08
6.0379676e-08
6.0509878e-08
6.0646119e-08
6.0788026e-08
6.0935544e-08
6.1088941e-08
6.1248762e-08
6.1415742e-08
6.1590681e-08
6.1774344e-08
6.1967435e-08
6.2170829e-08
6.2386022e-08
6.258047e-08
6.2744451e-08
6.2862841e-08
6.2910913e-08
6.2846263e-08
6.257156e-08
6.1371979e-08
6.144129e-08
6.1520886e-08
6.1609961e-08
6.1707638e-08
6.181303e-08
6.1925319e-08
6.2043835e-08
6.2168129e-08
6.2298037e-08
6.2433716e-08
6.257564e-08
6.2724536e-08
6.2881275e-08
6.3046721e-08
6.3221564e-08
6.3406244e-08
6.3601054e-08
6.3806445e-08
6.3992946e-08
6.4150106e-08
6.4261865e-08
6.4302369e-08
6.4227586e-08
6.3936962e-08
6.2907352e-08
6.2970612e-08
6.3043154e-08
6.3124247e-08
6.3213114e-08
6.3308989e-08
6.3411197e-08
6.3519226e-08
6.36328e-08
6.3751934e-08
6.3876969e-08
6.4008557e-08
6.4147583e-08
6.4295038e-08
6.4451834e-08
6.4618606e-08
6.4795559e-08
6.4982487e-08
6.5178944e-08
6.5357999e-08
6.5508572e-08
6.5613738e-08
6.5646506e-08
6.5560803e-08
6.5251219e-08
6.4369523e-08
6.4427312e-08
6.4493499e-08
6.4567423e-08
6.4648391e-08
6.4735749e-08
6.4828944e-08
6.4927598e-08
6.5031585e-08
6.5141074e-08
6.5256565e-08
6.5378858e-08
6.5508974e-08
6.5648006e-08
6.5796905e-08
6.5956253e-08
6.6126055e-08
6.6305673e-08
6.6493889e-08
6.6665849e-08
6.6809944e-08
6.6908494e-08
6.6933455e-08
6.6836806e-08
6.6508273e-08
6.5750994e-08
6.5803869e-08
6.5864366e-08
6.5931883e-08
6.6005808e-08
6.6085578e-08
6.6170746e-08
6.6261054e-08
6.6356497e-08
6.6457379e-08
6.656433e-08
6.6678277e-08
6.6800354e-08
6.6931733e-08
6.7073396e-08
6.7225875e-08
6.7388999e-08
6.7561757e-08
6.7742233e-08
6.7907271e-08
6.8044866e-08
6.8136699e-08
6.815383e-08
6.8046595e-08
6.7700638e-08
6.7044689e-08
6.7093184e-08
6.7148621e-08
6.7210452e-08
6.7278134e-08
6.7351184e-08
6.7429244e-08
6.7512155e-08
6.760002e-08
6.769325e-08
6.7792585e-08
6.7899057e-08
6.8013885e-08
6.8138304e-08
6.8273316e-08
6.8419407e-08
6.857627e-08
6.8742607e-08
6.8915523e-08
6.9073583e-08
6.9204499e-08
6.9289428e-08
6.9298712e-08
6.9181295e-08
6.8818844e-08
6.8244089e-08
6.8288717e-08
6.8339694e-08
6.839652e-08
6.845871e-08
6.8525848e-08
6.8597655e-08
6.8674054e-08
6.8755234e-08
6.8841697e-08
6.893427e-08
6.9034065e-08
6.914237e-08
6.9260461e-08
6.9389349e-08
6.9529496e-08
6.9680587e-08
6.9841538e-08
7.0006056e-08
7.0156716e-08
7.0280575e-08
7.035831e-08
7.0359766e-08
7.0232987e-08
6.9853616e-08
6.9343484e-08
6.9384733e-08
6.9431816e-08
6.9484273e-08
6.954167e-08
6.9603649e-08
6.9669993e-08
6.9740694e-08
6.9816012e-08
6.989652e-08
6.9983113e-08
7.0076966e-08
7.0179413e-08
7.0291753e-08
7.0414994e-08
7.0549598e-08
7.0695348e-08
7.0850987e-08
7.1006488e-08
7.1149117e-08
7.1265367e-08
7.1335499e-08
7.1329148e-08
7.1194329e-08
7.0799763e-08
7.0338278e-08
7.0376604e-08
7.0420315e-08
7.0468986e-08
7.0522224e-08
7.0579718e-08
7.0641307e-08
7.0707036e-08
7.0777224e-08
7.0852498e-08
7.0933808e-08
7.1022372e-08
7.1119554e-08
7.1226654e-08
7.1344644e-08
7.1473978e-08
7.1614921e-08
7.1762961e-08
7.1909269e-08
7.204338e-08
7.2151426e-08
7.2213419e-08
7.2199142e-08
7.2058178e-08
7.1670692e-08
7.1225271e-08
7.1261086e-08
7.1301884e-08
7.1347269e-08
7.1396883e-08
7.1450458e-08
7.1507875e-08
7.1569227e-08
7.1634879e-08
7.1705503e-08
7.1782089e-08
7.1865887e-08
7.1958278e-08
7.2060542e-08
7.2173533e-08
7.2297288e-08
7.2430556e-08
7.2569436e-08
7.2706622e-08
7.2831897e-08
7.2931156e-08
7.2984294e-08
7.2961218e-08
7.2812032e-08
7.2418233e-08
7.1989574e-08
7.2023291e-08
7.2061655e-08
7.2104294e-08
7.2150877e-08
7.2201168e-08
7.225508e-08
7.2312738e-08
7.237453e-08
7.2441147e-08
7.2513579e-08
7.2593065e-08
7.2680944e-08
7.2778416e-08
7.2886196e-08
7.3004077e-08
7.3130385e-08
7.3261229e-08
7.3389816e-08
7.3506145e-08
7.3596122e-08
7.3639709e-08
7.360704e-08
7.3448592e-08
7.3045625e-08
7.261786e-08
7.2649885e-08
7.2686293e-08
7.2726729e-08
7.2770886e-08
7.2818548e-08
7.286965e-08
7.2924338e-08
7.2983012e-08
7.3046358e-08
7.3115353e-08
7.3191205e-08
7.3275197e-08
7.3368437e-08
7.3471515e-08
7.3584043e-08
7.3704111e-08
7.3827686e-08
7.3948083e-08
7.4055428e-08
7.4135751e-08
7.4169251e-08
7.4126529e-08
7.3958965e-08
7.3549189e-08
7.3094883e-08
7.3125583e-08
7.3160469e-08
7.3199195e-08
7.3241467e-08
7.3287082e-08
7.3335987e-08
7.3388343e-08
7.3444553e-08
7.3505287e-08
7.3571498e-08
7.364436e-08
7.3725098e-08
7.3814724e-08
7.3913736e-08
7.402162e-08
7.4136242e-08
7.4253261e-08
7.4365903e-08
7.446437e-08
7.4534893e-08
7.4558048e-08
7.4505094e-08
7.4328544e-08
7.3915758e-08
7.3393545e-08
7.3423259e-08
7.3457058e-08
7.3494557e-08
7.3535447e-08
7.3579533e-08
7.3626772e-08
7.3677346e-08
7.3731658e-08
7.3790356e-08
7.3854366e-08
7.3924852e-08
7.4003016e-08
7.4089717e-08
7.4185521e-08
7.4289905e-08
7.4400501e-08
7.45121e-08
7.4617751e-08
7.4707786e-08
7.4768778e-08
7.478185e-08
7.471913e-08
7.4534676e-08
7.4118747e-08
7.3457541e-08
7.3486599e-08
7.3519899e-08
7.3556845e-08
7.3596863e-08
7.3639871e-08
7.3685878e-08
7.3735105e-08
7.3787957e-08
7.3845077e-08
7.3907381e-08
7.3976134e-08
7.4052755e-08
7.4137431e-08
7.4231526e-08
7.4334925e-08
7.4445406e-08
7.4553957e-08
7.4654188e-08
7.4736805e-08
7.4789193e-08
7.4793389e-08
7.4722341e-08
7.4532385e-08
7.4125189e-08
7.3110191e-08
7.3138876e-08
7.3172912e-08
7.3210943e-08
7.3250734e-08
7.3292951e-08
7.3337914e-08
7.3385929e-08
7.3437343e-08
7.3493029e-08
7.3553911e-08
7.3621978e-08
7.3700851e-08
7.3785304e-08
7.388159e-08
7.3992665e-08
7.4123604e-08
7.4235672e-08
7.4335539e-08
7.4412578e-08
7.4458374e-08
7.4458335e-08
7.4382226e-08
7.4192085e-08
7.3806288e-08
)
;

boundaryField
{
    Walls
    {
        type            nutUWallFunction;
        Cmu             0.09;
        kappa           0.41;
        E               9.8;
        value           uniform 0;
    }
    Inlet
    {
        type            calculated;
        value           nonuniform List<scalar> 3(3.2619674e-05 6.0252493e-05 7.772893e-07);
    }
    Outlet
    {
        type            calculated;
        value           nonuniform List<scalar> 
86
(
7.3039169e-08
7.3043642e-08
7.3053426e-08
7.3068095e-08
7.308718e-08
7.3110191e-08
7.3138876e-08
7.3172912e-08
7.3210943e-08
7.3250734e-08
7.3292951e-08
7.3337914e-08
7.3385929e-08
7.3437343e-08
7.3493029e-08
7.3553911e-08
7.3621978e-08
7.3700851e-08
7.3785304e-08
7.388159e-08
7.3992665e-08
7.4123604e-08
7.4235672e-08
7.4335539e-08
7.4412578e-08
7.4458374e-08
7.4458335e-08
7.4382226e-08
7.4192085e-08
7.3806288e-08
1.4324338e-05
1.4872854e-05
1.3457863e-05
0
0
0
0
4.7351536e-06
4.6182531e-06
4.1573801e-06
0
0
0
0
0
0
0
0
0
0
0
0
0
0
0
0
0
0
0
0
0
0
0
0
0
0
0
0
0
0
0
0
0
0
0
0
0
0
0
7.3806288e-08
0
0
0
0
1.3202641e-05
1.483966e-05
)
;
    }
    Front
    {
        type            wedge;
    }
    Back
    {
        type            wedge;
    }
    defaultFaces
    {
        type            empty;
    }
}


// ************************************************************************* //
