/*--------------------------------*- C++ -*----------------------------------*\
| =========                 |                                                 |
| \\      /  F ield         | OpenFOAM: The Open Source CFD Toolbox           |
|  \\    /   O peration     | Version:  4.0                                   |
|   \\  /    A nd           | Web:      www.OpenFOAM.org                      |
|    \\/     M anipulation  |                                                 |
\*---------------------------------------------------------------------------*/
FoamFile
{
    version     2.0;
    format      ascii;
    class       volScalarField;
    location    "0.48";
    object      p;
}
// * * * * * * * * * * * * * * * * * * * * * * * * * * * * * * * * * * * * * //

dimensions      [0 2 -2 0 0 0 0];

internalField   nonuniform List<scalar> 
1740
(
491.31946
491.31359
491.33879
474.09574
474.09345
474.051
457.21411
457.2197
457.14968
440.69313
440.47239
440.6844
423.95231
423.74974
424.0092
407.08619
407.27155
407.19157
390.36981
390.57184
390.46428
373.61658
373.62682
373.55867
356.91165
356.81688
356.67914
340.19605
340.03631
340.01335
323.34162
323.2243
323.09842
306.42304
306.35903
306.14678
289.63399
289.45987
289.55522
273.05692
273.02941
273.30936
256.78644
257.05507
257.10084
240.73516
240.83304
240.87175
224.61513
224.62638
224.91629
208.51614
208.68438
208.63456
192.34061
192.3805
191.95686
175.9413
175.84044
175.68314
159.40519
159.42035
159.64121
142.86805
143.07177
143.31341
126.57441
126.69741
126.69596
110.17171
110.04638
110.0029
93.56041
93.522396
93.541013
77.173475
77.274302
77.067626
61.123413
61.041606
60.767785
45.686723
45.531966
45.495818
30.707731
30.530999
30.534643
16.171205
15.815574
15.48876
3.9961352
3.3717504
1.5695228
-0.72476499
-0.66026667
-0.44020503
-0.22327879
-0.20303676
-0.15346105
-0.043493155
-0.039853839
-0.031939793
0.0021225517
0.0024111753
0.0028161117
0.014951611
0.014086598
0.01225914
0.018423052
0.017235298
0.014801821
0.018768362
0.017632261
0.015291688
0.018221037
0.017244555
0.015224986
0.017494891
0.016694096
0.015032567
0.016734311
0.016093202
0.014755466
0.01593392
0.015421206
0.01434472
0.015100149
0.014686954
0.013814604
0.014262322
0.013926859
0.013215278
0.013455339
0.01318115
0.012597137
0.012706032
0.012480108
0.011997283
0.012024829
0.01183705
0.011434535
0.011409244
0.011251787
0.010913285
0.010851277
0.010718101
0.010431125
0.010341893
0.010228347
0.0099832253
0.0098730093
0.0097754809
0.0095646018
0.0094379048
0.00935355
0.0091708921
0.0090309735
0.0089575338
0.0087983052
0.0086474006
0.0085830691
0.0084434223
0.008282933
0.0082262528
0.008103079
0.0079337602
0.0078835508
0.0077743285
0.0075964886
0.0075517898
0.0074544676
0.0072681669
0.0072281937
0.0071410926
0.0069462939
0.0069104006
0.006832132
0.0066287793
0.0065964308
0.0065258443
0.0063139068
0.0062846597
0.0062208017
0.0060002976
0.0059737846
0.0059158642
0.0056868666
0.0056627862
0.0056101537
0.0053728087
0.0053509131
0.0053030347
0.0050575686
0.0050376536
0.0049940876
0.0047407956
0.0047226909
0.0046830705
0.0044223001
0.0044058645
0.0043698848
0.0041020213
0.0040871377
0.004054546
0.0037799955
0.0037665668
0.0037371537
0.0034563265
0.0034442726
0.0034178646
0.0031311622
0.0031204165
0.0030968699
0.0028046741
0.0027951816
0.0027743776
0.002477042
0.0024687574
0.0024505981
0.0021484432
0.0021413295
0.0021257347
0.0018190504
0.0018130774
0.0017999819
0.0014890378
0.0014841815
0.0014735334
0.001158591
0.0011548325
0.0011465909
0.00082792069
0.00082524561
0.00081937936
0.00049732168
0.00049571997
0.00049220592
0.00016613583
0.00016560226
0.00016443032
-1.3460406
-0.94803116
-0.35597616
-0.27566744
-0.12293882
-0.11208471
-0.031149365
-0.03547409
-0.00056667582
-0.0058677851
0.0085005375
0.0038843377
0.011141875
0.0069905055
0.012035247
0.0083957394
0.012466714
0.00935408
0.012758516
0.010151132
0.012905788
0.010744521
0.012839924
0.011052477
0.012584378
0.011103082
0.012203528
0.010970475
0.011760372
0.010729529
0.011300928
0.010435096
0.010850709
0.010119199
0.010419998
0.0097978481
0.010011257
0.0094785677
0.0096233061
0.0091643031
0.0092539719
0.0088560275
0.0089010744
0.0085540317
0.0085625122
0.0082581602
0.0082361737
0.0079678237
0.0079199219
0.0076821004
0.0076116346
0.0073998536
0.0073092707
0.0071198393
0.0070109545
0.0068408224
0.0067150361
0.0065616694
0.0064201171
0.0062814072
0.0061250518
0.0059992422
0.0058289364
0.0057145666
0.0055310957
0.0054269575
0.0052310631
0.0051361586
0.0049285539
0.0048420555
0.0046234355
0.0045446552
0.0043157004
0.0042440662
0.0040054403
0.0039404769
0.0036928184
0.0036341312
0.0033780443
0.0033253062
0.0030613529
0.0030142932
0.002742989
0.0027013832
0.0024231933
0.0023868562
0.0021021953
0.0020709747
0.0017802119
0.0017539846
0.001457456
0.0014361234
0.0011341458
0.0011176303
0.0008105202
0.00079876222
0.00048689824
0.00047985314
0.00016265978
0.0001603095
0.0001142778
-0.00052869302
-0.0015445758
-0.0025623146
-0.0033601664
-0.0038549665
-0.0040428212
-0.0039804254
-0.0037455754
-0.0034136905
-0.0030465251
-0.0026783288
-0.0023337436
-0.0020225657
-0.0017464962
-0.0015030264
-0.0012879922
-0.0010968234
-0.00092489568
-0.00076750178
-0.00061999572
-0.00047870713
-0.00034098696
-0.00020421155
-6.4581399e-05
-0.00059781607
-0.0013243146
-0.0023825468
-0.0033534097
-0.0040311292
-0.0043919538
-0.0044656998
-0.0043345574
-0.0040831535
-0.0037782071
-0.0034607488
-0.0031539424
-0.002865334
-0.0025970264
-0.0023478305
-0.0021142792
-0.0018900923
-0.0016673806
-0.0014464462
-0.0012259303
-0.0010028339
-0.00077771295
-0.00055184737
-0.00032403104
-9.472729e-05
-0.0065865287
-0.0074601309
-0.0085289943
-0.0092757711
-0.0096289258
-0.0096853492
-0.009645129
-0.0096104583
-0.0095313917
-0.0093758793
-0.009129349
-0.0087882325
-0.0083611338
-0.0078610858
-0.0072977049
-0.0066802617
-0.0060201821
-0.0053313158
-0.0046198016
-0.0038926951
-0.0031506436
-0.0024049657
-0.0016669975
-0.00094694664
-0.00026578795
-0.025519738
-0.026558513
-0.027419612
-0.027741063
-0.027691216
-0.02736095
-0.026880247
-0.026181931
-0.025286583
-0.024216526
-0.022984253
-0.021613629
-0.020140349
-0.018587692
-0.016971128
-0.015308555
-0.013616919
-0.01191151
-0.010208364
-0.0085318088
-0.0068678906
-0.0052331431
-0.0036373281
-0.0020925738
-0.00063510718
-0.082687304
-0.080883117
-0.078471946
-0.073733706
-0.068699851
-0.063406459
-0.058394322
-0.053564975
-0.048902275
-0.044441685
-0.040172919
-0.036101045
-0.032218708
-0.028423059
-0.024898518
-0.021645988
-0.018646956
-0.015879949
-0.013318831
-0.010926052
-0.0087008937
-0.0066118683
-0.0046368627
-0.0027520996
-0.00093834911
-0.2510816
-0.20037591
-0.17566867
-0.14181036
-0.11429148
-0.091046034
-0.071607067
-0.055938429
-0.043431201
-0.033440003
-0.025536747
-0.019365974
-0.01457435
-0.010905941
-0.0080091313
-0.0057763354
-0.0040754133
-0.002796844
-0.0018557557
-0.0011841196
-0.00073227486
-0.00044786025
-0.00028726698
-0.00020650922
-0.00020612196
-0.35401897
-0.13851567
-0.084509869
-0.047515373
-0.014127884
0.012183806
0.028950458
0.037218047
0.040148735
0.040308811
0.038937128
0.036627907
0.033760351
0.030617852
0.027390311
0.024194981
0.021104413
0.018157189
0.015361877
0.012709873
0.010181498
0.0077563848
0.0054077827
0.0031243054
0.00081935305
-0.22031036
-0.18615988
-0.15454915
-0.12574698
-0.10070303
-0.079471814
-0.061919742
-0.047823232
-0.036689657
-0.027825878
-0.020864679
-0.015455051
-0.011270781
-0.0080281633
-0.0055492575
-0.0036919205
-0.0023246934
-0.0013343664
-0.00064859336
-0.00020867557
3.5082606e-05
0.00012787658
0.00010912786
2.1305104e-05
-0.00013978568
-0.10897484
-0.10113423
-0.091744008
-0.08286574
-0.074940246
-0.067755988
-0.061312615
-0.055386079
-0.049844304
-0.044823794
-0.040157372
-0.035708471
-0.031549472
-0.027723004
-0.024220133
-0.021044319
-0.018132689
-0.015414659
-0.012900492
-0.010574099
-0.0084132069
-0.0063933229
-0.0044902356
-0.0026746781
-0.00092135265
-0.039753496
-0.040409097
-0.039156487
-0.03739471
-0.035627536
-0.033870908
-0.032203928
-0.030562073
-0.028897291
-0.027231069
-0.025543533
-0.023818409
-0.022050228
-0.020241436
-0.018394893
-0.016493406
-0.01458933
-0.01273848
-0.010912556
-0.0091087526
-0.0073306789
-0.0055849613
-0.0038814602
-0.0022338739
-0.00068179491
-0.010530077
-0.013068122
-0.013826975
-0.013606974
-0.013059133
-0.012517485
-0.012058359
-0.011676271
-0.0113261
-0.010973884
-0.010589735
-0.010155212
-0.009659536
-0.0090950507
-0.0084567122
-0.0077395381
-0.006965828
-0.0061619279
-0.0053323746
-0.0044826954
-0.0036209213
-0.002757479
-0.0019048181
-0.0010760678
-0.00030008337
-0.00027023662
-0.0031288434
-0.0045696564
-0.0049229948
-0.0047718508
-0.0044547523
-0.0040561442
-0.0036565616
-0.0033402106
-0.003115775
-0.0029632562
-0.0028638866
-0.0028002707
-0.0027060421
-0.0025715564
-0.0023894978
-0.0021802886
-0.001953351
-0.0017119152
-0.0014583439
-0.0011953485
-0.00092634852
-0.00065450973
-0.00038071319
-0.00010679432
0.0031512572
0.00015554328
-0.0018420441
-0.0029341705
-0.003251554
-0.0032041143
-0.0029572572
-0.0026410477
-0.0023177243
-0.0020262314
-0.0017779784
-0.0015591842
-0.0013515831
-0.0011836308
-0.0010422728
-0.00092586302
-0.0008176769
-0.00071595688
-0.00061915158
-0.00052557883
-0.00043385732
-0.00034258167
-0.00024986411
-0.00015292054
-4.7105572e-05
0.0049205771
0.0019990197
-0.00021625428
-0.0017305948
-0.0026242128
-0.0029650485
-0.0029847245
-0.0028240705
-0.0025966034
-0.0023371792
-0.0020748408
-0.0018238148
-0.0015907123
-0.0013862536
-0.0012099634
-0.0010597301
-0.00092494255
-0.00080030775
-0.00068278736
-0.00057040758
-0.00046175963
-0.00035572866
-0.00025169664
-0.00014869912
-4.6130746e-05
0.0062823925
0.0035625748
0.0013536146
-0.00029766448
-0.0014221235
-0.0020917723
-0.0024413354
-0.0025723148
-0.0025278834
-0.002384277
-0.0021882995
-0.0019697764
-0.0017480057
-0.0015367623
-0.0013442069
-0.001171698
-0.0010150589
-0.0008709883
-0.00073668333
-0.0006097163
-0.00048838213
-0.00037166426
-0.00025912328
-0.0001503259
-4.5253761e-05
0.0074904878
0.0050141528
0.0028913443
0.0011957617
-7.1591345e-05
-0.00095036532
-0.0015153103
-0.0018375813
-0.0019740265
-0.0019782356
-0.0018973387
-0.0017643634
-0.0016038633
-0.0014340785
-0.0012669553
-0.0011085574
-0.00096017372
-0.00082162655
-0.00069194043
-0.00056981275
-0.00045403757
-0.00034367828
-0.00023793761
-0.00013670745
-4.0038843e-05
0.0084815413
0.0062914121
0.0043206332
0.002651362
0.0013138424
0.00029892373
-0.00043101082
-0.00092218749
-0.0012218692
-0.0013743642
-0.001419293
-0.0013895508
-0.0013113549
-0.0012052142
-0.0010856483
-0.00096199487
-0.00083945935
-0.00072094501
-0.00060773524
-0.00050005629
-0.00039766207
-0.00030009281
-0.0002068416
-0.00011678996
-3.1364629e-05
0.0091401832
0.0072422007
0.0054623131
0.0038791053
0.0025431728
0.0014659972
0.00063367441
1.835014e-05
-0.00041303521
-0.00069460159
-0.00085866946
-0.00093423171
-0.00094599103
-0.00091393995
-0.0008538421
-0.00077703727
-0.0006913136
-0.00060197364
-0.00051236064
-0.0004242733
-0.00033871232
-0.0002561072
-0.00017653412
-9.9478203e-05
-2.5786311e-05
0.009486004
0.0078439158
0.0062598352
0.0048056725
0.003529184
0.0024518051
0.0015743062
0.00088387185
0.00036024666
-2.0783728e-05
-0.00028399681
-0.00045309198
-0.00054949222
-0.00059143559
-0.00059405167
-0.00056937961
-0.00052649467
-0.00047194078
-0.00041042058
-0.00034533718
-0.00027888629
-0.00021245554
-0.00014690485
-8.2651933e-05
-2.139919e-05
0.0096020844
0.0081831717
0.0067878226
0.0054752703
0.0042864591
0.0032462948
0.0023642399
0.0016379384
0.0010568603
0.00060543348
0.00026581902
1.9764887e-05
-0.00015011541
-0.00025951202
-0.00032208113
-0.00034929536
-0.00035043184
-0.00033271019
-0.00030172072
-0.0002617856
-0.00021611113
-0.00016705395
-0.00011640404
-6.5179671e-05
-1.5934256e-05
0.0095696431
0.0083468225
0.0071232449
0.0059474475
0.0048553222
0.003871913
0.003011012
0.0022767947
0.0016657395
0.00116905
0.00077482421
0.00046974416
0.00024027413
7.3491315e-05
-4.2370373e-05
-0.00011763487
-0.00016110203
-0.00018010222
-0.00018063124
-0.00016753531
-0.00014468476
-0.00011515871
-8.1533734e-05
-4.5291474e-05
-9.6166844e-06
0.0094495424
0.0083958347
0.0073231451
0.0062730707
0.0052773996
0.0043597918
0.0035357707
0.0028129835
0.0021926155
0.0016708791
0.0012406228
0.00089268752
0.00061698447
0.00040330359
0.00024188994
0.00012378387
4.0986998e-05
-1.3478882e-05
-4.5590904e-05
-6.0402033e-05
-6.2143887e-05
-5.4351833e-05
-4.0159726e-05
-2.1463374e-05
-1.9816101e-06
0.0092781892
0.0083679196
0.0074273731
0.0064910565
0.005587417
0.0047384401
0.003959774
0.0032609409
0.0026459488
0.0021144624
0.001662989
0.0012857307
0.00097555281
0.00072469964
0.00052534854
0.00036996555
0.00025153533
0.00016368815
0.00010074617
5.7719746e-05
3.0261937e-05
1.4606156e-05
7.3320426e-06
6.0576096e-06
6.7785267e-06
0.0090763525
0.008287079
0.007461179
0.0066271452
0.0058096871
0.0050287663
0.0042993978
0.0036319669
0.003032194
0.0025022377
0.0020410689
0.0016455068
0.0013108556
0.0010314918
0.00080134892
0.00061427911
0.00046430784
0.00034579838
0.00025354277
0.00018280293
0.00012931801
8.9275709e-05
5.9159314e-05
3.6276171e-05
1.6417408e-05
0.0088561641
0.0081689779
0.0074419952
0.0066988735
0.0059607238
0.0052452766
0.0045665418
0.003934718
0.0033566936
0.0028362084
0.0023740177
0.00196892
0.0016181341
0.0013178006
0.0010633894
0.00085003335
0.00067277722
0.00052676353
0.000407347
0.00031016662
0.00023118255
0.00016668025
0.00011320054
6.7903033e-05
2.6547278e-05
0.0086244212
0.0080234949
0.0073817881
0.0067188665
0.0060526535
0.005398713
0.0047698266
0.0041758222
0.0036238905
0.0031183943
0.0026616461
0.002253886
0.0018937986
0.0015789435
0.0013060899
0.0010715073
0.00087119909
0.00070107878
0.00055710326
0.00043536079
0.00033212767
0.0002438958
0.0001673526
9.9704281e-05
3.6759275e-05
0.0083852231
0.0078574679
0.0072892728
0.0066968336
0.006095317
0.0054982424
0.0049171033
0.0043612204
0.0038375898
0.0033510151
0.0029045677
0.0024994996
0.0021356428
0.0018116954
0.0015255083
0.0012743369
0.0010550509
0.00086429776
0.00069863849
0.00055464527
0.0004289714
0.00031839123
0.00021981311
0.00013058937
4.6645881e-05
0.0081413372
0.007675865
0.0071710815
0.0066404526
0.0060967981
0.0055518061
0.0050156929
0.0044969943
0.0040024468
0.0035371006
0.0031043
0.002705961
0.0023427351
0.0020142018
0.0017190944
0.0014555059
0.001221069
0.0010131091
0.00082877058
0.00066511729
0.00051920851
0.00038814819
0.00026911692
0.00015966038
5.5920196e-05
0.0078945891
0.007482259
0.0070322532
0.0065557738
0.0060636657
0.0055660044
0.0050717941
0.0045887586
0.0041232334
0.0036801678
0.0032631141
0.0028743901
0.0025151907
0.0021857428
0.0018854721
0.0016131629
0.0013671068
0.0011452368
0.00094524292
0.00076466799
0.00060098504
0.0004516493
0.00031414608
0.00018624618
6.4374819e-05
0.0076459631
0.007279144
0.0068765366
0.0064474924
0.0060011922
0.0055463073
0.0050907332
0.0046413945
0.0042041385
0.0037836911
0.0033836449
0.0030065367
0.0026539233
0.0023264987
0.002024218
0.0017464224
0.0014919575
0.0012592881
0.0010465995
0.00085188623
0.00067302551
0.00050783144
0.00035410603
0.00020986692
7.1856535e-05
0.0073958256
0.0070681409
0.0067066509
0.0063192011
0.0059135739
0.0054972268
0.0050770582
0.0046592395
0.0042491043
0.003851084
0.0034686885
0.0031045395
0.0027604161
0.0024373443
0.0021356777
0.0018551958
0.0015952016
0.0013546167
0.0011320665
0.0009259611
0.0007345628
0.00055603936
0.00038850692
0.00023021753
7.8266609e-05
0.0071441016
0.0068502102
0.0065245156
0.0061736146
0.0058041233
0.0054224548
0.0050346261
0.0046461134
0.0042617389
0.003885606
0.003521069
0.0031707355
0.0028365104
0.002519639
0.0022207674
0.0019400133
0.001677053
0.0014311934
0.0012014452
0.00098659329
0.00078526098
0.00059595727
0.000417105
0.00024715195
8.3555056e-05
0.006890414
0.0066258468
0.0063314388
0.0060127536
0.0056754269
0.0053249797
0.0049666586
0.0046053066
0.0042452523
0.0038902635
0.0035434986
0.0032074993
0.0028842123
0.0025750133
0.0022807535
0.0020018149
0.0017381701
0.0014894447
0.0012549781
0.001033887
0.00082512215
0.00062751413
0.00043979528
0.00026062656
8.7771176e-05
0.0066342313
0.0063952373
0.0061282942
0.0058381107
0.0055294964
0.0052072106
0.0048758261
0.004539614
0.0042024546
0.0038677792
0.0035385304
0.0032171456
0.0029055577
0.0026052117
0.0023170975
0.0020417911
0.0017794955
0.0015300939
0.0012932054
0.0010682295
0.00085440162
0.00065083843
0.00045656929
0.00027064806
9.1053463e-05
0.0063749941
0.0061584173
0.0059156975
0.0056508352
0.0053679443
0.0050711314
0.0047643821
0.0044514616
0.0041358409
0.0038206313
0.0035085519
0.0032019073
0.0029025811
0.0026120446
0.0023313741
0.0020612805
0.0018021439
0.0015540587
0.0013168696
0.0010902151
0.00087357211
0.00066630325
0.0004676917
0.00027732096
9.3392893e-05
0.0061122069
0.0059153929
0.0056941513
0.0054518928
0.0051921471
0.004918463
0.004634317
0.0043430287
0.0040476943
0.0037511284
0.0034558292
0.0031639547
0.0028773134
0.0025973674
0.0023252393
0.0020617349
0.0018073702
0.0015624028
0.0013268634
0.0011005926
0.00088327816
0.00067449907
0.0004737651
0.00028092093
9.4509824e-05
0.0058454805
0.0056662038
0.0054641253
0.0052421624
0.0050033531
0.0047507716
0.004487454
0.0042163271
0.0039401487
0.0036614582
0.0033825411
0.0031054048
0.0028317674
0.0025630536
0.0023004053
0.0020446915
0.0017965269
0.0015562951
0.0013241792
0.0011001903
0.00088420119
0.00067598331
0.00047524446
0.00028172831
9.4224811e-05
0.0055745462
0.0054109487
0.0052260917
0.005022478
0.0048027282
0.0045695128
0.0043254875
0.0040732336
0.0038152056
0.0035536896
0.003290769
0.0030283025
0.0027679089
0.0025109623
0.0022585991
0.0020117228
0.0017710159
0.0015369594
0.0013098561
0.0010898539
0.00087697579
0.0006711453
0.00047220118
0.00027988966
9.3236896e-05
0.0052992684
0.0051498008
0.0049805395
0.0047936375
0.004591361
0.004376034
0.0041499827
0.0039154846
0.0036747243
0.0034297565
0.0031824761
0.0029345966
0.0026876346
0.0024429043
0.0022015176
0.0019643885
0.0017322431
0.0015056319
0.0012849475
0.0010704442
0.00086226018
0.00066043236
0.0004648956
0.00027554151
9.1599725e-05
0.0050196317
0.0048830022
0.0047279758
0.0045564096
0.004370268
0.0041715764
0.0039623743
0.0037446724
0.0035204155
0.0032914485
0.0030594912
0.002826117
0.0025927396
0.0023606052
0.0021307887
0.0019041978
0.0016815797
0.0014635305
0.0012505071
0.0010428438
0.0008407678
0.00064441064
0.00045380402
0.00026896487
8.9278321e-05
0.0047357193
0.0046108517
0.0044689226
0.0043115382
0.0041404043
0.0039572886
0.0037639809
0.0035622577
0.0033538493
0.0031404114
0.002923501
0.0027045583
0.0024848938
0.0022656801
0.0020479463
0.0018325808
0.0016203343
0.0014118275
0.001207561
0.0010079262
0.00081321768
0.00062364342
0.00043932491
0.0002603825
8.6334222e-05
0.0044477013
0.0043336986
0.004203917
0.0040597481
0.0039026755
0.003734243
0.0035560231
0.0033695851
0.0031764679
0.0029781553
0.0027760539
0.0025714775
0.0023656351
0.0021596218
0.0019544146
0.0017508709
0.0015497317
0.0013516263
0.0011570805
0.00096652405
0.00078030043
0.00059867702
0.00042184929
0.00025002555
8.2842337e-05
0.0041558213
0.0040519364
0.0039335097
0.0038017484
0.0036579438
0.0035034451
0.0033396333
0.0031678945
0.0029895959
0.0028060642
0.0026185677
0.002428301
0.0022363733
0.002043801
0.0018515028
0.0016602973
0.0014709043
0.0012839492
0.0010999673
0.00091941105
0.00074265811
0.00057002042
0.0004017512
0.00023812287
7.886002e-05
0.0038603807
0.0037659912
0.0036582584
0.0035382297
0.0034070288
0.0032658349
0.0031158596
0.0029583257
0.0027944455
0.002625403
0.0024523377
0.0022763312
0.0020983964
0.0019194704
0.0017404094
0.0015619867
0.0013848926
0.0012097369
0.0010370527
0.00086730233
0.00070088401
0.00053814094
0.00037936748
0.00022486824
7.4437389e-05
0.0035617187
0.0034763065
0.0033787163
0.0032698559
0.003150703
0.0030222862
0.0028856673
0.0027419219
0.0025921224
0.0024373219
0.00227854
0.0021167511
0.001952875
0.0017877698
0.0016222267
0.0014569688
0.0012926494
0.001129854
0.0009691035
0.00081085875
0.00065552709
0.00050346954
0.00035500336
0.00021043617
6.9624505e-05
0.0032601915
0.0031833259
0.0030954189
0.0029972564
0.0028896866
0.0027736052
0.0026499392
0.002519632
0.0023836283
0.0022428604
0.0020982362
0.0019506285
0.0018008666
0.0016497303
0.0014979446
0.0013461781
0.0011950416
0.0010450892
0.00089682079
0.0007506855
0.00060708829
0.00046639509
0.00032892475
0.00019498652
6.4483439e-05
0.002956156
0.0028874794
0.0028088741
0.0027210177
0.0026246435
0.0025205277
0.0024094765
0.0022923129
0.0021698649
0.0020429529
0.0019123798
0.0017789217
0.0016433206
0.0015062783
0.0013684527
0.0012304553
0.0010928496
0.00095615223
0.00082083435
0.00068732438
0.00055601314
0.00042725772
0.00030136625
0.00017866147
5.9078099e-05
0.0026499582
0.0025891741
0.0025195538
0.002441678
0.0023561766
0.0022637182
0.0021649992
0.002060733
0.0019516393
0.0018384344
0.0017218222
0.0016024865
0.0014810843
0.0013582406
0.0012345454
0.0011105505
0.00098676854
0.00086367343
0.00074170103
0.00062125109
0.00050269029
0.00038635607
0.00027254724
0.00016158278
5.3431503e-05
0.0023419242
0.0022887874
0.0022278899
0.002159725
0.002084829
0.0020037723
0.001917151
0.0018255769
0.0017296694
0.001630047
0.0015273197
0.0014220826
0.00131491
0.0012063514
0.0010969278
0.00098712969
0.00087741562
0.00076821216
0.00065991436
0.00055288689
0.00044746624
0.00034396368
0.00024266578
0.00014385882
4.7541309e-05
0.0020323557
0.001986665
0.0019342748
0.0018755988
0.0018110879
0.0017412223
0.001666505
0.0015874533
0.0015045925
0.0014184486
0.0013295422
0.0012383828
0.0011454642
0.001051261
0.0009562251
0.0008607839
0.00076533922
0.00067026677
0.00057591638
0.00048261291
0.00039065815
0.00030033319
0.00021189925
0.00012560678
4.1471164e-05
0.0017215326
0.0016831245
0.0016390662
0.0015896985
0.001535393
0.0014765462
0.0014135739
0.0013469052
0.0012769761
0.0012042247
0.0011290856
0.0010519857
0.00097333994
0.00089354856
0.00081299411
0.00073203996
0.00065102904
0.00057028341
0.0004901044
0.00041077329
0.00033255285
0.00025568876
0.00018040631
0.00010692786
3.5277735e-05
0.0014097215
0.0013784647
0.0013425976
0.0013023928
0.0012581478
0.0012101805
0.0011588247
0.0011044254
0.0010473341
0.00098790428
0.00092648789
0.00086343112
0.00079907164
0.00073373589
0.00066773697
0.00060137318
0.00053492705
0.00046866489
0.00040283684
0.00033767732
0.00027340614
0.00021022907
0.00014833377
8.7911155e-05
2.8988666e-05
0.0010971864
0.0010729776
0.0010451905
0.0010140336
0.00097973428
0.00094253579
0.0009026938
0.00086047291
0.00081614328
0.00076997715
0.00072224576
0.00067321668
0.0006231513
0.00057230287
0.00052091489
0.00046921994
0.00041743891
0.00036578064
0.0003144419
0.00026360759
0.00021345157
0.00016413694
0.00011581369
6.8636281e-05
2.2630773e-05
0.00078420536
0.0007669648
0.00074717203
0.00072497399
0.00070053104
0.00067401481
0.00064560587
0.00061549128
0.00058386229
0.00055091192
0.00051683278
0.00048181511
0.00044604497
0.0004097029
0.00037296278
0.00033599099
0.00029894591
0.00026197757
0.00022522768
0.00018882972
0.00015290957
0.00011758609
8.2968942e-05
4.9173588e-05
1.6218582e-05
0.0004711302
0.00046079794
0.00044893462
0.0004356276
0.00042097231
0.00040507095
0.00038803113
0.00036996444
0.00035098501
0.00033120815
0.00031074911
0.00028972175
0.00026823759
0.00024640487
0.00022432795
0.00020210687
0.00017983687
0.00015760834
0.00013550679
0.00011361296
9.2003352e-05
7.0750903e-05
4.9923079e-05
2.9590325e-05
9.7615385e-06
0.00015739934
0.00015395211
0.0001499938
0.00014555342
0.00014066266
0.00013535548
0.00012966769
0.00012363644
0.00011729973
0.00011069598
0.00010386357
9.6840473e-05
8.9663908e-05
8.2370014e-05
7.4993628e-05
6.7568148e-05
6.0125395e-05
5.2695546e-05
4.530718e-05
3.7987368e-05
3.0761914e-05
2.3655835e-05
1.6692085e-05
9.8938461e-06
3.2639709e-06
)
;

boundaryField
{
    Walls
    {
        type            zeroGradient;
    }
    Inlet
    {
        type            fixedValue;
        value           uniform 500;
    }
    Outlet
    {
        type            fixedValue;
        value           uniform 0;
    }
    Front
    {
        type            wedge;
    }
    Back
    {
        type            wedge;
    }
    defaultFaces
    {
        type            empty;
    }
}


// ************************************************************************* //
