/*--------------------------------*- C++ -*----------------------------------*\
| =========                 |                                                 |
| \\      /  F ield         | OpenFOAM: The Open Source CFD Toolbox           |
|  \\    /   O peration     | Version:  4.0                                   |
|   \\  /    A nd           | Web:      www.OpenFOAM.org                      |
|    \\/     M anipulation  |                                                 |
\*---------------------------------------------------------------------------*/
FoamFile
{
    version     2.0;
    format      ascii;
    class       volVectorField;
    location    "0.48";
    object      U;
}
// * * * * * * * * * * * * * * * * * * * * * * * * * * * * * * * * * * * * * //

dimensions      [0 1 -1 0 0 0 0];

internalField   nonuniform List<vector> 
1740
(
(1.5770611 -0.00034429532 5.5599139e-06)
(1.5227304 -0.0012538727 8.5015234e-07)
(1.5834229 -0.0024942597 1.0300316e-07)
(1.6000809 -0.0014130397 9.0578981e-06)
(1.5519094 0.00069700056 1.70911e-06)
(1.5681513 -0.00034240726 2.801575e-07)
(1.589009 -0.0015471642 1.1688317e-05)
(1.5320755 -0.0021194522 2.6328149e-06)
(1.6068887 -0.0035691567 4.2663474e-07)
(1.6156111 0.0095182708 1.3814857e-05)
(1.5335847 -0.0064926337 3.5085673e-06)
(1.5983008 -0.0099705305 6.0517257e-07)
(1.5205327 0.0013360012 1.5334287e-05)
(1.6398614 -0.0068298109 4.4825016e-06)
(1.5465185 -0.0091380965 7.8937323e-07)
(1.5670958 -0.010844541 1.6430904e-05)
(1.6401474 0.00052326342 5.3472371e-06)
(1.55678 0.007909788 9.8632004e-07)
(1.5640673 -0.013070467 1.7361716e-05)
(1.5449072 0.0019659498 6.2103293e-06)
(1.5528735 0.0025886474 1.1829783e-06)
(1.6307983 -0.0079668468 1.8095215e-05)
(1.548811 0.0056987054 6.8752307e-06)
(1.5493428 0.0027288653 1.3947785e-06)
(1.630247 0.013938654 1.8480981e-05)
(1.5414608 0.010934532 7.4024552e-06)
(1.5798854 -0.00067370998 1.5585333e-06)
(1.5233674 0.015056158 1.8954978e-05)
(1.5421148 0.011127795 8.0426073e-06)
(1.5809209 -0.0027875479 1.7670008e-06)
(1.5386437 0.0016908547 1.9775893e-05)
(1.5504342 0.0046880242 8.6280827e-06)
(1.5584402 0.00090518327 1.9466771e-06)
(1.5356396 0.0025539813 2.0317945e-05)
(1.558146 0.00047933034 9.0631928e-06)
(1.607482 -0.0024999194 2.1411387e-06)
(1.5131578 0.0069483415 2.0458704e-05)
(1.5391976 -0.0032504794 9.6525161e-06)
(1.5663182 -0.0066623033 2.3472171e-06)
(1.4875889 0.0019223026 2.0468345e-05)
(1.6041326 0.00075888178 1.0006399e-05)
(1.5667787 -0.00064171756 2.5236151e-06)
(1.460412 -0.020530416 2.0725842e-05)
(1.6045354 0.0081547751 1.0517782e-05)
(1.5681907 0.0095725606 2.7296849e-06)
(1.5716997 -0.020211147 2.1205439e-05)
(1.5048062 -0.010636449 1.0961535e-05)
(1.5835179 0.00044348562 2.9199232e-06)
(1.5734577 0.0047742495 2.1167483e-05)
(1.5883299 -0.028402323 1.1307541e-05)
(1.583405 -0.020737197 3.0724182e-06)
(1.5735574 0.0038055797 2.1061788e-05)
(1.6658851 -0.014118067 1.1760615e-05)
(1.5021147 -0.010885625 3.2909345e-06)
(1.5936919 -0.0021053946 2.1322951e-05)
(1.5713996 0.012574842 1.2145733e-05)
(1.5131789 0.0091009742 3.4511891e-06)
(1.6142945 -0.0051962263 2.1449235e-05)
(1.5589675 0.008798209 1.2567165e-05)
(1.5965393 0.0084507465 3.6062738e-06)
(1.6231558 0.0024562391 2.1814764e-05)
(1.5468636 -0.014484226 1.2884234e-05)
(1.5968715 -0.0083585107 3.7886494e-06)
(1.6073119 0.0043717497 2.2220059e-05)
(1.6154206 -0.019074576 1.3266832e-05)
(1.5138541 -0.013519243 3.9526084e-06)
(1.6154038 -0.0083121104 2.2393254e-05)
(1.6340222 0.0033431649 1.3635555e-05)
(1.5392258 0.0049813627 4.1062903e-06)
(1.6292639 -0.0078266704 2.244173e-05)
(1.524559 0.0015047226 1.3934165e-05)
(1.5291752 -0.00013179173 4.2587172e-06)
(1.625786 0.0099525024 2.2110729e-05)
(1.6107307 -0.0028405484 1.4173162e-05)
(1.5144612 -0.002862017 4.4043134e-06)
(1.5928775 0.010490933 2.1998551e-05)
(1.597242 0.025904053 1.443914e-05)
(1.5071733 0.015834085 4.5717821e-06)
(1.5788452 0.0073127704 2.2451155e-05)
(1.4493228 0.031351581 1.4658671e-05)
(1.5574107 0.024123073 4.7447209e-06)
(1.5251863 0.0083656513 2.2911446e-05)
(1.5053815 -0.001028421 1.4916265e-05)
(1.6182017 -0.0087862769 4.8849838e-06)
(1.4670125 -0.0056839722 2.2554895e-05)
(1.464645 -0.014972898 1.515545e-05)
(1.5241164 -0.010750725 4.8810436e-06)
(1.2760864 0.038883112 2.3467669e-05)
(1.2799487 0.085139401 1.5810753e-05)
(1.3740081 0.048555929 5.5264219e-06)
(0.83772258 0.36764225 1.1745058e-05)
(0.81965178 0.93599958 9.9920213e-06)
(0.75447638 1.2532556 5.4096486e-06)
(0.22025134 0.1147254 1.477694e-06)
(0.18570116 0.37202699 3.1143076e-06)
(0.088763832 0.5102373 7.0887779e-07)
(-0.036085885 -0.014165215 1.2186817e-06)
(-0.033109413 -0.029436539 1.6844486e-06)
(-0.021771157 -0.03402943 5.7215023e-07)
(-0.011992332 -0.0037854236 4.5057174e-07)
(-0.010993843 -0.0093070473 7.2966335e-07)
(-0.0083530861 -0.012331938 3.261543e-07)
(-0.0030967472 -0.00076169371 1.2216663e-07)
(-0.0028745682 -0.0017810689 2.3977797e-07)
(-0.0023518609 -0.002586963 1.0207852e-07)
(-0.00084581935 -0.00026355641 2.4445271e-08)
(-0.00077345418 -0.00057472058 5.0316187e-08)
(-0.00062373547 -0.00081348487 -1.3487293e-08)
(-0.0001823858 -9.7510707e-05 -5.4959045e-09)
(-0.00017061739 -0.00020920928 -1.6887356e-08)
(-0.00014566541 -0.00028071857 -5.871637e-08)
(2.878344e-05 -1.4543981e-05 -1.4481257e-08)
(1.6177373e-05 -2.4265738e-05 -3.733321e-08)
(-8.1603863e-06 -3.8377013e-05 -6.9687562e-08)
(8.2945717e-05 -2.9316744e-06 -1.4731114e-08)
(6.4263718e-05 -5.3501211e-08 -3.8361424e-08)
(2.6183822e-05 5.9231511e-07 -6.4387478e-08)
(9.1725656e-05 -1.8050434e-06 -1.1981244e-08)
(7.3344093e-05 -4.0297779e-06 -3.2157469e-08)
(3.5536256e-05 -1.069659e-05 -5.296017e-08)
(9.3558409e-05 -4.3408349e-06 -8.7757844e-09)
(7.7910018e-05 -1.2689226e-05 -2.4560851e-08)
(4.5607216e-05 -2.6135581e-05 -4.0815767e-08)
(9.5760906e-05 -3.0499666e-06 -6.3221356e-09)
(8.3486718e-05 -9.4631755e-06 -1.8130959e-08)
(5.7835459e-05 -2.1765586e-05 -3.0419304e-08)
(9.6405123e-05 -1.8538915e-06 -4.6172244e-09)
(8.6950347e-05 -2.2558316e-06 -1.3270276e-08)
(6.6862622e-05 -7.6147704e-06 -2.2261804e-08)
(9.3888711e-05 1.60253e-06 -3.4499387e-09)
(8.6544384e-05 3.6477566e-06 -9.6649946e-09)
(7.0691926e-05 2.9967084e-06 -1.6058445e-08)
(8.8287974e-05 3.2970613e-06 -2.5588583e-09)
(8.2549216e-05 7.5638615e-06 -6.9474815e-09)
(6.9983531e-05 9.8055072e-06 -1.1376271e-08)
(8.0865251e-05 3.4197677e-06 -1.8346435e-09)
(7.637129e-05 8.2387265e-06 -4.861956e-09)
(6.6405954e-05 1.1512471e-05 -7.8553881e-09)
(7.3151143e-05 2.9082658e-06 -1.2613233e-09)
(6.9614612e-05 7.0442547e-06 -3.2791592e-09)
(6.1691106e-05 1.0002381e-05 -5.2510381e-09)
(6.6104037e-05 2.2569596e-06 -8.309604e-10)
(6.3303382e-05 5.4443899e-06 -2.1279663e-09)
(5.6959614e-05 7.6288559e-06 -3.3908791e-09)
(6.0051914e-05 1.7883715e-06 -5.3530649e-10)
(5.7817261e-05 4.2244255e-06 -1.3365888e-09)
(5.2689493e-05 5.9633044e-06 -2.1198365e-09)
(5.4981012e-05 1.4667174e-06 -3.4389425e-10)
(5.3183418e-05 3.4909437e-06 -8.2050564e-10)
(4.9003959e-05 4.9160524e-06 -1.2890899e-09)
(5.0753179e-05 1.2469916e-06 -2.2671802e-10)
(4.9296928e-05 2.9725684e-06 -4.9928415e-10)
(4.5865411e-05 4.2155594e-06 -7.687757e-10)
(4.7224634e-05 1.0628554e-06 -1.5629052e-10)
(4.6038101e-05 2.5578316e-06 -3.0663343e-10)
(4.3199832e-05 3.6739293e-06 -4.5419188e-10)
(4.4284853e-05 8.9542352e-07 -1.1441588e-10)
(4.3313271e-05 2.1936075e-06 -1.9374112e-10)
(4.0949081e-05 3.1847831e-06 -2.69126e-10)
(4.1855219e-05 7.3938193e-07 -8.8980338e-11)
(4.1056361e-05 1.8411516e-06 -1.2768136e-10)
(3.9074024e-05 2.6917276e-06 -1.6215339e-10)
(3.9877317e-05 5.8967359e-07 -7.2434986e-11)
(3.9218332e-05 1.4829949e-06 -8.8284323e-11)
(3.7545236e-05 2.1682908e-06 -1.0066473e-10)
(3.8301615e-05 4.5060806e-07 -6.1224675e-11)
(3.7756589e-05 1.1362294e-06 -6.4432493e-11)
(3.633486e-05 1.6486531e-06 -6.5410973e-11)
(3.7079412e-05 3.3668073e-07 -5.4578473e-11)
(3.6627809e-05 8.5555623e-07 -5.0922451e-11)
(3.5411353e-05 1.2272387e-06 -4.5938786e-11)
(3.6160805e-05 2.4009404e-07 -5.0086904e-11)
(3.5786363e-05 6.4600096e-07 -4.2919094e-11)
(3.4738892e-05 9.184502e-07 -3.5352043e-11)
(3.5498005e-05 1.6576475e-07 -4.6908897e-11)
(3.5187825e-05 4.6648799e-07 -3.7922204e-11)
(3.42804e-05 6.5909571e-07 -2.9386881e-11)
(3.5047608e-05 9.7742993e-08 -4.4462105e-11)
(3.4791257e-05 2.9979075e-07 -3.4747739e-11)
(3.4000062e-05 4.1843467e-07 -2.6101125e-11)
(3.4770381e-05 5.0321273e-08 -4.261849e-11)
(3.4559184e-05 1.889002e-07 -3.2748719e-11)
(3.3864535e-05 2.6447565e-07 -2.4386603e-11)
(3.4631603e-05 -4.6362347e-09 -4.0848213e-11)
(3.4458187e-05 4.8350639e-08 -3.1259089e-11)
(3.3843449e-05 2.3214923e-08 -2.3361879e-11)
(3.4599803e-05 -4.175728e-08 -3.9096265e-11)
(3.4457909e-05 -4.1879509e-08 -2.987713e-11)
(3.3909006e-05 -1.1482313e-07 -2.2632443e-11)
(3.4645969e-05 -5.9476373e-08 -3.7757611e-11)
(3.4530469e-05 -8.8084437e-08 -2.8897811e-11)
(3.4035982e-05 -1.8504374e-07 -2.220807e-11)
(3.4745269e-05 -6.6984759e-08 -3.6680183e-11)
(3.4652011e-05 -1.0668469e-07 -2.8292692e-11)
(3.4202762e-05 -2.0881604e-07 -2.2067964e-11)
(3.4877695e-05 -7.0620079e-08 -3.5646712e-11)
(3.4803242e-05 -1.1978714e-07 -2.7737228e-11)
(3.43917e-05 -2.2741262e-07 -2.1941297e-11)
(3.5027358e-05 -7.1300193e-08 -3.4591823e-11)
(3.4968773e-05 -1.2581783e-07 -2.716985e-11)
(3.4588634e-05 -2.3213187e-07 -2.179761e-11)
(3.518189e-05 -6.9135889e-08 -3.3552724e-11)
(3.5136673e-05 -1.253267e-07 -2.6602223e-11)
(3.4782659e-05 -2.271568e-07 -2.1636283e-11)
(3.5332229e-05 -6.5783203e-08 -3.2527402e-11)
(3.5298252e-05 -1.2281041e-07 -2.6057823e-11)
(3.4965954e-05 -2.1939348e-07 -2.148504e-11)
(3.5472202e-05 -5.9816986e-08 -3.1714734e-11)
(3.5447665e-05 -1.1188881e-07 -2.5708485e-11)
(3.5133421e-05 -1.9903445e-07 -2.1446358e-11)
(3.5598017e-05 -5.2645843e-08 -3.1011761e-11)
(3.55814e-05 -9.7928203e-08 -2.5441699e-11)
(3.5282157e-05 -1.742357e-07 -2.1454943e-11)
(3.5707839e-05 -4.6046775e-08 -3.0294555e-11)
(3.5697831e-05 -8.5487142e-08 -2.5139812e-11)
(3.5411012e-05 -1.5113423e-07 -2.1456324e-11)
(3.5801246e-05 -3.8528975e-08 -2.9774973e-11)
(3.579672e-05 -7.0557767e-08 -2.5004563e-11)
(3.5520143e-05 -1.2377852e-07 -2.1567333e-11)
(3.5878526e-05 -3.2254035e-08 -2.9279435e-11)
(3.587851e-05 -5.927257e-08 -2.4838326e-11)
(3.561032e-05 -1.0443129e-07 -2.1617108e-11)
(3.5939773e-05 -2.6005317e-08 -2.8934214e-11)
(3.5943411e-05 -4.7455009e-08 -2.4794735e-11)
(3.5681998e-05 -8.3941682e-08 -2.1719045e-11)
(3.5984236e-05 -1.8988181e-08 -2.8820612e-11)
(3.5990768e-05 -3.2666254e-08 -2.4913539e-11)
(3.5734735e-05 -5.7688493e-08 -2.1852746e-11)
(3.6009913e-05 -1.1550936e-08 -2.8845663e-11)
(3.6018661e-05 -1.610168e-08 -2.4972672e-11)
(3.5766803e-05 -2.8300649e-08 -2.1737865e-11)
(3.6010895e-05 -3.8872566e-09 -2.8776294e-11)
(3.6021202e-05 2.2819898e-10 -2.4433947e-11)
(3.5772481e-05 -9.0417463e-10 -2.0770212e-11)
(3.6034313e-05 4.492777e-09 -2.8179988e-11)
(3.6045661e-05 1.569921e-08 -2.2265015e-11)
(3.5798853e-05 2.1770405e-08 -1.79788e-11)
(3.5962466e-05 8.5866936e-09 -2.5287404e-11)
(3.5973842e-05 2.2329882e-08 -1.6090285e-11)
(3.5728536e-05 3.3084234e-08 -1.1725208e-11)
(-0.046451306 1.9643186 -3.7597804e-07)
(-0.033219811 1.7109961 -3.453023e-06)
(-0.063716023 0.34989994 -2.5138371e-07)
(-0.044474285 0.15682529 -1.0124671e-06)
(-0.017331153 -0.041412638 -2.1903882e-07)
(-0.012838123 -0.043563551 -6.2750763e-07)
(-0.0065421515 -0.014534221 -1.1255594e-07)
(-0.0056859799 -0.015518166 -4.0906585e-07)
(-0.0021128455 -0.0034166044 -1.1300878e-07)
(-0.0021041186 -0.0041488042 -2.9564387e-07)
(-0.00061394542 -0.0010075307 -1.2409963e-07)
(-0.0006813556 -0.0012389223 -2.3317549e-07)
(-0.00017625098 -0.00032061334 -1.2309434e-07)
(-0.00023268207 -0.00036705674 -1.904072e-07)
(-5.9217792e-05 -3.9019433e-05 -1.1153293e-07)
(-0.00011794512 -3.020214e-05 -1.5546242e-07)
(-2.8525109e-05 1.2450094e-05 -9.3925387e-08)
(-8.6110589e-05 1.7704258e-05 -1.2417752e-07)
(-1.467472e-05 -1.4785942e-05 -7.481057e-08)
(-6.7364921e-05 -2.3703993e-05 -9.6491157e-08)
(3.2391192e-06 -4.239199e-05 -5.7227935e-08)
(-4.2004075e-05 -6.1412289e-05 -7.3122943e-08)
(2.3781238e-05 -3.8804197e-05 -4.2617449e-08)
(-1.3644582e-05 -5.8876143e-05 -5.4267134e-08)
(3.9791979e-05 -1.8759735e-05 -3.113059e-08)
(9.3258037e-06 -3.3381804e-05 -3.9545632e-08)
(4.9112956e-05 -1.6379443e-06 -2.2337301e-08)
(2.4388241e-05 -9.464359e-06 -2.8280164e-08)
(5.2701577e-05 9.476656e-06 -1.5702199e-08)
(3.2565987e-05 6.2134505e-06 -1.9791917e-08)
(5.2554477e-05 1.2855466e-05 -1.0760203e-08)
(3.6153632e-05 1.1667128e-05 -1.3500937e-08)
(5.0574525e-05 1.1317835e-05 -7.154131e-09)
(3.7229329e-05 1.0780715e-05 -8.9439233e-09)
(4.7986444e-05 8.7060507e-06 -4.6047254e-09)
(3.7101338e-05 8.4312416e-06 -5.743104e-09)
(4.5391812e-05 6.8090264e-06 -2.8712172e-09)
(3.6461849e-05 6.5015006e-06 -3.5749985e-09)
(4.3027278e-05 5.5901462e-06 -1.7391924e-09)
(3.5653099e-05 5.3757934e-06 -2.1611705e-09)
(4.0936048e-05 4.8879238e-06 -1.0287043e-09)
(3.4809399e-05 4.823282e-06 -1.2729663e-09)
(3.9105716e-05 4.3775292e-06 -5.9769325e-10)
(3.398447e-05 4.4711237e-06 -7.3336089e-10)
(3.7526137e-05 3.8373549e-06 -3.4321041e-10)
(3.3220252e-05 4.0245127e-06 -4.1455555e-10)
(3.6194452e-05 3.2531316e-06 -1.9648131e-10)
(3.2553985e-05 3.4286634e-06 -2.3072142e-10)
(3.5107709e-05 2.6205618e-06 -1.132477e-10)
(3.2012182e-05 2.7503752e-06 -1.2692701e-10)
(3.4258083e-05 1.9818641e-06 -6.6613297e-11)
(3.1609969e-05 2.0455547e-06 -6.9392502e-11)
(3.3630256e-05 1.4556941e-06 -4.1318136e-11)
(3.1350915e-05 1.4630968e-06 -3.8537181e-11)
(3.3201573e-05 1.0675973e-06 -2.8147363e-11)
(3.1227717e-05 1.0545108e-06 -2.2795278e-11)
(3.2945052e-05 7.1682957e-07 -2.1226908e-11)
(3.1225192e-05 5.9568421e-07 -1.4827495e-11)
(3.2832504e-05 4.0268274e-07 -1.7806341e-11)
(3.1324134e-05 2.4712192e-07 -1.1144884e-11)
(3.2836446e-05 2.2685701e-07 -1.6323182e-11)
(3.1504138e-05 2.8595008e-08 -9.7360553e-12)
(3.2930846e-05 -5.0795429e-08 -1.5712746e-11)
(3.1744653e-05 -2.3108529e-07 -9.3929613e-12)
(3.3091589e-05 -2.1803002e-07 -1.549879e-11)
(3.2026242e-05 -4.1028309e-07 -9.5292976e-12)
(3.3297162e-05 -2.9946273e-07 -1.5568316e-11)
(3.2331873e-05 -4.9085118e-07 -9.9592573e-12)
(3.3529187e-05 -3.3835315e-07 -1.5815459e-11)
(3.264702e-05 -5.2126461e-07 -1.0503598e-11)
(3.3772405e-05 -3.5649858e-07 -1.6076424e-11)
(3.2959387e-05 -5.1995754e-07 -1.1044465e-11)
(3.4014465e-05 -3.5938557e-07 -1.6294906e-11)
(3.3258976e-05 -5.0820695e-07 -1.1535622e-11)
(3.424596e-05 -3.4625517e-07 -1.6479763e-11)
(3.3538283e-05 -4.8929353e-07 -1.1975672e-11)
(3.446035e-05 -3.2815233e-07 -1.6647229e-11)
(3.3792361e-05 -4.5893934e-07 -1.2373445e-11)
(3.4653605e-05 -3.0160771e-07 -1.6842497e-11)
(3.4018535e-05 -4.2342461e-07 -1.2747444e-11)
(3.4823714e-05 -2.6427522e-07 -1.7076289e-11)
(3.4215937e-05 -3.6953768e-07 -1.3150741e-11)
(3.4970248e-05 -2.2277153e-07 -1.733788e-11)
(3.4385068e-05 -3.065473e-07 -1.3582722e-11)
(3.5093941e-05 -1.8377971e-07 -1.7615192e-11)
(3.4527383e-05 -2.5703965e-07 -1.3964345e-11)
(3.5196011e-05 -1.5556359e-07 -1.7816508e-11)
(3.4644662e-05 -2.1751309e-07 -1.4270374e-11)
(3.5277281e-05 -1.2508037e-07 -1.8005648e-11)
(3.4738197e-05 -1.7188336e-07 -1.4531813e-11)
(3.5337629e-05 -8.6102798e-08 -1.8129334e-11)
(3.4808288e-05 -1.1851749e-07 -1.4666778e-11)
(3.5375618e-05 -4.3380028e-08 -1.7905799e-11)
(3.4853868e-05 -6.2345819e-08 -1.4423162e-11)
(3.5385778e-05 -4.094661e-09 -1.6801309e-11)
(3.486979e-05 -1.0525616e-08 -1.3376985e-11)
(3.5414862e-05 2.7525277e-08 -1.4072186e-11)
(3.490234e-05 3.1470014e-08 -1.098359e-11)
(3.5346757e-05 4.4255079e-08 -8.7118208e-12)
(3.483711e-05 5.4844126e-08 -6.607384e-12)
(-1.8174375e-06 -2.5958028e-05 -1.0903888e-07)
(6.1182763e-05 -0.00011779405 -2.5831948e-07)
(0.00017480327 -0.00016392362 -3.6503636e-07)
(0.00028308752 -0.000238832 -4.3202705e-07)
(0.00036368658 -0.00028297711 -4.6778825e-07)
(0.0004117648 -0.00032046761 -4.8195803e-07)
(0.0004284935 -0.00034037169 -4.818332e-07)
(0.00042087407 -0.00035383297 -4.7255585e-07)
(0.00039737438 -0.00036423113 -4.5770761e-07)
(0.00036555004 -0.00037441831 -4.3976231e-07)
(0.00033091548 -0.00039071017 -4.2043054e-07)
(0.00029659297 -0.00041470292 -4.0073602e-07)
(0.00026434261 -0.00044380381 -3.8116405e-07)
(0.00023483624 -0.00047777902 -3.6178882e-07)
(0.00020812619 -0.0005150563 -3.4246148e-07)
(0.00018391142 -0.00055320854 -3.2289982e-07)
(0.00016164644 -0.00059171818 -3.0271302e-07)
(0.00014067402 -0.00062860691 -2.8134928e-07)
(0.00012077341 -0.00066019738 -2.5820002e-07)
(0.00010162763 -0.00068541257 -2.3256071e-07)
(8.2831755e-05 -0.00070346312 -2.0366914e-07)
(6.4221123e-05 -0.00071373168 -1.7040034e-07)
(4.5719501e-05 -0.00071557421 -1.3176976e-07)
(2.7109021e-05 -0.00071384613 -8.7206989e-08)
(8.3025981e-06 -0.00067707768 -3.6115333e-08)
(0.00035965708 -0.0001436347 -1.2505704e-07)
(0.00037297447 -0.00058644206 -2.9227981e-07)
(0.00037620281 -0.00084664406 -4.0538139e-07)
(0.00036172705 -0.0012009148 -4.7014143e-07)
(0.0003377025 -0.0014693274 -5.0007438e-07)
(0.00031387234 -0.0017321967 -5.0829879e-07)
(0.00030131127 -0.0019738091 -5.0317074e-07)
(0.00030250928 -0.0022234939 -4.9005881e-07)
(0.00031063882 -0.0024865428 -4.7232968e-07)
(0.00031993084 -0.0027456118 -4.5218005e-07)
(0.00032628664 -0.0030022373 -4.3128101e-07)
(0.00032764614 -0.0032553132 -4.1052446e-07)
(0.00032314909 -0.0034998291 -3.9027443e-07)
(0.0003129633 -0.0037325099 -3.7045602e-07)
(0.000297511 -0.0039506938 -3.5083212e-07)
(0.00027742335 -0.0041548554 -3.3109442e-07)
(0.00025353678 -0.0043547568 -3.1090252e-07)
(0.00022684069 -0.0045411898 -2.8957755e-07)
(0.00019791444 -0.0046895045 -2.6655585e-07)
(0.00016737776 -0.0047921176 -2.4107145e-07)
(0.00013553735 -0.0048458529 -2.1264289e-07)
(0.00010318688 -0.004852595 -1.7949106e-07)
(7.1054394e-05 -0.0048153438 -1.4032721e-07)
(3.9815865e-05 -0.0047198566 -9.3521749e-08)
(1.0797094e-05 -0.004507284 -4.0455555e-08)
(0.0013388644 -0.00035154133 -1.6353107e-07)
(0.0013587022 -0.0016301032 -3.6827508e-07)
(0.0013479919 -0.0022053194 -4.902957e-07)
(0.0013119171 -0.003094787 -5.4572101e-07)
(0.0012715294 -0.0037844982 -5.6210659e-07)
(0.0012333129 -0.0044754958 -5.5808656e-07)
(0.0012027405 -0.005149572 -5.4306631e-07)
(0.0011717019 -0.0059927178 -5.2277551e-07)
(0.0011367085 -0.0069897234 -4.9979946e-07)
(0.0010953151 -0.0079318933 -4.7547141e-07)
(0.0010459649 -0.0087658836 -4.5170517e-07)
(0.00098867772 -0.0094798291 -4.2905287e-07)
(0.00092496336 -0.010067079 -4.0770845e-07)
(0.00085595767 -0.01053467 -3.8722292e-07)
(0.00078255099 -0.010889395 -3.6719468e-07)
(0.00070581954 -0.011132425 -3.4725678e-07)
(0.00062715556 -0.01125559 -3.274451e-07)
(0.00054774591 -0.011278147 -3.0646173e-07)
(0.00046839373 -0.011229035 -2.8413684e-07)
(0.00039050476 -0.011123506 -2.597346e-07)
(0.00031346998 -0.010971226 -2.3236261e-07)
(0.00023814855 -0.010780343 -2.0057096e-07)
(0.0001649813 -0.010557434 -1.6235762e-07)
(9.4596001e-05 -0.010273838 -1.143041e-07)
(2.8952377e-05 -0.0098864999 -5.6197401e-08)
(0.004088823 -0.001131714 -2.4609732e-07)
(0.003951492 -0.004912329 -5.0916685e-07)
(0.00376027 -0.0062295801 -6.3005911e-07)
(0.0034606403 -0.0092762041 -6.6032665e-07)
(0.0031687341 -0.0119303 -6.5233471e-07)
(0.0028799763 -0.014342049 -6.2911092e-07)
(0.0026115261 -0.016091367 -5.9942083e-07)
(0.0023517641 -0.017035057 -5.7006908e-07)
(0.0021066974 -0.017321567 -5.4122629e-07)
(0.0018771121 -0.017204151 -5.1097073e-07)
(0.0016613272 -0.016781374 -4.8349372e-07)
(0.0014612178 -0.016162503 -4.5829061e-07)
(0.0012759553 -0.015362926 -4.3579976e-07)
(0.0010993506 -0.014437272 -4.146134e-07)
(0.00094072748 -0.013440731 -3.9417284e-07)
(0.00079962442 -0.012418451 -3.7420826e-07)
(0.00067442872 -0.01140846 -3.543877e-07)
(0.00056321521 -0.010443786 -3.3422236e-07)
(0.00046431001 -0.0095465702 -3.1322052e-07)
(0.00037527927 -0.0087401906 -2.9073615e-07)
(0.00029607725 -0.0080399723 -2.6594048e-07)
(0.00022440073 -0.0074487244 -2.3762256e-07)
(0.00015844853 -0.0069666587 -2.0395827e-07)
(9.6352204e-05 -0.0065527178 -1.618848e-07)
(3.5979381e-05 -0.0062596042 -1.0177952e-07)
(0.012091898 -0.0089248979 -4.3406102e-07)
(0.0093297592 -0.025932096 -7.4800509e-07)
(0.0079366211 -0.028000586 -8.3203963e-07)
(0.0061011236 -0.03192967 -8.1941718e-07)
(0.0046371258 -0.029172457 -7.797423e-07)
(0.0034094017 -0.025333667 -7.3159192e-07)
(0.0023940999 -0.020705758 -6.8399706e-07)
(0.0015922811 -0.015816048 -6.3966604e-07)
(0.00097085699 -0.010910929 -6.0027411e-07)
(0.00049357551 -0.006400666 -5.6411263e-07)
(0.00013680226 -0.0023350531 -5.3158001e-07)
(-0.000119765 0.0011790844 -5.0137548e-07)
(-0.00029699924 0.0044431529 -4.7727433e-07)
(-0.00040990561 0.0075650023 -4.5451677e-07)
(-0.00047812717 0.010446705 -4.3262855e-07)
(-0.00050840102 0.012949991 -4.1178139e-07)
(-0.00050872267 0.015041565 -3.9163736e-07)
(-0.00048578796 0.016737256 -3.7177582e-07)
(-0.00044501074 0.018063171 -3.5173793e-07)
(-0.00039134911 0.019050952 -3.3101049e-07)
(-0.0003266906 0.019727747 -3.0895718e-07)
(-0.00025472982 0.020117189 -2.8468052e-07)
(-0.00017811589 0.020216773 -2.5672537e-07)
(-0.00010022958 0.020083918 -2.2942436e-07)
(-2.2920914e-05 0.019375279 -2.0222203e-07)
(0.014526971 0.024394614 -7.9604425e-07)
(0.0030832456 -4.6452455e-05 -1.1253701e-06)
(0.00032155529 0.049482712 -1.1277895e-06)
(-0.001399934 0.052643902 -1.0546004e-06)
(-0.0029116412 0.066639855 -9.7777369e-07)
(-0.0040371583 0.076728246 -8.915381e-07)
(-0.0046644156 0.08373394 -8.1433021e-07)
(-0.0048478642 0.089551486 -7.4728239e-07)
(-0.0047550574 0.093800105 -6.8893622e-07)
(-0.0045250287 0.096436938 -6.3895663e-07)
(-0.0042234021 0.097931965 -5.9670999e-07)
(-0.0038621137 0.098340881 -5.5256662e-07)
(-0.0034967022 0.098022398 -5.2755374e-07)
(-0.0031438977 0.096691616 -5.0041397e-07)
(-0.0027891762 0.094504003 -4.7367e-07)
(-0.0024445162 0.092056039 -4.4984104e-07)
(-0.0021190866 0.089410824 -4.2782125e-07)
(-0.0018138208 0.086650432 -4.0693883e-07)
(-0.0015277944 0.083850914 -3.8666311e-07)
(-0.0012585503 0.081070103 -3.6650979e-07)
(-0.0010050386 0.078344376 -3.4597461e-07)
(-0.00076448839 0.07571514 -3.244465e-07)
(-0.00053428346 0.073154238 -3.0129105e-07)
(-0.00031251244 0.070849077 -2.7736806e-07)
(-9.3636872e-05 0.06735971 -2.5393544e-07)
(-0.0016547168 1.1836846 -2.514792e-06)
(-0.00076111386 0.96698904 -2.0012525e-06)
(-0.0011296828 0.86974342 -1.6233235e-06)
(-0.00085892329 0.77581941 -1.3340584e-06)
(-0.00072614813 0.67885862 -1.1184968e-06)
(-0.00061820458 0.58708574 -9.6010848e-07)
(-0.00051719257 0.5085033 -8.4307351e-07)
(-0.00043310233 0.444683 -7.5696948e-07)
(-0.00035963401 0.3920773 -6.8766485e-07)
(-0.00029941904 0.34720491 -6.3457862e-07)
(-0.00024911596 0.30847036 -5.9350327e-07)
(-0.00020850036 0.27512751 -5.5746168e-07)
(-0.00017609653 0.24661546 -5.2723917e-07)
(-0.00015337253 0.22220601 -5.0054949e-07)
(-0.00013106365 0.20124215 -4.7630535e-07)
(-0.00011101802 0.18324305 -4.5408115e-07)
(-9.319878e-05 0.16777758 -4.3333614e-07)
(-7.7817879e-05 0.15448268 -4.1357533e-07)
(-6.4201908e-05 0.14305592 -3.9438202e-07)
(-5.1849525e-05 0.13324799 -3.753866e-07)
(-4.0767349e-05 0.12484246 -3.5621424e-07)
(-3.0572256e-05 0.11769694 -3.363712e-07)
(-2.1040021e-05 0.11156948 -3.155668e-07)
(-1.2087913e-05 0.10674286 -2.9357632e-07)
(-3.5179826e-06 0.1007227 -2.6981319e-07)
(-0.013012724 0.094225224 -1.2299256e-06)
(-0.0019928997 0.10195587 -1.2706391e-06)
(0.00038448086 0.10730548 -1.2253895e-06)
(0.0018864365 0.1085452 -1.1347102e-06)
(0.0032458112 0.11003368 -1.0319105e-06)
(0.0042667909 0.11120925 -9.3188975e-07)
(0.004818264 0.11251897 -8.4261581e-07)
(0.0049435111 0.11376892 -7.6571494e-07)
(0.0047742174 0.11434714 -6.8322033e-07)
(0.0045027379 0.11424398 -6.4146725e-07)
(0.0042081253 0.11341906 -5.9942826e-07)
(0.0038606744 0.11166356 -5.5625715e-07)
(0.0034853964 0.10908136 -5.2002436e-07)
(0.0031128642 0.1060075 -4.8890598e-07)
(0.0027530858 0.10269196 -4.6166109e-07)
(0.0024125591 0.099256882 -4.3734341e-07)
(0.0020918323 0.095782857 -4.1518839e-07)
(0.0017891696 0.092336947 -3.9455096e-07)
(0.0015056281 0.088970293 -3.74874e-07)
(0.0012399151 0.085719918 -3.5564015e-07)
(0.00098980767 0.082606691 -3.3628871e-07)
(0.00075291989 0.079659848 -3.1609181e-07)
(0.00052652672 0.076841445 -2.9538168e-07)
(0.00030842206 0.074342761 -2.729687e-07)
(9.2722095e-05 0.070639371 -2.5045234e-07)
(-0.009665763 -0.040857458 -8.5560684e-07)
(-0.0078015806 -0.037984113 -9.2014204e-07)
(-0.0061745823 -0.035816429 -9.0696235e-07)
(-0.0047259685 -0.032125128 -8.6067296e-07)
(-0.0034800853 -0.027138517 -8.0220294e-07)
(-0.0024377297 -0.021659006 -7.407937e-07)
(-0.0015884142 -0.016100932 -6.8373184e-07)
(-0.00092253118 -0.010654752 -6.3159202e-07)
(-0.00041642506 -0.0057857495 -5.8322862e-07)
(-3.1732377e-05 -0.001487886 -5.47071e-07)
(0.00025004988 0.0022295488 -5.138155e-07)
(0.000446812 0.005887842 -4.8278785e-07)
(0.00057571563 0.009374343 -4.5492887e-07)
(0.00065208521 0.01249619 -4.2993773e-07)
(0.00068560326 0.01518216 -4.0724227e-07)
(0.00068295375 0.017435072 -3.8631215e-07)
(0.00065398642 0.019288954 -3.667162e-07)
(0.00060782938 0.020779835 -3.4796857e-07)
(0.00054682659 0.021928981 -3.2957778e-07)
(0.00047397295 0.022755889 -3.1098982e-07)
(0.00039212533 0.023281299 -2.9143587e-07)
(0.00030374427 0.023525363 -2.6950272e-07)
(0.00021201408 0.023497947 -2.4823696e-07)
(0.00011989969 0.023242498 -2.2232713e-07)
(2.896515e-05 0.022382073 -1.9699821e-07)
(-0.0052775302 -0.016622498 -5.8173642e-07)
(-0.0047225297 -0.018644506 -6.5723386e-07)
(-0.0041771144 -0.020941948 -6.7177831e-07)
(-0.0037099745 -0.022573007 -6.5481518e-07)
(-0.0033095971 -0.023588599 -6.2490507e-07)
(-0.0029538328 -0.023893698 -5.9284599e-07)
(-0.0026361705 -0.023628722 -5.5326377e-07)
(-0.0023389372 -0.022977376 -5.1643666e-07)
(-0.0020606043 -0.02207934 -4.8306504e-07)
(-0.0018104221 -0.020987347 -4.5458788e-07)
(-0.0015809775 -0.019773675 -4.2872848e-07)
(-0.0013659265 -0.01841788 -4.0492326e-07)
(-0.0011697213 -0.016990197 -3.8314075e-07)
(-0.00099505993 -0.015542335 -3.6319289e-07)
(-0.0008417374 -0.014111185 -3.4455066e-07)
(-0.00071017155 -0.012736289 -3.267978e-07)
(-0.00059589687 -0.011454535 -3.0982459e-07)
(-0.00049359449 -0.010293412 -2.9306634e-07)
(-0.00040359682 -0.0092606285 -2.7600657e-07)
(-0.00032475359 -0.0083570415 -2.5802836e-07)
(-0.00025544409 -0.0075836227 -2.3828293e-07)
(-0.00019379775 -0.0069404703 -2.1560518e-07)
(-0.00013784744 -0.006424623 -1.8879517e-07)
(-8.5284069e-05 -0.0059962341 -1.5252967e-07)
(-3.3224707e-05 -0.0057097691 -9.7955072e-08)
(-0.0021167533 -0.0049153193 -4.2038578e-07)
(-0.0020012445 -0.0056456321 -4.8946868e-07)
(-0.0018571058 -0.0063368633 -5.1630132e-07)
(-0.0017430764 -0.0069254097 -5.1680471e-07)
(-0.0016555225 -0.0075392967 -5.0271098e-07)
(-0.0015774035 -0.0083948675 -4.8120483e-07)
(-0.0015086649 -0.0094365013 -4.5491848e-07)
(-0.0014415232 -0.010398418 -4.2837062e-07)
(-0.0013688058 -0.011242095 -4.0341111e-07)
(-0.0012911966 -0.0119447 -3.8071793e-07)
(-0.0012086641 -0.012513231 -3.598456e-07)
(-0.0011213121 -0.012943215 -3.4049952e-07)
(-0.0010296193 -0.013237658 -3.2249853e-07)
(-0.0009376128 -0.013382647 -3.0606221e-07)
(-0.00084590386 -0.013409272 -2.9020492e-07)
(-0.00075368065 -0.013353184 -2.7508132e-07)
(-0.00066286951 -0.013235073 -2.5999732e-07)
(-0.00057594764 -0.013068918 -2.4466756e-07)
(-0.000491209 -0.012864844 -2.2861022e-07)
(-0.00040837384 -0.012629913 -2.1121226e-07)
(-0.0003274865 -0.012369786 -1.915409e-07)
(-0.00024870645 -0.01209003 -1.6823374e-07)
(-0.00017236501 -0.011794171 -1.3927446e-07)
(-9.9036237e-05 -0.011444885 -1.0046175e-07)
(-3.0794165e-05 -0.011004204 -5.098955e-08)
(-0.0007302117 -0.0015640901 -3.1784141e-07)
(-0.00070859922 -0.0019030555 -3.7255245e-07)
(-0.00064358392 -0.00221548 -4.0057684e-07)
(-0.00057361962 -0.0024913345 -4.0907743e-07)
(-0.0005271315 -0.0027526661 -4.0475844e-07)
(-0.00050032575 -0.0030307408 -3.926085e-07)
(-0.00048856069 -0.0033288925 -3.7585999e-07)
(-0.00048467936 -0.003629308 -3.5735483e-07)
(-0.00048295831 -0.0039376305 -3.3880046e-07)
(-0.0004794881 -0.0042459095 -3.2102398e-07)
(-0.00047204265 -0.0045477502 -3.042059e-07)
(-0.00046036717 -0.0048378191 -2.8833915e-07)
(-0.00044486071 -0.0051268616 -2.7336669e-07)
(-0.00042354868 -0.0054319331 -2.5923065e-07)
(-0.00039685099 -0.0057337653 -2.4560262e-07)
(-0.00036457672 -0.0059953356 -2.3227411e-07)
(-0.00032885936 -0.0062082389 -2.1886318e-07)
(-0.00029122012 -0.0063701949 -2.0500588e-07)
(-0.00025196775 -0.006480596 -1.902309e-07)
(-0.00021152413 -0.0065386143 -1.7414948e-07)
(-0.00017037869 -0.0065454475 -1.5585762e-07)
(-0.00012913084 -0.0065037827 -1.3411913e-07)
(-8.854441e-05 -0.0064184307 -1.0760588e-07)
(-4.9426513e-05 -0.0062720386 -7.4082296e-08)
(-1.3566789e-05 -0.0059935869 -3.4044827e-08)
(-0.00027270161 -0.00040587688 -2.473093e-07)
(-0.00027189082 -0.00043848299 -2.8815935e-07)
(-0.00023191422 -0.00048265047 -3.1270038e-07)
(-0.00017039095 -0.00053154983 -3.2369104e-07)
(-0.00011471418 -0.00057122624 -3.2463786e-07)
(-7.9686384e-05 -0.00061589977 -3.1871529e-07)
(-5.7372097e-05 -0.0006749605 -3.0843965e-07)
(-4.4566646e-05 -0.00074245384 -2.9584805e-07)
(-3.9753899e-05 -0.00081738388 -2.8234431e-07)
(-4.1585258e-05 -0.00090048801 -2.687573e-07)
(-4.7450205e-05 -0.00099235184 -2.5547926e-07)
(-5.5589276e-05 -0.0010886942 -2.42669e-07)
(-6.471691e-05 -0.0011836896 -2.3036083e-07)
(-7.0662723e-05 -0.0012755646 -2.1850366e-07)
(-7.2922389e-05 -0.0013624403 -2.0693105e-07)
(-7.1202179e-05 -0.0014393786 -1.9544066e-07)
(-6.7204436e-05 -0.0015050735 -1.8375962e-07)
(-6.1719361e-05 -0.0015583743 -1.715781e-07)
(-5.508259e-05 -0.0015985478 -1.5852949e-07)
(-4.7524284e-05 -0.0016248247 -1.4420519e-07)
(-3.9269035e-05 -0.0016367402 -1.2813212e-07)
(-3.0555765e-05 -0.001634511 -1.0956261e-07)
(-2.1579946e-05 -0.0016204965 -8.7759243e-08)
(-1.2437891e-05 -0.0015940467 -6.1920527e-08)
(-3.2550061e-06 -0.0015156347 -3.0757212e-08)
(-0.0001618894 -1.3132526e-05 -1.942499e-07)
(-0.00017891342 1.2879074e-05 -2.2404771e-07)