/*--------------------------------*- C++ -*----------------------------------*\
| =========                 |                                                 |
| \\      /  F ield         | OpenFOAM: The Open Source CFD Toolbox           |
|  \\    /   O peration     | Version:  4.0                                   |
|   \\  /    A nd           | Web:      www.OpenFOAM.org                      |
|    \\/     M anipulation  |                                                 |
\*---------------------------------------------------------------------------*/
FoamFile
{
    version     2.0;
    format      ascii;
    class       volScalarField;
    location    "0.36";
    object      k;
}
// * * * * * * * * * * * * * * * * * * * * * * * * * * * * * * * * * * * * * //

dimensions      [0 2 -2 0 0 0 0];

internalField   nonuniform List<scalar> 
1740
(
0.0085243835
0.0092589904
0.018399194
0.0091436607
0.0099419368
0.027386032
0.0095788214
0.01045334
0.034399325
0.0097582673
0.010692368
0.041283772
0.0098741797
0.010966062
0.047391163
0.0099775692
0.011542301
0.052328646
0.010031419
0.011990898
0.056390081
0.010092656
0.012258053
0.059630551
0.010104271
0.012679775
0.062172183
0.010114721
0.012987921
0.06436046
0.010050575
0.013129717
0.06619138
0.0099633942
0.013225766
0.067308683
0.0098714874
0.013372229
0.068539373
0.0098515857
0.013725393
0.069561555
0.0097246858
0.013839807
0.069905967
0.0096243336
0.013614895
0.070833654
0.0095181313
0.013699049
0.071752552
0.0094324276
0.013929016
0.071831191
0.0093705309
0.014124399
0.072391945
0.0092240409
0.014532776
0.072807416
0.009122552
0.014639653
0.072980232
0.0090006527
0.014568871
0.072840391
0.0088801075
0.014422649
0.072879853
0.0087558262
0.014603175
0.073352358
0.0086567387
0.014887633
0.073395403
0.0086033388
0.015048029
0.073053181
0.0085345358
0.015022096
0.073114611
0.0085243613
0.015548508
0.07249895
0.0084805064
0.015542261
0.071564721
0.009005204
0.016286119
0.066600609
0.012679426
0.018090725
0.047267562
0.023910505
0.031178607
0.039899548
0.010280644
0.012543616
0.013724959
0.0042581581
0.0045877886
0.0046568668
0.0020706417
0.0021135863
0.0020907206
0.0011372767
0.0011384546
0.0011211192
0.0006840419
0.00068160064
0.00067370626
0.00043959815
0.00043822787
0.00043540378
0.0002952777
0.00029482907
0.00029421456
0.00020338948
0.00020337415
0.00020357297
0.00014132435
0.0001414513
0.00014185159
9.7689313e-05
9.7828303e-05
9.819306e-05
6.6428994e-05
6.6535494e-05
6.6797834e-05
4.4090087e-05
4.4157991e-05
4.4320608e-05
2.8457865e-05
2.8495194e-05
2.8583601e-05
1.7888227e-05
1.7905813e-05
1.7947528e-05
1.1034572e-05
1.1041273e-05
1.1057551e-05
6.7850218e-06
6.7867138e-06
6.7912646e-06
4.2702458e-06
4.2702197e-06
4.2705824e-06
2.8514562e-06
2.8511682e-06
2.8507336e-06
2.0916205e-06
2.0915606e-06
2.0915246e-06
1.711878e-06
1.712125e-06
1.7127154e-06
1.5433231e-06
1.5438093e-06
1.5449016e-06
1.4880674e-06
1.4886986e-06
1.490097e-06
1.4915885e-06
1.4922872e-06
1.4938273e-06
1.5246094e-06
1.5253235e-06
1.526894e-06
1.5719358e-06
1.5726348e-06
1.5741697e-06
1.6259221e-06
1.6265898e-06
1.6280545e-06
1.6828135e-06
1.6834425e-06
1.6848213e-06
1.7407794e-06
1.7413671e-06
1.7426549e-06
1.798896e-06
1.7994424e-06
1.8006392e-06
1.8566358e-06
1.8571421e-06
1.8582507e-06
1.9136164e-06
1.9140843e-06
1.9151084e-06
1.9694703e-06
1.9699016e-06
1.9708455e-06
2.0237639e-06
2.0241606e-06
2.0250287e-06
2.075925e-06
2.0762891e-06
2.0770857e-06
2.1251512e-06
2.1254846e-06
2.1262142e-06
2.170283e-06
2.1705878e-06
2.1712547e-06
2.2096232e-06
2.2099015e-06
2.2105101e-06
2.2406927e-06
2.2409463e-06
2.2415012e-06
2.2599165e-06
2.2601476e-06
2.2606531e-06
2.2622551e-06
2.2624655e-06
2.2629258e-06
2.2408232e-06
2.2410147e-06
2.2414339e-06
2.1865923e-06
2.1867666e-06
2.1871482e-06
2.0883522e-06
2.088511e-06
2.0888587e-06
1.9332021e-06
1.933348e-06
1.9336666e-06
1.7078925e-06
1.7080313e-06
1.7083301e-06
1.4011328e-06
1.4012747e-06
1.4015686e-06
1.0067311e-06
1.0068798e-06
1.0071699e-06
5.2983728e-07
5.2995401e-07
5.3016996e-07
0.056251909
0.060952475
0.046275382
0.0467287
0.01248438
0.011348909
0.0043502812
0.0041165882
0.0019991203
0.0019387073
0.0010915719
0.0010760087
0.00066461971
0.00066239724
0.00043334809
0.00043491822
0.00029450629
0.00029683011
0.00020448372
0.00020658174
0.00014275087
0.00014435834
9.8885568e-05
9.9999896e-05
6.7262169e-05
6.7971619e-05
4.4598982e-05
4.5013268e-05
2.8732962e-05
2.8952915e-05
1.801825e-05
1.8122728e-05
1.1085984e-05
1.1128997e-05
6.8000942e-06
6.8144755e-06
4.2721044e-06
4.2754617e-06
2.8505556e-06
2.8509909e-06
2.091709e-06
2.0922947e-06
1.7137282e-06
1.7152472e-06
1.5466138e-06
1.5489761e-06
1.4922416e-06
1.4951331e-06
1.4961698e-06
1.4992998e-06
1.5292734e-06
1.5324386e-06
1.5764901e-06
1.5795691e-06
1.6302657e-06
1.6331951e-06
1.6869008e-06
1.6896527e-06
1.7445956e-06
1.7471618e-06
1.8024419e-06
1.8048242e-06
1.8599199e-06
1.8621246e-06
1.91665e-06
1.9186854e-06
1.972266e-06
1.9741408e-06
2.0263347e-06
2.0280579e-06
2.0782838e-06
2.0798644e-06
2.1273112e-06
2.128758e-06
2.1722573e-06
2.1735792e-06
2.2114251e-06
2.2126311e-06
2.2423352e-06
2.2434343e-06
2.2614128e-06
2.2624137e-06
2.2636176e-06
2.264529e-06
2.2420638e-06
2.2428936e-06
2.1877217e-06
2.1884773e-06
2.089381e-06
2.090069e-06
1.9341433e-06
1.9347697e-06
1.7087681e-06
1.7093364e-06
1.4019735e-06
1.4024793e-06
1.0075281e-06
1.0079437e-06
5.3040886e-07
5.3066267e-07
5.1593098e-06
2.7066362e-05
0.0001345761
0.00030531984
0.00046269694
0.00057371662
0.00064400555
0.00068756693
0.0007161902
0.00073701175
0.00075406655
0.00077036463
0.00078557615
0.00079946363
0.0008117161
0.00082178827
0.00082870835
0.00083083116
0.00082546978
0.00080838533
0.0007730774
0.00070992484
0.00060556303
0.00044328478
0.00020238682
2.571358e-06
5.4773517e-05
0.0002512031
0.00051629391
0.00072839513
0.00085997801
0.00093591039
0.00098035239
0.0010087558
0.0010291584
0.001045802
0.0010612143
0.0010752701
0.0010877033
0.0010981183
0.0011058967
0.00110992
0.0011082965
0.0010978614
0.0010735412
0.001027399
0.00094725367
0.00081495474
0.00060517371
0.00028676393
7.9484e-06
0.00015984347
0.00061574047
0.0010795534
0.0013626554
0.001505494
0.0015730198
0.0016046161
0.0016202403
0.001628376
0.0016334043
0.0016362443
0.0016380961
0.0016383077
0.0016363897
0.0016318704
0.001623706
0.0016101245
0.0015877405
0.0015510119
0.001490987
0.0013930462
0.0012326175
0.00096695498
0.0005206473
3.7537419e-05
0.00057844402
0.0016832629
0.0024336803
0.0027704378
0.002884564
0.0028943284
0.0028645344
0.0028247716
0.0027800726
0.002735537
0.0026930385
0.0026530571
0.0026123917
0.0025705464
0.0025279174
0.0024840129
0.0024374338
0.00238546
0.0023233643
0.0022433082
0.0021321046
0.0019655573
0.0016909077
0.0011515323
0.00028098474
0.0024444592
0.0049076308
0.0060262103
0.006371773
0.0063104372
0.0060822376
0.0058206971
0.005572173
0.0053222869
0.0050828819
0.0048593108
0.0046563761
0.0044593088
0.0042678764
0.0040867029
0.0039166861
0.0037572875
0.0036067159
0.0034615147
0.0033160839
0.0031622557
0.0029891079
0.0027883707
0.0025783931
0.0023665702
0.010542971
0.016580831
0.018521453
0.018056789
0.016497093
0.014680447
0.012992326
0.011511724
0.010236773
0.0091467109
0.0082188367
0.007427573
0.0067490217
0.0061655367
0.0056637609
0.0052322844
0.0048607974
0.0045399383
0.0042609289
0.0040149822
0.0037931988
0.0035870652
0.0033959675
0.0032354056
0.045085356
0.034206068
0.026686037
0.02149693
0.017815339
0.015088537
0.01298282
0.011314629
0.0099761413
0.0088908201
0.0079994717
0.0072568222
0.0066288494
0.0060905075
0.0056235392
0.0052152137
0.0048567482
0.0045416157
0.004264387
0.0040199242
0.0038027436
0.0036069701
0.0034269731
0.0032641871
0.0031338439
0.037318708
0.03099673
0.027774951
0.025132688
0.022253795
0.019275035
0.016555378
0.014257395
0.012378036
0.010838995
0.0095702463
0.008514966
0.0076297607
0.0068847798
0.006256196
0.0057244831
0.0052733087
0.0048890042
0.0045598978
0.0042755406
0.0040259502
0.0038014273
0.0035928867
0.0033995218
0.0032371143
0.010207908
0.0095320091
0.0091899307
0.0088685304
0.0084066988
0.0078434706
0.0072887677
0.0067939191
0.006344447
0.0059474254
0.005599907
0.0052959033
0.0050101677
0.0047458848
0.0045045258
0.0042853672
0.004086341
0.0039046036
0.0037363391
0.003576593
0.0034187282
0.003253881
0.0030706433
0.0028604532
0.0026416243
0.0039592585
0.0038864027
0.0038638457
0.0038231733
0.0037291706
0.0035948029
0.0034558077
0.0033267064
0.0032102071
0.0031084179
0.003020404
0.0029430369
0.0028707676
0.0028030561
0.002739756
0.002680075
0.0026223914
0.0025641743
0.0025017245
0.002429632
0.0023396788
0.00221855
0.0020420079
0.0017565203
0.0012002246
0.0019209423
0.0019341355
0.0019591732
0.0019738882
0.0019673188
0.0019429348
0.0019116658
0.0018804739
0.0018524536
0.0018289155
0.0018096741
0.0017934971
0.0017787452
0.0017647907
0.0017513129
0.0017371571
0.0017205133
0.001698665
0.0016676319
0.0016215322
0.0015514071
0.0014429826
0.0012722117
0.00099645461
0.0005389831
0.0010800788
0.0010982336
0.0011215279
0.0011411796
0.0011526334
0.0011566553
0.0011568196
0.0011561067
0.0011562523
0.0011580144
0.0011613737
0.0011657896
0.0011705147
0.0011749186
0.0011783078
0.0011795485
0.0011769025
0.0011678272
0.0011486847
0.0011142745
0.0010570857
0.00096612559
0.00082523203
0.00061132911
0.00029460583
0.0006693533
0.000683224
0.00069999709
0.00071582854
0.00072857628
0.00073818482
0.00074586624
0.00075292257
0.00076025352
0.00076829669
0.00077708348
0.00078634798
0.00079565566
0.00080447595
0.00081209515
0.00081745631
0.00081903479
0.00081468969
0.00080148133
0.00077543616
0.00073126442
0.00066207657
0.00055922733
0.00041224374
0.00020511935
0.00044108613
0.00045088522
0.00046247586
0.00047407095
0.000484577
0.0004937856
0.00050208974
0.00051004356
0.00051809175
0.00052647366
0.0005352116
0.00054414904
0.00055298824
0.0005613001
0.00056847467
0.00057363777
0.00057556627
0.00057260228
0.00056257328
0.00054274376
0.00050987118
0.00046055738
0.00039242277
0.00030774322
0.00022467315
0.00030159332
0.00030836449
0.00031628465
0.00032447478
0.00033235005
0.00033971727
0.00034667948
0.00035346414
0.00036027842
0.00036724
0.00037435271
0.00038150607
0.0003884822
0.0003949464
0.00040041479
0.00040420646
0.00040539409
0.00040276437
0.00039480615
0.00037976315
0.00035583236
0.0003216836
0.00027768032
0.00022862958
0.00018932824
0.00021003495
0.00021464389
0.00021999024
0.00022562639
0.00023122669
0.00023664557
0.00024188771
0.00024703571
0.00025217841
0.00025736617
0.00026258681
0.00026775646
0.00027271397
0.00027720815
0.0002808756
0.00028321288
0.00028355068
0.00028104151
0.00027467694
0.00026336373
0.00024610729
0.00022238175
0.00019280589
0.00016031429
0.00013048937
0.00014674345
0.00014980703
0.00015333746
0.00015709924
0.00016090576
0.0001646547
0.00016832089
0.0001719252
0.00017549951
0.0001790587
0.0001825835
0.00018601052
0.00018922331
0.00019204186
0.00019420818
0.00019536977
0.00019506736
0.00019273338
0.00018771273
0.0001793179
0.00016692829
0.00015011824
0.00012868573
0.00010200766
6.4883843e-05
0.00010156428
0.0001035271
0.00010577737
0.00010818716
0.00011064745
0.00011308856
0.00011548058
0.00011782009
0.00012011313
0.00012235826
0.00012453597
0.00012660005
0.00012847054
0.000130026
0.00013109421
0.00013144295
0.0001307738
0.00012872328
0.00012487584
0.0001187905
0.00011003208
9.8169599e-05
8.2630003e-05
6.2110399e-05
3.2944735e-05
6.8937544e-05
7.0131912e-05
7.1495768e-05
7.2957591e-05
7.4452914e-05
7.5935698e-05
7.7379866e-05
7.8774522e-05
8.0115426e-05
8.1395656e-05
8.2598978e-05
8.3693948e-05
8.4629155e-05
8.5328092e-05
8.5683679e-05
8.5553084e-05
8.4754243e-05
8.3066022e-05
8.0233249e-05
7.5974311e-05
6.9981712e-05
6.1893073e-05
5.1196485e-05
3.7045934e-05
1.8147628e-05
4.5568147e-05
4.6248337e-05
4.702196e-05
4.7848968e-05
4.8691174e-05
4.9519072e-05
5.0312974e-05
5.1061728e-05
5.175845e-05
5.2395884e-05
5.2962227e-05
5.3437841e-05
5.379214e-05
5.3980551e-05
5.3941496e-05
5.3593463e-05
5.2832658e-05
5.1532001e-05
4.954135e-05
4.6686777e-05
4.2764153e-05
3.7521271e-05
3.0632907e-05
2.1716523e-05
1.0605415e-05
2.9245478e-05
2.9602432e-05
3.0006585e-05
3.043572e-05
3.0867691e-05
3.1284133e-05
3.1671677e-05
3.2021565e-05
3.2327688e-05
3.258437e-05
3.2784053e-05
3.291542e-05
3.2961746e-05
3.2899212e-05
3.2695127e-05
3.230624e-05
3.1677138e-05
3.0738641e-05
2.9406193e-05
2.7577132e-05
2.5125931e-05
2.1899416e-05
1.7725269e-05
1.2471952e-05
6.2431422e-06
1.8261939e-05
1.8431556e-05
1.8622546e-05
1.8822791e-05
1.9019936e-05
1.9202987e-05
1.9363583e-05
1.9495757e-05
1.9595204e-05
1.9658185e-05
1.9680367e-05
1.9655787e-05
1.9576022e-05
1.9429254e-05
1.9199336e-05
1.8864692e-05
1.8397136e-05
1.7760368e-05
1.6908181e-05
1.5782198e-05
1.4309742e-05
1.2405317e-05
9.9857891e-06
7.0192467e-06
3.6462676e-06
1.1187158e-05
1.1258345e-05
1.1337932e-05
1.1419553e-05
1.149648e-05
1.1562595e-05
1.1612895e-05
1.1643759e-05
1.16525e-05
1.1636918e-05
1.159474e-05
1.1523062e-05
1.1417898e-05
1.1273684e-05
1.1082775e-05
1.0834678e-05
1.0515205e-05
1.010532e-05
9.5797991e-06
8.9057818e-06
8.0422509e-06
6.9428675e-06
5.5674618e-06
3.9097658e-06
2.0512608e-06
6.8347763e-06
6.8600328e-06
6.8879544e-06
6.9153353e-06
6.9386526e-06
6.9546186e-06
6.9605078e-06
6.9542349e-06
6.9342853e-06
6.8994687e-06
6.8486429e-06
6.7804483e-06
6.6930327e-06
6.5837752e-06
6.448877e-06
6.2829855e-06
6.0784723e-06
5.8245961e-06
5.5069582e-06
5.106459e-06
4.5994142e-06
3.9600003e-06
3.1672132e-06
2.2188503e-06
1.1573495e-06
4.2808924e-06
4.287981e-06
4.2956429e-06
4.302306e-06
4.3061938e-06
4.3056164e-06
4.2991361e-06
4.285638e-06
4.2642849e-06
4.2344485e-06
4.1955359e-06
4.146855e-06
4.0874427e-06
4.0158731e-06
3.9299595e-06
3.8264897e-06
3.700744e-06
3.546003e-06
3.3527895e-06
3.1088784e-06
2.7994764e-06
2.4089379e-06
1.9249262e-06
1.3455407e-06
6.9462203e-07
2.852187e-06
2.8539736e-06
2.8558498e-06
2.8570597e-06
2.8567243e-06
2.8539854e-06
2.8480926e-06
2.8384447e-06
2.8245725e-06
2.8060971e-06
2.7826488e-06
2.7537669e-06
2.7187831e-06
2.6766695e-06
2.6258351e-06
2.5638617e-06
2.4872096e-06
2.3908531e-06
2.2677465e-06
2.108811e-06
1.903476e-06
1.6409e-06
1.3127662e-06
9.1766811e-07
4.7037998e-07
2.0933642e-06
2.0948461e-06
2.0965047e-06
2.0979723e-06
2.0988069e-06
2.0985613e-06
2.0968278e-06
2.093259e-06
2.087555e-06
2.079442e-06
2.0686126e-06
2.0546575e-06
2.0369669e-06
2.0146025e-06
1.9861227e-06
1.9493575e-06
1.9011516e-06
1.8370788e-06
1.7511879e-06
1.6358642e-06
1.4823752e-06
1.2820173e-06
1.0283179e-06
7.2035463e-07
3.6865304e-07
1.7173093e-06
1.7198749e-06
1.7228217e-06
1.7259543e-06
1.7290341e-06
1.7318069e-06
1.7340257e-06
1.7354585e-06
1.7358791e-06
1.7350453e-06
1.7326578e-06
1.7282975e-06
1.721338e-06
1.7108264e-06
1.6953192e-06
1.6726775e-06
1.6398261e-06
1.5925174e-06
1.5251411e-06
1.4307045e-06
1.301211e-06
1.1288298e-06
9.0787733e-07
6.378309e-07
3.3049159e-07
1.5519947e-06
1.5556359e-06
1.5598201e-06
1.5644264e-06
1.5693049e-06
1.5742884e-06
1.5792021e-06
1.5838645e-06
1.5880786e-06
1.5916097e-06
1.5941493e-06
1.595257e-06
1.5942755e-06
1.5902118e-06
1.581578e-06
1.5661918e-06
1.5409456e-06
1.5015878e-06
1.4425617e-06
1.3570305e-06
1.2372331e-06
1.0756227e-06
8.6682765e-07
6.1065096e-07
3.185973e-07
1.4987584e-06
1.5030811e-06
1.5080366e-06
1.5135342e-06
1.5194619e-06
1.525691e-06
1.532079e-06
1.5384673e-06
1.5446706e-06
1.5504553e-06
1.5555039e-06
1.5593571e-06
1.5613294e-06
1.5603885e-06
1.5549957e-06
1.5429056e-06
1.5209394e-06
1.4847674e-06
1.4287627e-06
1.3460397e-06
1.2288285e-06
1.0695941e-06
8.6303979e-07
6.0913472e-07
3.191601e-07
1.5031928e-06
1.5078084e-06
1.5130872e-06
1.5189509e-06
1.5253043e-06
1.5320367e-06
1.5390216e-06
1.5461121e-06
1.5531294e-06
1.5598405e-06
1.5659219e-06
1.5709012e-06
1.5740705e-06
1.5743641e-06
1.5701949e-06
1.5592522e-06
1.5382722e-06
1.5028189e-06
1.4471403e-06
1.3642153e-06
1.2461452e-06
1.0852774e-06
8.7626288e-07
6.1909057e-07
3.2484666e-07
1.5363591e-06
1.540992e-06
1.5462802e-06
1.5521514e-06
1.5585192e-06
1.5652831e-06
1.5723261e-06
1.5795091e-06
1.5866582e-06
1.5935421e-06
1.5998343e-06
1.6050531e-06
1.6084729e-06
1.6089989e-06
1.6049997e-06
1.5940997e-06
1.5729458e-06
1.5369843e-06
1.4803146e-06
1.3957413e-06
1.2751827e-06
1.1108056e-06
8.9713118e-07
6.3411958e-07
3.3297275e-07
1.5833734e-06
1.5878595e-06
1.5929719e-06
1.5986427e-06
1.6047916e-06
1.6113249e-06
1.618133e-06
1.6250831e-06
1.6320061e-06
1.6386729e-06
1.6447556e-06
1.6497653e-06
1.6529615e-06
1.6532229e-06
1.6488755e-06
1.6374801e-06
1.6155928e-06
1.5785365e-06
1.5202523e-06
1.4333558e-06
1.3095633e-06
1.140848e-06
9.2157988e-07
6.5160082e-07
3.4212476e-07
1.6368086e-06
1.6410635e-06
1.6459063e-06
1.651273e-06
1.6570884e-06
1.6632646e-06
1.6696982e-06
1.6762619e-06
1.6827914e-06
1.6890599e-06
1.6947386e-06
1.6993325e-06
1.7020872e-06
1.701856e-06
1.6969232e-06
1.6847862e-06
1.6619095e-06
1.6234902e-06
1.5633074e-06
1.473782e-06
1.3464258e-06
1.1730305e-06
9.4784998e-07
6.7056865e-07
3.5142821e-07
1.6930435e-06
1.6970317e-06
1.7015665e-06
1.7065876e-06
1.7120244e-06
1.7177945e-06
1.7237997e-06
1.729918e-06
1.7359892e-06
1.7417889e-06
1.7469872e-06
1.7510833e-06
1.753309e-06
1.7524925e-06
1.7468768e-06
1.7338958e-06
1.7099217e-06
1.6700252e-06
1.6078215e-06
1.5155347e-06
1.3844702e-06
1.2062477e-06
9.7506018e-07
6.9064446e-07
3.62975e-07
1.7503212e-06
1.7540341e-06
1.7582526e-06
1.7629199e-06
1.7679699e-06
1.7733249e-06
1.7788916e-06
1.7845529e-06
1.7901521e-06
1.7954668e-06
1.8001659e-06
1.8037424e-06
1.8054143e-06
1.8039844e-06
1.7976546e-06
1.783795e-06
1.758686e-06
1.7172716e-06
1.6530024e-06
1.5579038e-06
1.4230675e-06
1.2399252e-06
1.0025984e-06
7.1094487e-07
3.7493797e-07
1.8077553e-06
1.8111977e-06
1.8151061e-06
1.8194275e-06
1.8240997e-06
1.8290495e-06
1.8341882e-06
1.8394026e-06
1.8445394e-06
1.8493776e-06
1.8535845e-06
1.8566467e-06
1.8577681e-06
1.855726e-06
1.8486809e-06
1.8339396e-06
1.8076908e-06
1.7647526e-06
1.6984122e-06
1.6004956e-06
1.4618741e-06
1.273768e-06
1.030175e-06
7.3115476e-07
3.8799641e-07
1.8648358e-06
1.8680182e-06
1.8716293e-06
1.8756195e-06
1.8799302e-06
1.8844925e-06
1.8892216e-06
1.8940082e-06
1.8987016e-06
1.9030819e-06
1.9068144e-06
1.9093789e-06
1.9099648e-06
1.9073241e-06
1.8995756e-06
1.8839633e-06
1.8565849e-06
1.8121341e-06
1.7437362e-06
1.6430195e-06
1.500632e-06
1.3075672e-06
1.0576464e-06
7.5094541e-07
4.0057307e-07
1.9211872e-06
1.9241224e-06
1.9274513e-06
1.9311271e-06
1.9350953e-06
1.9392903e-06
1.9436311e-06
1.9480117e-06
1.9522838e-06
1.9562282e-06
1.9595079e-06
1.9615953e-06
1.9616654e-06
1.9584444e-06
1.95001e-06
1.9335437e-06
1.9050533e-06
1.8591094e-06
1.7886777e-06
1.6851908e-06
1.5390752e-06
1.3410954e-06
1.0848704e-06
7.7027629e-07
4.0966647e-07
1.9764444e-06
1.9791458e-06
1.9822079e-06
1.985587e-06
1.9892317e-06
1.99308e-06
1.9970542e-06
2.0010512e-06
2.0049247e-06
2.0084559e-06
2.011305e-06
2.0129372e-06
2.0125125e-06
2.0087317e-06
1.9996313e-06
1.9823311e-06
1.9527501e-06
1.9053377e-06
1.8329019e-06
1.7266832e-06
1.5768921e-06
1.3740782e-06
1.1116911e-06
7.8952625e-07
4.1999755e-07
2.0301745e-06
2.0326555e-06
2.0354663e-06
2.038566e-06
2.0419061e-06
2.0454279e-06
2.0490567e-06
2.0526921e-06
2.0561895e-06
2.0593299e-06
2.0617708e-06
2.0629696e-06
2.0620716e-06
2.057752e-06
2.0480069e-06
2.0298949e-06
1.999248e-06
1.9503962e-06
1.8759932e-06
1.7670916e-06
1.6136956e-06
1.40616e-06
1.137801e-06
8.0836991e-07
4.3033969e-07
2.081805e-06
2.0840788e-06
2.0866535e-06
2.0894907e-06
2.0925448e-06
2.09576e-06
2.0990643e-06
2.1023596e-06
2.1055028e-06
2.1082747e-06
2.1103294e-06
2.1111166e-06
2.1097668e-06
2.10493e-06
2.0945624e-06
2.075663e-06
2.0439784e-06
1.9937229e-06
1.9174003e-06
1.8058827e-06
1.64898e-06
1.4368684e-06
1.1627094e-06
8.2599755e-07
4.3907129e-07
2.1305338e-06
2.1326135e-06
2.1349671e-06
2.1375585e-06
2.1403449e-06
2.143273e-06
2.1462733e-06
2.1492499e-06
2.1520607e-06
2.1544858e-06
2.1561761e-06
2.1565735e-06
2.1547936e-06
2.1494617e-06
2.1384953e-06
2.1188354e-06
2.0861471e-06
2.0345335e-06
1.9563564e-06
1.842319e-06
1.682053e-06
1.4655782e-06
1.1859276e-06
8.4237897e-07
4.4533272e-07
2.1752012e-06
2.1771e-06
2.1792474e-06
2.1816098e-06
2.1841466e-06
2.186807e-06
2.1895239e-06
2.1922028e-06
2.1947028e-06
2.1968031e-06
2.1981509e-06
2.1981802e-06
2.1959923e-06
2.1901884e-06
2.1786489e-06
2.1582601e-06
2.1246103e-06
2.0716998e-06
1.9917608e-06
1.8753447e-06
1.7119286e-06
1.491404e-06
1.2067232e-06
8.5708685e-07
4.5107997e-07
2.2141104e-06
2.2158413e-06
2.2177975e-06
2.2199476e-06
2.2222531e-06
2.2246652e-06
2.227119e-06
2.2295216e-06
2.2317325e-06
2.2335298e-06
2.2345572e-06
2.2342407e-06
2.2316677e-06
2.2254168e-06
2.2133336e-06
2.1922547e-06
2.1576992e-06
2.1035777e-06
2.0220113e-06
1.9034262e-06
1.7371764e-06
1.51306e-06
1.223992e-06
8.6928098e-07
4.5838211e-07
2.244782e-06
2.2463581e-06
2.2481382e-06
2.2500925e-06
2.2521847e-06
2.2543681e-06
2.2565793e-06
2.2587267e-06
2.2606702e-06
2.2621866e-06
2.262916e-06
2.2622768e-06
2.2593434e-06
2.2526739e-06
2.2400834e-06
2.2183655e-06
2.1829829e-06
2.1277752e-06
2.0447813e-06
1.9243418e-06
1.7557385e-06
1.5287389e-06
1.2363112e-06
8.7792086e-07
4.6132748e-07
2.2636407e-06
2.2650749e-06
2.2666935e-06
2.2684685e-06
2.2703653e-06
2.2723389e-06
2.2743275e-06
2.2762407e-06
2.2779383e-06
2.2791962e-06
2.2796506e-06
2.2787135e-06
2.275448e-06
2.268395e-06
2.2553455e-06
2.2330619e-06
2.1969681e-06
2.1408617e-06
2.0567417e-06
1.9349208e-06
1.7646821e-06
1.5358469e-06
1.2415405e-06
8.8156052e-07
4.6382651e-07
2.2656459e-06
2.2669506e-06
2.2684218e-06
2.270033e-06
2.2717512e-06
2.273533e-06
2.2753181e-06
2.2770169e-06
2.2784897e-06
2.2795113e-06
2.2797151e-06
2.278508e-06
2.274945e-06
2.2675557e-06
2.2541176e-06
2.2313782e-06
2.1947509e-06
2.1380327e-06
2.0532434e-06
1.9307506e-06
1.7599404e-06
1.5307981e-06
1.2367006e-06
8.7783625e-07
4.6232164e-07
2.2439102e-06
2.2450969e-06
2.2464336e-06
2.2478951e-06
2.2494498e-06
2.2510558e-06
2.2526542e-06
2.2541568e-06
2.2554243e-06
2.2562317e-06
2.2562112e-06
2.2547676e-06
2.2509532e-06
2.2432962e-06
2.2295762e-06
2.2065524e-06
2.1696676e-06
2.1127787e-06
2.0280119e-06
1.905904e-06
1.7360841e-06
1.5088489e-06
1.2179336e-06
8.638995e-07
4.5501649e-07
2.1894025e-06
2.1904815e-06
2.1916948e-06
2.1930183e-06
2.1944217e-06
2.1958644e-06
2.1972895e-06
2.1986104e-06
2.1996901e-06
2.2003051e-06
2.2000899e-06
2.1984525e-06
2.1944522e-06
2.1866306e-06
2.1727947e-06
2.1497541e-06
2.1130394e-06
2.0566521e-06
1.9729423e-06
1.8527702e-06
1.6861947e-06
1.4640234e-06
1.1805161e-06
8.3670062e-07
4.4247314e-07
2.0909107e-06
2.0918903e-06
2.0929888e-06
2.0941826e-06
2.0954426e-06
2.0967298e-06
2.0979895e-06
2.0991387e-06
2.1000445e-06
2.1004887e-06
2.1001135e-06
2.0983398e-06
2.0942485e-06
2.0864187e-06
2.0727223e-06
2.0500759e-06
2.0141797e-06
1.9592957e-06
1.8781545e-06
1.7621395e-06
1.6019757e-06
1.3892237e-06
1.1188353e-06
7.9220349e-07
4.188427e-07
1.9355338e-06
1.9364195e-06
1.9374076e-06
1.9384749e-06
1.9395936e-06
1.9407269e-06
1.9418227e-06
1.9428045e-06
1.9435473e-06
1.9438423e-06
1.9433485e-06
1.9415162e-06
1.9374705e-06
1.9298635e-06
1.9166871e-06
1.8950442e-06
1.8609149e-06
1.8089744e-06
1.7325346e-06
1.6237467e-06
1.4742781e-06
1.2767166e-06
1.0268928e-06
7.2648861e-07
3.8255364e-07
1.7100243e-06
1.7108156e-06
1.711691e-06
1.712627e-06
1.7135994e-06
1.7145768e-06
1.715505e-06
1.71632e-06
1.716912e-06
1.7170797e-06
1.7165127e-06
1.7147236e-06
1.7109162e-06
1.7038572e-06
1.6917411e-06
1.671962e-06
1.6409172e-06
1.5938878e-06
1.5250142e-06
1.4274964e-06
1.294238e-06
1.1191237e-06
8.9903214e-07
6.3588991e-07
3.3683193e-07
1.4030807e-06
1.4037656e-06
1.4045161e-06
1.4053063e-06
1.4061277e-06
1.4069676e-06
1.4077306e-06
1.4083896e-06
1.408869e-06
1.4089324e-06
1.4083238e-06
1.4067083e-06
1.4034144e-06
1.3973282e-06
1.3869926e-06
1.3702182e-06
1.3439724e-06
1.3043695e-06
1.2466644e-06
1.1654137e-06
1.0550271e-06
9.1088602e-07
7.3097133e-07
5.1730925e-07
2.7520406e-07
1.0084238e-06
1.0089684e-06
1.0095642e-06
1.0101864e-06
1.0108797e-06
1.011692e-06
1.0123328e-06
1.0128902e-06
1.0133817e-06
1.0133738e-06
1.0127145e-06
1.0114447e-06
1.0090611e-06
1.0043505e-06
9.9665259e-07
9.8426098e-07
9.648618e-07
9.3563308e-07
8.9316532e-07
8.3387536e-07
7.5379523e-07
6.4988104e-07
5.2110239e-07
3.6937488e-07
1.9838614e-07
5.3094767e-07
5.3127509e-07
5.3164037e-07
5.3203919e-07
5.3260268e-07
5.3347219e-07
5.3401699e-07
5.3450741e-07
5.3511056e-07
5.3509401e-07
5.3445887e-07
5.3375099e-07
5.3260083e-07
5.2921409e-07
5.2492429e-07
5.1828716e-07
5.078363e-07
4.919044e-07
4.6767673e-07
4.3605212e-07
3.9370494e-07
3.3904523e-07
2.7175162e-07
1.9330082e-07
1.0796461e-07
)
;

boundaryField
{
    Walls
    {
        type            kqRWallFunction;
        value           nonuniform List<scalar> 
38
(
5.1593098e-06
2.571358e-06
7.9484e-06
3.7537419e-05
0.00028098474
0.0023665702
0.056251909
0.060952475
0.018399194
0.027386032
0.034399325
0.041283772
0.047391163
0.052328646
0.056390081
0.059630551
0.062172183
0.06436046
0.06619138
0.067308683
0.068539373
0.069561555
0.069905967
0.070833654
0.071752552
0.071831191
0.072391945
0.072807416
0.072980232
0.072840391
0.072879853
0.073352358
0.073395403
0.073053181
0.073114611
0.07249895
0.071564721
0.066600609
)
;
    }
    Inlet
    {
        type            turbulentIntensityKineticEnergyInlet;
        intensity       0.05;
        value           nonuniform List<scalar> 3(0.0076759198 0.0094650518 0.0094425114);
    }
    Outlet
    {
        type            inletOutlet;
        inletValue      uniform 0;
        value           nonuniform List<scalar> 
86
(
5.2983728e-07
5.2995401e-07
5.3016996e-07
5.3040886e-07
5.3066267e-07
5.3094767e-07
5.3127509e-07
5.3164037e-07
5.3203919e-07
5.3260268e-07
5.3347219e-07
5.3401699e-07
5.3450741e-07
5.3511056e-07
5.3509401e-07
5.3445887e-07
5.3375099e-07
5.3260083e-07
5.2921409e-07
5.2492429e-07
5.1828716e-07
5.078363e-07
4.919044e-07
4.6767673e-07
4.3605212e-07
3.9370494e-07
3.3904523e-07
2.7175162e-07
1.9330082e-07
1.0796461e-07
0.0031338439
0.0032371143
0.0026416243
0
0
0
0
0.00022467315
0.00018932824
0.00013048937
0
0
0
1.0605415e-05
6.2431422e-06
3.6462676e-06
2.0512608e-06
1.1573495e-06
6.9462203e-07
4.7037998e-07
3.6865304e-07
3.3049159e-07
3.185973e-07
3.191601e-07
3.2484666e-07
3.3297275e-07
3.4212476e-07
3.5142821e-07
3.62975e-07
3.7493797e-07
3.8799641e-07
4.0057307e-07
4.0966647e-07
4.1999755e-07
4.3033969e-07
4.3907129e-07
4.4533272e-07
0
0
0
0
0
0
0
0
0
0
0
0
1.0796461e-07
0
0
0
0
0.0025783931
0.0032354056
)
;
    }
    Front
    {
        type            wedge;
    }
    Back
    {
        type            wedge;
    }
    defaultFaces
    {
        type            empty;
    }
}


// ************************************************************************* //
