/*--------------------------------*- C++ -*----------------------------------*\
| =========                 |                                                 |
| \\      /  F ield         | OpenFOAM: The Open Source CFD Toolbox           |
|  \\    /   O peration     | Version:  4.0                                   |
|   \\  /    A nd           | Web:      www.OpenFOAM.org                      |
|    \\/     M anipulation  |                                                 |
\*---------------------------------------------------------------------------*/
FoamFile
{
    version     2.0;
    format      ascii;
    class       volScalarField;
    location    "0.36";
    object      nut;
}
// * * * * * * * * * * * * * * * * * * * * * * * * * * * * * * * * * * * * * //

dimensions      [0 2 -1 0 0 0 0];

internalField   nonuniform List<scalar> 
1740
(
1.2215498e-05
1.365482e-05
1.2331216e-06
8.8208216e-06
6.9057759e-06
1.8220589e-06
9.1924831e-06
5.4683381e-06
2.2758144e-06
1.3615114e-05
4.8623672e-06
2.7165676e-06
1.2898263e-05
4.430162e-06
3.1034234e-06
1.6029043e-05
4.0788048e-06
3.4136849e-06
1.3400873e-05
3.8588325e-06
3.6671783e-06
1.1565022e-05
3.7219569e-06
3.8677431e-06
1.0195686e-05
3.6344838e-06
4.024772e-06
9.1032029e-06
3.5752413e-06
4.1601496e-06
8.3205768e-06
3.5336514e-06
4.2721852e-06
7.8328035e-06
3.5051573e-06
4.3408599e-06
7.3881633e-06
3.4849539e-06
4.4159553e-06
6.8779699e-06
3.4921952e-06
4.4781877e-06
6.5263664e-06
3.4892007e-06
4.4997106e-06
6.225822e-06
3.4704575e-06
4.5552235e-06
5.9674581e-06
3.4755485e-06
4.6106651e-06
5.6638919e-06
3.4903674e-06
4.6163511e-06
5.4205489e-06
3.5012033e-06
4.6513306e-06
5.2524107e-06
3.5356805e-06
4.6757762e-06
5.1009849e-06
3.5485498e-06
4.6857527e-06
4.9308233e-06
3.5425968e-06
4.6766271e-06
4.7808367e-06
3.5282498e-06
4.6798392e-06
4.650053e-06
3.5444344e-06
4.7092927e-06
4.531774e-06
3.5680992e-06
4.7109685e-06
4.4120426e-06
3.5794072e-06
4.6905171e-06
4.3154906e-06
3.5740576e-06
4.6952629e-06
4.226386e-06
3.6078072e-06
4.6572319e-06
4.1711117e-06
3.60849e-06
4.5997865e-06
2.8659448e-06
3.4162701e-06
4.2967873e-06
1.8983547e-06
2.122726e-06
4.4060821e-06
7.1841586e-06
7.3682213e-06
6.7259649e-06
6.5356902e-06
6.7418383e-06
6.3726587e-06
5.1718895e-06
5.1087576e-06
4.8666081e-06
4.3317629e-06
4.2600835e-06
4.1269257e-06
3.7819424e-06
3.7394702e-06
3.6799141e-06
3.393661e-06
3.3761667e-06
3.3604495e-06
3.0853577e-06
3.0827625e-06
3.0898149e-06
2.8001705e-06
2.8047279e-06
2.8213705e-06
2.5002653e-06
2.5072251e-06
2.5258517e-06
2.1662335e-06
2.1730432e-06
2.1896834e-06
1.7982268e-06
1.803734e-06
1.8166985e-06
1.4151767e-06
1.419067e-06
1.4280758e-06
1.0487586e-06
1.0511845e-06
1.0567686e-06
7.3132427e-07
7.3264965e-07
7.3570583e-07
4.8307837e-07
4.8369892e-07
4.8514804e-07
3.0667019e-07
3.0690403e-07
3.0747423e-07
1.9144385e-07
1.9150773e-07
1.916829e-07
1.2168847e-07
1.2169835e-07
1.2173447e-07
8.1892878e-08
8.1890593e-08
8.1892435e-08
6.0477627e-08
6.0479172e-08
6.0486488e-08
4.9811511e-08
4.9820276e-08
4.9842473e-08
4.518401e-08
4.5198611e-08
4.5233498e-08
4.382657e-08
4.3844703e-08
4.3887417e-08
4.4175097e-08
4.4194914e-08
4.4241238e-08
4.5376348e-08
4.5396643e-08
4.5443704e-08
4.6981129e-08
4.7001169e-08
4.7047235e-08
4.8762012e-08
4.8781367e-08
4.8825484e-08
5.0608527e-08
5.0626961e-08
5.0668659e-08
5.2468976e-08
5.2486368e-08
5.2525462e-08
5.4319448e-08
5.4335751e-08
5.437221e-08
5.6148104e-08
5.6163314e-08
5.6197188e-08
5.7947633e-08
5.7961768e-08
5.7993146e-08
5.9711846e-08
5.972494e-08
5.975393e-08
6.1434294e-08
6.1446387e-08
6.1473107e-08
6.31078e-08
6.311894e-08
6.3143513e-08
6.4724423e-08
6.4734662e-08
6.4757219e-08
6.627562e-08
6.6285015e-08
6.630569e-08
6.775252e-08
6.7761133e-08
6.7780069e-08
6.9146257e-08
6.9154152e-08
6.9171498e-08
7.0448304e-08
7.045555e-08
7.0471462e-08
7.1650726e-08
7.1657397e-08
7.1672036e-08
7.2746236e-08
7.2752405e-08
7.2765937e-08
7.3727919e-08
7.3733663e-08
7.3746256e-08
7.4588463e-08
7.4593866e-08
7.4605692e-08
7.5312858e-08
7.5317984e-08
7.5329194e-08
7.5882223e-08
7.5887138e-08
7.5897881e-08
7.6264276e-08
7.6269053e-08
7.6279476e-08
7.6392895e-08
7.6397602e-08
7.6407844e-08
7.6074378e-08
7.6079042e-08
7.6089175e-08
4.1728938e-06
4.5031263e-06
6.7041415e-06
8.4258239e-06
5.9901515e-06
6.0309949e-06
4.7209654e-06
4.8248519e-06
4.0791865e-06
4.1868415e-06
3.6817262e-06
3.7816436e-06
3.3875129e-06
3.4775561e-06
3.1273496e-06
3.2064133e-06
2.8603603e-06
2.9275866e-06
2.5610556e-06
2.6159132e-06
2.2184636e-06
2.2609932e-06
1.8382269e-06
1.8691854e-06
1.442764e-06
1.4636252e-06
1.0658183e-06
1.0786309e-06
7.4067576e-07
7.4774359e-07
4.8754138e-07
4.9099271e-07
3.0845597e-07
3.0991735e-07
1.9201408e-07
1.9253966e-07
1.2182093e-07
1.2197935e-07
8.1911432e-08
8.1959617e-08
6.0506606e-08
6.0546218e-08
4.9881883e-08
4.9942224e-08
4.5290765e-08
4.5372454e-08
4.3955914e-08
4.4051265e-08
4.4314716e-08
4.4415828e-08
4.5517754e-08
4.5618888e-08
4.7119194e-08
4.7216876e-08
4.8893941e-08
4.8986392e-08
5.0732988e-08
5.0819485e-08
5.2585481e-08
5.2665889e-08
5.4427964e-08
5.4502434e-08
5.6248824e-08
5.6317631e-08
5.8040856e-08
5.810431e-08
5.979792e-08
5.9856336e-08
6.1513587e-08
6.1567274e-08
6.3180693e-08
6.3229951e-08
6.479131e-08
6.4836438e-08
6.6336911e-08
6.6378207e-08
6.7808641e-08
6.7846411e-08
6.9197654e-08
6.9232211e-08
7.0495443e-08
7.052711e-08
7.1694089e-08
7.1723197e-08
7.2786315e-08
7.2813199e-08
7.3765211e-08
7.3790206e-08
7.4623473e-08
7.4646904e-08
7.5346034e-08
7.5368213e-08
7.5914001e-08
7.5935214e-08
7.629508e-08
7.6315585e-08
7.6423105e-08
7.6443106e-08
7.6104175e-08
7.6123757e-08
4.2786777e-10
1.324559e-08
1.9318777e-07
8.2706092e-07
1.6445793e-06
2.2313172e-06
2.5762434e-06
2.7844587e-06
2.9283163e-06
3.0434249e-06
3.1468759e-06
3.2525002e-06
3.3573102e-06
3.4602063e-06
3.5603893e-06
3.6565099e-06
3.7461321e-06
3.8251546e-06
3.8869335e-06
3.9209656e-06
3.9107394e-06
3.8301524e-06
3.636998e-06
3.2554895e-06
2.449967e-06
2.1324678e-10
2.6885344e-08
3.6001886e-07
1.3778409e-06
2.5715501e-06
3.3802798e-06
3.85348e-06
4.1599864e-06
4.3943764e-06
4.5993956e-06
4.795559e-06
4.9952302e-06
5.1963162e-06
5.3977794e-06
5.5979395e-06
5.7940566e-06
5.9814075e-06
6.1522641e-06
6.2940111e-06
6.3865095e-06
6.3976408e-06
6.2753549e-06
5.932306e-06
5.2082584e-06
3.6762124e-06
6.5917084e-10
7.8717471e-08
8.5683254e-07
2.5067505e-06
3.793019e-06
4.5300996e-06
4.9940336e-06
5.3397872e-06
5.639946e-06
5.9269076e-06
6.2159455e-06
6.5137226e-06
6.8188337e-06
7.130084e-06
7.4460071e-06
7.7635121e-06
8.0763949e-06
8.3747424e-06
8.6409736e-06
8.8465814e-06
8.9452428e-06
8.8598264e-06
8.4556062e-06
7.4751717e-06
5.2770608e-06
3.112936e-09
2.8468462e-07
2.0591238e-06
3.9991053e-06
5.0403448e-06
5.6288698e-06
6.0364502e-06
6.379688e-06
6.7086566e-06
7.041992e-06
7.3904788e-06
7.7570394e-06
8.1382486e-06
8.5327505e-06
8.9403543e-06
9.3596279e-06
9.7855747e-06
1.0208677e-05
1.0612338e-05
1.0968826e-05
1.1232235e-05
1.1324653e-05
1.1103245e-05
1.0260403e-05
7.8698696e-06
2.3295952e-08
1.1363693e-06
3.9819631e-06
5.5884253e-06
6.4396463e-06
6.9610713e-06
7.3457007e-06
7.6933869e-06
8.0442274e-06
8.4001108e-06
8.7744464e-06
9.1736921e-06
9.5876073e-06
1.0011454e-05
1.0448027e-05
1.0901843e-05
1.1372139e-05
1.185429e-05
1.2338379e-05
1.2806259e-05
1.3227033e-05
1.3550922e-05
1.3701929e-05
1.3585116e-05
1.3172724e-05
1.9578915e-07
2.7565925e-06
5.9006864e-06
7.7002577e-06
8.612399e-06
9.0277071e-06
9.223195e-06
9.3601783e-06
9.4997837e-06
9.6599248e-06
9.8483961e-06
1.0071246e-05
1.03287e-05
1.0620678e-05
1.094821e-05
1.1312172e-05
1.1712605e-05
1.2147489e-05
1.261179e-05
1.3095722e-05
1.3581735e-05
1.4041268e-05
1.4431694e-05
1.4705123e-05
1.4805135e-05
4.3491654e-06
4.3273933e-06
4.375821e-06
4.4884918e-06
4.6637749e-06
4.8913699e-06
5.16135e-06
5.4714371e-06
5.8244929e-06
6.2229692e-06
6.6666768e-06
7.1525256e-06
7.6743744e-06
8.2243436e-06
8.7947762e-06
9.3801084e-06
9.9773425e-06
1.0584877e-05
1.1200787e-05
1.1820622e-05
1.2434378e-05
1.3023404e-05
1.355765e-05
1.4001177e-05
1.4287475e-05
9.1241255e-06
9.3748864e-06
9.768382e-06
1.0181672e-05
1.0354547e-05
1.0316281e-05
1.0198332e-05
1.0101574e-05
1.0065695e-05
1.0092087e-05
1.017617e-05
1.0313041e-05
1.0500523e-05
1.0738059e-05
1.1025268e-05
1.1361411e-05
1.1744478e-05
1.2170582e-05
1.2632829e-05
1.3119269e-05
1.3609809e-05
1.4073093e-05
1.4463652e-05
1.4732259e-05
1.4825318e-05
6.4017865e-06
6.8096341e-06
7.2394635e-06
7.6383039e-06
7.9402191e-06
8.1582599e-06
8.3518675e-06
8.5603282e-06
8.7918771e-06
9.0607621e-06
9.3635365e-06
9.6909401e-06
1.0038146e-05
1.0411284e-05
1.0814145e-05
1.1247319e-05
1.1707957e-05
1.2189054e-05
1.2677523e-05
1.3151231e-05
1.3574473e-05
1.3892079e-05
1.4022824e-05
1.3868844e-05
1.3407923e-05
5.1374246e-06
5.4937712e-06
5.8440596e-06
6.1607586e-06
6.4270827e-06
6.655419e-06
6.8757279e-06
7.1081574e-06
7.3637619e-06
7.6490195e-06
7.9617458e-06
8.2992942e-06
8.6614345e-06
9.0492489e-06
9.4623566e-06
9.8972829e-06
1.0346245e-05
1.0795495e-05
1.1222736e-05
1.1592997e-05
1.1851706e-05
1.1911494e-05
1.1620461e-05
1.0661478e-05
8.0841499e-06
4.4289369e-06
4.7179586e-06
5.0078209e-06
5.2778616e-06
5.5221049e-06
5.7484409e-06
5.9711761e-06
6.202997e-06
6.4523536e-06
6.7233138e-06
7.0155125e-06
7.3277793e-06
7.6597969e-06
8.0106972e-06
8.3779427e-06
8.7550738e-06
9.1306696e-06
9.4864513e-06
9.7945505e-06
1.001339e-05
1.0081123e-05
9.9041358e-06
9.3336963e-06
8.1066594e-06
5.5911779e-06
3.9681673e-06
4.1957705e-06
4.4316251e-06
4.6597704e-06
4.8762491e-06
5.0855906e-06
5.2957543e-06
5.5143645e-06
5.7470097e-06
5.9964877e-06
6.2630411e-06
6.5458991e-06
6.8440096e-06
7.1550716e-06
7.4743954e-06
7.793769e-06
8.1000629e-06
8.3735678e-06
8.5858396e-06
8.6967865e-06
8.6505552e-06
8.3690706e-06
7.7394208e-06
6.5773732e-06
4.4096318e-06
3.624504e-06
3.804321e-06
3.9958796e-06
4.1873048e-06
4.3749545e-06
4.560739e-06
4.749073e-06
4.9446359e-06
5.1510809e-06
5.3703865e-06
5.6029107e-06
5.8479645e-06
6.1040459e-06
6.3681855e-06
6.6350465e-06
6.8959951e-06
7.1380792e-06
7.3428078e-06
7.4847908e-06
7.5302448e-06
7.435354e-06
7.144075e-06
6.5828437e-06
5.6362389e-06
3.9515421e-06
3.3239544e-06
3.4669678e-06
3.6222947e-06
3.7814327e-06
3.9409691e-06
4.1012514e-06
4.2645634e-06
4.4336775e-06
4.6108919e-06
4.7975051e-06
4.9937166e-06
5.1987726e-06
5.4109229e-06
5.6269816e-06
5.8416835e-06
6.046979e-06
6.2312942e-06
6.3787882e-06
6.4687302e-06
6.4751954e-06
6.3674583e-06
6.1118745e-06
5.6777068e-06
5.0586119e-06
4.3745091e-06
3.0215024e-06
3.134901e-06
3.259659e-06
3.3897671e-06
3.5222166e-06
3.6565024e-06
3.793604e-06
3.9350568e-06
4.0822182e-06
4.2358485e-06
4.3959443e-06
4.5616788e-06
4.7312795e-06
4.9017074e-06
5.0682125e-06
5.2238413e-06
5.3589698e-06
5.460941e-06
5.5139678e-06
5.4995652e-06
5.3980248e-06
5.1920959e-06
4.8760982e-06
4.4808258e-06
4.1393834e-06
2.6895952e-06
2.778022e-06
2.8761235e-06
2.979682e-06
3.0861611e-06
3.1946556e-06
3.305374e-06
3.4190405e-06
3.5363765e-06
3.6577598e-06
3.7830258e-06
3.9113551e-06
4.0411374e-06
4.1697447e-06
4.2932364e-06
4.4060551e-06
4.5007755e-06
4.5680002e-06
4.5965392e-06
4.5740956e-06
4.4888229e-06
4.3324449e-06
4.1064338e-06
3.8349737e-06
3.5746979e-06
2.3168136e-06
2.3835609e-06
2.4580333e-06
2.5372839e-06
2.6192546e-06
2.7029169e-06
2.7880457e-06
2.8748577e-06
2.9636577e-06
3.0545637e-06
3.1473311e-06
3.2412373e-06
3.3349615e-06
3.4264427e-06
3.5127087e-06
3.5897135e-06
3.6522424e-06
3.6939485e-06
3.7076174e-06
3.6857574e-06
3.6215812e-06
3.5102156e-06
3.348714e-06
3.127185e-06
2.7566185e-06
1.9093255e-06
1.957269e-06
2.0109853e-06
2.0684356e-06
2.1280185e-06
2.188751e-06
2.2502041e-06
2.3122997e-06
2.3750849e-06
2.43852e-06
2.5023491e-06
2.5659987e-06
2.6284985e-06
2.6884048e-06
2.7437195e-06
2.791834e-06
2.8295296e-06
2.8530745e-06
2.8584543e-06
2.8417206e-06
2.7992944e-06
2.7276097e-06
2.6199307e-06
2.4519066e-06
2.1043578e-06
1.4905412e-06
1.5227148e-06
1.558885e-06
1.5976689e-06
1.637879e-06
1.6786819e-06
1.719597e-06
1.7604055e-06
1.8010124e-06
1.8413033e-06
1.8810533e-06
1.9198549e-06
1.9570768e-06
1.991833e-06
2.0229663e-06
2.0490553e-06
2.0684601e-06
2.0794219e-06
2.0802108e-06
2.0692458e-06
2.0449486e-06
2.0047165e-06
1.9414246e-06
1.8324426e-06
1.5901436e-06
1.095168e-06
1.1149841e-06
1.1373176e-06
1.1612724e-06
1.1860165e-06
1.2109106e-06
1.2355233e-06
1.2596035e-06
1.2830011e-06
1.305586e-06
1.3271842e-06
1.3475409e-06
1.3663001e-06
1.383003e-06
1.3971043e-06
1.4080058e-06
1.4151067e-06
1.4178733e-06
1.4159048e-06
1.4089125e-06
1.3964151e-06
1.3767325e-06
1.3444273e-06
1.2839969e-06
1.1467648e-06
7.5691091e-07
7.6794148e-07
7.803953e-07
7.9372264e-07
8.0738166e-07
8.2092261e-07
8.340152e-07
8.464421e-07
8.5805942e-07
8.6875605e-07
8.7841632e-07
8.8690086e-07
8.9404352e-07
8.9966073e-07
9.0357236e-07
9.0563655e-07
9.0578609e-07
9.0405735e-07
9.0060027e-07
8.9560962e-07
8.8905914e-07
8.8002043e-07
8.6521814e-07
8.3609859e-07
7.7023591e-07
4.9551885e-07
5.0100189e-07
5.0720242e-07
5.1380146e-07
5.204734e-07
5.2692696e-07
5.3293914e-07
5.3835154e-07
5.4305656e-07
5.4697698e-07
5.5004773e-07
5.5220648e-07
5.5339672e-07
5.5357648e-07
5.5273641e-07
5.5092426e-07
5.4826001e-07
5.449373e-07
5.4120748e-07
5.3731941e-07
5.333616e-07
5.289116e-07
5.224085e-07
5.1011215e-07
4.8379818e-07
3.1187714e-07
3.1428271e-07
3.1701027e-07
3.1988652e-07
3.2272644e-07
3.253603e-07
3.2764882e-07
3.2949229e-07
3.3082161e-07
3.3159122e-07
3.3177099e-07
3.3134177e-07
3.3029849e-07
3.2865656e-07
3.2645859e-07
3.2379559e-07
3.2080526e-07
3.1766262e-07
3.145558e-07
3.116503e-07
3.0902816e-07
3.0654175e-07
3.0360914e-07
2.9898609e-07
2.9029585e-07
1.9327353e-07
1.9419306e-07
1.9523667e-07
1.9631605e-07
1.9733312e-07
1.9819585e-07
1.988281e-07
1.9917302e-07
1.9919312e-07
1.9886632e-07
1.9818256e-07
1.9714265e-07
1.9575976e-07
1.9406436e-07
1.9209409e-07
1.8992432e-07
1.8765627e-07
1.8540878e-07
1.8328217e-07
1.8135266e-07
1.796737e-07
1.78211e-07
1.7678213e-07
1.7504382e-07
1.7245325e-07
1.2221899e-07
1.2253049e-07
1.2288492e-07
1.2323895e-07
1.2354296e-07
1.2374949e-07
1.238184e-07
1.2371965e-07
1.2343324e-07
1.22949e-07
1.2226433e-07
1.2138411e-07
1.2032112e-07
1.19098e-07
1.1774778e-07
1.1631503e-07
1.1487659e-07
1.1355272e-07
1.1234356e-07
1.1124515e-07
1.1028877e-07
1.094759e-07
1.0874718e-07
1.0798619e-07
1.0702086e-07
8.2043038e-08
8.2158504e-08
8.2293051e-08
8.2426063e-08
8.2533115e-08
8.2590253e-08
8.2576785e-08
8.247695e-08
8.2280149e-08
8.1980867e-08
8.1577984e-08
8.1074408e-08
8.0477518e-08
7.9800385e-08
7.9063659e-08
7.8291225e-08
7.7525462e-08
7.6825523e-08
7.6255273e-08
7.5753001e-08
7.5308812e-08
7.4928828e-08
7.4587488e-08
7.4219883e-08
7.3681037e-08
6.0609171e-08
6.0694776e-08
6.079736e-08
6.0907189e-08
6.1012188e-08
6.1100073e-08
6.1159822e-08
6.1182585e-08
6.1161814e-08
6.1093438e-08
6.0975445e-08
6.0807999e-08
6.0593831e-08
6.0339096e-08
6.0054314e-08
5.9754752e-08
5.9458924e-08
5.9198216e-08
5.9013934e-08
5.8892222e-08
5.8776554e-08
5.8670892e-08
5.8559674e-08
5.8396915e-08
5.8060189e-08
5.0025861e-08
5.0132914e-08
5.0260814e-08
5.0404626e-08
5.0557985e-08
5.0713985e-08
5.0865975e-08
5.1008041e-08
5.1135146e-08
5.1243256e-08
5.1329378e-08
5.1391758e-08
5.1430296e-08
5.1447167e-08
5.1447372e-08
5.143927e-08
5.1430642e-08
5.1438173e-08
5.1482631e-08
5.1581118e-08
5.1656118e-08
5.1710517e-08
5.1731641e-08
5.1682946e-08
5.1467028e-08
4.5479941e-08
4.5613479e-08
4.577161e-08
4.5951375e-08
4.6148753e-08
4.6359097e-08
4.6577548e-08
4.679931e-08
4.7019835e-08
4.7234971e-08
4.7441171e-08
4.7635758e-08
4.7817282e-08
4.7985899e-08
4.8143729e-08
4.8295212e-08
4.8443547e-08
4.8598016e-08
4.8771083e-08
4.8979731e-08
4.9154461e-08
4.9293967e-08
4.9385288e-08
4.9395694e-08
4.9240545e-08
4.4174185e-08
4.4324792e-08
4.4501912e-08
4.4703259e-08
4.4925674e-08
4.5165379e-08
4.5418223e-08
4.5679889e-08
4.5946088e-08
4.6212754e-08
4.6476278e-08
4.6733769e-08
4.6983323e-08
4.7224263e-08
4.7457295e-08
4.7684529e-08
4.7909168e-08
4.8134787e-08
4.8370118e-08
4.8628048e-08
4.8849219e-08
4.9029073e-08
4.9153359e-08
4.9190012e-08
4.9057726e-08
4.4544826e-08
4.4701602e-08
4.4884966e-08
4.5092811e-08
4.5322292e-08
4.5570005e-08
4.5832172e-08
4.610482e-08
4.6383976e-08
4.6665864e-08
4.6947134e-08
4.7225079e-08
4.7497843e-08
4.7764565e-08
4.802546e-08
4.828182e-08
4.8536095e-08
4.8790093e-08
4.9049741e-08
4.9324587e-08
4.9563271e-08
4.9758916e-08
4.9895593e-08
4.9939981e-08
4.9808581e-08
4.5747021e-08
4.5901813e-08
4.6081987e-08
4.6285501e-08
4.6509682e-08
4.675139e-08
4.7007168e-08
4.7273407e-08
4.7546523e-08
4.7823151e-08
4.8100343e-08
4.8375751e-08
4.8647788e-08
4.8915725e-08
4.9179709e-08
4.9440704e-08
4.9700415e-08
4.9961193e-08
5.0225824e-08
5.0501499e-08
5.0743235e-08
5.0942345e-08
5.1081179e-08
5.1124453e-08
5.0984433e-08
4.733996e-08
4.7487901e-08
4.7659366e-08
4.7852377e-08
4.8064438e-08
4.8292673e-08
4.8533954e-08
4.8785058e-08
4.9042823e-08
4.9304321e-08
4.9567041e-08
4.9829042e-08
5.0089086e-08
5.0346702e-08
5.060217e-08
5.0856421e-08
5.1110931e-08
5.1367735e-08
5.1628295e-08
5.1897628e-08
5.2135887e-08
5.2332873e-08
5.2469377e-08
5.250815e-08
5.2356234e-08
4.9102344e-08
4.9241106e-08
4.9401328e-08
4.958113e-08
4.977821e-08
4.9989959e-08
5.021358e-08
5.0446226e-08
5.0685139e-08
5.0927812e-08
5.1172147e-08
5.1416602e-08
5.1660298e-08
5.1903062e-08
5.2145387e-08
5.2388292e-08
5.2633155e-08
5.2881651e-08
5.3134574e-08
5.3394989e-08
5.3627257e-08
5.3819848e-08
5.3952108e-08
5.398503e-08
5.38202e-08
5.0927547e-08
5.1056385e-08
5.1204672e-08
5.1370643e-08
5.1552192e-08
5.1746969e-08
5.1952488e-08
5.2166242e-08
5.2385842e-08
5.2609156e-08
5.2834464e-08
5.3060588e-08
5.3286989e-08
5.35138e-08
5.3741748e-08
5.3971983e-08
5.420582e-08
5.4444496e-08
5.4689014e-08
5.4940111e-08
5.5165749e-08
5.535316e-08
5.5480191e-08
5.5506032e-08
5.5328684e-08
5.2766019e-08
5.2885029e-08
5.3021636e-08
5.31742e-08
5.3340799e-08
5.3519322e-08
5.3707555e-08
5.3903296e-08
5.4104477e-08
5.4309296e-08
5.4516367e-08
5.472484e-08
5.4934497e-08
5.5145758e-08
5.5359594e-08
5.557731e-08
5.5800233e-08
5.6029385e-08
5.6265345e-08
5.6507518e-08
5.6726669e-08
5.690879e-08
5.7030102e-08
5.7047533e-08
5.6855152e-08
5.4594925e-08
5.4704576e-08
5.4830162e-08
5.4970161e-08
5.5122824e-08
5.5286248e-08
5.545846e-08
5.5637521e-08
5.582164e-08
5.6009307e-08
5.6199428e-08
5.6391452e-08
5.658545e-08
5.6782118e-08
5.6982666e-08
5.7188565e-08
5.740118e-08
5.7621371e-08
5.7849223e-08
5.8083206e-08
5.8296303e-08
5.8473332e-08
5.8588881e-08
5.8597427e-08
5.8389544e-08
5.6402904e-08
5.6503787e-08
5.6619121e-08
5.6747497e-08
5.6887319e-08
5.7036868e-08
5.7194381e-08
5.7358146e-08
5.7526615e-08
5.769853e-08
5.7873061e-08
5.8049924e-08
5.8229458e-08
5.8412617e-08
5.860084e-08
5.8795763e-08
5.8998802e-08
5.9210656e-08
5.9430872e-08
5.9657537e-08
5.9865037e-08
6.0037181e-08
6.0147041e-08
6.0146602e-08
5.9922158e-08
5.8182813e-08
5.8275529e-08
5.8381366e-08
5.8499021e-08
5.8627036e-08
5.8763854e-08
5.8907895e-08
5.9057644e-08
5.9211767e-08
5.9369232e-08
5.9529442e-08
5.9692356e-08
5.9858561e-08
6.0029253e-08
6.0206086e-08
6.0390859e-08
6.0585047e-08
6.0789232e-08
6.1002562e-08
6.1222379e-08
6.1424577e-08
6.1591935e-08
6.1696108e-08
6.1686719e-08
6.1442558e-08
5.9928505e-08
6.0013621e-08
6.0110659e-08
6.0218416e-08
6.0335556e-08
6.0460667e-08
6.0592328e-08
6.0729204e-08
6.0870146e-08
6.1014322e-08
6.1161349e-08
6.1311409e-08
6.1465315e-08
6.1624488e-08
6.1790786e-08
6.1966163e-08
6.2152157e-08
6.234925e-08
6.2556235e-08
6.2769694e-08
6.2966815e-08
6.3129417e-08
6.3227869e-08
6.3209796e-08
6.2949036e-08
6.1633523e-08
6.1711565e-08
6.1800444e-08
6.1899046e-08
6.2006147e-08
6.2120464e-08
6.2240721e-08
6.2365737e-08
6.2494534e-08
6.262646e-08
6.2761324e-08
6.289951e-08
6.3042043e-08
6.3190551e-08
6.3347084e-08
6.351374e-08
6.3692115e-08
6.3882603e-08
6.4083669e-08
6.4291193e-08
6.448341e-08
6.4641246e-08
6.4733832e-08
6.4706666e-08
6.4427713e-08
6.3290676e-08
6.3362141e-08
6.3443451e-08
6.3533579e-08
6.3631404e-08
6.3735756e-08
6.384549e-08
6.3959565e-08
6.4077154e-08
6.419777e-08
6.4321397e-08
6.4448603e-08
6.4580606e-08
6.4719227e-08
6.4866689e-08
6.5025224e-08
6.5196482e-08
6.5380772e-08
6.5576261e-08
6.5778188e-08
6.5965629e-08
6.6118658e-08
6.6205159e-08
6.6168224e-08
6.5868806e-08
6.4892024e-08
6.4957384e-08
6.5031686e-08
6.5113981e-08
6.520324e-08
6.52984e-08
6.539843e-08
6.5502417e-08
6.560967e-08
6.5719851e-08
6.58331e-08
6.5950157e-08
6.6072414e-08
6.6201864e-08
6.634089e-08
6.6491843e-08
6.6656417e-08
6.6834845e-08
6.7025016e-08
6.7221598e-08
6.7404332e-08
6.7552483e-08
6.7632743e-08
6.7586039e-08
6.7263762e-08
6.6429036e-08
6.6488757e-08
6.6556595e-08
6.6631675e-08
6.6713052e-08
6.6799758e-08
6.6890867e-08
6.6985579e-08
6.7083328e-08
6.7183908e-08
6.7287602e-08
6.7395301e-08
6.7508553e-08
6.7629507e-08
6.7760685e-08
6.7904541e-08
6.8062805e-08
6.8235632e-08
6.8420666e-08
6.8612061e-08
6.8790062e-08
6.8933189e-08
6.9006998e-08
6.8950456e-08
6.8610189e-08
6.789287e-08
6.7947415e-08
6.8009331e-08
6.8077807e-08
6.8151974e-08
6.823095e-08
6.8313904e-08
6.8400139e-08
6.8489197e-08
6.8580991e-08
6.8675931e-08
6.8775041e-08
6.8880007e-08
6.8993111e-08
6.9116992e-08
6.9254189e-08
6.9406454e-08
6.9573868e-08
6.9753846e-08
6.994009e-08
7.011322e-08
7.0251084e-08
7.0318204e-08
7.0251846e-08
6.9895132e-08
6.9274693e-08
6.9324536e-08
6.9381074e-08
6.9443558e-08
6.9511188e-08
6.9583159e-08
6.9658723e-08
6.9737273e-08
6.9818449e-08
6.9902268e-08
6.998925e-08
7.0080533e-08
7.0177918e-08
7.0283796e-08
7.0400902e-08
7.0531835e-08
7.0678351e-08
7.0840454e-08
7.101535e-08
7.1196341e-08
7.1364323e-08
7.1496583e-08
7.1556786e-08
7.1480793e-08
7.1103676e-08
7.0566017e-08
7.0611639e-08
7.0663354e-08
7.0720467e-08
7.0782239e-08
7.0847933e-08
7.0916875e-08
7.0988537e-08
7.1062644e-08
7.1139301e-08
7.121912e-08
7.1303334e-08
7.1393835e-08
7.14931e-08
7.1603925e-08
7.1728945e-08
7.1869902e-08
7.2026711e-08
7.2196384e-08
7.2371851e-08
7.2534226e-08
7.2660365e-08
7.2713253e-08
7.2627684e-08
7.2235692e-08
7.1758943e-08
7.1800832e-08
7.1848283e-08
7.190065e-08
7.1957248e-08
7.2017398e-08
7.2080489e-08
7.2146063e-08
7.2213915e-08
7.2284222e-08
7.2357674e-08
7.2435573e-08
7.2519881e-08
7.2613126e-08
7.2718141e-08
7.2837562e-08
7.297309e-08
7.3124551e-08
7.3288788e-08
7.3458205e-08
7.3614287e-08
7.3733599e-08
7.3778671e-08
7.3683588e-08
7.3277972e-08
7.2846198e-08
7.2884845e-08
7.2928595e-08
7.297684e-08
7.3028942e-08
7.3084274e-08
7.3142278e-08
7.3202553e-08
7.3264953e-08
7.3329714e-08
7.3397581e-08
7.3469909e-08
7.3548696e-08
7.3636498e-08
7.3736145e-08
7.385024e-08
7.398042e-08
7.4126455e-08
7.4285252e-08
7.4447472e-08
7.4596287e-08
7.4707873e-08
7.4744626e-08
7.4640962e-08
7.4229506e-08
7.3820869e-08
7.3856757e-08
7.3897353e-08
7.3942083e-08
7.3990349e-08
7.4041564e-08
7.4095217e-08
7.4150952e-08
7.4208671e-08
7.4268655e-08
7.4331686e-08
7.439915e-08
7.4473059e-08
7.4555959e-08
7.4650644e-08
7.4759643e-08
7.4884486e-08
7.5024927e-08
7.5177265e-08
7.5331452e-08
7.5471896e-08
7.557464e-08
7.5602318e-08
7.549095e-08
7.5087632e-08
7.4675629e-08
7.4709218e-08
7.4747179e-08
7.4788964e-08
7.4834005e-08
7.4881751e-08
7.4931728e-08
7.4983618e-08
7.5037359e-08
7.5093264e-08
7.5152139e-08
7.5215378e-08
7.5284984e-08
7.5363465e-08
7.5453542e-08
7.5557621e-08
7.5677018e-08
7.5810963e-08
7.5955295e-08
7.6100686e-08
7.6231647e-08
7.6324232e-08
7.6341403e-08
7.6219935e-08
7.5807885e-08
7.5395382e-08
7.5427128e-08
7.5462971e-08
7.5502387e-08
7.554483e-08
7.5589777e-08
7.563678e-08
7.5685552e-08
7.5736057e-08
7.5788623e-08
7.5844059e-08
7.5903749e-08
7.5969652e-08
7.6044197e-08
7.6129989e-08
7.6229261e-08
7.6343093e-08
7.6470399e-08
7.6606707e-08
7.674279e-08
7.6863268e-08
7.6944416e-08
7.6949739e-08
7.6816847e-08
7.6390211e-08
7.5961184e-08
7.5991505e-08
7.6025709e-08
7.6063287e-08
7.6103713e-08
7.6146485e-08
7.6191169e-08
7.6237501e-08
7.6285467e-08
7.6335381e-08
7.6388047e-08
7.6444831e-08
7.6507629e-08
7.6578756e-08
7.6660686e-08
7.675547e-08
7.6863945e-08
7.6984726e-08
7.7112972e-08
7.7239344e-08
7.7348558e-08
7.7417276e-08
7.7409864e-08
7.7265418e-08
7.6833467e-08
7.6340667e-08
7.636993e-08
7.6402918e-08
7.6439125e-08
7.6478056e-08
7.6519239e-08
7.6562194e-08
7.6606705e-08
7.6652779e-08
7.6700647e-08
7.6751099e-08
7.6805549e-08
7.6865816e-08
7.6934018e-08
7.7012562e-08
7.7103346e-08
7.7207031e-08
7.7321995e-08
7.7442569e-08
7.7559246e-08
7.765692e-08
7.7712806e-08
7.7692457e-08
7.7537221e-08
7.7100353e-08
7.6467548e-08
7.6496056e-08
7.6528183e-08
7.6563426e-08
7.6601372e-08
7.6641622e-08
7.6683435e-08
7.6726742e-08
7.6771628e-08
7.681797e-08
7.6866586e-08
7.6919222e-08
7.6977587e-08
7.7043202e-08
7.711889e-08
7.7206448e-08
7.73068e-08
7.7418909e-08
7.75333e-08
7.7641144e-08
7.7727885e-08
7.7771572e-08
7.7739293e-08
7.7575676e-08
7.714256e-08
7.6147668e-08
7.6175591e-08
7.6207094e-08
7.6241709e-08
7.62793e-08
7.6319719e-08
7.6361143e-08
7.6404045e-08
7.6448835e-08
7.6494128e-08
7.6540944e-08
7.6592284e-08
7.6649467e-08
7.6711356e-08
7.6784373e-08
7.6869654e-08
7.6971102e-08
7.7097896e-08
7.7208327e-08
7.7309145e-08
7.7386656e-08
7.7420263e-08
7.7379108e-08
7.721348e-08
7.6819505e-08
)
;

boundaryField
{
    Walls
    {
        type            nutUWallFunction;
        Cmu             0.09;
        kappa           0.41;
        E               9.8;
        value           uniform 0;
    }
    Inlet
    {
        type            calculated;
        value           nonuniform List<scalar> 3(1.1011458e-05 2.9009822e-05 7.6487502e-07);
    }
    Outlet
    {
        type            calculated;
        value           nonuniform List<scalar> 
86
(
7.6074378e-08
7.6079042e-08
7.6089175e-08
7.6104175e-08
7.6123757e-08
7.6147668e-08
7.6175591e-08
7.6207094e-08
7.6241709e-08
7.62793e-08
7.6319719e-08
7.6361143e-08
7.6404045e-08
7.6448835e-08
7.6494128e-08
7.6540944e-08
7.6592284e-08
7.6649467e-08
7.6711356e-08
7.6784373e-08
7.6869654e-08
7.6971102e-08
7.7097896e-08
7.7208327e-08
7.7309145e-08
7.7386656e-08
7.7420263e-08
7.7379108e-08
7.721348e-08
7.6819505e-08
1.4287475e-05
1.4825318e-05
1.3407923e-05
0
0
0
0
4.3745091e-06
4.1393834e-06
3.5746979e-06
0
0
0
1.1467648e-06
7.7023591e-07
4.8379818e-07
2.9029585e-07
1.7245325e-07
1.0702086e-07
7.3681037e-08
5.8060189e-08
5.1467028e-08
4.9240545e-08
4.9057726e-08
4.9808581e-08
5.0984433e-08
5.2356234e-08
5.38202e-08
5.5328684e-08
5.6855152e-08
5.8389544e-08
5.9922158e-08
6.1442558e-08
6.2949036e-08
6.4427713e-08
6.5868806e-08
6.7263762e-08
0
0
0
0
0
0
0
0
0
0
0
0
7.6819505e-08
0
0
0
0
1.3172724e-05
1.4805135e-05
)
;
    }
    Front
    {
        type            wedge;
    }
    Back
    {
        type            wedge;
    }
    defaultFaces
    {
        type            empty;
    }
}


// ************************************************************************* //
