/*--------------------------------*- C++ -*----------------------------------*\
| =========                 |                                                 |
| \\      /  F ield         | OpenFOAM: The Open Source CFD Toolbox           |
|  \\    /   O peration     | Version:  4.0                                   |
|   \\  /    A nd           | Web:      www.OpenFOAM.org                      |
|    \\/     M anipulation  |                                                 |
\*---------------------------------------------------------------------------*/
FoamFile
{
    version     2.0;
    format      ascii;
    class       volScalarField;
    location    "0.36";
    object      omega;
}
// * * * * * * * * * * * * * * * * * * * * * * * * * * * * * * * * * * * * * //

dimensions      [0 0 -1 0 0 0 0];

internalField   nonuniform List<scalar> 
1740
(
61.252393
678.07489
14920.826
178.50937
1439.6553
15030.267
292.54642
1911.6119
15115.171
378.00399
2199.0047
15197.035
484.68453
2475.3185
15270.608
622.46817
2829.8244
15329.079
748.5646
3107.3902
15376.967
872.68803
3293.4432
15417.402
991.03395
3488.7418
15447.38
1111.1167
3632.7397
15470.708
1207.9181
3715.6233
15493.565
1272.0087
3773.2305
15505.841
1336.122
3837.1322
15520.848
1432.3392
3930.3053
15533.417
1490.0613
3966.4691
15535.659
1545.8736
3923.0836
15549.984
1595.006
3941.5503
15562.299
1665.3615
3990.7019
15560.166
1728.7052
4034.1555
15563.707
1756.1538
4110.3195
15571.194
1788.3903
4125.5311
15574.922
1825.3854
4112.4835
15575.412
1857.438
4087.7631
15573.153
1882.9519
4120.0297
15576.088
1910.2318
4172.4269
15579.685
1949.9673
4204.0562
15574.654
1977.6513
4203.0929
15571.995
2016.9386
4309.6838
15566.961
2033.1525
4307.137
15558.27
2135.0773
4319.6097
15500.094
3186.2678
4563.0872
10727.799
3328.2262
4231.4971
5932.1671
1573.0004
1860.5631
2153.7258
823.32734
898.02432
956.90197
478.01363
496.1373
506.60485
300.71233
304.44276
304.65908
201.5646
201.88596
200.48099
142.47883
142.15428
140.91581
105.4499
105.1186
104.28073
81.347161
81.115234
80.595771
65.239664
65.093641
64.78178
54.325358
54.236548
54.050278
46.940425
46.886789
46.774713
42.040263
42.007839
41.939748
38.912786
38.893343
38.851942
37.029659
37.018508
36.99392
35.981887
35.976306
35.962528
35.441315
35.438328
35.429685
35.091621
35.088558
35.081126
34.819343
34.816797
34.810707
34.58503
34.583156
34.578378
34.367117
34.366028
34.362568
34.1564
34.156124
34.153926
33.953545
33.953898
33.952715
33.765371
33.766038
33.765494
33.599209
33.599919
33.599682
33.458876
33.459482
33.459345
33.344033
33.344489
33.34436
33.251581
33.251897
33.251745
33.177309
33.177512
33.177336
33.116978
33.117097
33.116903
33.066759
33.066818
33.066614
33.023203
33.023221
33.023014
32.982907
32.982897
32.982693
32.941926
32.941898
32.941702
32.894904
32.894866
32.894681
32.833838
32.833796
32.833624
32.746325
32.746282
32.746129
32.613152
32.613113
32.612981
32.405119
32.405087
32.404983
32.079076
32.079056
32.078986
31.573372
31.57337
31.573344
30.803286
30.803308
30.80334
29.657588
29.657643
29.657752
27.998327
27.998429
27.99865
25.668951
25.669142
25.669551
22.507149
22.50752
22.508272
18.372073
18.372782
18.374125
13.178334
13.179468
13.181498
6.9647271
6.9658344
6.9677449
13480.312
13535.591
5993.1793
5331.4325
2084.1509
1881.7639
921.48128
853.20509
490.07818
463.04769
296.48372
284.53466
196.19696
190.4778
138.56721
135.6401
102.96126
101.39072
79.843529
78.971175
64.346726
63.847314
53.793994
53.499184
46.620355
46.440591
41.844828
41.731855
38.792901
38.720379
36.957375
36.91038
35.940246
35.909564
35.41456
35.392582
35.068722
35.050701
34.800461
34.785313
34.569928
34.556984
34.355725
34.34463
34.148548
34.139131
33.948596
33.940752
33.762369
33.755979
33.597294
33.592195
33.457493
33.453485
33.342899
33.339771
33.25057
33.248126
33.176374
33.174448
33.116101
33.114562
33.065933
33.064683
33.022428
33.021395
32.982183
32.981317
32.941254
32.940518
32.894287
32.893658
32.83328
32.832741
32.745831
32.745374
32.612732
32.612353
32.404787
32.404487
32.07885
32.07864
31.573281
31.573175
30.80337
30.803393
29.657907
29.6581
27.998979
27.999407
25.670141
25.670898
22.509261
22.510457
18.375673
18.377364
13.183554
13.185541
6.9695107
6.9710521
12058.188
2043.4244
696.60773
369.16245
281.34669
257.12016
249.97854
246.93019
244.57405
242.16525
239.62386
236.85306
233.98974
231.04508
227.98521
224.74663
221.21707
217.20198
212.37044
206.16996
197.68062
185.35159
166.50078
136.16532
82.60798
12058.133
2037.3002
697.74983
374.71228
283.25139
254.4103
242.87408
235.6624
229.55607
223.75948
218.07719
212.44552
206.9293
201.50941
196.16474
190.86742
185.56168
180.14449
174.42954
168.09513
160.5903
150.94822
137.37571
116.19503
78.005268
12058.179
2030.5971
718.62405
430.65851
359.2535
332.33132
314.97982
300.50189
287.27939
274.74294
262.77648
251.19957
240.23113
229.77397
219.76742
210.19745
201.04341
192.25959
183.74555
175.32331
166.67932
157.23177
145.77518
129.35555
98.662365
12058.526
2031.8766
817.46564
608.55617
549.65244
512.45882
479.47524
449.00854
421.06367
394.78497
370.1434
347.1735
325.99854
306.16056
287.52176
270.08738
253.84435
238.76098
224.78176
211.81522
199.72055
188.27108
177.02548
164.79935
146.32165
12061.527
2151.1133
1232.4652
1078.3378
989.4601
906.53248
827.99966
756.58448
692.69212
633.59723
579.28234
529.70067
485.66612
445.4207
408.48635
374.86349
344.41069
316.95594
292.31684
270.29866
250.70505
233.36092
218.15235
205.25188
195.73727
12087.341
3824.6391
2809.9834
2405.303
2096.6039
1827.3846
1591.6878
1388.0426
1211.788
1059.7156
928.75132
816.06951
719.11984
635.46053
563.15475
500.67846
446.72252
400.14834
359.97573
325.368
295.6163
270.14646
248.5547
230.93771
218.53266
10366.439
7904.5434
6098.5212
4789.3437
3819.9396
3084.7262
2515.3924
2067.9446
1712.7914
1428.7103
1199.9189
1014.5818
863.76414
740.54633
639.41811
555.9865
486.77774
429.06646
380.7221
340.07722
305.82501
276.96062
252.77044
233.13662
219.34204
4090.1135
3306.358
2843.3523
2468.4244
2149.181
1868.4092
1623.3417
1411.4033
1229.7249
1074.0092
940.45659
825.65039
726.60768
641.15685
567.4416
503.8532
449.00325
401.70669
360.95619
325.89778
295.81239
270.12025
248.40799
230.7536
218.35041
1594.5406
1399.7829
1269.4215
1161.0602
1058.749
961.41466
872.71112
793.65171
721.62599
656.3935
598.0547
546.47983
499.11285
455.84051
416.54016
381.01234
349.02255
320.33688
294.72153
271.95879
251.84979
234.22564
218.97468
206.2503
197.01965
770.6699
707.41983
661.15782
620.5686
580.22758
540.13172
502.60972
468.01248
435.94662
406.38122
379.36453
354.61292
331.44252
309.75566
289.54268
270.78896
253.46311
237.52263
222.91574
209.57756
197.41283
186.25288
175.7252
164.75393
148.4664
433.72537
409.95177
391.22269
373.99392
356.26248
337.99335
320.14896
303.1557
287.09734
272.02591
257.95322
244.75316
232.21833
220.30426
209.03854
198.41718
188.43233
179.06222
170.2612
161.93639
153.89229
145.69495
136.30309
122.91803
96.398847
272.18581
261.74777
253.07374
244.9004
236.37706
227.43776
218.44284
209.65366
201.19199
193.11544
185.43288
178.09465
171.02762
164.20781
157.6459
151.34507
145.29548
139.46591
133.78828
128.12486
122.19859
115.44001
106.6271
92.944263
66.809621
184.67446
179.59158
175.17973
170.9521
166.53345
161.85641
157.05512
152.27058
147.59107
143.06171
138.69282
134.46525
130.3489
126.32734
122.39479
118.54073
114.74162
110.9507
107.08133
102.97622
98.349644
92.674919
84.952241
73.141638
51.908685
132.69921
130.05175
127.67483
125.36808
122.95884
120.39876
117.73532
115.03849
112.36259
109.73905
107.17701
104.66875
102.19851
99.751544
97.313501
94.863529
92.367051
89.766624
86.968116
83.818901
80.074523
75.354521
69.11642
60.835508
51.359626
99.815681
98.364984
97.029983
95.721849
94.358211
92.907711
91.385258
89.824406
88.255553
86.698095
85.158656
83.632823
82.109332
80.57323
79.005131
77.377248
75.647765
73.753656
71.601097
69.053304
65.918993
61.956406
56.947237
51.023983
45.738271
78.091658
77.265008
76.488453
75.721634
74.923727
74.075457
73.180133
72.252933
71.309829
70.361692
69.411849
68.456187
67.484458
66.480845
65.422812
64.278106
63.000405
61.523971
59.757337
57.577224
54.826686
51.329388
46.952148
41.803232
36.503607
63.338478
62.850095
62.382171
61.916304
61.431891
60.917411
60.372356
59.80303
59.2172
58.620058
58.012166
57.38874
56.739279
56.047009
55.2873
54.424893
53.4103
52.175439
50.628937
48.651576
46.092653
42.766101
38.428401
32.619644
23.537476
53.193801
52.893651
52.599775
52.303855
51.99553
51.668078
51.320046
50.953643
50.572141
50.177265
49.767623
49.337535
48.876016
48.365484
47.779744
47.081219
46.217506
45.117392
43.686492
41.802315
39.307075
35.991072
31.539003
25.33147
15.655482
46.250008
46.057155
45.863401
45.665025
45.456907
45.23531
44.998837
44.74794
44.483552
44.205458
43.911025
43.593894
43.242635
42.838979
42.355466
41.752453
40.97456
39.94669
38.569768
36.715943
34.221746
30.873729
26.370577
20.216696
11.412572
41.608362
41.478921
41.344614
41.203915
41.054382
40.894077
40.721997
40.537938
40.341704
40.132081
39.905709
39.655822
39.370662
39.031405
38.609498
38.063383
37.334751
36.344573
34.989181
33.136747
30.624242
27.253857
22.785097
16.913221
9.2481169
38.63794
38.54777
38.450494
38.345537
38.231845
38.108505
37.974939
37.830781
37.675349
37.506927
37.321771
37.112852
36.868167
36.568465
36.184293
35.672412
34.971986
34.000765
32.65177
30.791465
28.26126
24.885123
20.486474
14.916844
8.1054935
36.854175
36.789393
36.716201
36.634366
36.543533
36.443356
36.333573
36.213804
36.083174
35.939694
35.77938
35.594995
35.3743
35.097687
34.735066
34.241897
33.555496
32.591581
31.241587
29.372097
26.829344
23.454425
19.114905
13.760203
7.5367535
35.870402
35.822351
35.765188
35.698762
35.622989
35.537817
35.443114
35.338488
35.222911
35.094168
34.948024
34.776966
34.568423
34.302326
33.948487
33.461475
32.777534
31.811486
30.455008
28.576202
26.02433
22.649011
18.337596
13.076748
7.0661044
35.36323
35.325838
35.280024
35.225522
35.162128
35.089627
35.007667
34.915547
34.811871
34.694002
34.557244
34.393614
34.190033
33.92573
33.571449
33.081522
32.391523
31.414887
30.046339
28.157618
25.598706
22.220852
17.915913
12.67597
6.7110911
35.026409
34.995217
34.956632
34.910277
34.85584
34.793004
34.721303
34.639914
34.547298
34.440692
34.315291
34.163081
33.971116
33.719063
33.37608
32.897639
32.214954
31.227811
29.844074
27.946192
25.383149
22.004276
17.70093
12.460303
6.490529
34.764522
34.737409
34.703414
34.662091
34.613068
34.555959
34.490233
34.415006
34.328723
34.228683
34.110291
33.96592
33.783138
33.542063
33.211656
32.747752
32.082487
31.120557
29.738882
27.837987
25.275608
21.899449
17.600354
12.364181
6.3840033
34.538738
34.514439
34.483482
34.445398
34.399797
34.346297
34.2844
34.213314
34.131672
34.037075
33.925339
33.789263
33.616738
33.388013
33.072107
32.622635
31.974202
31.032671
29.674142
27.777253
25.220518
21.850995
17.560172
12.335491
6.3494977
34.32843
34.306303
34.277633
34.241982
34.19903
34.148508
34.090091
34.023234
33.946888
33.858999
33.755675
33.629857
33.469339
33.254046
32.952494
32.517521
31.884225
30.959836
29.624382
27.736981
25.189872
21.829791
17.549749
12.341225
6.4214237
34.124819
34.104741
34.078331
34.045258
34.005359
33.958565
33.904793
33.843758
33.774652
33.695578
33.602655
33.488645
33.340989
33.139147
32.851174
32.429547
31.809099
30.89813
29.578218
27.705961
25.170313
21.820575
17.552346
12.362433
6.4702229
33.928378
33.910618
33.887006
33.857358
33.821684
33.780099
33.732694
33.679314
33.619196
33.550377
33.468771
33.366818
33.231565
33.042093
32.766211
32.356523
31.746313
30.846038
29.538127
27.680316
25.155541
21.815507
17.558104
12.383301
6.505807
33.74562
33.730522
33.710334
33.68499
33.654615
33.61941
33.579504
33.534718
33.48418
33.425728
33.355005
33.264131
33.139832
32.960921
32.695052
32.29481
31.693366
30.801722
29.503527
27.657916
25.142512
21.810711
17.56193
12.396692
6.5219016
33.583805
33.571485
33.55498
33.53429
33.509566
33.480996
33.448645
33.412212
33.370646
33.321562
33.260351
33.178877
33.063639
32.893286
32.635405
32.242657
31.648545
30.763563
29.473177
27.637622
25.130103
21.805152
17.562852
12.40345
6.5308709
33.446868
33.437138
33.42411
33.407801
33.388335
33.365826
33.340226
33.311082
33.277164
33.235889
33.182444
33.108509
33.000433
32.836767
32.585076
32.1981
31.609536
30.730117
29.446108
27.618907
25.11827
21.799835
17.564148
12.409518
6.5345563
33.334634
33.327105
33.317046
33.304465
33.289432
33.271975
33.251925
33.228689
33.200883
33.165767
33.118379
33.050269
32.947685
32.789125
32.542154
32.159595
31.575335
30.700445
29.42166
27.601503
25.107117
21.7955
17.568359
12.421381
6.5296711
33.244159
33.238383
33.230688
33.221068
33.209537
33.196041
33.18031
33.161637
33.138518
33.108093
33.065295
33.001581
32.903136
32.748422
32.505024
32.125849
31.544983
30.673903
29.399351
27.585214
25.096555
21.79185
17.574925
12.442692
6.5603404
33.171371
33.166931
33.16104
33.153671
33.144795
33.134292
33.121814
33.106564
33.08695
33.060027
33.02065
32.960213
32.864855
32.713023
32.472322
32.095742
31.517539
30.649481
29.378695
27.569851
25.086392
21.787939
17.580162
12.462324
6.5946173
33.11215
33.108705
33.104154
33.098457
33.09155
33.083264
33.07319
33.06047
33.043446
33.019112
32.982267
32.924259
32.831198
32.681522
32.442864
32.068292
31.492223
30.626702
29.359291
27.555222
25.076618
21.783742
17.583114
12.477591
6.6449639
33.062763
33.060053
33.056489
33.052021
33.04656
33.039902
33.031595
33.020736
33.005619
32.983195
32.948222
32.892015
32.800664
32.652605
32.415501
32.042501
31.46818
30.604864
29.340579
27.540854
25.066919
21.779291
17.584347
12.485251
6.6848905
33.019841
33.017674
33.014837
33.011273
33.006876
33.001414
32.994408
32.98492
32.971213
32.950202
32.916617
32.86175
32.771676
32.624834
32.388919
32.017158
31.444282
30.582874
29.321353
27.525732
25.056341
21.77388
17.584098
12.486906
6.667471
32.980038
32.978277
32.97598
32.973087
32.969477
32.964903
32.958862
32.950394
32.937735
32.917778
32.885229
32.831364
32.742246
32.596322
32.361319
31.990541
31.418863
30.559111
29.300068
27.50823
25.043224
21.766053
17.582296
12.490568
6.6720252
32.939452
32.937999
32.936111
32.933722
32.930705
32.926797
32.921481
32.913779
32.90191
32.882746
32.850977
32.797864
32.709466
32.564236
32.329932
31.959934
31.389254
30.530944
29.274123
27.485749
25.024973
21.753293
17.576605
12.492838
6.679419
32.89276
32.891547
32.889975
32.887974
32.885411
32.882013
32.877252
32.870136
32.858869
32.84031
32.809135
32.756592
32.668736
32.524028
32.290262
31.920889
31.351054
30.494025
29.239244
27.454127
24.997564
21.731663
17.562217
12.483296
6.6658456
32.831982
32.830964
32.829643
32.82795
32.825745
32.822748
32.818423
32.811765
32.800968
32.782878
32.752159
32.700051
32.612605
32.468296
32.23495
31.866096
31.297018
30.441209
29.188451
27.406652
24.954673
21.695401
17.534815
12.463801
6.6206931
32.744735
32.743881
32.742771
32.741332
32.73942
32.73675
32.732777
32.726489
32.716069
32.698353
32.667993
32.616224
32.529098
32.385101
32.152109
31.783738
31.215438
30.360968
29.110515
27.332582
24.886278
21.6355
17.486969
12.430474
6.5745332
32.611825
32.611119
32.610195
32.608977
32.607318
32.604928
32.601255
32.59528
32.585175
32.567769
32.537705
32.486214
32.399354
32.255638
32.023003
31.655192
31.087875
30.235169
28.987811
27.215095
24.776732
21.537889
17.406474
12.373781
6.5581408
32.40407
32.403507
32.402758
32.401746
32.40032
32.398185
32.394784
32.389089
32.379266
32.362135
32.332337
32.281102
32.194507
32.051113
31.818958
31.451975
30.886161
30.03616
28.793512
27.028662
24.602469
21.381985
17.277344
12.281913
6.488096
32.07834
32.077926
32.077355
32.076549
32.075353
32.073467
32.070329
32.064904
32.055355
32.038495
32.008969
31.958022
31.871771
31.728866
31.497513
31.131949
30.568681
29.723164
28.488153
26.735821
24.328957
21.137342
17.074473
12.138078
6.4210157
31.573011
31.572763
31.572387
31.571801
31.570846
31.569219
31.566352
31.561208
31.551948
31.535392
31.506197
31.45565
31.369949
31.227904
30.998009
30.634994
30.076168
29.238234
28.015791
26.283662
23.907593
20.761202
16.762306
11.913593
6.309149
30.803394
30.803344
30.803193
30.802856
30.802168
30.800823
30.79825
30.793417
30.784492
30.768314
30.739585
30.689675
30.604937
30.464461
30.237222
29.878744
29.327593
28.502357
27.30033
25.600655
23.273063
20.196652
16.294598
11.574067
6.1298602
29.658314
29.658512
29.658638
29.658595
29.658215
29.657186
29.654943
29.650468
29.641955
29.626295
29.598277
29.549431
29.46639
29.328717
29.106175
28.755543
28.217319
27.412917
26.243869
24.594908
22.342021
19.371887
15.614814
11.083456
5.8927566
27.999908
28.000431
28.000907
28.001225
28.001208
28.000544
27.99868
27.994631
27.986653
27.971732
27.944826
27.89775
27.817612
27.68475
27.470179
27.132615
26.615474
25.844491
24.727104
23.155369
21.014575
18.201607
14.655681
10.393652
5.5250546
25.671782
25.67272
25.673619
25.674353
25.674736
25.674462
25.672996
25.669423
25.662114
25.648207
25.62295
25.57866
25.503217
25.378182
25.176506
24.8598
24.375681
23.655878
22.615965
21.158297
19.180528
16.592712
13.344981
9.4574124
5.0078883
22.511817
22.513248
22.514634
22.515816
22.516633
22.516821
22.515798
22.512804
22.506411
22.493891
22.470959
22.430863
22.362687
22.249738
22.067909
21.782969
21.348334
20.703949
19.776363
18.481467
16.732542
14.455736
11.613922
8.2299421
4.3839221
18.379205
18.38113
18.383016
18.384647
18.386028
18.387109
18.386759
18.384677
18.379882
18.369237
18.349233
18.315191
18.257978
18.162684
18.009953
17.77119
17.407384
16.869321
16.097921
15.026109
13.585745
11.721183
9.4085238
6.6717538
3.5694268
13.187604
13.18981
13.192058
13.194111
13.196626
13.200294
13.201453
13.201266
13.19995
13.191885
13.174964
13.14944
13.108505
13.036199
12.923586
12.74843
12.480943
12.08533
11.519764
10.740122
9.6978739
8.3562801
6.7032047
4.761478
2.5716821
6.9726058
6.9743481
6.9762583
6.9783219
6.9822701
6.9899653
6.993308
6.9957999
6.9995908
6.9952299
6.9826533
6.9687305
6.9485262
6.8987711
6.8363427
6.7424157
6.5977527
6.3802571
6.0573353
5.6403692
5.0875043
4.3792828
3.5119508
2.5034595
1.4054323
)
;

boundaryField
{
    Walls
    {
        Cmu             0.09;
        kappa           0.41;
        E               9.8;
        beta1           0.075;
        type            omegaWallFunction;
        value           nonuniform List<scalar> 
38
(
12058.188
12058.133
12058.179
12058.526
12061.527
12087.341
13480.312
13535.591
14920.826
15030.267
15115.171
15197.035
15270.608
15329.079
15376.967
15417.402
15447.38
15470.708
15493.565
15505.841
15520.848
15533.417
15535.659
15549.984
15562.299
15560.166
15563.707
15571.194
15574.922
15575.412
15573.153
15576.088
15579.685
15574.654
15571.995
15566.961
15558.27
15500.094
)
;
    }
    Inlet
    {
        type            turbulentMixingLengthDissipationRateInlet;
        mixingLength    0.03;
        phi             phi;
        k               k;
        value           nonuniform List<scalar> 3(0.0043989692 0.0041535071 0.0053326203);
    }
    Outlet
    {
        type            inletOutlet;
        inletValue      uniform 1e-05;
        value           nonuniform List<scalar> 
86
(
6.9647271
6.9658344
6.9677449
6.9695107
6.9710521
6.9726058
6.9743481
6.9762583
6.9783219
6.9822701
6.9899653
6.993308
6.9957999
6.9995908
6.9952299
6.9826533
6.9687305
6.9485262
6.8987711
6.8363427
6.7424157
6.5977527
6.3802571
6.0573353
5.6403692
5.0875043
4.3792828
3.5119508
2.5034595
1.4054323
219.34204
218.35041
197.01965
1e-05
1e-05
1e-05
1e-05
51.359626
45.738271
36.503607
1e-05
1e-05
1e-05
9.2481169
8.1054935
7.5367535
7.0661044
6.7110911
6.490529
6.3840033
6.3494977
6.4214237
6.4702229
6.505807
6.5219016
6.5308709
6.5345563
6.5296711
6.5603404
6.5946173
6.6449639
6.6848905
6.667471
6.6720252
6.679419
6.6658456
6.6206931
1e-05
1e-05
1e-05
1e-05
1e-05
1e-05
1e-05
1e-05
1e-05
1e-05
1e-05
1e-05
1.4054323
1e-05
1e-05
1e-05
1e-05
195.73727
218.53266
)
;
    }
    Front
    {
        type            wedge;
    }
    Back
    {
        type            wedge;
    }
    defaultFaces
    {
        type            empty;
    }
}


// ************************************************************************* //
