/*--------------------------------*- C++ -*----------------------------------*\
| =========                 |                                                 |
| \\      /  F ield         | OpenFOAM: The Open Source CFD Toolbox           |
|  \\    /   O peration     | Version:  4.0                                   |
|   \\  /    A nd           | Web:      www.OpenFOAM.org                      |
|    \\/     M anipulation  |                                                 |
\*---------------------------------------------------------------------------*/
FoamFile
{
    version     2.0;
    format      ascii;
    class       surfaceScalarField;
    location    "0.36";
    object      phi;
}
// * * * * * * * * * * * * * * * * * * * * * * * * * * * * * * * * * * * * * //

dimensions      [0 3 -1 0 0 0 0];

internalField   nonuniform List<scalar> 
3364
(
-1.6957817e-10
1.5773606e-08
-3.4899122e-10
5.2161656e-08
8.6184879e-08
-9.3577248e-10
1.6709347e-08
-6.9356337e-10
5.1919487e-08
8.5491339e-08
-1.1271916e-09
1.7836515e-08
2.716859e-10
5.0520661e-08
8.5763034e-08
-5.9880325e-11
1.7896365e-08
8.7880993e-10
4.9581937e-08
8.6641815e-08
5.8047625e-10
1.7315842e-08
4.1792849e-10
4.9744379e-08
8.70597e-08
3.648479e-10
1.6950949e-08
-9.89345e-10
5.1098505e-08
8.6070313e-08
-2.4315662e-11
1.6975244e-08
-1.1864368e-09
5.2260587e-08
8.4883836e-08
-3.400176e-10
1.7315234e-08
-2.6666445e-10
5.2187196e-08
8.4617159e-08
-1.8173124e-10
1.7496922e-08
9.2873577e-10
5.1076703e-08
8.5545881e-08
2.0078885e-10
1.7296103e-08
2.504847e-10
5.1026995e-08
8.5796346e-08
2.2601604e-10
1.7070074e-08
-3.2128176e-10
5.1574284e-08
8.5475028e-08
2.6533812e-10
1.6804706e-08
9.3493493e-11
5.1746102e-08
8.5568474e-08
-4.0445496e-11
1.6845101e-08
-1.1587407e-10
5.1821468e-08
8.5452572e-08
-2.7861267e-10
1.7123687e-08
-4.4305921e-10
5.1985877e-08
8.5009484e-08
-1.9479471e-10
1.7318471e-08
-8.2442145e-10
5.2615513e-08
8.4185037e-08
-3.730488e-10
1.7691487e-08
2.3719082e-10
5.2005237e-08
8.4422198e-08
1.8658034e-10
1.7504842e-08
1.223606e-09
5.0968126e-08
8.5645755e-08
6.4189047e-10
1.686289e-08
1.0656348e-09
5.0544306e-08
8.6711341e-08
-5.607639e-11
1.6918945e-08
-3.2641132e-10
5.0814608e-08
8.638489e-08
-7.6115395e-11
1.6995069e-08
-2.107126e-09
5.2845586e-08
8.4277716e-08
2.3397213e-11
1.6971648e-08
-1.0874169e-09
5.3956343e-08
8.3190266e-08
-6.6447204e-11
1.7038044e-08
1.6630273e-09
5.2226814e-08
8.4853267e-08
-5.0544212e-11
1.7088545e-08
1.3992408e-09
5.0776994e-08
8.6252475e-08
-7.442573e-11
1.7162942e-08
-3.3486124e-10
5.1037379e-08
8.5917563e-08
-2.1395956e-11
1.7184298e-08
-2.8110536e-10
5.1297047e-08
8.5636417e-08
-1.9596092e-10
1.7380214e-08
7.6814518e-10
5.0332907e-08
8.6404524e-08
-7.7687265e-11
1.7457852e-08
3.3068433e-11
5.0222109e-08
8.6437542e-08
3.804134e-10
1.7077403e-08
-1.9729975e-09
5.2575498e-08
8.4464488e-08
3.7666446e-10
1.6700771e-08
-1.2339216e-09
5.4186197e-08
8.323056e-08
1.2411212e-09
1.5459859e-08
5.6890888e-09
4.9738375e-08
8.8919641e-08
1.1114469e-08
4.3447437e-09
4.9517202e-08
1.1333772e-08
1.073121e-08
1.2770306e-07
4.7928739e-09
-4.4860112e-10
1.7280532e-08
-1.1553674e-09
-1.3935219e-09
2.9403392e-08
-3.7298276e-10
-7.5584567e-11
-1.3221047e-09
-2.0617622e-10
-3.5282888e-10
-2.3626982e-09
-8.9048883e-11
1.3479083e-11
-3.2611297e-10
3.0923445e-11
-1.4545347e-12
-6.7744748e-10
-2.0834676e-12
1.5564319e-11
-1.3569718e-11
4.2414655e-11
5.1172887e-11
-6.6191323e-11
3.7714135e-12
1.179319e-11
1.2340392e-11
3.3846386e-11
4.8474905e-11
1.5038126e-11
3.1894023e-12
8.6036804e-12
1.1889222e-11
2.5146147e-11
3.7756326e-11
2.2608135e-11
2.6415189e-12
5.9622994e-12
1.0562022e-11
1.7225829e-11
2.6619064e-11
2.1699522e-11
1.8613428e-12
4.1010774e-12
7.1450803e-12
1.1942273e-11
1.8443035e-11
1.5321333e-11
1.0568926e-12
3.0442978e-12
4.0868026e-12
8.9125624e-12
1.3944731e-11
8.5853915e-12
4.8391809e-13
2.5604861e-12
1.8769909e-12
7.5196959e-12
1.1898886e-11
3.9231448e-12
2.7759735e-13
2.2829744e-12
1.0604686e-12
6.7369926e-12
1.0772167e-11
2.1874439e-12
2.3778027e-13
2.0452558e-12
8.9543813e-13
6.0794527e-12
9.8229721e-12
1.8448142e-12
2.3785139e-13
1.8074455e-12
9.4742332e-13
5.3699547e-12
8.7088526e-12
2.0616534e-12
2.4616675e-13
1.5613046e-12
9.8960513e-13
4.6265587e-12
7.5153027e-12
2.1832155e-12
2.3021877e-13
1.3311023e-12
9.0380008e-13
3.9530014e-12
6.4176228e-12
2.0015122e-12
1.9641352e-13
1.1346997e-12
7.6911312e-13
3.3803161e-12
5.504638e-12
1.6821158e-12
1.6073528e-13
9.7397166e-13
6.3586944e-13
2.9051899e-12
4.744002e-12
1.3965145e-12
1.3387992e-13
8.4009612e-13
5.3162885e-13
2.5074438e-12
4.0984508e-12
1.1771821e-12
1.1564306e-13
7.2445494e-13
4.5942415e-13
2.1636605e-12
3.5383636e-12
1.0195047e-12
1.0306359e-13
6.2139157e-13
4.1036484e-13
1.8563532e-12
3.042501e-12
9.0621473e-13
9.2591567e-14
5.2879913e-13
3.6935773e-13
1.5795789e-12
2.5905003e-12
8.2134252e-13
8.2810309e-14
4.4598725e-13
3.2988842e-13
1.3324915e-12
2.1853744e-12
7.3499688e-13
7.3397737e-14
3.725875e-13
2.925691e-13
1.1133104e-12
1.825787e-12
6.521387e-13
6.428517e-14
3.083001e-13
2.5660197e-13
9.2098392e-13
1.5084925e-12
5.738789e-13
5.5966276e-14
2.5233152e-13
2.2341127e-13
7.5352952e-13
1.2337656e-12
4.9812148e-13
4.8318128e-14
2.0401109e-13
1.9373603e-13
6.0810269e-13
9.8853538e-13
4.3895049e-13
4.1599109e-14
1.6240975e-13
1.6749467e-13
4.8219875e-13
7.8504994e-13
3.7096556e-13
3.6853305e-14
1.2555432e-13
1.4088983e-13
3.7815448e-13
6.2421124e-13
3.0171519e-13
2.7347748e-14
9.8204597e-14
1.1052125e-13
2.9497395e-13
4.8534383e-13
2.4937663e-13
2.2294337e-14
7.5908467e-14
9.0478529e-14
2.2678345e-13
3.7063747e-13
2.0517413e-13
1.8334827e-14
5.7572029e-14
7.3655355e-14
1.7145729e-13
2.7861158e-13
1.6567171e-13
1.4549463e-14
4.3021137e-14
5.8054923e-14
1.2794687e-13
2.0723062e-13
1.2942748e-13
1.1303365e-14
3.171653e-14
4.5089025e-14
9.4156888e-14
1.5181475e-13
1.0049761e-13
8.2543328e-15
2.3461137e-14
3.2786079e-14
6.9621437e-14
1.1173439e-13
7.2860276e-14
5.6448593e-15
1.7815396e-14
2.2613145e-14
5.2650025e-14
8.4662076e-14
4.9680347e-14
3.5348028e-15
1.4279872e-14
1.3944056e-14
4.2238205e-14
6.7796885e-14
3.080511e-14
1.716188e-15
1.2563117e-14
6.8578689e-15
3.7094471e-14
5.9448258e-14
1.5203234e-14
4.0775172e-16
1.2154931e-14
1.5981215e-15
3.5902516e-14
5.7697243e-14
3.3466341e-15
-5.813409e-16
1.273596e-14
-2.3910113e-15
3.7711009e-14
6.0943308e-14
-5.6389134e-15
-1.3054833e-15
1.4041235e-14
-5.2810365e-15
4.1685746e-14
6.774775e-14
-1.2086743e-14
-1.7780303e-15
1.5819152e-14
-7.1618271e-15
4.7069034e-14
7.6859581e-14
-1.6274426e-14
-2.034481e-15
1.7853598e-14
-8.1961353e-15
5.3230445e-14
8.7190355e-14
-1.8527259e-14
-2.0931566e-15
1.9946787e-14
-8.4114304e-15
5.9548691e-14
9.7742452e-14
-1.8963531e-14
-1.9624909e-15
2.1909362e-14
-7.8586293e-15
6.5444973e-14
1.0762479e-13
-1.7740703e-14
-1.7166718e-15
2.3626154e-14
-6.827341e-15
7.055591e-14
1.1614684e-13
-1.534893e-14
-1.3412924e-15
2.4967592e-14
-5.2513721e-15
7.4466348e-14
1.2263059e-13
-1.1734517e-14
-8.4402487e-16
2.5811785e-14
-3.2648447e-15
7.68876e-14
1.2665416e-13
-7.2876887e-15
-2.4077419e-16
2.6052753e-14
-1.1302141e-15
7.7777546e-14
1.2818358e-13
-2.658768e-15
1.9033685e-16
5.610271e-16
1.1159188e-15
1.3719624e-07
-9.498485e-09
-8.665319e-09
1.4585527e-07
2.1354593e-08
-1.4508842e-09
-1.3892781e-09
1.4078015e-08
-3.3617319e-09
-4.5172224e-10
-5.6114798e-10
-4.1897182e-09
-1.0763152e-09
-5.2803126e-11
-1.0758511e-10
-1.5298162e-09
-1.6707047e-10
4.8085956e-11
3.6626733e-11
-3.1126706e-10
4.3085163e-12
5.8818113e-11
6.6641659e-11
-2.570285e-11
3.433919e-11
4.708779e-11
5.5877047e-11
4.510436e-11
3.5588787e-11
3.319866e-11
3.8172109e-11
5.3293598e-11
2.5286086e-11
2.3234066e-11
2.6615544e-11
3.6842692e-11
1.3911388e-11
1.7908386e-11
2.0323829e-11
2.0203408e-11
6.4283394e-12
1.5403577e-11
1.7864759e-11
8.8878407e-12
3.3903068e-12
1.4201047e-11
1.6898168e-11
4.3572876e-12
2.9431701e-12
1.3102927e-11
1.5830429e-11
4.0111866e-12
3.4863819e-12
1.167834e-11
1.4183986e-11
5.1329899e-12
3.7352154e-12
1.0126414e-11
1.2402311e-11
5.5169737e-12
3.441766e-12
8.6861965e-12
1.0709917e-11
5.1341978e-12
2.917274e-12
7.4510559e-12
9.2304705e-12
4.3967344e-12
2.4183768e-12
6.4292002e-12
7.9870145e-12
3.6618343e-12
2.0377916e-12
5.5685894e-12
6.9299747e-12
3.0948244e-12
1.7726206e-12
4.815461e-12
5.9976902e-12
2.7048854e-12
1.5813134e-12
4.1403418e-12
5.1609075e-12
2.4180671e-12
1.4246548e-12
3.5370049e-12
4.4002379e-12
2.1852906e-12
1.283063e-12
2.9889124e-12
3.7228278e-12
1.9604377e-12
1.1465822e-12
2.4944425e-12
3.0883069e-12
1.7810678e-12
1.0130622e-12
2.0552335e-12
2.539994e-12
1.5613411e-12
8.9250196e-13
1.6608287e-12
2.092273e-12
1.3401911e-12
7.5175692e-13
1.3479996e-12
1.6942822e-12
1.1497182e-12
6.3306254e-13
1.0858818e-12
1.3506209e-12
9.7669694e-13
5.3184599e-13
8.5573212e-13
1.0603987e-12
8.220438e-13
4.4379672e-13
6.6129499e-13
8.1774793e-13
6.864255e-13
3.639812e-13
5.0247275e-13
6.1846443e-13
5.6324521e-13
2.934331e-13
3.7469796e-13
4.5983219e-13
4.5204817e-13
2.3139643e-13
2.7271726e-13
3.3755175e-13
3.5366191e-13
1.7152735e-13
2.0167745e-13
2.4387299e-13
2.6519341e-13
1.2638859e-13
1.481407e-13
1.7778197e-13
1.9246904e-13
8.5886638e-14
1.1192749e-13
1.3254012e-13
1.3111984e-13
5.3452519e-14
8.9274501e-14
1.0527865e-13
8.0707046e-14
2.6195432e-14
7.8277911e-14
9.2300347e-14
3.9168269e-14
5.105398e-15
7.6515788e-14
9.1360053e-14
6.0415086e-15
-1.0699621e-14
8.157403e-14
9.8721575e-14
-1.806422e-14
-2.1976938e-14
9.1462533e-14
1.1202166e-13
-3.5279145e-14
-2.9277063e-14
1.0446414e-13
1.2912308e-13
-4.6379789e-14
-3.3124497e-14
1.1906091e-13
1.4806266e-13
-5.2064689e-14
-3.3842042e-14
1.3393941e-13
1.672966e-13
-5.3076045e-14
-3.1607149e-14
1.478062e-13
1.8532789e-13
-4.9638064e-14
-2.7281624e-14
1.597395e-13
2.0061185e-13
-4.2564882e-14
-2.0800165e-14
1.6880595e-13
2.1223398e-13
-3.2421362e-14
-1.2930519e-14
1.7444975e-13
2.1950328e-13
-2.0198659e-14
-4.8280958e-15
1.7662026e-13
2.2232867e-13
-7.6520401e-15
1.852053e-15
2.7475926e-15
2.6314901e-12
-2.6363166e-12
4.9745298e-12
-2.3529669e-12
6.5649247e-12
-1.6027213e-12
6.8627044e-12
-3.0824746e-13
5.246694e-12
1.6084444e-12
1.6949785e-13
5.0719306e-12
-9.6531015e-12
9.8191691e-12
-2.5181229e-11
1.552618e-11
-4.6881932e-11
2.1699938e-11
-7.4570169e-11
2.7688373e-11
-1.0754728e-10
3.2977915e-11
-1.4487483e-10
3.7328782e-11
-1.8541569e-10
4.0542368e-11
-2.2800742e-10
4.2593332e-11
-2.7156757e-10
4.3561736e-11
-3.1481005e-10
4.3243932e-11
-3.5661299e-10
4.1804203e-11
-3.9608626e-10
3.9474261e-11
-4.3242826e-10
3.6342726e-11
-4.6473836e-10
3.2310528e-11
-4.9215014e-10
2.7411996e-11
-5.1402814e-10
2.1878e-11
-5.2989131e-10
1.5863051e-11
-5.3923954e-10
9.3480443e-12
2.4925947e-12
-3.4925137e-11
3.2292912e-11
-7.833366e-11
4.1062014e-11
-1.3128562e-10
5.1356838e-11
-1.9533341e-10
6.3747601e-11
-2.7268928e-10
7.8972496e-11
-3.6520727e-10
9.759802e-11
-4.7445803e-10
1.1907778e-10
-6.0165375e-10
1.4272938e-10
-7.4550782e-10
1.6556098e-10
-9.0366869e-10
1.8585562e-10
-1.0731742e-09
2.0248914e-10
-1.2509203e-09
2.1508003e-10
-1.4339799e-09
2.2360636e-10
-1.6204295e-09
2.2904677e-10
-1.808462e-09
2.3159735e-10
-1.9976166e-09
2.3240112e-10
-2.1970891e-09
2.4127866e-10
-2.3869129e-09
2.2929942e-10
-2.5596603e-09
2.0909091e-10
-2.7104915e-09
1.8314204e-10
-2.8357574e-09
1.526777e-10
-2.9327686e-09
1.1888858e-10
-2.9992401e-09
8.2333572e-11
-3.0311214e-09
4.1228021e-11
1.0585604e-11
-1.1043784e-10
1.4273933e-10
-2.444747e-10
1.7511228e-10
-4.0494684e-10
2.1184462e-10
-5.9613379e-10
2.5495075e-10
-8.2288786e-10
3.0574251e-10
-1.0885909e-09
3.6331624e-10
-1.3987095e-09
4.2921036e-10
-1.8174093e-09
5.6144169e-10
-2.2738798e-09
6.2204252e-10
-2.7409484e-09
6.5293356e-10
-3.2034298e-09
6.6497845e-10
-3.6523454e-09
6.6400207e-10
-4.0814024e-09
6.5266844e-10
-4.4847054e-09
6.3235359e-10
-4.8560767e-09
6.029713e-10
-5.1896237e-09
5.6594976e-10
-5.470584e-09
5.2223955e-10
-5.7138466e-09
4.7256186e-10
-5.9228898e-09
4.1813311e-10
-6.0997306e-09
3.5998106e-10
-6.2463817e-09
2.9932648e-10
-6.3639317e-09
2.3643556e-10
-6.4524277e-09
1.7082615e-10
-6.5140608e-09
1.0285735e-10
3.412258e-11
-3.5473112e-10
4.9748706e-10
-7.5573149e-10
5.7613754e-10
-1.22277e-09
6.7891038e-10
-1.9934097e-09
1.0256153e-09
-2.840168e-09
1.1525224e-09
-3.6555088e-09
1.1786748e-09
-4.3837976e-09
1.1575134e-09
-4.9275032e-09
1.1051587e-09
-5.3366328e-09
1.0311812e-09
-5.6268587e-09
9.4316661e-10
-5.8115259e-09
8.4965102e-10
-5.9028223e-09
7.5530258e-10
-5.9111985e-09
6.6104758e-10
-5.838548e-09
5.5970503e-10
-5.7008205e-09
4.6524502e-10
-5.5153222e-09
3.8045207e-10
-5.2993991e-09
3.0631651e-10
-5.0700995e-09
2.432618e-10
-4.8432607e-09
1.9129356e-10
-4.6330959e-09
1.4981514e-10
-4.4521278e-09
1.1835686e-10
-4.3084251e-09
9.2731196e-11
-4.2069069e-09
6.9306001e-11
-4.1512362e-09
4.7184504e-11
2.5189761e-11
-2.1732983e-09
2.6708123e-09
-3.8903565e-09
2.2932253e-09
-5.3676054e-09
2.1561879e-09
-6.0442985e-09
1.7023286e-09
-6.1159092e-09
1.2241495e-09
-5.6562759e-09
7.1905476e-10
-4.9005292e-09
4.0177773e-10
-3.9150016e-09
1.1964036e-10
-2.763904e-09
-1.1990839e-10
-1.5147442e-09
-3.0598655e-10
-2.7296047e-10
-3.9212847e-10
9.640489e-10
-4.8170763e-10
2.2643239e-09
-6.3922846e-10
3.6802948e-09
-8.5626559e-10
5.0652749e-09
-9.1973324e-10
6.3786161e-09
-9.3288536e-10
7.5974143e-09
-9.1247629e-10
8.7067844e-09
-8.6610107e-10
9.6962749e-09
-7.9818803e-10
1.0557706e-08
-7.1160524e-10
1.1284127e-08
-6.0805302e-10
1.1866576e-08
-4.8970416e-10
1.2294707e-08
-3.5880955e-10
1.2559676e-08
-2.1776897e-10
-6.523492e-11
1.1111754e-09
1.5597229e-09
4.3345098e-09
-9.3005813e-10
8.0558734e-09
-1.5651053e-09
1.1734703e-08
-1.9764713e-09
1.5442974e-08
-2.4840958e-09
1.9088817e-08
-2.9267605e-09
2.2677046e-08
-3.1864193e-09
2.6049109e-08
-3.2523858e-09
2.9113785e-08
-3.1845424e-09
3.1853223e-08
-3.0453781e-09
3.4327493e-08
-2.8663491e-09
3.6500012e-08
-2.6541744e-09
3.8295952e-08
-2.4351142e-09
3.9667062e-08
-2.2273203e-09
4.075872e-08
-2.0113366e-09
4.1621832e-08
-1.7959413e-09
4.2296376e-08
-1.5869654e-09
4.2815868e-08
-1.385537e-09
4.3209483e-08
-1.1917477e-09
4.3502679e-08
-1.0047468e-09
4.3717371e-08
-8.2269053e-10
4.3870904e-08
-6.4318234e-10
4.3975513e-08
-4.6336476e-10
4.4038455e-08
-2.8065782e-10
-8.9162684e-11
1.497009e-07
-2.284688e-09
1.4819844e-07
5.7332819e-10
1.4553654e-07
1.0975782e-09
1.4201156e-07
1.5492099e-09
1.3742624e-07
2.1018354e-09
1.3192397e-07
2.5760277e-09
1.2586734e-07
2.87066e-09
1.1964585e-07
2.96949e-09
1.135287e-07
2.9329414e-09
1.0766921e-07
2.8143984e-09
1.0213698e-07
2.6661252e-09
9.6982494e-08
2.5005367e-09
9.2236255e-08
2.3113229e-09
8.7898443e-08
2.1106695e-09
8.3979865e-08
1.9074019e-09
8.0478062e-08
1.7060072e-09
7.7381988e-08
1.5092426e-09
7.4677992e-08
1.3185815e-09
7.235193e-08
1.1344279e-09
7.039104e-08
9.5624899e-10
6.8785685e-08
7.8276267e-10
6.7530532e-08
6.1206391e-10
6.6625976e-08
4.4128007e-10
6.6077677e-08
2.6772518e-10
8.5575923e-11
1.3358972e-08
-1.5655215e-09
1.5649482e-08
-1.7170679e-09
1.8245082e-08
-1.497908e-09
2.0941619e-08
-1.1472159e-09
2.3735815e-08
-6.9225407e-10
2.664454e-08
-3.3259681e-10
2.9564175e-08
-4.8882466e-11
3.2333906e-08
1.9984786e-10
3.4914001e-08
3.5293425e-10
3.7268383e-08
4.6010355e-10
3.9352839e-08
5.8175605e-10
4.09811e-08
8.7236019e-10
4.2273482e-08
1.0190237e-09
4.3300336e-08
1.0838973e-09
4.4104011e-08
1.1038059e-09
4.4720706e-08
1.0893882e-09
4.5184386e-08
1.0456375e-09
4.5524733e-08
9.7830657e-10
4.5767974e-08
8.9125708e-10
4.5937068e-08
7.8722229e-10
4.6051577e-08
6.6831945e-10
4.6127523e-08
5.3618128e-10
4.6176378e-08
3.9248623e-10
4.6205369e-08
2.3879331e-10
7.2600598e-11
-4.9920145e-09
-7.6323575e-10
-5.6985918e-09
-1.0105001e-09
-6.0757211e-09
-1.1207887e-09
-6.0446695e-09
-1.1782771e-09
-5.5542803e-09
-1.1826512e-09
-4.7433668e-09
-1.1435162e-09
-3.7153214e-09
-1.076931e-09
-2.5249141e-09
-9.9055976e-10
-1.2797727e-09
-8.9220484e-10
-2.9073171e-11
-7.9059129e-10
1.240714e-09
-6.8802421e-10
2.6937543e-09
-5.8067085e-10
4.1887227e-09
-4.7593306e-10
5.6520512e-09
-3.7941754e-10
7.0485868e-09
-2.9271417e-10
8.3539415e-09
-2.1594936e-10
9.5697687e-09
-1.7017119e-10
1.0679581e-08
-1.3148643e-10
1.1670769e-08
-9.9910084e-11
1.2533265e-08
-7.5253001e-11
1.3258484e-08
-5.6877654e-11
1.3838378e-08
-4.3691672e-11
1.4265134e-08
-3.4247782e-11
1.4530196e-08
-2.6247544e-11
-1.621652e-11
-2.1238647e-09
-1.6918822e-10
-2.9070412e-09
-2.2732594e-10
-3.7330739e-09
-2.9476089e-10
-4.5430835e-09
-3.6827474e-10
-5.2745013e-09
-4.5124253e-10
-5.8222891e-09
-5.9573876e-10
-6.2431036e-09
-6.5612745e-10
-6.5432917e-09
-6.9038297e-10
-6.7284866e-09
-7.0702113e-10
-6.8092425e-09
-7.098464e-10
-6.7958005e-09
-7.0147666e-10
-6.6913129e-09
-6.8516844e-10
-6.5068338e-09
-6.6042134e-10
-6.2583159e-09
-6.2794389e-10
-5.9619818e-09
-5.8905589e-10
-5.6326728e-09
-5.4526516e-10
-5.3037107e-09
-4.991394e-10
-4.9849635e-09
-4.5023899e-10
-4.6864054e-09
-3.984729e-10
-4.4177096e-09
-3.4395306e-10
-4.1878285e-09
-2.8676255e-10
-4.0045964e-09
-2.2692714e-10
-3.8743633e-09
-1.6448409e-10
-3.8009762e-09
-9.9637741e-11
-3.3615912e-11
-5.0078745e-10
2.0334753e-11
-7.2861721e-10
5.0625784e-13
-9.9675983e-10
-2.6616472e-11
-1.306092e-09
-5.8941545e-11
-1.6662329e-09
-9.1101549e-11
-2.1358446e-09
-1.2612816e-10
-2.6302469e-09
-1.6172745e-10
-3.126912e-09
-1.9372136e-10
-3.6142524e-09
-2.1968522e-10
-4.0842489e-09
-2.3985534e-10
-4.5308567e-09
-2.5487508e-10
-4.9492302e-09
-2.6680182e-10
-5.3292012e-09
-2.804577e-10
-5.6503556e-09
-3.0679718e-10
-5.9334511e-09
-3.0596843e-10
-6.1821834e-09
-2.9654109e-10
-6.4008587e-09
-2.8047239e-10
-6.5919911e-09
-2.59115e-10
-6.7574671e-09
-2.330053e-10
-6.898839e-09
-2.0258957e-10
-7.017266e-09
-1.6834386e-10
-7.1133534e-09
-1.3084803e-10
-7.1869628e-09
-9.0882915e-11
-7.2378658e-09
-4.8742946e-11
-1.1031632e-11
-7.6001042e-11
7.0634331e-11
-1.4803176e-10
7.2538469e-11
-2.4388884e-10
6.9242028e-11
-3.6215459e-10
5.9325423e-11
-4.9966935e-10
4.6414141e-11
-6.6104718e-10
3.5250226e-11
-8.4274547e-10
1.997096e-11
-1.0397306e-09
3.2634063e-12
-1.246116e-09
-1.3300566e-11
-1.4573307e-09
-2.8641891e-11
-1.673275e-09
-3.8932393e-11
-1.8938409e-09
-4.6237893e-11
-2.1222894e-09
-5.2011642e-11
-2.3730852e-09
-5.6004224e-11
-2.620998e-09
-5.8058743e-11
-2.8592916e-09
-5.825104e-11
-3.0830276e-09
-5.6740283e-11
-3.2884445e-09
-5.3702129e-11
-3.4721837e-09
-4.9270418e-11
-3.6311883e-09
-4.358943e-11
-3.7626981e-09
-3.6838702e-11
-3.8643285e-09
-2.9222283e-11
-3.9342633e-09
-2.095281e-11
-3.9708206e-09
-1.2190241e-11
-3.2907933e-12
5.1131799e-11
6.4607224e-11
5.2000456e-11
7.1670092e-11
4.567551e-11
7.5567182e-11
2.7970995e-11
7.7030069e-11
-5.6821526e-13
7.4953399e-11
-3.6959442e-11
7.1641408e-11
-8.2634737e-11
6.5646111e-11
-1.3751146e-10
5.8139887e-11
-1.9954466e-10
4.8732284e-11
-2.6770576e-10
3.9518761e-11
-3.371477e-10
3.0508995e-11
-4.0869517e-10
2.5308927e-11
-4.8111242e-10
2.040486e-11
-5.5325497e-10
1.6137473e-11
-6.2393568e-10
1.2621013e-11
-6.9203721e-10
9.8494313e-12
-7.565397e-10
7.7610612e-12
-8.1632976e-10
6.0867144e-12
-8.7027344e-10
4.6719798e-12
-9.1733482e-10
3.470621e-12
-9.565651e-10
2.3902239e-12
-9.8722167e-10
1.4329347e-12
-1.0087725e-09
5.9671349e-13
-1.021023e-09
5.8987766e-14
5.1347634e-14
7.2636181e-11
4.5264794e-11
9.3216333e-11
5.1090051e-11
1.1278111e-10
5.6002476e-11
1.3111325e-10
5.8697984e-11
1.4596559e-10
6.0101109e-11
1.5668493e-10
6.0922101e-11
1.6337094e-10
5.8960143e-11
1.6589293e-10
5.5617933e-11
1.6373297e-10
5.0892288e-11
1.5893486e-10
4.4316898e-11
1.5118283e-10
3.8261059e-11
1.4327237e-10
3.3219413e-11
1.3534373e-10
2.8333519e-11
1.277305e-10
2.375072e-11
1.2114059e-10
1.9210951e-11
1.1530269e-10
1.5687354e-11
1.1036763e-10
1.2696151e-11
1.0631429e-10
1.0140086e-11
1.032107e-10
7.7756197e-12
1.0073187e-10
5.949501e-12
9.8721948e-11
4.400203e-12
9.7115619e-11
3.0393355e-12
9.5824815e-11
1.8876004e-12
9.4894651e-11
9.8924852e-13
1.8234485e-13
5.2323315e-11
2.9784336e-11
6.9962286e-11
3.3451236e-11
8.9651884e-11
3.6313027e-11
1.0893648e-10
3.9413539e-11
1.2734983e-10
4.1687907e-11
1.4499994e-10
4.3272158e-11
1.6046281e-10
4.3497453e-11
1.7367674e-10
4.24042e-11
1.845791e-10
3.9990134e-11
1.9156381e-10
3.7332408e-11
1.9736192e-10
3.2463171e-11
2.0265089e-10
2.7930691e-11
2.0736453e-10
2.3620126e-11
2.1094208e-10
2.0173423e-11
2.1384938e-10
1.6303914e-11
2.1667388e-10
1.2863128e-11
2.192994e-10
1.007091e-11
2.2207427e-10
7.3654942e-12
2.2455044e-10
5.299743e-12
2.2701583e-10
3.4844048e-12
2.2921391e-10
2.2024261e-12
2.3090965e-10
1.3438934e-12
2.32022e-10
7.7553998e-13
2.3256551e-10
4.4603324e-13
1.9525539e-13
2.7609879e-11
2.2377999e-11
3.6565153e-11
2.4496098e-11
4.6014464e-11
2.6863854e-11
5.6267145e-11
2.9161002e-11
6.7129892e-11
3.0825311e-11
7.7686823e-11
3.2715386e-11
8.7520903e-11
3.3663541e-11
9.5567165e-11
3.4358112e-11
1.0194665e-10
3.3610829e-11
1.0669708e-10
3.2582158e-11
1.0898873e-10
3.0171703e-11
1.10048e-10
2.6871602e-11
1.1013896e-10
2.3529348e-11
1.0981576e-10
2.04968e-11
1.0817967e-10
1.7940177e-11
1.0629561e-10
1.4747357e-11
1.0438339e-10
1.1983303e-11
1.0215201e-10
9.5970325e-12
1.0001914e-10
7.4327585e-12
9.8099036e-11
5.40466e-12
9.6494246e-11
3.807358e-12
9.5325555e-11
2.5127188e-12
9.4634064e-11
1.4671584e-12
9.4398694e-11
6.8152332e-13
7.6046836e-14
1.1431605e-11
1.98343e-11
1.4191066e-11
2.173671e-11
1.6994173e-11
2.4060825e-11
2.0410247e-11
2.5745011e-11
2.434946e-11
2.6886184e-11
2.8738481e-11
2.8326454e-11
3.1798588e-11
3.0603526e-11
3.5012922e-11
3.114387e-11
3.6947882e-11
3.1675959e-11
3.7653022e-11
3.1877105e-11
3.7619093e-11
3.0205714e-11
3.5934678e-11
2.8556092e-11
3.2442918e-11
2.7021174e-11
2.8402747e-11
2.4537027e-11
2.4449281e-11
2.1893689e-11
1.9940136e-11
1.9256538e-11
1.5159876e-11
1.676359e-11
1.0414383e-11
1.4342542e-11
5.767904e-12
1.2079245e-11
1.2246957e-12
9.9478675e-12
-2.7667923e-12
7.798838e-12
-6.1558132e-12
5.9017246e-12
-8.8871815e-12
4.198505e-12
-1.089704e-11
2.6913568e-12
1.0022892e-12
5.198252e-12
1.8993338e-11
5.6299133e-12
2.130506e-11
6.6697329e-12
2.3021022e-11
7.9531193e-12
2.4461644e-11
9.0168588e-12
2.5822466e-11
9.9805312e-12
2.7362803e-11
1.1539056e-11
2.9045023e-11
1.2518905e-11
3.0164042e-11
1.2787681e-11
3.1407202e-11
1.3316275e-11
3.1348525e-11
1.2585395e-11
3.0936603e-11
1.0561675e-11
3.0579815e-11
8.3052326e-12
2.9277612e-11
5.3186359e-12
2.7523612e-11
1.7194716e-12
2.5492833e-11
-2.3391293e-12
2.3315111e-11
-6.8098318e-12
2.1234256e-11
-1.1279872e-11
1.8812538e-11
-1.541461e-11
1.6213931e-11
-1.9182478e-11
1.3715678e-11
-2.257512e-11
1.1191418e-11
-2.5359885e-11
8.6864223e-12
-2.735095e-11
6.1894989e-12
-2.8318835e-11
3.6591679e-12
1.1852129e-12
4.943701e-12
1.8060785e-11
6.4405093e-12
1.9808225e-11
7.6047968e-12
2.1856715e-11
8.5750782e-12
2.3491348e-11
9.4104936e-12
2.498704e-11
1.0347738e-11
2.6425549e-11
1.1572261e-11
2.7820491e-11
1.2736819e-11
2.8999475e-11
1.4181756e-11
2.9962255e-11
1.5080704e-11
3.0449564e-11
1.546709e-11
3.0550203e-11
1.5700841e-11
3.0346046e-11
1.5379823e-11
2.9598609e-11
1.4386695e-11
2.8516713e-11
1.2824542e-11
2.7054956e-11
1.082699e-11
2.5312627e-11
8.7329542e-12
2.332825e-11
6.487592e-12
2.1057854e-11
4.1373957e-12
1.8564077e-11
1.9261905e-12
1.5926829e-11
-6.6545994e-14
1.3184097e-11
-1.7469421e-12
1.0366758e-11
-3.0698735e-12
7.5123665e-12
-3.9441763e-12
4.5334062e-12
1.3760384e-12
6.868146e-12
1.6325562e-11
8.5845281e-12
1.8091791e-11
1.0352176e-11
2.0089027e-11
1.2114602e-11
2.172889e-11
1.3938045e-11
2.316357e-11
1.5843462e-11
2.4520109e-11
1.794341e-11
2.5720523e-11
2.0144106e-11
2.679876e-11
2.2424261e-11
2.7682082e-11
2.455552e-11
2.8318288e-11
2.6438161e-11
2.8667544e-11
2.8138633e-11
2.8645555e-11
2.9539505e-11
2.8197717e-11
3.0575306e-11
2.7480892e-11
3.1134058e-11
2.6496179e-11
3.1343942e-11
2.5102718e-11
3.1298234e-11
2.337393e-11
3.099331e-11
2.1362747e-11
3.0469344e-11
1.908801e-11
2.9847341e-11
1.6548797e-11
2.9201976e-11
1.3829425e-11
2.8586936e-11
1.0981758e-11
2.8179793e-11
7.9194673e-12
2.7936679e-11
4.7764795e-12
1.6908549e-12
7.4899776e-12
1.4352467e-11
9.4307767e-12
1.6150918e-11
1.1612832e-11
1.790691e-11
1.401168e-11
1.9329992e-11
1.6463882e-11
2.0711325e-11
1.908935e-11
2.1894605e-11
2.1797272e-11
2.3012569e-11
2.4629973e-11
2.3966032e-11
2.7524324e-11
2.4787706e-11
3.0415419e-11
2.542717e-11
3.3241589e-11
2.5841354e-11
3.5910706e-11
2.5976417e-11
3.8301291e-11
2.5807113e-11
4.0440632e-11
2.5341532e-11
4.2372821e-11
2.456397e-11
4.4069106e-11
2.3406413e-11
4.5477617e-11
2.1965398e-11
4.6526811e-11
2.0313531e-11
4.7307486e-11
1.8307313e-11
4.7840053e-11
1.6016207e-11
4.8178806e-11
1.3490648e-11
4.8382164e-11
1.0778376e-11
4.8348333e-11
7.9532717e-12
4.8348264e-11
4.7765251e-12
1.4144519e-12
7.0055764e-12
1.2480982e-11
8.9599554e-12
1.4196446e-11
1.1171636e-11
1.569515e-11
1.3515506e-11
1.6986052e-11
1.6216465e-11
1.8010306e-11
1.8861383e-11
1.9249634e-11
2.1695977e-11
2.0177929e-11
2.4628954e-11
2.1033014e-11
2.7660717e-11
2.1755905e-11
3.0759879e-11
2.2327975e-11
3.3868639e-11
2.2732564e-11
3.6907673e-11
2.2937355e-11
3.9811673e-11
2.2903088e-11
4.2553838e-11
2.2599343e-11
4.511342e-11
2.2004364e-11
4.7405707e-11
2.1114104e-11
4.943143e-11
1.9939654e-11
5.1251403e-11
1.8493538e-11
5.279991e-11
1.6758786e-11
5.4071063e-11
1.4745035e-11
5.5102103e-11
1.245959e-11
5.5946991e-11
9.9334695e-12
5.6774255e-11
7.1259888e-12
5.7122769e-11
4.4279951e-12
1.6651428e-12
6.0244294e-12
1.0853174e-11
7.8517502e-12
1.2369022e-11
9.8923184e-12
1.3654489e-11
1.2076156e-11
1.4802131e-11
1.428331e-11
1.5803077e-11
1.6804232e-11
1.6728645e-11
1.9423564e-11
1.7558536e-11
2.217695e-11
1.8279573e-11
2.5031489e-11
1.8901317e-11
2.7975104e-11
1.9384315e-11
3.0969072e-11
1.9738555e-11
3.3974018e-11
1.9932372e-11
3.6938087e-11
1.9938985e-11
3.9807806e-11
1.9729592e-11
4.2530918e-11
1.9281224e-11
4.5063629e-11
1.8581367e-11
4.7387326e-11
1.7615933e-11
4.9498428e-11
1.6382413e-11
5.136631e-11
1.4890883e-11
5.2966268e-11
1.3145057e-11
5.4263401e-11
1.1162439e-11
5.525941e-11
8.9374442e-12
5.5766672e-11
6.61871e-12
5.614446e-11
4.0501946e-12
1.2416173e-12
5.0655248e-12
9.4493739e-12
6.6900662e-12
1.0744377e-11
8.4656973e-12
1.1878762e-11
1.0385362e-11
1.2882377e-11
1.2412722e-11
1.3775636e-11
1.4583798e-11
1.4557494e-11
1.6884489e-11
1.5257778e-11
1.9316503e-11
1.5847497e-11
2.1877127e-11
1.6340637e-11
2.4506191e-11
1.6755199e-11
2.7228996e-11
1.7015704e-11
3.0002563e-11
1.7158762e-11
3.2791108e-11
1.7150401e-11
3.5541214e-11
1.6979451e-11
3.8206957e-11
1.6615449e-11
4.0749471e-11
1.6038824e-11
4.312848e-11
1.5236898e-11
4.5306415e-11
1.4204455e-11
4.7257825e-11
1.2939451e-11
4.8955652e-11
1.144721e-11
5.0384264e-11
9.7338096e-12
5.1472672e-11
7.8490201e-12
5.2377487e-11
5.7138801e-12
5.2904667e-11
3.5230036e-12
1.2491704e-12
4.3251871e-12
8.2189098e-12
5.7332656e-12
9.336201e-12
7.3025754e-12
1.030936e-11
9.0078922e-12
1.1176975e-11
1.0834352e-11
1.1949097e-11
1.2784356e-11
1.2607416e-11
1.4869025e-11
1.3173042e-11
1.7025745e-11
1.3690715e-11
1.9272742e-11
1.4093583e-11
2.163239e-11
1.43955e-11
2.4047389e-11
1.4600657e-11
2.653614e-11
1.4669969e-11
2.9058034e-11
1.4628468e-11
3.1587523e-11
1.4449928e-11
3.4082958e-11
1.4119982e-11
3.6493919e-11
1.3627834e-11
3.8774512e-11
1.2956279e-11
4.0889169e-11
1.2089775e-11
4.2801281e-11
1.1027319e-11
4.4474815e-11
9.7736575e-12
4.5870235e-11
8.3383735e-12
4.6983014e-11
6.7362268e-12
4.7730376e-11
4.9665038e-12
4.8235166e-11
3.0182034e-12
1.0224142e-12
3.8115127e-12
7.1121906e-12
5.0650452e-12
8.0825799e-12
6.5078339e-12
8.8664866e-12
8.0016454e-12
9.6830835e-12
9.6220755e-12
1.0328593e-11
1.1370214e-11
1.0859208e-11
1.3282252e-11
1.126094e-11
1.5223727e-11
1.1749181e-11
1.7290959e-11
1.2026298e-11
1.9428517e-11
1.2257893e-11
2.1622081e-11
1.2407048e-11
2.3847676e-11
1.2444333e-11
2.611007e-11
1.2366038e-11
2.83922e-11
1.2167765e-11
3.0651078e-11
1.1861074e-11
3.285787e-11
1.1421016e-11
3.49793e-11
1.0834826e-11
3.6968043e-11
1.0101011e-11
3.8780629e-11
9.2147145e-12
4.0381276e-11
8.1729945e-12
4.1741049e-11
6.9785858e-12
4.2849087e-11
5.6281768e-12
4.3568518e-11
4.2470621e-12
4.3948112e-11
2.6386009e-12
7.3423177e-13
3.4320717e-12
6.098106e-12
4.6406311e-12
6.8739418e-12
5.843658e-12
7.6633837e-12
7.2155651e-12
8.3111044e-12
8.702369e-12
8.8417217e-12
1.0284508e-11
9.2770073e-12
1.1908584e-11
9.6368063e-12
1.3692999e-11
9.9647128e-12
1.5604759e-11
1.0114489e-11
1.7531183e-11
1.0331425e-11
1.9532337e-11
1.0405854e-11
2.1591255e-11
1.0385379e-11
2.3663736e-11
1.0293525e-11
2.5700483e-11
1.0130989e-11
2.7727149e-11
9.8343817e-12
2.9722291e-11
9.4258506e-12
3.1640267e-11
8.9168287e-12
3.344434e-11
8.2969197e-12
3.5107687e-11
7.551352e-12
3.6600409e-11
6.6802593e-12
3.7890663e-11
5.6883192e-12
3.8936232e-11
4.5825986e-12
3.9927554e-11
3.2557306e-12
4.0627084e-11
1.939065e-12
7.611185e-13
3.1090413e-12
5.1742854e-12
4.1295112e-12
5.8534036e-12
5.2829534e-12
6.5098755e-12
6.5518489e-12
7.0421458e-12
7.9062243e-12
7.4872866e-12
9.3342774e-12
7.8488982e-12
1.0828749e-11
8.1422826e-12
1.2436108e-11
8.3573068e-12
1.4047976e-11
8.5025779e-12
1.5783697e-11
8.5956647e-12
1.7578916e-11
8.6105998e-12
1.9440358e-11
8.523905e-12
2.1276361e-11
8.4574925e-12
2.3142321e-11
8.2650044e-12
2.4984598e-11
7.992082e-12
2.6763662e-11
7.646766e-12
2.8467408e-11
7.2130655e-12
3.0068137e-11
6.6961752e-12
3.1546592e-11
6.0728845e-12
3.287578e-11
5.3510597e-12
3.402371e-11
4.5403796e-12
3.4963663e-11
3.6426381e-12
3.5541922e-11
2.6774644e-12
3.5831912e-11
1.6490701e-12
5.344027e-13
2.7979732e-12
4.3366883e-12
3.6821513e-12
4.9691656e-12
4.7380305e-12
5.4539386e-12
5.8823464e-12
5.8977749e-12
7.100083e-12
6.269498e-12
8.3926656e-12
6.556267e-12
9.7566479e-12
6.7782551e-12
1.1180019e-11
6.9338936e-12
1.2641436e-11
7.0411229e-12
1.4167977e-11
7.0690887e-12
1.5737605e-11
7.0409406e-12
1.730859e-11
6.9528909e-12
1.8937079e-11
6.8289785e-12
2.0581256e-11
6.6208051e-12
2.2201334e-11
6.3719835e-12
2.3760238e-11
6.0878454e-12
2.5259247e-11
5.7140411e-12
2.6680937e-11
5.2744722e-12
2.7981975e-11
4.771836e-12
2.9133512e-11
4.1995126e-12
3.0115661e-11
3.5582236e-12
3.0902329e-11
2.8559636e-12
3.1473571e-11
2.1062166e-12