/*--------------------------------*- C++ -*----------------------------------*\
| =========                 |                                                 |
| \\      /  F ield         | OpenFOAM: The Open Source CFD Toolbox           |
|  \\    /   O peration     | Version:  4.0                                   |
|   \\  /    A nd           | Web:      www.OpenFOAM.org                      |
|    \\/     M anipulation  |                                                 |
\*---------------------------------------------------------------------------*/
FoamFile
{
    version     2.0;
    format      ascii;
    class       volVectorField;
    location    "0.36";
    object      U;
}
// * * * * * * * * * * * * * * * * * * * * * * * * * * * * * * * * * * * * * //

dimensions      [0 1 -1 0 0 0 0];

internalField   nonuniform List<vector> 
1740
(
(1.4341478 -0.0025890999 4.5664526e-06)
(1.5838942 -0.0091706306 7.0951764e-07)
(1.5902807 -0.0039495619 3.3697145e-08)
(1.4805343 -0.020257889 7.9646208e-06)
(1.6411528 -0.032270921 1.6625056e-06)
(1.6007527 -0.01476143 3.2485693e-07)
(1.5805028 -0.027508565 1.1056379e-05)
(1.5473237 -0.018294657 2.5607628e-06)
(1.5049452 -0.003918102 4.6479784e-07)
(1.678767 -0.0052101006 1.3522806e-05)
(1.5099915 0.015165266 3.7049625e-06)
(1.6107925 0.0071074986 5.7147822e-07)
(1.6120654 0.014370509 1.5230933e-05)
(1.5173341 0.023785591 4.3083592e-06)
(1.6032624 0.0018201297 7.9709888e-07)
(1.5507117 0.0083480712 1.6270795e-05)
(1.5272581 -0.0044705958 5.2155801e-06)
(1.5886245 -0.0091086642 9.451347e-07)
(1.5750087 -0.0022915783 1.714022e-05)
(1.6087686 -0.0146441 5.7825537e-06)
(1.5909735 -0.010610061 1.166369e-06)
(1.5485654 -0.0092242836 1.7712461e-05)
(1.6067244 -0.0092445084 6.4640179e-06)
(1.5237469 -0.0079004293 1.3266448e-06)
(1.6118623 0.0002967294 1.8417181e-05)
(1.5665281 0.0077107247 7.0972265e-06)
(1.5459427 0.0048618008 1.5584776e-06)
(1.6010939 0.005536206 1.9261798e-05)
(1.5488037 0.0083361845 7.7088167e-06)
(1.6015301 -0.0030601632 1.682827e-06)
(1.5786827 0.00067395791 1.9612029e-05)
(1.5793586 -0.00077054271 8.3799186e-06)
(1.563452 0.00093711086 1.9393874e-06)
(1.567609 0.0051865778 1.9494627e-05)
(1.5778035 0.0044354755 8.7932367e-06)
(1.5658593 0.0061043186 2.1114258e-06)
(1.4829317 -0.0017884922 1.9838721e-05)
(1.5769175 -0.00021567343 9.4221176e-06)
(1.5691348 -0.0047232406 2.281349e-06)
(1.5900026 -0.014168373 2.0521755e-05)
(1.5781625 -0.014442438 9.9132099e-06)
(1.5566508 -0.0065714942 2.4883425e-06)
(1.5935304 -0.0028393417 2.1044953e-05)
(1.6057022 -0.020739499 1.0459082e-05)
(1.5729459 -0.0093264648 2.7087989e-06)
(1.5775289 -0.0099932463 2.0900164e-05)
(1.6374451 -0.0015853295 1.0854814e-05)
(1.5318659 -0.00039973425 2.8403774e-06)
(1.654228 0.0098443039 2.0942376e-05)
(1.5189514 0.023040467 1.1387173e-05)
(1.5362702 0.011457491 3.121139e-06)
(1.5423821 0.01656538 2.1512537e-05)
(1.5700766 0.03108607 1.1740115e-05)
(1.5685678 0.013024065 3.2596194e-06)
(1.54728 -0.0095488026 2.1894133e-05)
(1.5447206 -0.0041443909 1.2191515e-05)
(1.6412398 -1.577148e-05 3.4334805e-06)
(1.5707242 -0.0046174943 2.1537368e-05)
(1.5570945 -0.031566491 1.2353893e-05)
(1.5725766 -0.020151813 3.6370929e-06)
(1.5620427 0.0058086895 2.1516053e-05)
(1.6907488 -0.015388102 1.2821692e-05)
(1.5200918 -0.01763802 3.8002905e-06)
(1.5723068 0.0027686925 2.1784776e-05)
(1.6312383 0.021341795 1.3138377e-05)
(1.503797 0.0097608237 3.9634305e-06)
(1.5102236 -0.0047392868 2.2020516e-05)
(1.5229644 0.019623134 1.3537372e-05)
(1.5723153 0.014541138 4.1367112e-06)
(1.6050619 -0.009310779 2.1908597e-05)
(1.5648488 -0.0047566857 1.3770954e-05)
(1.6193095 0.0033042073 4.3007712e-06)
(1.5590885 0.0030561588 2.2029905e-05)
(1.5509854 -0.0053205661 1.4166339e-05)
(1.5216587 -0.0031395114 4.4520921e-06)
(1.539443 -0.00091350714 2.2535997e-05)
(1.5422739 0.005833709 1.4452121e-05)
(1.5487993 0.0016916572 4.5704062e-06)
(1.6376107 -0.00016651743 2.2879394e-05)
(1.5347767 -0.0022033826 1.4802253e-05)
(1.6309537 -0.0011440543 4.7302422e-06)
(1.5285312 0.0056665469 2.3295401e-05)
(1.482555 -0.02141376 1.5069275e-05)
(1.5346584 -0.011733274 4.8913009e-06)
(1.4026515 0.0082592372 2.2518349e-05)
(1.5573295 -0.010934816 1.5178261e-05)
(1.4550061 -0.005373014 4.8855279e-06)
(1.2703422 0.027884968 2.3456103e-05)
(1.3752312 0.10415152 1.5754197e-05)
(1.3672774 0.062096522 5.5228907e-06)
(0.83371776 0.36127911 1.166525e-05)
(0.82165284 0.94240171 9.8950537e-06)
(0.75582342 1.2639683 5.3887022e-06)
(0.2261363 0.11088302 1.5037335e-06)
(0.19901353 0.36899548 3.034833e-06)
(0.089985792 0.50486922 6.9171263e-07)
(-0.024969845 -0.013089698 1.2286447e-06)
(-0.022057199 -0.025915434 1.6774421e-06)
(-0.017210093 -0.030181586 5.9278721e-07)
(-0.00367466 -0.0025875254 4.5415035e-07)
(-0.0037046905 -0.0067142089 7.3840343e-07)
(-0.0042038413 -0.0091350399 3.4498556e-07)
(0.0013312972 3.1168726e-05 1.2398364e-07)
(0.0011204791 -0.00025103439 2.5085091e-07)
(0.00045567219 -0.00058208444 1.1923423e-07)
(0.0012272186 0.00012875942 2.7568677e-08)
(0.0011311278 0.00023324759 6.1400972e-08)
(0.00087833869 0.00026571633 4.2341613e-09)
(0.00090286539 8.7751874e-05 -1.9269119e-09)
(0.00085533081 0.00021161096 -5.9670031e-09)
(0.00074592894 0.00031432093 -4.119974e-08)
(0.0006703746 7.5524138e-05 -1.0984776e-08)
(0.00064440721 0.00018838721 -2.7010819e-08)
(0.0005886606 0.00028968185 -5.2959231e-08)
(0.00047519104 5.3233408e-05 -1.1533496e-08)
(0.00045955271 0.00012903589 -2.8839599e-08)
(0.00042593001 0.00019872356 -4.8812153e-08)
(0.00033356097 3.0839811e-05 -8.9541218e-09)
(0.0003236697 7.3219572e-05 -2.3415496e-08)
(0.00030187982 0.00011166545 -3.8674348e-08)
(0.00025970435 1.4069885e-05 -5.9882949e-09)
(0.00025391187 3.334352e-05 -1.6693347e-08)
(0.00024001691 5.1469541e-05 -2.8012657e-08)
(0.00022478842 8.1821763e-06 -3.8881289e-09)
(0.00022126823 1.9445447e-05 -1.1280598e-08)
(0.00021209788 2.9527435e-05 -1.9258621e-08)
(0.00019673915 6.9992248e-06 -2.6024511e-09)
(0.00019475014 1.652808e-05 -7.5189811e-09)
(0.00018834023 2.4793051e-05 -1.2850854e-08)
(0.00017322196 6.9131099e-06 -1.8061958e-09)
(0.00017162111 1.7068463e-05 -5.0001025e-09)
(0.00016663814 2.6696664e-05 -8.3979449e-09)
(0.0001517721 7.104411e-06 -1.268171e-09)
(0.00015052912 1.775227e-05 -3.2910233e-09)
(0.00014663268 2.827742e-05 -5.3674525e-09)
(0.00013142743 6.6585404e-06 -8.6289937e-10)
(0.00013049363 1.6346923e-05 -2.1041002e-09)
(0.0001274593 2.5926717e-05 -3.3272496e-09)
(0.00011279571 5.6869275e-06 -5.5057006e-10)
(0.00011209847 1.3898628e-05 -1.2830241e-09)
(0.00010974357 2.1886682e-05 -1.9799299e-09)
(9.664864e-05 4.6495887e-06 -3.3146249e-10)
(9.6122707e-05 1.1437033e-05 -7.4275775e-10)
(9.4281012e-05 1.8151324e-05 -1.1250837e-09)
(8.3078295e-05 3.8818469e-06 -1.9790753e-10)
(8.2679335e-05 9.5529754e-06 -4.1529861e-10)
(8.1211801e-05 1.5260827e-05 -6.1310568e-10)
(7.1540983e-05 3.3842691e-06 -1.2681424e-10)
(7.1235212e-05 8.2774511e-06 -2.3317414e-10)
(7.004652e-05 1.3200081e-05 -3.2522931e-10)
(6.1444544e-05 3.0086529e-06 -8.515463e-11)
(6.1206713e-05 7.3834475e-06 -1.3611945e-10)
(6.0234635e-05 1.1765014e-05 -1.7262401e-10)
(5.2439912e-05 2.6898907e-06 -6.2838361e-11)
(5.2248116e-05 6.6234213e-06 -8.6263461e-11)
(5.1442948e-05 1.0631523e-05 -9.4994423e-11)
(4.439417e-05 2.4050296e-06 -5.3534308e-11)
(4.4233501e-05 5.9246896e-06 -6.3736212e-11)
(4.3557468e-05 9.4963337e-06 -5.7679393e-11)
(3.7269165e-05 2.1279228e-06 -4.7996317e-11)
(3.7131016e-05 5.2625046e-06 -5.3390452e-11)
(3.655684e-05 8.4230698e-06 -4.0717876e-11)
(3.1024098e-05 1.8594371e-06 -4.3735001e-11)
(3.0908537e-05 4.612826e-06 -4.7357554e-11)
(3.0426672e-05 7.4127535e-06 -3.3086344e-11)
(2.5563133e-05 1.6153876e-06 -4.0021226e-11)
(2.5464076e-05 4.0130383e-06 -4.2730213e-11)
(2.5058158e-05 6.4418097e-06 -2.8964104e-11)
(2.0831537e-05 1.390393e-06 -3.7245983e-11)
(2.0742584e-05 3.4756044e-06 -3.9261948e-11)
(2.0397351e-05 5.6490859e-06 -2.6551195e-11)
(1.6793155e-05 1.1934232e-06 -3.5943902e-11)
(1.6716145e-05 3.0052775e-06 -3.7312303e-11)
(1.6427382e-05 4.8118284e-06 -2.5332095e-11)
(1.3368239e-05 1.0616428e-06 -3.5784017e-11)
(1.3301171e-05 2.566967e-06 -3.6222979e-11)
(1.3058973e-05 3.9602193e-06 -2.4861188e-11)
(1.0501975e-05 7.7141691e-07 -3.403432e-11)
(1.0442677e-05 1.9828495e-06 -3.4562448e-11)
(1.0239737e-05 3.2113348e-06 -2.4176408e-11)
(8.1411662e-06 6.2267645e-07 -3.3348711e-11)
(8.0880691e-06 1.622653e-06 -3.3185576e-11)
(7.9169936e-06 2.6363313e-06 -2.3572896e-11)
(6.2299022e-06 5.0774874e-07 -3.2929716e-11)
(6.1830518e-06 1.3264464e-06 -3.2051519e-11)
(6.0398164e-06 2.1348377e-06 -2.3122351e-11)
(4.714611e-06 3.9756829e-07 -3.2568176e-11)
(4.6735117e-06 1.0493941e-06 -3.1073578e-11)
(4.5539599e-06 1.6726711e-06 -2.2758421e-11)
(3.5409814e-06 3.0310934e-07 -3.2268308e-11)
(3.5052962e-06 8.1703031e-07 -3.020931e-11)
(3.4058012e-06 1.2986202e-06 -2.244394e-11)
(2.6603726e-06 2.1498603e-07 -3.1970628e-11)
(2.6298947e-06 5.9672797e-07 -2.9419496e-11)
(2.5472255e-06 9.4021161e-07 -2.2152781e-11)
(2.0323832e-06 1.4168148e-07 -3.1784379e-11)
(2.0050154e-06 4.0835945e-07 -2.8780888e-11)
(1.9361839e-06 6.3745216e-07 -2.1922e-11)
(1.6162741e-06 7.8348258e-08 -3.1574992e-11)
(1.5913654e-06 2.5961623e-07 -2.819303e-11)
(1.5336374e-06 3.9838578e-07 -2.1699494e-11)
(1.3722844e-06 2.4952057e-08 -3.0959799e-11)
(1.3509912e-06 1.3021751e-07 -2.7371699e-11)
(1.3017979e-06 1.9599734e-07 -2.1378586e-11)
(1.2661709e-06 -1.2263711e-08 -3.0749187e-11)
(1.2480448e-06 3.5855782e-08 -2.684586e-11)
(1.2054281e-06 4.3786611e-08 -2.1173058e-11)
(1.2663249e-06 -3.9653835e-08 -3.0598501e-11)
(1.2507931e-06 -3.5576102e-08 -2.6428512e-11)
(1.2132616e-06 -7.1922584e-08 -2.1024247e-11)
(1.3450302e-06 -5.9029463e-08 -3.042974e-11)
(1.331699e-06 -8.7763527e-08 -2.6079401e-11)
(1.2979739e-06 -1.5526921e-07 -2.0936124e-11)
(1.4782608e-06 -7.0911525e-08 -3.0286653e-11)
(1.4667943e-06 -1.2201416e-07 -2.5805925e-11)
(1.4357971e-06 -2.0936646e-07 -2.0906854e-11)
(1.645391e-06 -7.6839779e-08 -3.0150741e-11)
(1.6354784e-06 -1.4139741e-07 -2.5588734e-11)
(1.6063337e-06 -2.3873855e-07 -2.0934791e-11)
(1.8288639e-06 -7.6643296e-08 -3.0123899e-11)
(1.8202319e-06 -1.4610132e-07 -2.5544983e-11)
(1.7922654e-06 -2.4450894e-07 -2.1083977e-11)
(2.0133561e-06 -7.0742202e-08 -3.0252607e-11)
(2.0057802e-06 -1.3693541e-07 -2.5700386e-11)
(1.9785117e-06 -2.2854117e-07 -2.1330014e-11)
(2.1842203e-06 -6.1379387e-08 -3.0340712e-11)
(2.1774926e-06 -1.1945779e-07 -2.5795572e-11)
(2.1505949e-06 -1.9808717e-07 -2.1467509e-11)
(2.3261269e-06 -4.8186591e-08 -3.0442019e-11)
(2.3200428e-06 -9.2411194e-08 -2.5776986e-11)
(2.2933236e-06 -1.5176931e-07 -2.1331261e-11)
(2.4196786e-06 -3.1278677e-08 -3.0425642e-11)
(2.4140513e-06 -5.7334427e-08 -2.5236649e-11)
(2.387496e-06 -9.4296288e-08 -2.0423753e-11)
(2.4529149e-06 -1.1067552e-08 -2.9858697e-11)
(2.4475637e-06 -1.7783721e-08 -2.3155014e-11)
(2.4213036e-06 -3.3800798e-08 -1.7785403e-11)
(2.3981599e-06 4.0692924e-09 -2.677586e-11)
(2.3927216e-06 1.2047429e-08 -1.7104763e-11)
(2.3671284e-06 1.515611e-08 -1.1793166e-11)
(-0.045990568 1.9622404 -3.8233264e-07)
(-0.032725165 1.7029481 -3.4546001e-06)
(-0.06107984 0.34577179 -2.5261409e-07)
(-0.042593294 0.15516539 -1.0075331e-06)
(-0.014453194 -0.03826411 -1.9322063e-07)
(-0.010983938 -0.041167769 -6.1314227e-07)
(-0.0041040314 -0.011706266 -9.0850266e-08)
(-0.0041607823 -0.013443655 -3.8424905e-07)
(-3.1080637e-05 -0.0013818537 -9.0749082e-08)
(-0.00049488446 -0.002377299 -2.6903813e-07)
(0.00065601075 0.00017174417 -1.0103309e-07)
(0.00047698454 -6.2766739e-05 -2.0549734e-07)
(0.00063893827 0.00038015242 -9.996668e-08)
(0.00055467134 0.00041182048 -1.6256663e-07)
(0.00052536027 0.0003740354 -8.9187916e-08)
(0.00046906187 0.00045084907 -1.2829003e-07)
(0.00038712232 0.00026923735 -7.2928156e-08)
(0.00035081207 0.00031737212 -9.8412202e-08)
(0.00027686683 0.00014586451 -5.5461003e-08)
(0.00025477357 0.00017260403 -7.264086e-08)
(0.00022218617 6.6924911e-05 -3.9841982e-08)
(0.0002048649 7.6396585e-05 -5.1606928e-08)
(0.00019929791 3.6431528e-05 -2.7425828e-08)
(0.00018367264 3.9063101e-05 -3.5406684e-08)
(0.00017864436 3.1045119e-05 -1.8275033e-08)
(0.00016679943 3.5254437e-05 -2.3537115e-08)
(0.00015927694 3.5584561e-05 -1.184603e-08)
(0.000150382 4.3095424e-05 -1.5182341e-08)
(0.00014094504 3.8294885e-05 -7.4644162e-09)
(0.00013408945 4.6870355e-05 -9.4908166e-09)
(0.00012304568 3.5216124e-05 -4.5515675e-09)
(0.00011768755 4.3416654e-05 -5.7326348e-09)
(0.00010631757 2.9727865e-05 -2.669899e-09)
(0.00010214515 3.6986389e-05 -3.3336663e-09)
(9.1610047e-05 2.4643933e-05 -1.5007441e-09)
(8.8348138e-05 3.0738638e-05 -1.8612576e-09)
(7.9078365e-05 2.076722e-05 -8.0861087e-10)
(7.6459668e-05 2.5945441e-05 -9.9665794e-10)
(6.8302396e-05 1.8038473e-05 -4.1983617e-10)
(6.6141198e-05 2.2619009e-05 -5.1230242e-10)
(5.8795237e-05 1.6070323e-05 -2.1262234e-10)
(5.6988261e-05 2.0195023e-05 -2.5367966e-10)
(5.0246618e-05 1.4516585e-05 -1.0724945e-10)
(4.8734029e-05 1.8219526e-05 -1.2183176e-10)
(4.2555481e-05 1.3036903e-05 -5.600098e-11)
(4.1289092e-05 1.6371486e-05 -5.7488628e-11)
(3.5713719e-05 1.1613624e-05 -3.2358754e-11)
(3.46568e-05 1.4783728e-05 -2.7571119e-11)
(2.9695714e-05 1.0248565e-05 -2.2052661e-11)
(2.8754922e-05 1.2997626e-05 -1.4411806e-11)
(2.4437446e-05 8.982285e-06 -1.7589899e-11)
(2.3640746e-05 1.1283213e-05 -9.1183316e-12)
(1.989102e-05 7.6943949e-06 -1.564988e-11)
(1.9257667e-05 9.601701e-06 -7.2760151e-12)
(1.6000858e-05 6.4864175e-06 -1.4993488e-11)
(1.5449016e-05 8.122845e-06 -6.94905e-12)
(1.269781e-05 5.3827855e-06 -1.5027825e-11)
(1.223093e-05 6.8319311e-06 -7.314298e-12)
(9.9359929e-06 4.4750588e-06 -1.5099321e-11)
(9.544915e-06 5.7077637e-06 -7.8825883e-12)
(7.6635141e-06 3.6713519e-06 -1.5114735e-11)
(7.3378118e-06 4.6797568e-06 -8.3735416e-12)
(5.8288925e-06 2.9607587e-06 -1.5221648e-11)
(5.5582814e-06 3.759908e-06 -8.8759249e-12)
(4.3787823e-06 2.3261335e-06 -1.5382871e-11)
(4.1545071e-06 2.9498819e-06 -9.4081224e-12)
(3.2608357e-06 1.7541944e-06 -1.5536986e-11)
(3.0754782e-06 2.1977273e-06 -9.9057816e-12)
(2.427555e-06 1.2694579e-06 -1.5676454e-11)
(2.2743485e-06 1.5943306e-06 -1.0356716e-11)
(1.8369476e-06 8.722691e-07 -1.5806088e-11)
(1.7099698e-06 1.0938392e-06 -1.0753624e-11)
(1.4506444e-06 5.4179972e-07 -1.5907095e-11)
(1.3445745e-06 6.7554866e-07 -1.1101661e-11)
(1.2315435e-06 2.6505917e-07 -1.5944191e-11)
(1.1417523e-06 3.2760125e-07 -1.138565e-11)
(1.1449832e-06 5.3199901e-08 -1.6020154e-11)
(1.0677341e-06 5.3743118e-08 -1.1660175e-11)
(1.160245e-06 -1.0675782e-07 -1.6122625e-11)
(1.0924221e-06 -1.4719636e-07 -1.1952923e-11)
(1.2503921e-06 -2.2122607e-07 -1.625938e-11)
(1.1893852e-06 -2.9077968e-07 -1.2252451e-11)
(1.3920121e-06 -2.9521628e-07 -1.6432352e-11)
(1.3357032e-06 -3.8342694e-07 -1.2569381e-11)
(1.5650389e-06 -3.3470615e-07 -1.6645253e-11)
(1.5117504e-06 -4.3168691e-07 -1.2908025e-11)
(1.75247e-06 -3.4191725e-07 -1.6925873e-11)
(1.7009336e-06 -4.4019153e-07 -1.3270946e-11)
(1.9395119e-06 -3.1932048e-07 -1.7229698e-11)
(1.8888362e-06 -4.11146e-07 -1.3612589e-11)
(2.1119261e-06 -2.7600674e-07 -1.7376625e-11)
(2.061533e-06 -3.5344854e-07 -1.3782865e-11)
(2.2547551e-06 -2.1065376e-07 -1.7172789e-11)
(2.204377e-06 -2.6927974e-07 -1.3585085e-11)
(2.3490758e-06 -1.3087474e-07 -1.6167684e-11)
(2.2988164e-06 -1.6762166e-07 -1.2656384e-11)
(2.3832654e-06 -4.8494494e-08 -1.3630959e-11)
(2.3334624e-06 -6.3187042e-08 -1.0468878e-11)
(2.3301205e-06 1.9303515e-08 -8.5678609e-12)
(2.2816805e-06 2.339731e-08 -6.3959936e-12)
(-0.0025254949 2.5726539e-05 -9.5829096e-08)
(-0.0024929494 1.4214979e-05 -2.266073e-07)
(-0.0024312934 4.5216311e-05 -3.1930702e-07)
(-0.0023569985 3.2399831e-05 -3.7658998e-07)
(-0.0022709384 3.156788e-05 -4.0605975e-07)
(-0.0021717266 1.1038343e-05 -4.1630827e-07)
(-0.0020593636 -1.8226724e-05 -4.1395348e-07)
(-0.0019347379 -6.3201115e-05 -4.0371052e-07)
(-0.0017997973 -0.00012221074 -3.8885042e-07)
(-0.0016579475 -0.00019121968 -3.7161708e-07)
(-0.0015131496 -0.00026824853 -3.5354522e-07)
(-0.0013687908 -0.00034984504 -3.3553207e-07)
(-0.0012275695 -0.0004320804 -3.1797667e-07)
(-0.0010914532 -0.00051184876 -3.0091501e-07)
(-0.00096164586 -0.00058704705 -2.8419024e-07)
(-0.0008388658 -0.00065526522 -2.6754087e-07)
(-0.00072374753 -0.0007160749 -2.5061558e-07)
(-0.00061640486 -0.00076857328 -2.3292328e-07)
(-0.00051628532 -0.00081000481 -2.1391667e-07)
(-0.00042280261 -0.00084199451 -1.9295673e-07)
(-0.00033539077 -0.00086411928 -1.6933784e-07)
(-0.00025327874 -0.00087491626 -1.4202804e-07)
(-0.00017577664 -0.00087471177 -1.1012842e-07)
(-0.00010248586 -0.00086944214 -7.3129815e-08)
(-3.3088786e-05 -0.00082552856 -3.0554112e-08)
(0.00016578109 -9.2342796e-05 -1.1215091e-07)
(0.00017159863 -0.00042229458 -2.6143502e-07)
(0.0001822134 -0.00059771688 -3.6130135e-07)
(0.00020113916 -0.00088657143 -4.1721004e-07)
(0.00023214087 -0.0011202796 -4.4150829e-07)
(0.00027241536 -0.00138909 -4.4626269e-07)
(0.00031709649 -0.0016612463 -4.3922473e-07)
(0.00035947797 -0.0019611304 -4.2536381e-07)
(0.00039011026 -0.0022856465 -4.0773893e-07)
(0.00040746201 -0.0026091644 -3.8834512e-07)
(0.00041229923 -0.0029266558 -3.6868732e-07)
(0.00040674721 -0.0032329999 -3.4954052e-07)
(0.00039286119 -0.0035216963 -3.3119495e-07)
(0.00037265379 -0.0037897373 -3.1353912e-07)
(0.00034736551 -0.0040358491 -2.9633187e-07)
(0.00031794998 -0.0042618793 -2.7928573e-07)
(0.00028591399 -0.0044785235 -2.6209202e-07)
(0.00025240598 -0.0046769626 -2.4414373e-07)
(0.00021772494 -0.0048329252 -2.2492793e-07)
(0.00018215314 -0.0049395273 -2.037522e-07)
(0.00014625747 -0.0049946179 -1.8015184e-07)
(0.00011078354 -0.0050008346 -1.5251388e-07)
(7.6154505e-05 -0.0049618539 -1.1964249e-07)
(4.2813132e-05 -0.0048631965 -8.0035293e-08)
(1.1790575e-05 -0.0046430777 -3.478071e-08)
(0.00092434291 -0.00027218763 -1.5111683e-07)
(0.00094291322 -0.0013982388 -3.3919661e-07)
(0.00098998238 -0.0018713996 -4.4960714e-07)
(0.0010677413 -0.0027222455 -4.9771094e-07)
(0.001154842 -0.0034275661 -5.0950011e-07)
(0.0012253831 -0.0041863096 -5.0274982e-07)
(0.0012664947 -0.0049553823 -4.8636511e-07)
(0.0012749585 -0.0058924071 -4.6569114e-07)
(0.0012569823 -0.0069604864 -4.4296102e-07)
(0.0012175248 -0.0079492799 -4.1941073e-07)
(0.0011607959 -0.0088139186 -3.9678723e-07)
(0.001092296 -0.0095487525 -3.7554708e-07)
(0.0010157559 -0.010152036 -3.5582994e-07)
(0.00093323199 -0.010632458 -3.3715862e-07)
(0.00084686013 -0.01099666 -3.1913237e-07)
(0.00075853777 -0.011246162 -3.0141231e-07)
(0.00066984498 -0.011373948 -2.8404382e-07)
(0.00058173214 -0.011399648 -2.6582065e-07)
(0.00049482666 -0.01135244 -2.4660912e-07)
(0.00040980507 -0.011247066 -2.2574318e-07)
(0.00032738974 -0.011093357 -2.0240015e-07)
(0.00024817334 -0.010900416 -1.7524783e-07)
(0.00017181331 -0.010675112 -1.424316e-07)
(9.871308e-05 -0.010388218 -1.0078468e-07)
(3.0371305e-05 -0.0099938081 -4.9817344e-08)
(0.0032958678 -0.00097685566 -2.3426027e-07)
(0.0033174651 -0.0045042236 -4.8279147e-07)
(0.0033420664 -0.0057226649 -5.9461482e-07)
(0.0032605904 -0.0088720588 -6.1956771e-07)
(0.0031290938 -0.01172746 -6.0826324e-07)
(0.0029385325 -0.014307102 -5.8333946e-07)
(0.0027126351 -0.016162048 -5.5304642e-07)
(0.00246646 -0.017159161 -5.2397401e-07)
(0.0022207922 -0.017472797 -4.9543998e-07)
(0.0019822394 -0.017360927 -4.6597341e-07)
(0.0017563736 -0.016930712 -4.393924e-07)
(0.0015480388 -0.016302206 -4.1520129e-07)
(0.0013551626 -0.015494079 -3.9381851e-07)
(0.0011663755 -0.014561328 -3.7382073e-07)
(0.00099596584 -0.013556642 -3.5465902e-07)
(0.00084435979 -0.012526003 -3.3608738e-07)
(0.00071013233 -0.011508999 -3.177967e-07)
(0.00059154985 -0.010539448 -2.9941798e-07)
(0.00048706741 -0.0096409921 -2.8047858e-07)
(0.00039467417 -0.008833699 -2.6039713e-07)
(0.00031201972 -0.0081305509 -2.3841839e-07)
(0.0002364094 -0.0075365417 -2.1342891e-07)
(0.00016658935 -0.0070521362 -1.8373062e-07)
(0.00010075446 -0.006635378 -1.4644627e-07)
(3.717025e-05 -0.0063357878 -9.2532668e-08)
(0.010909521 -0.0085386004 -4.2244359e-07)
(0.0087461555 -0.025246852 -7.2586713e-07)
(0.0076873036 -0.027653196 -8.0423003e-07)
(0.006071372 -0.031936967 -7.894243e-07)
(0.004729814 -0.029437065 -7.483325e-07)
(0.0035436264 -0.02571776 -6.9965758e-07)
(0.0025445398 -0.021079885 -6.5194876e-07)
(0.0017435195 -0.016164212 -6.0763104e-07)
(0.0011140396 -0.011241215 -5.6852908e-07)
(0.00062564423 -0.006683068 -5.3275906e-07)
(0.00025401797 -0.0025549087 -5.006437e-07)
(-2.2282494e-05 0.00098986034 -4.7086893e-07)
(-0.00022002091 0.004289991 -4.4718237e-07)
(-0.00034682443 0.0074398178 -4.2479498e-07)
(-0.00042668927 0.010339068 -4.0325963e-07)
(-0.0004667158 0.01285595 -3.8277968e-07)
(-0.00047514753 0.014958001 -3.6306796e-07)
(-0.00045872293 0.016662912 -3.4378019e-07)
(-0.00042284637 0.017998513 -3.245161e-07)
(-0.00037210272 0.018993848 -3.0482418e-07)
(-0.0003106408 0.01967443 -2.8413755e-07)
(-0.00024250901 0.020066674 -2.6164458e-07)
(-0.00016979494 0.020168612 -2.3600355e-07)
(-9.5742428e-05 0.020038125 -2.1111738e-07)
(-2.1759779e-05 0.019333738 -1.8632792e-07)
(0.013215041 0.024015832 -7.8921151e-07)
(0.0028974153 -0.00049069091 -1.1134455e-06)
(0.00048400887 0.04896727 -1.1140724e-06)
(-0.001218548 0.051643486 -1.0399024e-06)
(-0.0027529304 0.065787133 -9.6241418e-07)
(-0.0039119516 0.075983195 -8.7617701e-07)
(-0.0045557195 0.083106293 -7.9897088e-07)
(-0.004748344 0.08906228 -7.3165066e-07)
(-0.0046619878 0.093451123 -6.7278971e-07)
(-0.0044369641 0.096179654 -6.2218728e-07)
(-0.0041422863 0.097733625 -5.794198e-07)
(-0.0037922883 0.098205765 -5.3496719e-07)
(-0.0034384488 0.097934489 -5.0961039e-07)
(-0.0030928547 0.096625052 -4.8212824e-07)
(-0.0027450376 0.094459334 -4.5485567e-07)
(-0.0024061694 0.092026875 -4.3041389e-07)
(-0.0020862309 0.089390183 -4.0774543e-07)
(-0.0017860498 0.08663462 -3.8627089e-07)
(-0.0015048639 0.083837579 -3.6554176e-07)
(-0.0012408741 0.08105724 -3.4514158e-07)
(-0.00099159819 0.078330675 -3.2463044e-07)
(-0.00075436002 0.075700518 -3.0346993e-07)
(-0.00052717106 0.073138829 -2.8109512e-07)
(-0.00030821832 0.070834059 -2.5827311e-07)
(-9.2289719e-05 0.067346006 -2.3605094e-07)
(-0.002471123 1.1787089 -2.5231947e-06)
(-0.0012494387 0.96435029 -2.0036733e-06)
(-0.0013090335 0.86780154 -1.6214159e-06)
(-0.00089946025 0.7749869 -1.3292707e-06)
(-0.00072987983 0.67875923 -1.1116004e-06)
(-0.00060401901 0.58726984 -9.5279199e-07)
(-0.00049680996 0.50876717 -8.3666126e-07)
(-0.0004093566 0.44495795 -7.5153231e-07)
(-0.00033688346 0.39232822 -6.8236392e-07)
(-0.00027663831 0.34740235 -6.2802962e-07)
(-0.00022351377 0.30862667 -5.8511754e-07)
(-0.00017756788 0.27525631 -5.4758874e-07)
(-0.00013940632 0.24672099 -5.165033e-07)
(-0.00011662501 0.22229112 -4.8918751e-07)
(-9.5896197e-05 0.20130992 -4.6417948e-07)
(-7.8843704e-05 0.18329571 -4.4094228e-07)
(-6.4793991e-05 0.16781772 -4.1900819e-07)
(-5.3106248e-05 0.154513 -3.9802056e-07)
(-4.3273252e-05 0.14307855 -3.7768788e-07)
(-3.4859781e-05 0.13326449 -3.5772952e-07)
(-2.7460561e-05 0.12485418 -3.3783843e-07)
(-2.0562933e-05 0.11770537 -3.1759133e-07)
(-1.4067277e-05 0.11157562 -2.9675865e-07)
(-7.9690496e-06 0.106749 -2.7514132e-07)
(-2.1734824e-06 0.10072861 -2.5205311e-07)
(-0.012862532 0.092954398 -1.2225283e-06)
(-0.0025549775 0.10009032 -1.2614001e-06)
(-0.00017948044 0.10537229 -1.2150018e-06)
(0.0015205699 0.1067333 -1.1240429e-06)
(0.0030250993 0.1085707 -1.0213984e-06)
(0.0041467819 0.11010499 -9.2160583e-07)
(0.0047588507 0.11165793 -8.3249571e-07)
(0.0049223372 0.11311162 -7.5521379e-07)
(0.004809939 0.11386912 -6.7370542e-07)
(0.0045434908 0.11389961 -6.2853087e-07)
(0.0042314934 0.11317806 -5.8764342e-07)
(0.0038962789 0.11148829 -5.4399444e-07)
(0.0035257624 0.10894968 -5.0729032e-07)
(0.0031540215 0.10591512 -4.7568614e-07)
(0.0027934165 0.10262835 -4.4777702e-07)
(0.0024494543 0.099213363 -4.2264019e-07)
(0.0021234205 0.095754237 -3.9959203e-07)
(0.0018167602 0.092319665 -3.7807705e-07)
(0.001529228 0.088960791 -3.5761449e-07)
(0.0012594032 0.085715418 -3.3775157e-07)
(0.0010052425 0.082605203 -3.179945e-07)
(0.00076450402 0.079659889 -2.9769727e-07)
(0.00053452759 0.076841949 -2.7721908e-07)
(0.00031311717 0.074344283 -2.5543798e-07)
(9.4440903e-05 0.070641485 -2.3376834e-07)
(-0.0089008188 -0.039423985 -8.3565195e-07)
(-0.0076322629 -0.037568275 -8.9946513e-07)
(-0.00630687 -0.036086463 -8.8610247e-07)
(-0.0049629806 -0.032836681 -8.4003871e-07)
(-0.0037080894 -0.028061105 -7.8187886e-07)
(-0.0026140554 -0.022589415 -7.206391e-07)
(-0.0017119548 -0.016917883 -6.63934e-07)
(-0.0010015805 -0.011373683 -6.1198161e-07)
(-0.0004581403 -0.0063977282 -5.6394983e-07)
(-4.9749213e-05 -0.0019823614 -5.2790333e-07)
(0.00024648122 0.0018140855 -4.9474466e-07)
(0.00045348148 0.0055250214 -4.6376983e-07)
(0.00058854568 0.0090756 -4.3588133e-07)
(0.00066804927 0.012252369 -4.1075753e-07)
(0.00070328969 0.014986496 -3.8785363e-07)
(0.00070332972 0.017276223 -3.6668164e-07)
(0.00067728062 0.019158794 -3.4686384e-07)
(0.00063057483 0.020674676 -3.2796583e-07)
(0.00056753048 0.021842458 -3.0954965e-07)
(0.00049188275 0.022683688 -2.9112303e-07)
(0.00040688088 0.023219897 -2.7199877e-07)
(0.00031541261 0.023472008 -2.5093781e-07)
(0.0002203358 0.023450512 -2.3066456e-07)
(0.00012484648 0.023199289 -2.0642821e-07)
(3.058446e-05 0.02234363 -1.8284876e-07)
(-0.0041290073 -0.015105754 -5.5504105e-07)
(-0.0040514762 -0.017602871 -6.2894966e-07)
(-0.0039017615 -0.0204157 -6.42801e-07)
(-0.0036707574 -0.022488256 -6.2568027e-07)
(-0.0033744631 -0.023816828 -5.9613276e-07)
(-0.003046358 -0.024298509 -5.6409407e-07)
(-0.0027230088 -0.024106758 -5.2512821e-07)
(-0.0024110446 -0.023467552 -4.8872662e-07)
(-0.002118611 -0.022544946 -4.5583542e-07)
(-0.0018530968 -0.021410398 -4.2778357e-07)
(-0.0016117388 -0.020151051 -4.0234357e-07)
(-0.0013865672 -0.018752197 -3.789483e-07)
(-0.0011821994 -0.017284691 -3.5754426e-07)
(-0.0010015932 -0.015802731 -3.3794574e-07)
(-0.00084360181 -0.014343183 -3.1966428e-07)
(-0.00070642026 -0.012939704 -3.0229691e-07)
(-0.00058649926 -0.011632005 -2.857958e-07)
(-0.0004822695 -0.010450969 -2.6963003e-07)
(-0.00039208118 -0.0094001467 -2.5333485e-07)
(-0.00031402958 -0.0084813682 -2.3636072e-07)
(-0.00024610561 -0.0076954562 -2.1794992e-07)
(-0.00018619527 -0.0070422256 -1.9705558e-07)
(-0.00013220782 -0.00651829 -1.7260841e-07)
(-8.1779529e-05 -0.0060833492 -1.3965004e-07)
(-3.2110041e-05 -0.0057888855 -8.9901762e-08)
(-0.00077912318 -0.0033562532 -3.9055666e-07)
(-0.0010141001 -0.0043139271 -4.57368e-07)
(-0.0012109187 -0.0052953969 -4.8276518e-07)
(-0.0013632277 -0.0062203106 -4.824795e-07)
(-0.0014677625 -0.0071636668 -4.6807003e-07)
(-0.0015166286 -0.0082893214 -4.4652762e-07)
(-0.0015170076 -0.0095115907 -4.204894e-07)
(-0.0014795061 -0.010575292 -3.9432706e-07)
(-0.0014149468 -0.011469183 -3.6987978e-07)
(-0.0013340362 -0.012192821 -3.4777839e-07)
(-0.0012435683 -0.012765992 -3.2756307e-07)
(-0.0011477671 -0.013192719 -3.0891717e-07)
(-0.0010491733 -0.013481259 -2.9166324e-07)
(-0.00095023771 -0.013616387 -2.7595491e-07)
(-0.00085244872 -0.013626817 -2.6095278e-07)
(-0.00075637459 -0.01355242 -2.4674968e-07)
(-0.00066411061 -0.013417216 -2.3268588e-07)
(-0.00057511748 -0.013235907 -2.1853266e-07)
(-0.00048895418 -0.013017847 -2.0386439e-07)
(-0.00040542544 -0.012770289 -1.8813364e-07)
(-0.00032444226 -0.012499062 -1.7050851e-07)
(-0.00024600593 -0.012209809 -1.497657e-07)
(-0.00017028343 -0.011906008 -1.2408786e-07)
(-9.7721948e-05 -0.011549724 -8.9645938e-08)
(-3.0195041e-05 -0.011100359 -4.5589404e-08)
(0.00032658734 -0.00040599963 -2.8652141e-07)
(0.00020706482 -0.000783426 -3.3843365e-07)
(8.9812911e-05 -0.0011994141 -3.6445559e-07)
(-3.7468381e-05 -0.0016320651 -3.7163211e-07)
(-0.00016122728 -0.00206597 -3.665497e-07)
(-0.00027874505 -0.0025205728 -3.5407172e-07)
(-0.00036979328 -0.0029965156 -3.3734177e-07)
(-0.00043158698 -0.0034538689 -3.1911421e-07)
(-0.00046818385 -0.0038846108 -3.0104766e-07)
(-0.00048545937 -0.0042773166 -2.8392124e-07)
(-0.0004887135 -0.0046335068 -2.6787797e-07)
(-0.0004800573 -0.0049587192 -2.5288189e-07)
(-0.00046220825 -0.005264598 -2.3886057e-07)
(-0.00043729725 -0.0055743535 -2.2575163e-07)
(-0.00040699916 -0.0058765783 -2.1325572e-07)
(-0.00037251979 -0.0061353893 -2.0117279e-07)
(-0.00033505948 -0.0063434771 -1.8914603e-07)
(-0.00029560262 -0.0064991921 -1.7685462e-07)
(-0.00025475346 -0.0066026586 -1.6388478e-07)
(-0.00021306532 -0.0066538166 -1.4985655e-07)
(-0.00017107573 -0.0066540694 -1.3402326e-07)
(-0.00012935435 -0.0066065943 -1.1522691e-07)
(-8.8560784e-05 -0.0065162196 -9.2323596e-08)
(-4.9396567e-05 -0.0063651619 -6.3367853e-08)
(-1.3494515e-05 -0.0060799111 -2.8933938e-08)
(0.00047924353 0.00040920541 -2.1552853e-07)
(0.00042141427 0.0003730939 -2.5325744e-07)
(0.00036666357 0.0003104401 -2.754582e-07)
(0.00031349464 0.00020459527 -2.8477241e-07)
(0.00026296698 6.8533917e-05 -2.8463456e-07)
(0.00020644133 -8.0835288e-05 -2.7812389e-07)
(0.0001479479 -0.00023996673 -2.6766964e-07)
(9.3980217e-05 -0.00040342634 -2.5523183e-07)
(4.7020072e-05 -0.00057200232 -2.4215111e-07)
(9.7356434e-06 -0.00073812576 -2.2920329e-07)
(-1.7822648e-05 -0.00089373555 -2.1673616e-07)
(-4.0207537e-05 -0.0010347131 -2.0487509e-07)
(-5.6198726e-05 -0.001163345 -1.9363462e-07)
(-6.6038183e-05 -0.0012806416 -1.8295749e-07)
(-7.0552135e-05 -0.0013852378 -1.7268767e-07)
(-7.0861971e-05 -0.0014741306 -1.6263578e-07)
(-6.793274e-05 -0.0015478347 -1.5255162e-07)
(-6.2777733e-05 -0.0016065234 -1.4215766e-07)
(-5.6051749e-05 -0.0016500314 -1.3112583e-07)
(-4.818197e-05 -0.0016780747 -1.1909207e-07)
(-3.9604761e-05 -0.00169064 -1.0559798e-07)
(-3.0630741e-05 -0.0016882971 -9.0023353e-08)
(-2.1527731e-05 -0.0016736448 -7.1702403e-08)
(-1.2326244e-05 -0.0016457309 -4.9994803e-08)
(-3.1844297e-06 -0.0015635729 -2.4181534e-08)
(0.00042318651 0.00052406398 -1.6304665e-07)
(0.00038740669 0.00058452907 -1.8954526e-07)
(0.0003547473 0.00063029536 -2.0687077e-07)
(0.00032180269 0.00065874202 -2.1574165e-07)