/*--------------------------------*- C++ -*----------------------------------*\
| =========                 |                                                 |
| \\      /  F ield         | OpenFOAM: The Open Source CFD Toolbox           |
|  \\    /   O peration     | Version:  4.0                                   |
|   \\  /    A nd           | Web:      www.OpenFOAM.org                      |
|    \\/     M anipulation  |                                                 |
\*---------------------------------------------------------------------------*/
FoamFile
{
    version     2.0;
    format      ascii;
    class       volScalarField;
    location    "0.23";
    object      k;
}
// * * * * * * * * * * * * * * * * * * * * * * * * * * * * * * * * * * * * * //

dimensions      [0 2 -2 0 0 0 0];

internalField   nonuniform List<scalar> 
1740
(
0.0087878671
0.009046849
0.018310863
0.0091615904
0.0097312676
0.027321323
0.0095335818
0.010266141
0.034519889
0.0097985307
0.01068478
0.041692065
0.010005386
0.011150638
0.047813945
0.010150256
0.011547632
0.051850921
0.010198755
0.011595586
0.055957349
0.01020249
0.012120285
0.059514987
0.010234304
0.01260247
0.061497038
0.010199131
0.012636433
0.063991744
0.010130527
0.013043678
0.066167819
0.010034089
0.013266885
0.06699683
0.0099369837
0.013247825
0.068078508
0.009824919
0.013458993
0.069494437
0.009721756
0.013870435
0.070338102
0.0096370639
0.014039394
0.070845184
0.0095532517
0.014079921
0.07137601
0.0093955392
0.013957984
0.071270773
0.0092060861
0.013860785
0.071519158
0.0090406841
0.014042239
0.072751307
0.0089715394
0.014661833
0.073277847
0.0088861989
0.014927064
0.073012002
0.0087683629
0.014674601
0.072897109
0.0086176295
0.014647623
0.073016625
0.0085238291
0.014568735
0.072482555
0.0084656557
0.014383997
0.072413144
0.0083662697
0.014687618
0.072540963
0.008352648
0.015086529
0.072406869
0.008368017
0.015379745
0.071796409
0.0089432511
0.01637918
0.066744031
0.012698907
0.018236588
0.047365738
0.023811882
0.031097654
0.039751234
0.010248646
0.012506931
0.013696747
0.0042660515
0.0045992531
0.0046618274
0.0020721775
0.0021152608
0.0020887653
0.0011299832
0.0011307997
0.0011119435
0.00066830478
0.00066542637
0.00065642037
0.00041521407
0.00041337808
0.00040951658
0.00026306425
0.00026214915
0.000260522
0.00016566577
0.00016521526
0.00016447672
0.00010162708
0.00010138249
0.00010098025
5.9928455e-05
5.9779076e-05
5.9518315e-05
3.3836297e-05
3.3740575e-05
3.3562839e-05
1.8439063e-05
1.8379493e-05
1.8264012e-05
9.9305613e-06
9.8960654e-06
9.8275235e-06
5.5354001e-06
5.5173705e-06
5.4810396e-06
3.4154099e-06
3.4071761e-06
3.3905071e-06
2.4702822e-06
2.4673486e-06
2.4615117e-06
2.097937e-06
2.0976524e-06
2.0972848e-06
1.9909592e-06
1.9918867e-06
1.9940313e-06
2.0013222e-06
2.0027386e-06
2.0058921e-06
2.0614514e-06
2.0630166e-06
2.0664689e-06
2.142009e-06
2.1435739e-06
2.1470127e-06
2.2308499e-06
2.232354e-06
2.2356535e-06
2.3231541e-06
2.3245759e-06
2.3276917e-06
2.4170539e-06
2.4183877e-06
2.4213094e-06
2.5117967e-06
2.5130433e-06
2.515773e-06
2.6070133e-06
2.6081756e-06
2.6107201e-06
2.7024415e-06
2.703523e-06
2.7058903e-06
2.7978274e-06
2.7988318e-06
2.80103e-06
2.8928926e-06
2.8938235e-06
2.8958607e-06
2.9873242e-06
2.9881852e-06
2.9900691e-06
3.0807712e-06
3.0815656e-06
3.0833039e-06
3.1728397e-06
3.1735709e-06
3.1751708e-06
3.2630828e-06
3.2637541e-06
3.265223e-06
3.3509766e-06
3.3515914e-06
3.3529364e-06
3.4358678e-06
3.4364292e-06
3.4376576e-06
3.5168681e-06
3.5173795e-06
3.5184984e-06
3.5926554e-06
3.5931201e-06
3.5941369e-06
3.6611188e-06
3.6615403e-06
3.6624624e-06
3.7187661e-06
3.7191478e-06
3.7199831e-06
3.7597979e-06
3.7601435e-06
3.7608998e-06
3.774773e-06
3.7750861e-06
3.7757714e-06
3.7488696e-06
3.7491536e-06
3.7497753e-06
3.6599579e-06
3.6602153e-06
3.6607792e-06
3.4771385e-06
3.4773691e-06
3.4778747e-06
3.1612004e-06
3.161394e-06
3.1618206e-06
2.6695171e-06
2.66963e-06
2.6698906e-06
1.9684377e-06
1.968356e-06
1.9682286e-06
1.0595303e-06
1.0592111e-06
1.0586117e-06
0.056257221
0.060895237
0.046107666
0.046591672
0.012458076
0.011333531
0.004349799
0.0041134894
0.0019940342
0.001931718
0.0010805121
0.0010631325
0.00064579587
0.00064176128
0.00040597483
0.00040569678
0.00025934643
0.00025981845
0.00016401676
0.00016436653
0.00010069849
0.00010078699
5.9283626e-05
5.9197033e-05
3.3370844e-05
3.3224671e-05
1.8125773e-05
1.7994011e-05
9.7408339e-06
9.6500587e-06
5.4337902e-06
5.3821903e-06
3.3686751e-06
3.344652e-06
2.4541387e-06
2.4465139e-06
2.0973429e-06
2.0983398e-06
1.9975262e-06
2.0025428e-06
2.0107577e-06
2.0173599e-06
2.0717197e-06
2.078733e-06
2.1522146e-06
2.1591202e-06
2.2406322e-06
2.2472239e-06
2.3323877e-06
2.3385967e-06
2.4257097e-06
2.4315236e-06
2.5198825e-06
2.5253101e-06
2.6145498e-06
2.6196065e-06
2.7094527e-06
2.7141555e-06
2.8043376e-06
2.8087035e-06
2.8989257e-06
2.902971e-06
2.9929033e-06
2.9966437e-06
3.0859187e-06
3.0893693e-06
3.1775774e-06
3.1807531e-06
3.2674323e-06
3.2703475e-06
3.3549593e-06
3.3576284e-06
3.4395049e-06
3.4419421e-06
3.5201811e-06
3.5224009e-06
3.595666e-06
3.597683e-06
3.6638492e-06
3.6656785e-06
3.7212392e-06
3.7228962e-06
3.7620373e-06
3.763538e-06
3.7768023e-06
3.7781628e-06
3.7507111e-06
3.7519465e-06
3.6616284e-06
3.66275e-06
3.4786383e-06
3.4796471e-06
3.1624814e-06
3.163357e-06
2.6703896e-06
2.6710805e-06
1.968444e-06
1.9688813e-06
1.0584947e-06
1.0586831e-06
5.7283793e-06
2.6991407e-05
0.00013397699
0.00030392132
0.00046047453
0.00057061954
0.00063981672
0.00068202787
0.00070896418
0.00072764723
0.00074189333
0.00075410297
0.00076474844
0.0007734487
0.00077987343
0.00078358467
0.00078386128
0.00077947451
0.00076834012
0.00074700712
0.00070994643
0.00064869609
0.00055122224
0.0004022413
0.00018378894
2.5910082e-06
5.4649053e-05
0.00025053162
0.00051482448
0.00072613913
0.00085684612
0.00093166836
0.00097472909
0.0010013717
0.0010195039
0.0010331704
0.0010445156
0.0010538929
0.0010608929
0.0010651229
0.0010660851
0.0010629274
0.0010541949
0.0010373727
0.0010082356
0.00095989157
0.00088139698
0.00075603061
0.00056007216
0.00026431964
7.9744747e-06
0.00015977766
0.0006151454
0.0010781732
0.0013604815
0.0015024416
0.0015689536
0.001599255
0.0016132031
0.0016191052
0.001621208
0.001620785
0.0016183403
0.0016133833
0.0016054287
0.0015940981
0.0015785697
0.0015574359
0.0015279557
0.001485405
0.0014218608
0.0013239408
0.0011685565
0.00091492053
0.00049100375
3.7603694e-05
0.00057880142
0.0016838062
0.0024338608
0.0027700499
0.0028834183
0.0028921959
0.0028611576
0.0028200037
0.0027735708
0.0027267656
0.0026814402
0.0026379085
0.002592984
0.0025459418
0.0024971553
0.0024462388
0.0023920295
0.0023322736
0.0022629398
0.0021771076
0.0020627129
0.0018968854
0.0016286776
0.0011059845
0.0002811814
0.002444762
0.0049097398
0.0060297101
0.0063757504
0.0063142793
0.0060852649
0.0058222675
0.0055724819
0.0053215199
0.0050804032
0.0048546078
0.0046488892
0.0044490956
0.0042539012
0.0040678814
0.0038919174
0.0037254966
0.003567054
0.003413599
0.0032602443
0.0030997498
0.0029222175
0.0027202761
0.0025120825
0.002358474
0.010517435
0.016562692
0.01851431
0.018057729
0.016503284
0.014689222
0.013002312
0.01152171
0.010245859
0.0091544215
0.0082247358
0.0074314351
0.0067505608
0.0061641339
0.0056586376
0.0052224806
0.0048451926
0.0045173469
0.0042302897
0.0039756205
0.0037451138
0.003531102
0.0033339062
0.0031696838
0.044982249
0.034103603
0.026591501
0.021419005
0.017758987
0.015052555
0.012962761
0.01130567
0.0099742857
0.0088931978
0.0080040528
0.007261937
0.0066330337
0.0060926184
0.0056227919
0.0052110087
0.0048484238
0.0045282851
0.0042449358
0.003993166
0.0037676847
0.0035631271
0.0033746125
0.0032044747
0.003069021
0.037228559
0.030953717
0.02775468
0.025127089
0.022257095
0.019282474
0.016564773
0.014266864
0.012386085
0.010845125
0.0095742749
0.0085167161
0.0076288939
0.0068807942
0.0062484832
0.0057123073
0.0052557888
0.004865132
0.0045286577
0.0042361193
0.0039779839
0.0037452514
0.0035296439
0.0033311491
0.0031658949
0.010200748
0.009530364
0.009191047
0.0088710445
0.0084090728
0.007844478
0.0072873221
0.0067907064
0.0063391277
0.0059395421
0.0055890824
0.0052819205
0.0049927851
0.0047242936
0.0044777743
0.0042524603
0.0040463231
0.0038566993
0.003680163
0.0035123266
0.003347317
0.0031771846
0.0029914274
0.0027821265
0.0025668483
0.0039558683
0.0038827432
0.0038594081
0.0038176101
0.0037220252
0.0035856378
0.0034442875
0.003312769
0.0031934293
0.0030882827
0.0029963234
0.0029144117
0.0028368926
0.0027630795
0.0026928163
0.0026254317
0.0025595804
0.0024931736
0.0024231277
0.0023448096
0.0022509165
0.002129151
0.0019564064
0.0016807681
0.001145202
0.0019124261
0.0019243188
0.0019479871
0.0019610409
0.0019524571
0.0019256656
0.0018915657
0.0018570898
0.0018251905
0.0017970989
0.0017725609
0.0017503156
0.0017287063
0.0017070717
0.0016853001
0.0016625457
0.0016374557
0.0016079314
0.0015707533
0.0015209121
0.001450403
0.0013459929
0.0011849022
0.0009265193
0.00049861489
0.0010653954
0.0010817522
0.0011031199
0.0011206003
0.001129543
0.0011305716
0.0011272077
0.0011223506
0.001117655
0.0011138137
0.0011107593
0.0011079359
0.0011046302
0.0011003194
0.0010945786
0.0010866994
0.0010755318
0.0010592726
0.0010351369
0.0009988378
0.00094379207
0.00085995567
0.00073229821
0.00053958679
0.00025602942
0.0006467701
0.00065854788
0.00067299863
0.00068620346
0.00069592695
0.00070199816
0.00070555153
0.00070782942
0.00070967376
0.00071146863
0.00071321293
0.00071464456
0.00071539082
0.00071508662
0.00071332848
0.0007095342
0.00070281894
0.00069182745
0.00067449878
0.00064775127
0.00060711325
0.00054639665
0.00045765432
0.00033171005
0.00015726425
0.00040975658
0.00041721752
0.00042619908
0.00043484065
0.00044197172
0.00044730372
0.00045116487
0.00045405639
0.00045637816
0.00045833106
0.00045992413
0.00046102042
0.00046140597
0.0004608352
0.00045901606
0.00045554965
0.00044984878
0.00044102691
0.00042775591
0.0004081133
0.00037950306
0.00033885946
0.00028365417
0.000215139
0.00014865402
0.00026242046
0.00026675455
0.00027194153
0.00027705822
0.00028145861
0.00028489365
0.00028742038
0.00028922482
0.00029048344
0.00029129352
0.00029165839
0.00029150302
0.00029070392
0.00028911085
0.00028654407
0.00028276736
0.00027744371
0.00027007038
0.00025990259
0.00024589479
0.00022674282
0.00020120637
0.0001690672
0.00013337705
0.00010475221
0.00016575523
0.00016801268
0.00017071629
0.00017339787
0.00017569676
0.00017743292
0.00017858185
0.00017920165
0.00017936485
0.00017911574
0.00017845497
0.00017734357
0.00017571644
0.00017349412
0.00017058488
0.0001668747
0.00016220567
0.0001563421
0.00014893245
0.00013948939
0.00012744159
0.00011235228
9.4432953e-05
7.5424207e-05
5.7887056e-05
0.00010135716
0.00010234084
0.00010353381
0.0001046978
0.00010563476
0.00010622835
0.0001064408
0.00010628429
0.00010578711
0.00010497024
0.0001038365
0.00010237044
0.00010054477
9.8327268e-05
9.5683951e-05
9.2576362e-05
8.8951905e-05
8.4727259e-05
7.9769124e-05
7.3884346e-05
6.6843069e-05
5.8458582e-05
4.8691941e-05
3.7492172e-05
2.3012199e-05
5.9314339e-05
5.961045e-05
5.9990269e-05
6.0335248e-05
6.0541069e-05
6.0540005e-05
6.030323e-05
5.9830067e-05
5.9132306e-05
5.8222091e-05
5.7105029e-05
5.577936e-05
5.4239128e-05
5.2477713e-05
5.0490451e-05
4.8274054e-05
4.5822256e-05
4.3117476e-05
4.0120426e-05
3.6762553e-05
3.2948699e-05
2.8569478e-05
2.348472e-05
1.7339976e-05
8.9783726e-06
3.3154053e-05
3.3150746e-05
3.3173381e-05
3.3165971e-05
3.3076893e-05
3.2870528e-05
3.2530032e-05
3.2053405e-05
3.1446671e-05
3.0717857e-05
2.9873321e-05
2.8916846e-05
2.7851007e-05
2.6678809e-05
2.5405097e-05
2.4036369e-05
2.2578506e-05
2.1032384e-05
1.9388008e-05
1.7618884e-05
1.5678421e-05
1.3495846e-05
1.0956814e-05
7.8417428e-06
3.754663e-06
1.7884889e-05
1.7797024e-05
1.771351e-05
1.7609915e-05
1.7462415e-05
1.7253977e-05
1.6976226e-05
1.6628228e-05
1.6213506e-05
1.5737287e-05
1.52046e-05
1.4619691e-05
1.3986473e-05
1.3309215e-05
1.2593046e-05
1.1843695e-05
1.1066175e-05
1.0262317e-05
9.4274304e-06
8.5467463e-06
7.5918453e-06
6.5169979e-06
5.2532119e-06
3.7042738e-06
1.791688e-06
9.5636648e-06
9.4825096e-06
9.4002835e-06
9.3069732e-06
9.1924203e-06
9.0491516e-06
8.873447e-06
8.6650801e-06
8.4261187e-06
8.1596031e-06
7.8686857e-06
7.5562878e-06
7.225084e-06
6.8778985e-06
6.5176755e-06
6.1471678e-06
5.7680968e-06
5.379702e-06
4.9767304e-06
4.5470688e-06
4.0697347e-06
3.5136384e-06
2.8386924e-06
2.006831e-06
1.0191463e-06
5.330521e-06
5.27984e-06
5.2280818e-06
5.1713568e-06
5.105611e-06
5.0277249e-06
4.9361837e-06
4.830976e-06
4.7131423e-06
4.5842176e-06
4.4458217e-06
4.2994675e-06
4.1464836e-06
3.9881087e-06
3.8253832e-06
3.6587856e-06
3.4876026e-06
3.3089154e-06
3.1162447e-06
2.8979982e-06
2.6363122e-06
2.3070711e-06
1.8833535e-06
1.3471935e-06
7.1058205e-07
3.3205104e-06
3.2969684e-06
3.2734428e-06
3.248484e-06
3.2204814e-06
3.1881738e-06
3.1508803e-06
3.1085602e-06
3.0616131e-06
3.01065e-06
2.9563185e-06
2.8991958e-06
2.839721e-06
2.7781344e-06
2.7143227e-06
2.6474836e-06
2.5755548e-06
2.4943798e-06
2.3966395e-06
2.270699e-06
2.0998052e-06
1.8625345e-06
1.5366118e-06
1.1093173e-06
5.9480352e-07
2.4395747e-06
2.4337001e-06
2.4287187e-06
2.4240706e-06
2.4190742e-06
2.4131482e-06
2.4059237e-06
2.3972627e-06
2.3872052e-06
2.3758741e-06
2.3633976e-06
2.3498453e-06
2.3351636e-06
2.319074e-06
2.3008783e-06
2.279135e-06
2.2511163e-06
2.2120408e-06
2.1541e-06
2.0654301e-06
1.9294447e-06
1.7254005e-06
1.4321267e-06
1.0374254e-06
5.5223742e-07
2.1006521e-06
2.1044256e-06
2.1095644e-06
2.1157953e-06
2.1227651e-06
2.1301339e-06
2.1376265e-06
2.1450465e-06
2.1522585e-06
2.1591559e-06
2.1656215e-06
2.1714836e-06
2.1764512e-06
2.1799989e-06
2.1811628e-06
2.1782009e-06
2.1680666e-06
2.1456508e-06
2.1028257e-06
2.0274375e-06
1.9026578e-06
1.7075884e-06
1.4210027e-06
1.0306723e-06
5.4871287e-07
2.0091934e-06
2.0174878e-06
2.027324e-06
2.0385107e-06
2.0508056e-06
2.0639538e-06
2.0777122e-06
2.0918589e-06
2.1061893e-06
2.1205028e-06
2.1345806e-06
2.1481493e-06
2.1608158e-06
2.1719476e-06
2.1804616e-06
2.1844743e-06
2.180769e-06
2.1640307e-06
2.1258774e-06
2.053836e-06
1.9306781e-06
1.7350315e-06
1.4451297e-06
1.0480436e-06
5.575242e-07
2.0256924e-06
2.0356969e-06
2.0472562e-06
2.0602025e-06
2.0743337e-06
2.0894298e-06
2.1052655e-06
2.1216165e-06
2.1382588e-06
2.1549624e-06
2.1714746e-06
2.1874859e-06
2.2025644e-06
2.2160329e-06
2.2267517e-06
2.2327605e-06
2.2307285e-06
2.215178e-06
2.1774917e-06
2.1048641e-06
1.9796136e-06
1.7798028e-06
1.4830473e-06
1.0759038e-06
5.744315e-07
2.0874529e-06
2.0977916e-06
2.1096244e-06
2.1227939e-06
2.1371176e-06
2.1523957e-06
2.1684187e-06
2.184971e-06
2.201831e-06
2.2187664e-06
2.2355192e-06
2.2517717e-06
2.2670801e-06
2.2807477e-06
2.2916023e-06
2.2976285e-06
2.2954015e-06
2.2792921e-06
2.24045e-06
2.1657291e-06
2.0369842e-06
1.8317129e-06
1.5269907e-06
1.1092158e-06
5.9458427e-07
2.1676553e-06
2.1777219e-06
2.1891957e-06
2.2019283e-06
2.2157508e-06
2.2304794e-06
2.2459196e-06
2.2618687e-06
2.2781155e-06
2.2944357e-06
2.3105765e-06
2.3262231e-06
2.3409293e-06
2.3539883e-06
2.3642036e-06
2.3695109e-06
2.3663963e-06
2.3490791e-06
2.3084713e-06
2.2310783e-06
2.0982869e-06
1.8870377e-06
1.5738729e-06
1.1449406e-06
6.1623198e-07
2.255349e-06
2.264909e-06
2.2757842e-06
2.2878351e-06
2.3009051e-06
2.3148242e-06
2.329412e-06
2.3444792e-06
2.3598271e-06
2.3752423e-06
2.3904811e-06
2.4052343e-06
2.4190572e-06
2.4312354e-06
2.4405501e-06
2.4448888e-06
2.4406485e-06
2.4218928e-06
2.3792878e-06
2.2989794e-06
2.1618768e-06
1.9443711e-06
1.622537e-06
1.1824073e-06
6.3948871e-07
2.3462402e-06
2.3552228e-06
2.3654312e-06
2.3767349e-06
2.3889887e-06
2.4020349e-06
2.4157058e-06
2.429825e-06
2.4442061e-06
2.458647e-06
2.4729132e-06
2.4867026e-06
2.499572e-06
2.5108002e-06
2.5191458e-06
2.5224475e-06
2.5170098e-06
2.4967366e-06
2.452039e-06
2.3686885e-06
2.2270945e-06
2.0030727e-06
1.6721967e-06
1.2201097e-06
6.6042213e-07
2.438676e-06
2.4470761e-06
2.4566176e-06
2.4671786e-06
2.4786243e-06
2.490808e-06
2.5035739e-06
2.5167572e-06
2.530183e-06
2.5436597e-06
2.5569623e-06
2.5697948e-06
2.5817158e-06
2.5919967e-06
2.5993727e-06
2.6016319e-06
2.5949836e-06
2.5731674e-06
2.5263304e-06
2.4398521e-06
2.2936063e-06
2.0627512e-06
1.7221678e-06
1.256881e-06
6.8249371e-07
2.5319845e-06
2.5398206e-06
2.5487185e-06
2.558565e-06
2.5692343e-06
2.5805901e-06
2.5924871e-06
2.6047713e-06
2.6172783e-06
2.6298265e-06
2.6421994e-06
2.654107e-06
2.6651087e-06
2.674468e-06
2.6808957e-06
2.6821278e-06
2.6742754e-06
2.6509091e-06
2.6019046e-06
2.5122357e-06
2.3612148e-06
2.1232939e-06
1.7725877e-06
1.2934679e-06
7.0159091e-07
2.6258232e-06
2.6331204e-06
2.6414047e-06
2.6505706e-06
2.6605008e-06
2.6710685e-06
2.6821381e-06
2.6935654e-06
2.7051959e-06
2.716857e-06
2.7283401e-06
2.7393607e-06
2.7494785e-06
2.757948e-06
2.763455e-06
2.7636812e-06
2.7546373e-06
2.7297207e-06
2.6785303e-06
2.5856263e-06
2.4297502e-06
2.1846456e-06
1.8236882e-06
1.3306122e-06
7.2078457e-07
2.7199363e-06
2.7267206e-06
2.7344215e-06
2.7429405e-06
2.7521686e-06
2.7619874e-06
2.7722702e-06
2.7828821e-06
2.7936777e-06
2.8044928e-06
2.8151262e-06
2.8252979e-06
2.8345675e-06
2.8421799e-06
2.8467945e-06
2.8460376e-06
2.8358167e-06
2.8093535e-06
2.7559662e-06
2.6597985e-06
2.4990221e-06
2.2466844e-06
1.8754559e-06
1.3685335e-06
7.4107391e-07
2.8140696e-06
2.8203662e-06
2.8275126e-06
2.8354169e-06
2.8439777e-06
2.8530844e-06
2.8626189e-06
2.8724548e-06
2.882455e-06
2.8924635e-06
2.9022854e-06
2.9116452e-06
2.9201014e-06
2.9268888e-06
2.9306391e-06
2.928922e-06
2.9175403e-06
2.8895374e-06
2.8339493e-06
2.7345033e-06
2.5688067e-06
2.3092194e-06
1.92768e-06
1.4065432e-06
7.5987068e-07
2.9079425e-06
2.9137755e-06
2.9203947e-06
2.9277147e-06
2.935641e-06
2.9440706e-06
2.9528931e-06
2.9619902e-06
2.9712326e-06
2.9804717e-06
2.989519e-06
2.9981023e-06
3.0057789e-06
3.0117723e-06
3.0146862e-06
3.0120323e-06
2.9995076e-06
2.9699758e-06
2.9121903e-06
2.809464e-06
2.6388455e-06
2.3720144e-06
1.9801937e-06
1.4451863e-06
7.8390821e-07
3.0012401e-06
3.0066323e-06
3.0127504e-06
3.019515e-06
3.026838e-06
3.0346235e-06
3.0427686e-06
3.0511624e-06
3.059683e-06
3.0681887e-06
3.0764967e-06
3.0843379e-06
3.0912676e-06
3.0964978e-06
3.0986031e-06
3.0950366e-06
3.0813886e-06
3.050343e-06
2.9903707e-06
2.8843728e-06
2.7088422e-06
2.434776e-06
2.0326596e-06
1.483725e-06
8.0527103e-07
3.0936092e-06
3.0985827e-06
3.1042247e-06
3.1104615e-06
3.1172113e-06
3.1243847e-06
3.1318857e-06
3.1396104e-06
3.147444e-06
3.1552512e-06
3.1628543e-06
3.1699871e-06
3.1762022e-06
3.1806996e-06
3.1820243e-06
3.1775706e-06
3.1628214e-06
3.1302815e-06
3.0681405e-06
2.9588906e-06
2.7784754e-06
2.4972243e-06
2.0849339e-06
1.522489e-06
8.2810537e-07
3.1846547e-06
3.1892307e-06
3.1944209e-06
3.2001569e-06
3.2063626e-06
3.2129549e-06
3.2198442e-06
3.2269333e-06
3.2341139e-06
3.2412567e-06
3.2481889e-06
3.2546464e-06
3.260179e-06
3.263974e-06
3.2645468e-06
3.2592325e-06
3.2434073e-06
3.2093975e-06
3.1451138e-06
3.0326441e-06
2.8473937e-06
2.5590493e-06
2.1367477e-06
1.560898e-06
8.5002479e-07
3.2739287e-06
3.2781283e-06
3.2828905e-06
3.288152e-06
3.2938422e-06
3.2998838e-06
3.3061933e-06
3.3126798e-06
3.3192409e-06
3.3257531e-06
3.332048e-06
3.3378632e-06
3.3427454e-06
3.3458689e-06
3.3457194e-06
3.3395728e-06
3.3226996e-06
3.2872493e-06
3.2208577e-06
3.1052148e-06
2.9152031e-06
2.6198999e-06
2.1878569e-06
1.5992287e-06
8.7328277e-07
3.3609068e-06
3.3647507e-06
3.3691085e-06
3.3739217e-06
3.3791247e-06
3.3846458e-06
3.3904072e-06
3.3963237e-06
3.4022988e-06
3.4082141e-06
3.4139053e-06
3.4191115e-06
3.4233756e-06
3.4258591e-06
3.4250177e-06
3.418069e-06
3.400179e-06
3.3633233e-06
3.2948677e-06
3.176114e-06
2.9814387e-06
2.6793412e-06
2.2378294e-06
1.6368292e-06
8.9629335e-07
3.4449355e-06
3.4484444e-06
3.4524214e-06
3.4568124e-06
3.4615565e-06
3.4665874e-06
3.4718324e-06
3.4772118e-06
3.4826345e-06
3.487987e-06
3.4931084e-06
3.497739e-06
3.501418e-06
3.5032936e-06
3.5017921e-06
3.4940734e-06
3.4752013e-06
3.4369816e-06
3.3665169e-06
3.2447328e-06
3.0455192e-06
2.7368182e-06
2.2860602e-06
1.6725679e-06
9.1274104e-07
3.5251268e-06
3.5283217e-06
3.5319418e-06
3.5359369e-06
3.540251e-06
3.5448222e-06
3.549583e-06
3.5544587e-06
3.5593632e-06
3.5641873e-06
3.5687735e-06
3.5728627e-06
3.5759902e-06
3.5772911e-06
3.5751624e-06
3.566708e-06
3.5468922e-06
3.5073569e-06
3.4349517e-06
3.3102419e-06
3.1066529e-06
2.7915896e-06
2.3318873e-06
1.7063852e-06
9.3393707e-07
3.6001596e-06
3.6030618e-06
3.6063492e-06
3.6099755e-06
3.6138888e-06
3.6180317e-06
3.6223414e-06
3.6267478e-06
3.6311691e-06
3.6355003e-06
3.6395867e-06
3.6431697e-06
3.6457802e-06
3.6465403e-06
3.6438187e-06
3.6346648e-06
3.6139479e-06
3.5731535e-06
3.4988924e-06
3.371391e-06
3.1636379e-06
2.8425405e-06
2.3744498e-06
1.7378812e-06
9.5207656e-07
3.6679244e-06
3.6705557e-06
3.6735354e-06
3.6768208e-06
3.6803638e-06
3.6841111e-06
3.6880039e-06
3.6919765e-06
3.6959512e-06
3.6998264e-06
3.7034497e-06
3.7065629e-06
3.708692e-06
3.7089465e-06
3.7056673e-06
3.6958523e-06
3.6742809e-06
3.6322939e-06
3.5562828e-06
3.426165e-06
3.2145283e-06
2.8878132e-06
2.4119041e-06
1.7650402e-06
9.6689794e-07
3.7249305e-06
3.7273137e-06
3.7300117e-06
3.7329853e-06
3.7361897e-06
3.7395755e-06
3.7430876e-06
3.746664e-06
3.7502303e-06
3.753688e-06
3.7568868e-06
3.7595679e-06
3.7612526e-06
3.7610378e-06
3.7572379e-06
3.7468027e-06
3.72443e-06
3.6813321e-06
3.6037106e-06
3.4712213e-06
3.2561165e-06
2.9244349e-06
2.4416326e-06
1.7856969e-06
9.7293891e-07
3.7653806e-06
3.7675391e-06
3.7699825e-06
3.7726746e-06
3.7755739e-06
3.7786341e-06
3.7818035e-06
3.7850231e-06
3.7882215e-06
3.7913025e-06
3.794117e-06
3.7964055e-06
3.7976845e-06
3.7970383e-06
3.7927576e-06
3.7817489e-06
3.7586412e-06
3.7145432e-06
3.6355139e-06
3.5010277e-06
3.2831234e-06
2.9475972e-06
2.4596319e-06
1.7970934e-06
9.7752884e-07
3.7798337e-06
3.7817915e-06
3.7840081e-06
3.7864499e-06
3.7890787e-06
3.7918509e-06
3.7947176e-06
3.7976221e-06
3.800495e-06
3.8032417e-06
3.8057141e-06
3.8076515e-06
3.8085655e-06
3.8075297e-06
3.8028141e-06
3.7912925e-06
3.7675452e-06
3.7226192e-06
3.6425073e-06
3.5066361e-06
3.287045e-06
2.9496036e-06
2.4596645e-06
1.7957442e-06
9.8086758e-07
3.7534646e-06
3.7552444e-06
3.7572607e-06
3.7594831e-06
3.761876e-06
3.7643985e-06
3.7670035e-06
3.7696356e-06
3.7722266e-06
3.7746826e-06
3.7768562e-06
3.778486e-06
3.7790798e-06
3.7777034e-06
3.7726146e-06
3.7606722e-06
3.7364444e-06
3.6909857e-06
3.6103498e-06
3.4741308e-06
3.2547153e-06
2.9185575e-06
2.4318126e-06
1.7738857e-06
9.6847204e-07
3.664129e-06
3.6657478e-06
3.6675856e-06
3.6696156e-06
3.6718045e-06
3.6741133e-06
3.6764962e-06
3.6788977e-06
3.6812486e-06
3.6834557e-06
3.6853733e-06
3.6867412e-06
3.6870667e-06
3.6854151e-06
3.6800488e-06
3.6678443e-06
3.6434224e-06
3.5979626e-06
3.5177824e-06
3.3829786e-06
3.1668015e-06
2.8370234e-06
2.3614837e-06
1.7210766e-06
9.3920496e-07
3.4808873e-06
3.4823473e-06
3.4840157e-06
3.4858712e-06
3.4878794e-06
3.4900025e-06
3.4921947e-06
3.4943986e-06
3.4965423e-06
3.4985336e-06
3.5002327e-06
3.5013853e-06
3.5015061e-06
3.4996775e-06
3.4941982e-06
3.4820202e-06
3.4579251e-06
3.4134113e-06
3.3353797e-06
3.2049277e-06
2.9968994e-06
2.6813612e-06
2.2289438e-06
1.6228265e-06
8.8539562e-07
3.1644322e-06
3.1657092e-06
3.1671972e-06
3.1688857e-06
3.1707206e-06
3.1726641e-06
3.1746728e-06
3.1766861e-06
3.1786296e-06
3.1804138e-06
3.1819129e-06
3.1828881e-06
3.1828793e-06
3.1810282e-06
3.1757254e-06
3.1640868e-06
3.1412284e-06
3.0992726e-06
3.0261862e-06
2.9047775e-06
2.7124662e-06
2.4228528e-06
2.0107139e-06
1.4624972e-06
7.9855687e-07
2.6719352e-06
2.6730021e-06
2.6742926e-06
2.6758318e-06
2.6774834e-06
2.6792106e-06
2.6809881e-06
2.6827624e-06
2.6844754e-06
2.6860114e-06
2.6872829e-06
2.6880812e-06
2.6880104e-06
2.686358e-06
2.6816978e-06
2.6714332e-06
2.6512695e-06
2.6144036e-06
2.5505509e-06
2.4451816e-06
2.2795148e-06
2.0321102e-06
1.6833047e-06
1.2237404e-06
6.7054545e-07
1.9695088e-06
1.9706666e-06
1.971808e-06
1.9732475e-06
1.9746793e-06
1.9760836e-06
1.9774969e-06
1.9789312e-06
1.9806047e-06
1.9818125e-06
1.9827611e-06
1.9833181e-06
1.9832125e-06
1.9820001e-06
1.9785719e-06
1.9708066e-06
1.9553568e-06
1.9270878e-06
1.8783278e-06
1.798349e-06
1.6735283e-06
1.4887439e-06
1.2308853e-06
8.9509962e-07
4.9542751e-07
1.0593934e-06
1.0625131e-06
1.0636852e-06
1.0648762e-06
1.0658902e-06
1.0667581e-06
1.0676034e-06
1.0687774e-06
1.0726427e-06
1.0736382e-06
1.0741573e-06
1.0744086e-06
1.0742924e-06
1.0736666e-06
1.0719019e-06
1.0676928e-06
1.0591096e-06
1.0433186e-06
1.0161305e-06
9.7172043e-07
9.0284717e-07
8.0165492e-07
6.6183395e-07
4.8248366e-07
2.7636796e-07
)
;

boundaryField
{
    Walls
    {
        type            kqRWallFunction;
        value           nonuniform List<scalar> 
38
(
5.7283793e-06
2.5910082e-06
7.9744747e-06
3.7603694e-05
0.0002811814
0.002358474
0.056257221
0.060895237
0.018310863
0.027321323
0.034519889
0.041692065
0.047813945
0.051850921
0.055957349
0.059514987
0.061497038
0.063991744
0.066167819
0.06699683
0.068078508
0.069494437
0.070338102
0.070845184
0.07137601
0.071270773
0.071519158
0.072751307
0.073277847
0.073012002
0.072897109
0.073016625
0.072482555
0.072413144
0.072540963
0.072406869
0.071796409
0.066744031
)
;
    }
    Inlet
    {
        type            turbulentIntensityKineticEnergyInlet;
        intensity       0.05;
        value           nonuniform List<scalar> 3(0.0088625017 0.0089661416 0.0093310306);
    }
    Outlet
    {
        type            inletOutlet;
        inletValue      uniform 0;
        value           nonuniform List<scalar> 
86
(
0
0
0
0
0
0
0
0
0
0
0
0
0
0
0
0
0
0
0
0
0
0
0
0
0
0
0
0
0
0
0.003069021
0.0031658949
0.0025668483
0
0
0
0
0.00014865402
0.00010475221
5.7887056e-05
0
0
0
1.791688e-06
1.0191463e-06
7.1058205e-07
5.9480352e-07
5.5223742e-07
5.4871287e-07
5.575242e-07
5.744315e-07
5.9458427e-07
6.1623198e-07
6.3948871e-07
6.6042213e-07
6.8249371e-07
7.0159091e-07
7.2078457e-07
7.4107391e-07
7.5987068e-07
7.8390821e-07
8.0527103e-07
8.2810537e-07
8.5002479e-07
8.7328277e-07
8.9629335e-07
9.1274104e-07
9.3393707e-07
9.5207656e-07
9.6689794e-07
0
0
0
0
0
0
0
0
0
2.7636796e-07
0
0
0
0
0.0025120825
0.0031696838
)
;
    }
    Front
    {
        type            wedge;
    }
    Back
    {
        type            wedge;
    }
    defaultFaces
    {
        type            empty;
    }
}


// ************************************************************************* //
