/*--------------------------------*- C++ -*----------------------------------*\
| =========                 |                                                 |
| \\      /  F ield         | OpenFOAM: The Open Source CFD Toolbox           |
|  \\    /   O peration     | Version:  4.0                                   |
|   \\  /    A nd           | Web:      www.OpenFOAM.org                      |
|    \\/     M anipulation  |                                                 |
\*---------------------------------------------------------------------------*/
FoamFile
{
    version     2.0;
    format      ascii;
    class       volScalarField;
    location    "0.23";
    object      nut;
}
// * * * * * * * * * * * * * * * * * * * * * * * * * * * * * * * * * * * * * //

dimensions      [0 2 -1 0 0 0 0];

internalField   nonuniform List<scalar> 
1740
(
2.2312574e-05
1.4119708e-05
1.2272713e-06
2.2849483e-05
7.1724687e-06
1.8177737e-06
1.2057107e-05
5.5680609e-06
2.2835578e-06
1.5947589e-05
4.8078685e-06
2.7423484e-06
1.3757049e-05
4.3349156e-06
3.1301141e-06
1.6001928e-05
4.0446225e-06
3.3836825e-06
1.3727416e-05
3.8601699e-06
3.6397582e-06
1.1974797e-05
3.7233111e-06
3.8608422e-06
1.0682585e-05
3.6427586e-06
3.9836947e-06
9.5625124e-06
3.5699741e-06
4.1372521e-06
8.6814469e-06
3.5449557e-06
4.2706876e-06
7.9779409e-06
3.5212051e-06
4.3210549e-06
7.3816184e-06
3.4918291e-06
4.386527e-06
6.8984193e-06
3.4890732e-06
4.4734267e-06
6.4701677e-06
3.5087598e-06
4.5259142e-06
6.0906787e-06
3.5116849e-06
4.5558583e-06
5.7949045e-06
3.5065479e-06
4.5886715e-06
5.5752697e-06
3.4889866e-06
4.5830075e-06
5.3969649e-06
3.4781537e-06
4.5975172e-06
5.2158287e-06
3.4928086e-06
4.6723673e-06
5.0200303e-06
3.5413429e-06
4.7052143e-06
4.8270803e-06
3.5568453e-06
4.6886218e-06
4.6892602e-06
3.5343806e-06
4.6811277e-06
4.5860377e-06
3.5329398e-06
4.6893875e-06
4.4736975e-06
3.5217302e-06
4.6564706e-06
4.358569e-06
3.5052565e-06
4.6517596e-06
4.2686728e-06
3.5303853e-06
4.6593447e-06
4.1892843e-06
3.5654197e-06
4.6516395e-06
4.1301972e-06
3.5949717e-06
4.6148443e-06
3.0127498e-06
3.5697286e-06
4.3062141e-06
1.927197e-06
2.1910896e-06
4.4141304e-06
7.1510851e-06
7.3481066e-06
6.7115045e-06
6.5221336e-06
6.7298725e-06
6.3640176e-06
5.1740658e-06
5.113441e-06
4.867548e-06
4.3230299e-06
4.2517495e-06
4.1157105e-06
3.7425178e-06
3.6994772e-06
3.6368704e-06
3.2905594e-06
3.2712037e-06
3.2500635e-06
2.8697933e-06
2.8635135e-06
2.8615355e-06
2.4203985e-06
2.4193518e-06
2.4231815e-06
1.9256477e-06
1.9255972e-06
1.9287025e-06
1.4143123e-06
1.4137178e-06
1.4141627e-06
9.4652307e-07
9.4537066e-07
9.4381056e-07
5.7823464e-07
5.7700212e-07
5.7482975e-07
3.2875848e-07
3.2778921e-07
3.2595073e-07
1.804944e-07
1.7987346e-07
1.7866804e-07
1.0172524e-07
1.0139971e-07
1.0075078e-07
6.3328911e-08
6.317799e-08
6.287653e-08
4.6179729e-08
4.612396e-08
4.6017173e-08
3.9527231e-08
3.9519404e-08
3.9512163e-08
3.7785402e-08
3.7800038e-08
3.7839356e-08
3.8222153e-08
3.8246512e-08
3.8305299e-08
3.9572666e-08
3.9600648e-08
3.9665899e-08
4.128402e-08
4.1312771e-08
4.1378551e-08
4.3129497e-08
4.3157706e-08
4.3221451e-08
4.5022712e-08
4.5049797e-08
4.5110475e-08
4.6933373e-08
4.6959085e-08
4.7016344e-08
4.8851527e-08
4.8875777e-08
4.8929548e-08
5.0773425e-08
5.0796196e-08
5.0846528e-08
5.2696375e-08
5.2717683e-08
5.2764674e-08
5.4617074e-08
5.4636954e-08
5.4680722e-08
5.6531185e-08
5.6549681e-08
5.6590351e-08
5.8433306e-08
5.8450469e-08
5.8488169e-08
6.0317059e-08
6.033294e-08
6.0367801e-08
6.2175174e-08
6.218983e-08
6.2221982e-08
6.3999595e-08
6.4013082e-08
6.4042656e-08
6.5781574e-08
6.5793951e-08
6.582108e-08
6.7511796e-08
6.7523122e-08
6.7547941e-08
6.9180537e-08
6.9190875e-08
6.9213522e-08
7.0777901e-08
7.0787315e-08
7.0807935e-08
7.229414e-08
7.2302698e-08
7.2321442e-08
7.3720059e-08
7.3727835e-08
7.3744861e-08
7.5047415e-08
7.5054485e-08
7.5069966e-08
7.62691e-08
7.6275547e-08
7.6289662e-08
7.7378746e-08
7.7384656e-08
7.7397595e-08
7.8369291e-08
7.8374752e-08
7.8386708e-08
7.9230013e-08
7.9235111e-08
7.9246271e-08
7.9940286e-08
7.9945095e-08
7.9955619e-08
8.0460654e-08
8.046521e-08
8.0475193e-08
8.0711729e-08
8.0715982e-08
8.0725348e-08
8.0490944e-08
8.0494629e-08
8.0502906e-08
4.1732739e-06
4.4991068e-06
6.6937924e-06
8.420095e-06
5.9838627e-06
6.0277525e-06
4.719032e-06
4.821025e-06
4.0640704e-06
4.167676e-06
3.632957e-06
3.7253056e-06
3.2676326e-06
3.344813e-06
2.8844662e-06
2.944161e-06
2.442445e-06
2.4839966e-06
1.9405692e-06
1.9653002e-06
1.4188123e-06
1.4302049e-06
9.4369662e-07
9.466056e-07
5.7278508e-07
5.7179997e-07
3.2382916e-07
3.2193384e-07
1.771791e-07
1.7566555e-07
9.9919613e-08
9.9030828e-08
6.2489045e-08
6.2073542e-08
4.5888439e-08
4.5763931e-08
3.9518569e-08
3.9549971e-08
3.7909148e-08
3.8013989e-08
3.8400811e-08
3.853454e-08
3.9768886e-08
3.9909679e-08
4.1480814e-08
4.1618962e-08
4.3319612e-08
4.3451282e-08
4.520332e-08
4.5327288e-08
4.7103568e-08
4.7219667e-08
4.90112e-08
4.9119647e-08
5.0922786e-08
5.1023911e-08
5.2835754e-08
5.2929905e-08
5.4746845e-08
5.4834358e-08
5.6651737e-08
5.6732929e-08
5.8545033e-08
5.8620208e-08
6.0420353e-08
6.0489801e-08
6.2270429e-08
6.2334433e-08
6.4087204e-08
6.4146041e-08
6.5861934e-08
6.5915879e-08
6.7585308e-08
6.7634639e-08
6.9247613e-08
6.9292611e-08
7.0838968e-08
7.0879924e-08
7.2349647e-08
7.2386865e-08
7.377048e-08
7.3804282e-08
7.5093256e-08
7.5123983e-08
7.6310897e-08
7.633891e-08
7.7417061e-08
7.7442738e-08
7.8404694e-08
7.8428418e-08
7.9263059e-08
7.9285202e-08
7.9971464e-08
7.9992365e-08
8.0490292e-08
8.0510231e-08
8.0739785e-08
8.075896e-08
8.051653e-08
8.053502e-08
4.7506109e-10
1.320659e-08
1.9227117e-07
8.2338114e-07
1.6383727e-06
2.2235019e-06
2.5665294e-06
2.7723202e-06
2.9131156e-06
3.0243331e-06
3.1223082e-06
3.2174694e-06
3.3116154e-06
3.4028116e-06
3.4900676e-06
3.5722139e-06
3.6473144e-06
3.7120952e-06
3.7610805e-06
3.7852402e-06
3.7698113e-06
3.6907032e-06
3.5080129e-06
3.1488313e-06
2.3900557e-06
2.148764e-10
2.6820648e-08
3.5899871e-07
1.3739992e-06
2.565014e-06
3.3713682e-06
3.8416712e-06
4.144669e-06
4.3745463e-06
4.5736536e-06
4.7613213e-06
4.9474173e-06
5.1334969e-06
5.3174398e-06
5.497558e-06
5.6713999e-06
5.8349717e-06
5.9818027e-06
6.1011932e-06
6.1755383e-06
6.1758868e-06
6.0540375e-06
5.7273766e-06
5.0419184e-06
3.5823192e-06
6.6133323e-10
7.8688769e-08
8.5607561e-07
2.5038944e-06
3.7877177e-06
4.5224597e-06
4.9835219e-06
5.3255472e-06
5.6207181e-06
5.9008364e-06
6.1803549e-06
6.4648562e-06
6.7535463e-06
7.0446175e-06
7.3362276e-06
7.6253115e-06
7.9062073e-06
8.1701233e-06
8.4018331e-06
8.5761191e-06
8.6512028e-06
8.5560741e-06
8.1644718e-06
7.2316956e-06
5.1380692e-06
3.1184319e-09
2.8488123e-07
2.059841e-06
3.9988428e-06
5.0385807e-06
5.6253172e-06
6.0306545e-06
6.3710142e-06
6.6962554e-06
7.0244641e-06
7.3658224e-06
7.7228242e-06
8.091363e-06
8.4693148e-06
8.8555908e-06
9.2481435e-06
9.6417529e-06
1.0027326e-05
1.0389775e-05
1.0704264e-05
1.0929529e-05
1.0994545e-05
1.0766654e-05
9.9551608e-06
7.6713567e-06
2.331225e-08
1.1365841e-06
3.9840273e-06
5.5916393e-06
6.443053e-06
6.9639444e-06
7.3473041e-06
7.6929722e-06
8.041479e-06
8.39441e-06
8.7644687e-06
9.1581073e-06
9.5647009e-06
9.978808e-06
1.0401632e-05
1.0836615e-05
1.1281945e-05
1.1732216e-05
1.2177461e-05
1.2600731e-05
1.2974099e-05
1.3253017e-05
1.3369143e-05
1.3236849e-05
1.2832894e-05
1.9512096e-07
2.7526902e-06
5.8981352e-06
7.7013017e-06
8.6161941e-06
9.0335396e-06
9.2302399e-06
9.3676361e-06
9.5066841e-06
9.6653551e-06
9.8514938e-06
1.0071093e-05
1.0324358e-05
1.0610753e-05
1.0930509e-05
1.1283394e-05
1.1668006e-05
1.2080696e-05
1.2514934e-05
1.296012e-05
1.3399286e-05
1.38066e-05
1.4144709e-05
1.4373585e-05
1.4445942e-05
4.3415558e-06
4.316492e-06
4.3621577e-06
4.4741841e-06
4.6508612e-06
4.8809998e-06
5.1541599e-06
5.4677521e-06
5.8240894e-06
6.2249985e-06
6.6697829e-06
7.1549207e-06
7.6739656e-06
8.2189528e-06
8.7821988e-06
9.3577561e-06
9.941565e-06
1.0530297e-05
1.1120001e-05
1.1704546e-05
1.2273414e-05
1.2809509e-05
1.3287038e-05
1.3677406e-05
1.3925595e-05
9.1093679e-06
9.3673354e-06
9.7656455e-06
1.0183573e-05
1.0359319e-05
1.0322462e-05
1.0205044e-05
1.0107737e-05
1.0070046e-05
1.0093534e-05
1.0173711e-05
1.0305548e-05
1.0486467e-05
1.0715355e-05
1.0991008e-05
1.1311535e-05
1.1673506e-05
1.2071513e-05
1.2497475e-05
1.2939203e-05
1.3378023e-05
1.3786333e-05
1.4124911e-05
1.4352684e-05
1.4423372e-05
6.4008198e-06
6.8104132e-06
7.2408851e-06
7.6399257e-06
7.9408853e-06
8.1567417e-06
8.3469354e-06
8.551474e-06
8.7778512e-06
9.0399758e-06
9.334369e-06
9.65145e-06
9.9851948e-06
1.0340519e-05
1.0720056e-05
1.1123305e-05
1.1546622e-05
1.1982868e-05
1.2419993e-05
1.2838598e-05
1.3207942e-05
1.3480326e-05
1.3584119e-05
1.3431146e-05
1.2998864e-05
5.132282e-06
5.4868397e-06
5.8346726e-06
6.1482244e-06
6.4103115e-06
6.63309e-06
6.8464527e-06
7.0703338e-06
7.3151009e-06
7.5866153e-06
7.8821664e-06
8.198214e-06
8.5333862e-06
8.8877273e-06
9.2601509e-06
9.647049e-06
1.0041414e-05
1.0431582e-05
1.0799056e-05
1.1114725e-05
1.1332174e-05
1.1374618e-05
1.1103616e-05
1.0221304e-05
7.8180164e-06
4.40522e-06
4.6893135e-06
4.973485e-06
5.2366108e-06
5.4721407e-06
5.6874273e-06
5.8963658e-06
6.1110449e-06
6.3391459e-06
6.5839517e-06
6.8443259e-06
7.1181916e-06
7.4043443e-06
7.7013553e-06
8.0070822e-06
8.3164252e-06
8.6207321e-06
8.9062165e-06
9.1514177e-06
9.3231092e-06
9.369606e-06
9.2091078e-06
8.7065282e-06
7.6155864e-06
5.3301626e-06
3.9028352e-06
4.1204277e-06
4.3450591e-06
4.5600193e-06
4.7604646e-06
4.9499816e-06
5.1358931e-06
5.3250791e-06
5.5223149e-06
5.7295495e-06
5.9461918e-06
6.1706692e-06
6.4013727e-06
6.6361677e-06
6.8717268e-06
7.1026585e-06
7.3204375e-06
7.5119075e-06
7.6570449e-06
7.7256779e-06
7.6727964e-06
7.4316314e-06
6.9015555e-06
5.9155155e-06
4.0404233e-06
3.4764511e-06
3.6391324e-06
3.8115461e-06
3.9809413e-06
4.1425023e-06
4.2970424e-06
4.4481593e-06
4.5998001e-06
4.7548429e-06
4.9144515e-06
5.0782243e-06
5.244883e-06
5.4127316e-06
5.5795588e-06
5.742183e-06
5.8958705e-06
6.033567e-06
6.1447124e-06
6.2135335e-06
6.2167477e-06
6.1207281e-06
5.8781452e-06
5.4229335e-06
4.6530665e-06
3.2807409e-06
3.0387916e-06
3.1561689e-06
3.2829976e-06
3.409824e-06
3.5319872e-06
3.6486998e-06
3.7613879e-06
3.8721061e-06
3.9824703e-06
4.0931033e-06
4.2036244e-06
4.3129193e-06
4.4194253e-06
4.5211652e-06
4.6155661e-06
4.699133e-06
4.766933e-06
4.81178e-06
4.8230602e-06
4.7852267e-06
4.6762478e-06
4.4667412e-06
4.1218673e-06
3.6155225e-06
3.02455e-06
2.5476438e-06
2.6270832e-06
2.7141712e-06
2.8021017e-06
2.8867148e-06
2.9664523e-06
3.0414917e-06
3.1127192e-06
3.1809401e-06
3.2464187e-06
3.3087706e-06
3.3670696e-06
3.4200339e-06
3.4661383e-06
3.503609e-06
3.5303029e-06
3.5434499e-06
3.5391755e-06
3.5117831e-06
3.4528596e-06
3.3505654e-06
3.1900947e-06
2.9581308e-06
2.6610529e-06
2.3874905e-06
2.0034056e-06
2.0517334e-06
2.1053768e-06
2.1596379e-06
2.2111364e-06
2.2581353e-06
2.3001859e-06
2.3375049e-06
2.3704171e-06
2.3989898e-06
2.422895e-06
2.4414525e-06
2.4537667e-06
2.4588675e-06
2.4558031e-06
2.4436633e-06
2.4215116e-06
2.3881731e-06
2.3418832e-06
2.2798892e-06
2.1983722e-06
2.0935498e-06
1.9658037e-06
1.8302569e-06
1.7236029e-06
1.4490115e-06
1.4737999e-06
1.5017322e-06
1.5297658e-06
1.5554385e-06
1.5772439e-06
1.5945476e-06
1.6072631e-06
1.6154805e-06
1.6192063e-06
1.618244e-06
1.6122066e-06
1.6006202e-06
1.5830582e-06
1.5592584e-06
1.5292018e-06
1.4931323e-06
1.4514918e-06
1.4047876e-06
1.3534972e-06
1.2983076e-06
1.2412076e-06
1.187985e-06
1.1509012e-06
1.1342827e-06
9.5312199e-07
9.6268568e-07
9.7379116e-07
9.8464214e-07
9.9366131e-07
9.9978045e-07
1.0024632e-06
1.0015581e-06
9.9708598e-07
9.8907657e-07
9.7747826e-07
9.6216066e-07
9.4298812e-07
9.1991634e-07
8.9308429e-07
8.6287764e-07
8.2995418e-07
7.9521913e-07
7.5976907e-07
7.2487856e-07
6.921896e-07
6.6429418e-07
6.4563158e-07
6.42162e-07
6.5108635e-07
5.7230864e-07
5.7413494e-07
5.7657107e-07
5.7867244e-07
5.7955804e-07
5.7859453e-07
5.7544167e-07
5.699925e-07
5.6226776e-07
5.5232251e-07
5.4019271e-07
5.2589022e-07
5.0944402e-07
4.9096402e-07
4.7068965e-07
4.4902115e-07
4.2652666e-07
4.0392157e-07
3.8203098e-07
3.6176952e-07
3.4419727e-07
3.3068588e-07
3.229942e-07
3.2238105e-07
3.241174e-07
3.2054673e-07
3.1964625e-07
3.189336e-07
3.1797128e-07
3.1632452e-07
3.1366986e-07
3.0982954e-07
3.0475228e-07
2.9846305e-07
2.9101666e-07
2.8246763e-07
2.7286554e-07
2.6226664e-07
2.5078455e-07
2.3860366e-07
2.259901e-07
2.1329032e-07
2.0091402e-07
1.8930938e-07
1.7893185e-07
1.7023734e-07
1.6369938e-07
1.5969525e-07
1.5789563e-07
1.548683e-07
1.7428528e-07
1.7305855e-07
1.718713e-07
1.705393e-07
1.6887243e-07
1.6672601e-07
1.6402064e-07
1.6073828e-07
1.5690114e-07
1.5254822e-07
1.4772123e-07
1.4246272e-07
1.3680523e-07
1.3081936e-07
1.2460911e-07
1.1831017e-07
1.1209344e-07
1.0616188e-07
1.0073495e-07
9.5987038e-08
9.2071392e-08
8.9105893e-08
8.7100321e-08
8.5701927e-08
8.3518708e-08
9.8166415e-08
9.7348511e-08
9.6540481e-08
9.5670668e-08
9.4662808e-08
9.3456363e-08
9.2019044e-08
9.034511e-08
8.8446965e-08
8.6344696e-08
8.4058988e-08
8.1609809e-08
7.9018866e-08
7.6312881e-08
7.3542896e-08
7.0774848e-08
6.8087472e-08
6.5567577e-08
6.3303848e-08
6.1377996e-08
5.984103e-08
5.8679043e-08
5.7862587e-08
5.7234682e-08
5.6395256e-08
6.1670935e-08
6.1296678e-08
6.0941253e-08
6.0578209e-08
6.0177252e-08
5.9713702e-08
5.917271e-08
5.8550184e-08
5.7848941e-08
5.7074637e-08
5.6233502e-08
5.533234e-08
5.4380129e-08
5.3390641e-08
5.2381458e-08
5.1382388e-08
5.0426956e-08
4.9550727e-08
4.8788575e-08
4.8171696e-08
4.7725312e-08
4.7409911e-08
4.7201377e-08
4.7033036e-08
4.6773324e-08
4.5663162e-08
4.5595182e-08
4.5557949e-08
4.5541453e-08
4.5532707e-08
4.5519833e-08
4.549405e-08
4.5449945e-08
4.5384611e-08
4.529636e-08
4.5184228e-08
4.5048255e-08
4.4890302e-08
4.4715203e-08
4.45275e-08
4.4339268e-08
4.4164468e-08
4.4017879e-08
4.3913873e-08
4.3865371e-08
4.3884119e-08
4.3934804e-08
4.3995799e-08
4.4024769e-08
4.3934873e-08
3.9615142e-08
3.971869e-08
3.9859721e-08
4.0033249e-08
4.0232091e-08
4.0448619e-08
4.0675731e-08
4.0907205e-08
4.1137643e-08
4.1362354e-08
4.1577373e-08
4.1779722e-08
4.196779e-08
4.2141678e-08
4.2303055e-08
4.2454433e-08
4.2602464e-08
4.2754199e-08
4.291662e-08
4.3096159e-08
4.3299243e-08
4.3495681e-08
4.3664345e-08
4.3767912e-08
4.3722862e-08
3.8157406e-08
3.8341239e-08
3.8564149e-08
3.882235e-08
3.9110456e-08
3.9422288e-08
3.9751438e-08
4.0091616e-08
4.0436855e-08
4.0781664e-08
4.1121195e-08
4.1451465e-08
4.1769587e-08
4.2074019e-08
4.236481e-08
4.2641868e-08
4.290873e-08
4.3169714e-08
4.3429263e-08
4.3691456e-08
4.3960311e-08
4.4209255e-08
4.4416886e-08
4.4545972e-08
4.4511373e-08
3.8707468e-08
3.8919812e-08
3.9169683e-08
3.9453554e-08
3.9766725e-08
4.010377e-08
4.04589e-08
4.0826256e-08
4.1200134e-08
4.1575182e-08
4.1946584e-08
4.231024e-08
4.2662968e-08
4.3002724e-08
4.3328768e-08
4.3641624e-08
4.3942557e-08
4.4235236e-08
4.452331e-08
4.4809895e-08
4.5097546e-08
4.5362185e-08
4.558188e-08
4.57185e-08
4.5686306e-08
4.0088025e-08
4.0303232e-08
4.0553105e-08
4.0834279e-08
4.1142525e-08
4.1473026e-08
4.1820637e-08
4.2180103e-08
4.2546252e-08
4.2914174e-08
4.3279381e-08
4.3637993e-08
4.3986934e-08
4.432416e-08
4.4648897e-08
4.4961826e-08
4.5263908e-08
4.5558544e-08
4.5849114e-08
4.6138215e-08
4.6427256e-08
4.6693948e-08
4.6915685e-08
4.7053036e-08
4.7017455e-08
4.1792148e-08
4.1999192e-08
4.2237815e-08
4.2504864e-08
4.2796531e-08
4.3108547e-08
4.3436364e-08
4.3775319e-08
4.412079e-08
4.4468344e-08
4.4813891e-08
4.5153862e-08
4.5485418e-08
4.5806701e-08
4.6117102e-08
4.6417488e-08
4.6709123e-08
4.6995284e-08
4.7279273e-08
4.7563328e-08
4.7847852e-08
4.8111836e-08
4.8331839e-08
4.8466792e-08
4.8424334e-08
4.3615333e-08
4.3810353e-08
4.4034094e-08
4.4283644e-08
4.4555574e-08
4.4846082e-08
4.5151131e-08
4.5466568e-08
4.5788255e-08
4.6112192e-08
4.6434666e-08
4.6752428e-08
4.7062914e-08
4.7364506e-08
4.7656804e-08
4.7940799e-08
4.8218711e-08
4.8493314e-08
4.8768015e-08
4.9044784e-08
4.9323108e-08
4.9582857e-08
4.9799615e-08
4.9930521e-08
4.9878769e-08
4.5481134e-08
4.5663349e-08
4.5871779e-08
4.6103738e-08
4.6356126e-08
4.662553e-08
4.690833e-08
4.7200796e-08
4.7499192e-08
4.7799895e-08
4.809953e-08
4.839515e-08
4.8684465e-08
4.8966125e-08
4.9239987e-08
4.9507317e-08
4.9770742e-08
5.0033238e-08
5.0298174e-08
5.0567274e-08
5.0839173e-08
5.1094261e-08
5.1306859e-08
5.1431496e-08
5.1364704e-08
4.7363365e-08
4.7533138e-08
4.772694e-08
4.7942295e-08
4.8176379e-08
4.8426099e-08
4.8688176e-08
4.8959228e-08
4.9235856e-08
4.9514758e-08
4.9792859e-08
5.0067494e-08
5.033664e-08
5.0599213e-08
5.0855343e-08
5.1106576e-08
5.1355779e-08
5.1606563e-08
5.1861992e-08
5.2123638e-08
5.2389362e-08
5.2639798e-08
5.2847824e-08
5.2965012e-08
5.2883307e-08
4.9253626e-08
4.9411642e-08
4.9591764e-08
4.9791701e-08
5.0008863e-08
5.0240425e-08
5.0483391e-08
5.0734669e-08
5.0991148e-08
5.1249803e-08
5.1507828e-08
5.1762815e-08
5.2013003e-08
5.2257566e-08
5.2496915e-08
5.2732884e-08
5.2968641e-08
5.3208117e-08
5.3454449e-08
5.370901e-08
5.3968951e-08
5.4215023e-08
5.4418795e-08
5.4529299e-08
5.4432792e-08
5.114868e-08
5.129565e-08
5.1463007e-08
5.1648624e-08
5.1850113e-08
5.2064876e-08
5.2290159e-08
5.2523119e-08
5.2760894e-08
5.3000704e-08
5.3239986e-08
5.3476573e-08
5.3708947e-08
5.3936541e-08
5.4160037e-08
5.4381562e-08
5.4604578e-08
5.4833276e-08
5.5070974e-08
5.5318848e-08
5.5573422e-08
5.5815486e-08
5.6015451e-08
5.6120086e-08
5.6010141e-08
5.3045959e-08
5.3182535e-08
5.3337935e-08
5.3510182e-08
5.3697065e-08
5.3896184e-08
5.4104997e-08
5.4320878e-08
5.4541186e-08
5.4763363e-08
5.4985066e-08
5.5204352e-08
5.5419937e-08
5.5631501e-08
5.5839995e-08
5.6047831e-08
5.6258748e-08
5.6477151e-08
5.6706718e-08
5.6948299e-08
5.7197892e-08
5.7436257e-08
5.7632672e-08
5.7731608e-08
5.7608001e-08
5.4942153e-08
5.506892e-08
5.521307e-08
5.5372764e-08
5.5545953e-08
5.5730411e-08
5.5923785e-08
5.6123644e-08
5.6327547e-08
5.6533138e-08
5.6738276e-08
5.6941233e-08
5.7140942e-08
5.7337323e-08
5.7531588e-08
5.7726428e-08
5.7925867e-08
5.8134554e-08
5.8356347e-08
5.8591982e-08
5.8836932e-08
5.9071829e-08
5.9264761e-08
5.9357716e-08
5.9219182e-08
5.6832885e-08
5.6950369e-08
5.7083895e-08
5.7231754e-08
5.7392041e-08
5.7562692e-08
5.7741524e-08
5.7926283e-08
5.8114712e-08
5.8304639e-08
5.8494115e-08
5.8681609e-08
5.8866267e-08
5.9048236e-08
5.9228983e-08
5.9411472e-08
5.9600003e-08
5.9799471e-08
6.0013873e-08
6.0243895e-08
6.0484496e-08
6.0716074e-08
6.0905488e-08
6.0992395e-08
6.0842914e-08
5.8712717e-08
5.8821399e-08
5.8944868e-08
5.9081535e-08
5.9229629e-08
5.9387235e-08
5.9552326e-08
5.9722811e-08
5.9896601e-08
6.0071698e-08
6.0246332e-08
6.0419157e-08
6.0589521e-08
6.0757794e-08
6.0925685e-08
6.1096425e-08
6.1274585e-08
6.146529e-08
6.1672649e-08
6.1897393e-08
6.2133897e-08
6.2362257e-08
6.2548073e-08
6.2628694e-08
6.2465822e-08
6.0575233e-08
6.0675563e-08
6.07895e-08
6.0915568e-08
6.1052121e-08
6.119738e-08
6.1349463e-08
6.1506432e-08
6.1666353e-08
6.1827392e-08
6.1987944e-08
6.2146842e-08
6.2303626e-08
6.2458876e-08
6.261454e-08
6.2774106e-08
6.2942408e-08
6.3124799e-08
6.3325513e-08
6.3545222e-08
6.3777837e-08
6.4003076e-08
6.4185331e-08
6.4259875e-08
6.4084773e-08
6.2413144e-08
6.250555e-08
6.2610452e-08
6.2726478e-08
6.2852101e-08
6.2985668e-08
6.3125433e-08
6.3269598e-08
6.3416377e-08
6.3564085e-08
6.3711279e-08
6.3856957e-08
6.4000842e-08
6.4143718e-08
6.4287759e-08
6.4436705e-08
6.4595643e-08
6.4770145e-08
6.4964564e-08
6.517949e-08
6.5408406e-08
6.5630615e-08
6.5809324e-08
6.587769e-08
6.5689418e-08
6.4218378e-08
6.4303276e-08
6.4399622e-08
6.4506142e-08
6.462142e-08
6.4743923e-08
6.487203e-08
6.5004075e-08
6.5138409e-08
6.527349e-08
6.5408023e-08
6.5541166e-08
6.5672815e-08
6.5803948e-08
6.5936958e-08
6.6075824e-08
6.6225876e-08
6.6392896e-08
6.6581347e-08
6.6791727e-08
6.7017115e-08
6.7236363e-08
6.7411523e-08
6.7473778e-08
6.7273485e-08
6.5982187e-08
6.6059985e-08
6.6148243e-08
6.6245782e-08
6.6351288e-08
6.6463339e-08
6.6580433e-08
6.6701026e-08
6.6823599e-08
6.6946742e-08
6.7069301e-08
6.7190583e-08
6.731065e-08
6.7430664e-08
6.7553226e-08
6.7682543e-08
6.7824178e-08
6.7984109e-08
6.8166899e-08
6.8372951e-08
6.8594957e-08
6.8811282e-08
6.8982791e-08
6.9038528e-08
6.8824711e-08
6.7695261e-08
6.7766367e-08
6.7847006e-08
6.7936085e-08
6.8032387e-08
6.8134595e-08
6.8241316e-08
6.8351123e-08
6.8462614e-08
6.8574507e-08
6.8685777e-08
6.8795874e-08
6.8905015e-08
6.9014534e-08
6.9127232e-08
6.9247529e-08
6.9381208e-08
6.9534432e-08
6.9711849e-08
6.9913757e-08
7.0132517e-08
7.0345925e-08
7.0513612e-08
7.0562152e-08
7.0329046e-08
6.9347897e-08
6.9412726e-08
6.9486219e-08
6.9567365e-08
6.9655038e-08
6.9748017e-08
6.9845013e-08
6.9944705e-08
7.0045804e-08
7.0147143e-08
7.0247821e-08
7.0347419e-08
7.0446298e-08
7.0545957e-08
7.064938e-08
7.0761189e-08
7.0887371e-08
7.1034257e-08
7.1206575e-08
7.1404527e-08
7.1620096e-08
7.1830534e-08
7.1994219e-08
7.2035523e-08
7.1789514e-08
7.0930234e-08
7.0989211e-08
7.1056043e-08
7.1129797e-08
7.1209431e-08
7.1293814e-08
7.138175e-08
7.1472019e-08
7.1563434e-08
7.1654938e-08
7.1745741e-08
7.1835547e-08
7.192485e-08
7.20153e-08
7.211005e-08
7.2213908e-08
7.2333044e-08
7.2473942e-08
7.2641393e-08
7.2835498e-08
7.304786e-08
7.3255168e-08
7.3414572e-08
7.3448383e-08
7.3187662e-08
7.2432574e-08
7.2486142e-08
7.2546821e-08
7.2613747e-08
7.2685957e-08
7.2762401e-08
7.2841971e-08
7.2923538e-08
7.3006011e-08
7.3088429e-08
7.3170107e-08
7.325086e-08
7.3331302e-08
7.3413221e-08
7.349992e-08
7.3596371e-08
7.3708902e-08
7.3844126e-08
7.4006877e-08
7.4197143e-08
7.4406149e-08
7.4609994e-08
7.4764556e-08
7.4789851e-08
7.4512378e-08
7.3845787e-08
7.3894415e-08
7.3949475e-08
7.4010169e-08
7.4075602e-08
7.4144802e-08
7.4216739e-08
7.4290366e-08
7.4364678e-08
7.4438803e-08
7.4512149e-08
7.4584628e-08
7.4656965e-08
7.4731063e-08
7.4810355e-08
7.4899949e-08
7.50063e-08
7.5136114e-08
7.5294238e-08
7.5480533e-08
7.5685852e-08
7.5885722e-08
7.6034799e-08
7.6050793e-08
7.5755017e-08
7.5161705e-08
7.520589e-08
7.5255899e-08
7.5310991e-08
7.5370336e-08
7.5433028e-08
7.5498109e-08
7.5564606e-08
7.5631587e-08
7.569826e-08
7.5764115e-08
7.5829149e-08
7.5894178e-08
7.5961202e-08
7.6033757e-08
7.6117048e-08
7.6217617e-08
7.6342216e-08
7.6495663e-08
7.6677665e-08
7.6878729e-08
7.7073864e-08
7.7216686e-08
7.7222945e-08
7.6910101e-08
7.6373297e-08
7.6413565e-08
7.6459121e-08
7.6509279e-08
7.6563264e-08
7.6620228e-08
7.6679274e-08
7.6739495e-08
7.6800024e-08
7.6860134e-08
7.6919387e-08
7.6977851e-08
7.7036412e-08
7.7097144e-08
7.716365e-08
7.7241192e-08
7.7336342e-08
7.7455834e-08
7.7604399e-08
7.7781555e-08
7.7977483e-08
7.8166771e-08
7.8302335e-08
7.8298817e-08
7.7975488e-08
7.7474254e-08
7.7511152e-08
7.7552882e-08
7.7598801e-08
7.7648182e-08
7.770023e-08
7.7754099e-08
7.7808934e-08
7.7863925e-08
7.7918401e-08
7.7971977e-08
7.8024779e-08
7.8077744e-08
7.8132991e-08
7.8194149e-08
7.8266485e-08
7.8356532e-08
7.8470926e-08
7.861423e-08
7.8785717e-08
7.8975247e-08
7.9157099e-08
7.9283834e-08
7.9269425e-08
7.8931061e-08
7.8457535e-08
7.8491618e-08
7.8530154e-08
7.8572539e-08
7.8618087e-08
7.8666042e-08
7.8715604e-08
7.8765958e-08
7.8816338e-08
7.8866116e-08
7.8914953e-08
7.8963014e-08
7.9011266e-08
7.9061837e-08
7.9118345e-08
7.9185997e-08
7.9271207e-08
7.9380416e-08
7.9517912e-08
7.9682658e-08
7.986405e-08
8.0036309e-08
8.0151934e-08
8.0125021e-08
7.9773891e-08
7.9312374e-08
7.9344179e-08
7.9380136e-08
7.9419676e-08
7.946214e-08
7.9506807e-08
7.9552909e-08
7.9599662e-08
7.9646332e-08
7.9692323e-08
7.9737331e-08
7.9781544e-08
7.9825937e-08
7.9872622e-08
7.9925154e-08
7.9988616e-08
8.0069211e-08
8.0173076e-08
8.0304089e-08
8.046069e-08
8.0631826e-08
8.0791842e-08
8.0893389e-08
8.0851203e-08
8.0484267e-08
8.0018009e-08
8.0048029e-08
8.0081985e-08
8.0119337e-08
8.0159432e-08
8.0201573e-08
8.0245015e-08
8.0288998e-08
8.0332807e-08
8.037587e-08
8.0417907e-08
8.0459118e-08
8.0500466e-08
8.0544023e-08
8.0593236e-08
8.0652978e-08
8.072914e-08
8.0827431e-08
8.0951198e-08
8.1098308e-08
8.1257236e-08
8.1402299e-08
8.1486702e-08
8.142677e-08
8.1043906e-08
8.0534701e-08
8.0563386e-08
8.0595869e-08
8.0631652e-08
8.0670033e-08
8.0710327e-08
8.075182e-08
8.0793769e-08
8.0835481e-08
8.0876378e-08
8.0916207e-08
8.0955167e-08
8.0994202e-08
8.1035349e-08
8.1081903e-08
8.1138438e-08
8.1210437e-08
8.1303095e-08
8.1419135e-08
8.1555755e-08
8.1700849e-08
8.1828716e-08
8.1893558e-08
8.1814533e-08
8.1418805e-08
8.0782564e-08
8.0810514e-08
8.0842038e-08
8.0876852e-08
8.0914096e-08
8.09531e-08
8.099321e-08
8.1033735e-08
8.1074175e-08
8.1113537e-08
8.1151764e-08
8.1189064e-08
8.1226378e-08
8.1265745e-08
8.1310279e-08
8.1364152e-08
8.1432366e-08
8.151957e-08
8.1627876e-08
8.1753887e-08
8.188456e-08
8.199433e-08
8.203882e-08
8.1941427e-08
8.1542068e-08
8.0558322e-08
8.058819e-08
8.0619529e-08
8.0653992e-08
8.0690573e-08
8.0728662e-08
8.0767767e-08
8.0807618e-08
8.0850045e-08
8.0888606e-08
8.0925656e-08
8.0961692e-08
8.0997696e-08
8.1035786e-08
8.1078875e-08
8.1130631e-08
8.1195523e-08
8.1277715e-08
8.1379081e-08
8.1497119e-08
8.1614779e-08
8.1708046e-08
8.1734848e-08
8.1625901e-08
8.1255885e-08
)
;

boundaryField
{
    Walls
    {
        type            nutUWallFunction;
        Cmu             0.09;
        kappa           0.41;
        E               9.8;
        value           uniform 0;
    }
    Inlet
    {
        type            calculated;
        value           nonuniform List<scalar> 3(3.3273088e-05 0.00010394102 7.6642327e-07);
    }
    Outlet
    {
        type            calculated;
        value           nonuniform List<scalar> 
86
(
0
0
0
0
0
0
0
0
0
0
0
0
0
0
0
0
0
0
0
0
0
0
0
0
0
0
0
0
0
0
1.3925595e-05
1.4423372e-05
1.2998864e-05
0
0
0
0
3.02455e-06
2.3874905e-06
1.7236029e-06
0
0
0
1.548683e-07
8.3518708e-08
5.6395256e-08
4.6773324e-08
4.3934873e-08
4.3722862e-08
4.4511373e-08
4.5686306e-08
4.7017455e-08
4.8424334e-08
4.9878769e-08
5.1364704e-08
5.2883307e-08
5.4432792e-08
5.6010141e-08
5.7608001e-08
5.9219182e-08
6.0842914e-08
6.2465822e-08
6.4084773e-08
6.5689418e-08
6.7273485e-08
6.8824711e-08
7.0329046e-08
7.1789514e-08
7.3187662e-08
7.4512378e-08
0
0
0
0
0
0
0
0
0
8.1255885e-08
0
0
0
0
1.2832894e-05
1.4445942e-05
)
;
    }
    Front
    {
        type            wedge;
    }
    Back
    {
        type            wedge;
    }
    defaultFaces
    {
        type            empty;
    }
}


// ************************************************************************* //
