/*--------------------------------*- C++ -*----------------------------------*\
| =========                 |                                                 |
| \\      /  F ield         | OpenFOAM: The Open Source CFD Toolbox           |
|  \\    /   O peration     | Version:  4.0                                   |
|   \\  /    A nd           | Web:      www.OpenFOAM.org                      |
|    \\/     M anipulation  |                                                 |
\*---------------------------------------------------------------------------*/
FoamFile
{
    version     2.0;
    format      ascii;
    class       volScalarField;
    location    "0.23";
    object      p;
}
// * * * * * * * * * * * * * * * * * * * * * * * * * * * * * * * * * * * * * //

dimensions      [0 2 -2 0 0 0 0];

internalField   nonuniform List<scalar> 
1740
(
491.29506
491.31479
491.31574
474.11449
473.92346
473.96228
457.32863
457.02302
456.95495
440.62429
440.65839
440.45167
423.9039
423.98212
423.97847
407.2593
407.1883
407.32648
390.43676
390.38272
390.30375
373.48471
373.37121
373.15419
356.63425
356.55973
356.39859
339.92497
339.90713
339.94671
323.09563
323.16195
323.60499
306.65196
306.78243
307.21249
290.79659
290.75685
290.58939
274.56412
274.51225
274.16158
258.03344
258.05539
258.01196
241.273
241.48659
241.23883
224.39418
224.79651
224.40747
208.03936
208.20792
208.17126
191.94386
191.90197
191.91794
176.01986
176.02963
176.01963
160.15525
160.06556
160.42758
144.07465
143.88448
144.25647
128.19546
128.07241
127.83832
112.38918
112.34396
112.11075
96.202007
96.301758
96.504209
79.578798
79.777506
79.862882
62.929264
62.939077
62.699376
46.796867
46.40026
46.135434
31.000526
30.680092
30.733952
16.119167
15.983808
15.831897
4.0948531
3.6085911
1.7852427
-0.56927479
-0.4869432
-0.29553348
-0.10473987
-0.0849262
-0.056492659
-0.0065560543
0.0027868861
0.014495699
0.0044534569
0.0092318536
0.01712564
0.0045367817
0.0080492173
0.013804757
0.0030909782
0.0054087534
0.0093993742
0.0017630163
0.0032774131
0.0059930216
0.00075908784
0.001766652
0.0036435057
0.00016194949
0.00085210322
0.0021796436
-0.0002358202
0.00025172335
0.0012121317
-0.0006336621
-0.00027921452
0.00043338542
-0.0010847707
-0.00082044957
-0.00027999918
-0.0015685901
-0.001367186
-0.00095004479
-0.0020470978
-0.0018907411
-0.0015634272
-0.0024906824
-0.0023671944
-0.0021066451
-0.0028858639
-0.0027869543
-0.0025768823
-0.0032302138
-0.0031498757
-0.0029782533
-0.0035247769
-0.0034585164
-0.003316289
-0.0037704441
-0.003714954
-0.0035953929
-0.0039678941
-0.0039207639
-0.003818901
-0.004118181
-0.0040776275
-0.0039897543
-0.0042229386
-0.0041876255
-0.0041109436
-0.0042843562
-0.0042532774
-0.0041856688
-0.0043051438
-0.0042775432
-0.004217387
-0.004288467
-0.0042637435
-0.0042097921
-0.0042377787
-0.0042154778
-0.0041667579
-0.0041567847
-0.0041365477
-0.0040922937
-0.0040493043
-0.0040308465
-0.0039904531
-0.0039189904
-0.0039020985
-0.0038651112
-0.0037691861
-0.0037537071
-0.003719794
-0.003603087
-0.0035888955
-0.0035577862
-0.0034238581
-0.0034108421
-0.0033822981
-0.0032345005
-0.0032225683
-0.003196395
-0.0030377058
-0.0030267864
-0.0030028293
-0.0028358248
-0.0028258577
-0.002803986
-0.0026308729
-0.0026218054
-0.0026019042
-0.0024245412
-0.0024163266
-0.0023982945
-0.0022182097
-0.002210806
-0.0021945521
-0.0020129632
-0.0020063324
-0.0019917741
-0.0018096119
-0.0018037194
-0.0017907811
-0.0016087154
-0.0016035297
-0.0015921427
-0.0014106087
-0.0014061013
-0.0013962034
-0.001215432
-0.0012115775
-0.0012031131
-0.0010231567
-0.0010199327
-0.0010128526
-0.00083359917
-0.00083098652
-0.00082524846
-0.00064641256
-0.00064439525
-0.00063996413
-0.00046108358
-0.00045964914
-0.0004564979
-0.00027681983
-0.00027596039
-0.0002740722
-9.263464e-05
-9.2348242e-05
-9.1717464e-05
-1.2064108
-0.84972727
-0.23508697
-0.18142182
-0.043511136
-0.043699894
0.020354585
0.018638992
0.023638049
0.026542458
0.019097714
0.022478544
0.013379369
0.016459398
0.0089191907
0.011446006
0.0058069786
0.0078380812
0.0037918505
0.0054103014
0.0024247645
0.0037082136
0.0013623656
0.0023838716
0.00044328632
0.0012629007
-0.00037980066
0.00028328765
-0.0011082982
-0.00056777059
-0.0017393679
-0.0012954691
-0.0022773328
-0.0019098087
-0.002731107
-0.0024239511
-0.0031098042
-0.0028504055
-0.0034206716
-0.0031992086
-0.0036692325
-0.0034781224
-0.0038600575
-0.0036934202
-0.0039973438
-0.0038506131
-0.0040851842
-0.003954813
-0.0041277298
-0.0040109472
-0.0041291859
-0.0040238391
-0.0040938204
-0.0039982266
-0.0040259337
-0.0039387596
-0.0039298036
-0.0038499839
-0.0038095145
-0.0037362269
-0.003668764
-0.003601394
-0.0035109299
-0.0034489887
-0.0033392749
-0.0032823448
-0.0031569239
-0.0031046543
-0.0029666832
-0.0029187834
-0.0027709718
-0.0027271959
-0.0025718534
-0.0025319867
-0.0023710578
-0.002334909
-0.0021699949
-0.0021373905
-0.0019697736
-0.0019405548
-0.0017712252
-0.0017452461
-0.0015749286
-0.0015520554
-0.0013812384
-0.0013613498
-0.0011903139
-0.0011733009
-0.0010021457
-0.00098791175
-0.00081657018
-0.00080503186
-0.00063326195
-0.00062435025
-0.00045173139
-0.00044539331
-0.00027121602
-0.00026741785
-9.076279e-05
-8.9492647e-05
0.022347197
0.022383677
0.022421986
0.022360483
0.0220651
0.021465291
0.020602432
0.019495134
0.018205213
0.016797643
0.015321407
0.013825489
0.012356689
0.010951459
0.0096270609
0.0083879192
0.0072317392
0.0061537957
0.0051496537
0.0042136055
0.0033394691
0.0025196702
0.0017465899
0.0010146633
0.00032231607
0.022563163
0.022618179
0.0226219
0.022473503
0.022014208
0.021207661
0.020104525
0.018776048
0.017300027
0.015751747
0.014205366
0.012702812
0.011265969
0.0099061538
0.0086331505
0.0074525322
0.0063669346
0.0053769992
0.0044703995
0.0036382175
0.0028723633
0.0021613312
0.0014955984
0.00087084174
0.00028425144
0.02004012
0.020009262
0.019730624
0.018960268
0.017622037
0.015865779
0.01389772
0.011899063
0.010057513
0.0084063508
0.0069577449
0.005700771
0.0046174096
0.0036883823
0.0029045056
0.0022563839
0.0017308956
0.0013097404
0.00098241983
0.00073530974
0.00055229044
0.00041110115
0.00029668204
0.00019760941
9.6119957e-05
0.0067925386
0.0063896562
0.0048263033
0.0022026016
-0.00067904308
-0.0032706679
-0.005289247
-0.0067240696
-0.0077104165
-0.0083194912
-0.0086112831
-0.0086647811
-0.0085244222
-0.0082096303
-0.0077523471
-0.0071823563
-0.0065242581
-0.0057985068
-0.0050224902
-0.0042131241
-0.0033874583
-0.0025751079
-0.0017802625
-0.0010124352
-0.00029406949
-0.040131659
-0.041975217
-0.044109828
-0.044305507
-0.043613928
-0.041818004
-0.039351091
-0.036500995
-0.033438049
-0.030302083
-0.027293387
-0.024468766
-0.021781485
-0.019015924
-0.016455799
-0.014127333
-0.012023383
-0.010128091
-0.0084200352
-0.0068738046
-0.005462042
-0.0041439939
-0.0029064998
-0.001730914
-0.00061082899
-0.1992015
-0.16109901
-0.14421262
-0.11620588
-0.09324801
-0.072938484
-0.05564857
-0.041573906
-0.03033942
-0.021473172
-0.014492804
-0.0090884276
-0.0050117188
-0.0021477327
-6.2815e-05
0.0013574898
0.0022491793
0.0027210392
0.0028600383
0.002737922
0.0024158831
0.0019537824
0.0013954166
0.00078273351
0.00011006415
-0.29436295
-0.10223447
-0.057889213
-0.024166242
0.006846794
0.031357478
0.04648068
0.053227413
0.054789807
0.053712444
0.051194859
0.047823994
0.043955581
0.039847418
0.035685022
0.031585268
0.027615644
0.023806471
0.020167529
0.016693837
0.013370897
0.010182139
0.0071011235
0.004115562
0.0011347339
-0.1536804
-0.13878087
-0.12080392
-0.10057285
-0.080346604
-0.062127189
-0.046654596
-0.03410932
-0.024150827
-0.016358638
-0.01037669
-0.0058476362
-0.0025072818
-7.3205092e-05
0.0016304829
0.0027458315
0.0033921418
0.0036580838
0.0036237481
0.003354619
0.0029049711
0.0023230164
0.0016494556
0.00092683293
0.00014921235
-0.046305277
-0.049695561
-0.051784628
-0.051986582
-0.050454252
-0.047687917
-0.04438026
-0.040801258
-0.037128432
-0.03354507
-0.030083256
-0.026682757
-0.023432353
-0.020435905
-0.017702784
-0.015214593
-0.012933397
-0.010876341
-0.009015992
-0.0073296353
-0.0057939738
-0.0043842794
-0.0030768195
-0.0018427549
-0.00065824829
0.01472164
0.0083886585
0.0020856763
-0.0033212795
-0.0076358919
-0.010789401
-0.012919509
-0.014187672
-0.014788402
-0.014894957
-0.014642696
-0.014133253
-0.013413169
-0.012528924
-0.011528011
-0.010455499
-0.0093609142
-0.0082281375
-0.0070782279
-0.0059224057
-0.0047699778
-0.0036303225
-0.0025140018
-0.0014341299
-0.00042556607
0.027245459
0.026440312
0.023870742
0.020258372
0.01607045
0.012148743
0.0088721496
0.0062244099
0.0041257806
0.0024794807
0.0011984654
0.00022009437
-0.00049978135
-0.0010021625
-0.0013294523
-0.0015125816
-0.0015797071
-0.0015453373
-0.0014320178
-0.0012586435
-0.0010415762
-0.00079625616
-0.00053777418
-0.00028009795
-4.9246499e-05
0.024026762
0.02474904
0.024305522
0.023047327
0.021560511
0.019566401
0.017343671
0.015139162
0.013101074
0.011257735
0.0095993717
0.0081366335
0.0068739096
0.0057885956
0.0048609641
0.0040646705
0.0033789204
0.0027876343
0.0022743907
0.0018239805
0.0014236069
0.0010625336
0.00073221463
0.00042819434
0.00014771486
0.018522152
0.019816797
0.020244465
0.019899823
0.01905874
0.01797642
0.016661602
0.015212189
0.013729963
0.012313931
0.010975986
0.0097321147
0.0085790455
0.0075192192
0.0065500217
0.005666174
0.0048583222
0.0041181608
0.0034379778
0.0028086114
0.0022222606
0.0016727891
0.0011554252
0.00066770368
0.00021088089
0.013394492
0.014786748
0.015592743
0.015843615
0.015660537
0.015172334
0.014427712
0.013494871
0.01243452
0.011314418
0.010229596
0.0091933322
0.0082021635
0.007261833
0.0063776601
0.0055536145
0.0047851
0.0040706919
0.0034094545
0.0027933457
0.0022163254
0.0016735795
0.0011608387
0.00067417409
0.00021190193
0.0095558012
0.01090204
0.011832218
0.012361134
0.01254318
0.012439287
0.012097177
0.011558993
0.010875106
0.010106902
0.0093052083
0.008492293
0.007679712
0.0068755009
0.0060908251
0.0053436007
0.0046391165
0.0039767591
0.003350613
0.002757803
0.0021966901
0.0016646906
0.0011587324
0.00067584306
0.00021313965
0.0068702335
0.0080893998
0.0090246151
0.0096689765
0.010044312
0.010179535
0.010100509
0.0098402452
0.0094360483
0.0089315156
0.008362376
0.0077508485
0.0071140063
0.0064662438
0.0058157908
0.0051612787
0.0045243993
0.0039066714
0.0033088399
0.0027353538
0.0021865888
0.0016619981
0.0011596798
0.00067790696
0.00021463362
0.004931116
0.0060114593
0.0068974675
0.0075705448
0.0080331263
0.0082971944
0.0083805691
0.0083091326
0.008107764
0.0077991448
0.0074089556
0.006959781
0.0064706174
0.0059550886
0.0054223311
0.0048788298
0.0043243894
0.0037680897
0.0032174183
0.0026777134
0.0021520658
0.0016420033
0.0011488368
0.00067314312
0.00021399716
0.0033991898
0.0043360724
0.0051470038
0.0058053823
0.0063020477
0.0066390051
0.0068259515
0.0068790489
0.0068159978
0.0066526149
0.0064058666
0.0060937955
0.0057294256
0.0053251725
0.0048914186
0.0044353334
0.0039619086
0.0034782797
0.0029906365
0.0025041985
0.002022813
0.0015492459
0.0010858883
0.00063579972
0.00020177623
0.0021046987
0.0029099792
0.003636527
0.0042573398
0.0047576047
0.0051327633
0.0053851926
0.0055227215
0.0055566031
0.0055001637
0.0053659725
0.0051662423
0.0049101507
0.0046081276
0.0042692919
0.0039011412
0.0035098743
0.0031014892
0.0026820711
0.0022568594
0.0018301893
0.0014056291
0.00098647555
0.00057841183
0.00018479251
0.00098358437
0.0016746199
0.0023194946
0.0028925562
0.0033776467
0.0037662552
0.0040560673
0.004249968
0.0043544549
0.0043784147
0.0043308525
0.0042206419
0.0040560884
0.0038450738
0.0035945128
0.0033109907
0.0030004642
0.0026685727
0.0023208326
0.0019623175
0.0015974438
0.001229845
0.00086153743
0.00050523183
0.00016729318
1.6803318e-05
0.00060888742
0.0011779207
0.0017004492
0.002159922
0.0025456628
0.0028532357
0.0030823571
0.0032359195
0.0033193387
0.0033388834
0.0033010683
0.0032124984
0.0030793029
0.0029070755
0.0027011724
0.0024667605
0.0022088828
0.0019324711
0.0016422111
0.0013424781
0.0010373853
0.00073101275
0.00043029937
0.00013832459
-0.00080552541
-0.00029804543
0.00020203233
0.00067421374
0.0011026159
0.0014763193
0.0017888066
0.0020375466
0.0022235831
0.0023497397
0.0024200935
0.0024394237
0.0024127712
0.0023448782
0.0022402036
0.0021030716
0.0019377842
0.0017486659
0.0015400183
0.0013160451
0.0010808586
0.00083855175
0.00059297595
0.00034997544
0.00011255819
-0.0014969574
-0.0010609227
-0.00062197236
-0.00019760196
0.00019794439
0.0005539487
0.00086315515
0.001121661
0.0013285366
0.0014850358
0.0015937022
0.0016577608
0.0016809265
0.0016668312
0.0016190141
0.0015410208
0.0014364454
0.0013089626
0.0011622546
0.0010000132
0.00082595416
0.00064377842
0.000457142
0.00027019035
8.5922147e-05
-0.0020736662
-0.0016974187
-0.0013115483
-0.00093078188
-0.00056758431
-0.00023191454
6.8939828e-05
0.00033038266
0.00055018587
0.00072819964
0.0008656182
0.00096451355
0.0010274752
0.0010572795
0.0010567634
0.0010288744
0.0009766366
0.00090315399
0.00081155783
0.00070504396
0.00058687288
0.00046027581
0.00032849903
0.0001945184
6.1037272e-05
-0.0025507882
-0.0022242452
-0.0018838745
-0.0015418986
-0.001209088
-0.00089444847
-0.00060490729
-0.00034530773
-0.00011857569
7.4097787e-05
0.00023278435
0.00035861902
0.00045320195
0.00051867475
0.0005573777
0.00057173061
0.00056426012
0.00053755558
0.00049427143
0.0004371327
0.00036889624
0.00029232257
0.00021005349
0.00012458103
3.8375336e-05
-0.0029406429
-0.0026552995
-0.0023536426
-0.0020457249
-0.0017407498
-0.0014466856
-0.001169961
-0.0009154183
-0.00068628779
-0.00048440984
-0.00031044463
-0.00016406288
-4.4370592e-05
5.0111667e-05
0.00012125212
0.00017104387
0.00020156514
0.00021496789
0.00021347028
0.00019933742
0.0001748699
0.00014233671
0.00010390123
6.1870407e-05
1.834623e-05
-0.0032529263
-0.0030017312
-0.0027328964
-0.0024546669
-0.0021748294
-0.0019003166
-0.0016369871
-0.0013894813
-0.0011611573
-0.00095421586
-0.00076977539
-0.00060808921
-0.0004686826
-0.00035071764
-0.00025289962
-0.00017363355
-0.00011122008
-6.3879422e-05
-2.9790824e-05
-7.0995586e-06
6.06613e-06
1.155545e-05
1.1169524e-05
6.9622233e-06
6.9366361e-07
-0.0034955221
-0.0032727087
-0.0030316974
-0.002779257
-0.0025219001
-0.0022656323
-0.0020156937
-0.0017764093
-0.0015511159
-0.0013421762
-0.0011510239
-0.00097831516
-0.0008239302
-0.00068738401
-0.00056792406
-0.00046445011
-0.00037562218
-0.00030000299
-0.00023611554
-0.00018245253
-0.00013750802
-9.979328e-05
-6.7841156e-05
-3.9907108e-05
-1.4606562e-05
-0.0036751934
-0.0034760988
-0.0032587344
-0.0030286652
-0.0027913445
-0.0025519243
-0.0023150371
-0.0020846381
-0.0018639264
-0.0016553039
-0.0014604031
-0.0012801512
-0.0011148218
-0.00096415161
-0.00082768833
-0.00070476842
-0.00059447311
-0.00049572385
-0.00040734685
-0.0003281309
-0.00025687433
-0.00019239107
-0.00013351799
-7.8829624e-05
-2.7255596e-05
-0.0037980553
-0.0036189149
-0.0034217584
-0.0032111576
-0.0029916945
-0.0027677666
-0.0025434297
-0.0023222549
-0.0021072347
-0.001900729
-0.0017044642
-0.0015195617
-0.0013466096
-0.0011856785
-0.0010364764
-0.00089857216
-0.00077139793
-0.00065422306
-0.00054617922
-0.00044635634
-0.0003538129
-0.00026760786
-0.0001868402
-0.00011037163
-3.7355994e-05
-0.0038698371
-0.0037076259
-0.0035278659
-0.0033343189
-0.0031308302
-0.0029211559
-0.0027088264
-0.0024970341
-0.002288534
-0.0020855894
-0.0018899485
-0.0017028607
-0.0015251236
-0.0013571142
-0.001198814
-0.0010499511
-0.00091014646
-0.00077890324
-0.00065564916
-0.0005397437
-0.00043047993
-0.00032713292
-0.0002290213
-0.00013526071
-4.5208862e-05
-0.0038960061
-0.0037483096
-0.0035836622
-0.0034051796
-0.0032160812
-0.0030195763
-0.0028187344
-0.0026163893
-0.0024150546
-0.0022168618
-0.0020235375
-0.0018363988
-0.0016563761
-0.0014840464
-0.0013196625
-0.0011631964
-0.001014424
-0.00087302154
-0.0007386092
-0.00061072711
-0.00048887561
-0.00037253978
-0.00026123798
-0.00015423192
-5.1110621e-05
-0.0038818073
-0.0037467086
-0.0035953357
-0.0034302849
-0.0032542646
-0.0030700097
-0.00288019
-0.0026873149
-0.0024936604
-0.002301216
-0.0021116526
-0.0019263079
-0.0017461943
-0.0015720203
-0.0014042203
-0.0012429853
-0.0010882992
-0.00094001792
-0.0007978939
-0.00066161624
-0.00053085383
-0.00040526512
-0.0002845204
-0.00016803478
-5.5534254e-05
-0.0038322759
-0.0037082501
-0.0035686775
-0.0034157315
-0.0032517023
-0.0030789316
-0.002899736
-0.0027163345
-0.0025307804
-0.0023449174
-0.0021603396
-0.0019783714
-0.0018000686
-0.0016262296
-0.0014574124
-0.0012939601
-0.0011360365
-0.00098365986
-0.00083673411
-0.00069510689
-0.00055858218
-0.00042694315
-0.00029997247
-0.00017718647
-5.8410724e-05
-0.0037522495
-0.0036380658
-0.0035090969
-0.0033671732
-0.0032142424
-0.0030523159
-0.0028834061
-0.0027094702
-0.0025323591
-0.0023537707
-0.0021752067
-0.001997957
-0.001823091
-0.0016514618
-0.0014837152
-0.0013203071
-0.0011615288
-0.0010075316
-0.0008583635
-0.00071400205
-0.00057436581
-0.00043933857
-0.00030879939
-0.00018237654
-5.9961083e-05
-0.003646301
-0.0035409667
-0.0034216271
-0.0032898382
-0.0031472672
-0.0029956442
-0.0028367232
-0.0026722333
-0.0025038389
-0.0023330895
-0.0021613901
-0.0019899797
-0.0018199182
-0.0016520862
-0.0014871867
-0.0013257558
-0.0011681797
-0.0010147162
-0.00086552104
-0.00072066911
-0.00058017307
-0.00044400308
-0.00031212559
-0.00018430051
-6.0471575e-05
-0.0035185626
-0.0034213149
-0.003310848
-0.003188491
-0.0030556768
-0.0029139037
-0.0027647094
-0.0026096294
-0.002450152
-0.0022876863
-0.0021235377
-0.0019588839
-0.0017947587
-0.0016320465
-0.0014714805
-0.0013136485
-0.0011590049
-0.0010078855
-0.00086052667
-0.00071708178
-0.00057764045
-0.00044224724
-0.0003109447
-0.00018356566
-6.010566e-05
-0.0033727057
-0.0032829702
-0.0031808025
-0.0030673383
-0.0029438101
-0.0028115305
-0.0026718517
-0.0025261358
-0.0023757157
-0.0022218736
-0.0020658165
-0.0019086545
-0.0017513826
-0.0015948693
-0.0014398556
-0.0012869584
-0.0011366765
-0.00098940085
-0.0008454277
-0.00070497312
-0.0005681906
-0.0004351896
-0.0003060697
-0.00018068077
-5.9068252e-05
-0.0032121498
-0.0031294442
-0.0030350963
-0.0029300812
-0.0028154664
-0.0026923973
-0.0025620622
-0.0024256647
-0.0022844037
-0.0021394468
-0.0019919052
-0.0018428153
-0.0016931215
-0.0015436662
-0.0013951842
-0.0012483035
-0.0011035479
-0.00096134362
-0.00082202893
-0.00068586554
-0.00055305296
-0.00042374642
-0.00029808573
-0.00017594237
-5.7421086e-05
-0.0030401403
-0.0029640288
-0.0028770665
-0.0027800984
-0.0026740541
-0.0025599269
-0.0024387585
-0.0023116156
-0.0021795732
-0.0020436889
-0.0019049797
-0.0017644042
-0.001622851
-0.0014811277
-0.001339953
-0.0011999527
-0.0010616598
-0.00092551937
-0.0007918951
-0.00066107721
-0.0005332948
-0.00040872917
-0.00028754861
-0.00016968878
-5.5284247e-05
-0.0028596077
-0.002789717
-0.0027097603
-0.0026204724
-0.0025226623
-0.0024171968
-0.0023049915
-0.0021869942
-0.0020641629
-0.0019374487
-0.0018077763
-0.0016760286
-0.0015430343
-0.001409558
-0.0012762909
-0.0011438445
-0.0010127493
-0.00088345592
-0.00075634041
-0.00063171046
-0.00050981288
-0.00039084377
-0.00027498715
-0.00016222272
-5.2716262e-05
-0.0026730723
-0.0026090888
-0.0025358101
-0.0024538747
-0.0023639876
-0.0022669104
-0.0021634503
-0.0020544466
-0.0019407517
-0.001823218
-0.0017026833
-0.0015799568
-0.001455806
-0.0013309439
-0.0012060238
-0.0010816325
-0.00095828748
-0.00083643611
-0.00071645781
-0.00059866956
-0.00048332893
-0.00037064109
-0.00026079835
-0.00015377782
-4.9802902e-05
-0.0024826648
-0.0024243114
-0.0023574172
-0.0022825381
-0.0022002898
-0.0021113412
-0.0020164029
-0.001916216
-0.001811539
-0.001703135
-0.00159176
-0.0014781498
-0.0013630078
-0.0012469934
-0.0011307162
-0.0010147307
-0.00089953297
-0.00078555846
-0.00067318299
-0.00056272516
-0.0004544489
-0.00034856973
-0.00024529076
-0.00014459963
-4.6752245e-05
-0.0022901623
-0.0022371859
-0.0021764063
-0.0021083079
-0.0020334288
-0.0019523543
-0.0018657089
-0.0017741462
-0.0016783392
-0.0015789689
-0.0014767132
-0.0013722359
-0.0012661754
-0.0011591369
-0.0010516843
-0.00094433518
-0.00083755775
-0.00073176831
-0.00062733164
-0.00052456239
-0.00042372646
-0.00032504846
-0.00022875309
-0.00013489424
-4.3667106e-05
-0.0020970122
-0.0020491796
-0.0019942635
-0.0019326855
-0.0018649148
-0.0017914627
-0.0017128762
-0.0016297306
-0.0015426201
-0.0014521489
-0.0013589211
-0.001263531
-0.0011665546
-0.0010685417
-0.00097000876
-0.00087143358
-0.00077325267
-0.00067585791
-0.00057959782
-0.0004847784
-0.00039166646
-0.00030049739
-0.000211513
-0.00012478616
-4.0461289e-05
-0.0019043547
-0.0018614501
-0.0018121626
-0.0017568579
-0.0016959443
-0.0016298667
-0.0015591028
-0.0014841559
-0.0014055481
-0.001323812
-0.0012394822
-0.0011530876
-0.0010651435
-0.00097614474
-0.0008865593
-0.00079682379
-0.00070733939
-0.00061847149
-0.00053054832
-0.00044386356
-0.0003586803
-0.00027523765
-0.00019378258
-0.0001143679
-3.7115772e-05
-0.0017130487
-0.0016748718
-0.001630993
-0.0015817287
-0.0015274312
-0.0014684867
-0.0014053095
-0.0013383377
-0.0012680268
-0.0011948427
-0.0011192552
-0.0010417311
-0.00096272715
-0.00088268444
-0.0008020228
-0.00072113632
-0.00064039026
-0.00056012016
-0.00048063104
-0.00040219947
-0.00032507662
-0.00024949323
-0.0001756933
-0.0001037215
-3.3692883e-05
-0.001523699
-0.0014900649
-0.0014513905
-0.0014079471
-0.0013600377
-0.001307994
-0.0012521734
-0.0011929539
-0.0011307295
-0.0010659045
-0.00099888797
-0.0009300876
-0.0008599043
-0.00078872697
-0.00071692774
-0.00064485827
-0.00057284694
-0.00050119746
-0.00043018844
-0.00036007438
-0.00029108712
-0.00022343809
-0.00015736441
-9.2917507e-05
-3.0217282e-05
-0.0013366875
-0.0013074259
-0.0012737669
-0.0012359409
-0.0011942056
-0.0011488434
-0.0011001593
-0.0010484761
-0.00099413097
-0.00093747072
-0.00087884732
-0.00081861277
-0.00075711447
-0.00069469086
-0.00063166745
-0.0005683536
-0.00050504005
-0.00044199733
-0.00037947518
-0.00031770269
-0.00025688846
-0.00019722196
-0.0001389222
-8.2036025e-05
-2.667201e-05
-0.0011522
-0.0011271571
-0.0010983416
-0.0010659468
-0.0010301889
-0.00099130528
-0.00094955205
-0.00090520123
-0.00085853707
-0.00080985289
-0.00075944682
-0.00070761797
-0.00065466261
-0.0006008705
-0.00054652157
-0.00049188319
-0.00043720795
-0.00038273214
-0.00032867497
-0.00027523814
-0.00022260546
-0.00017094324
-0.0001204337
-7.1117139e-05
-2.309403e-05
-0.00097025432
-0.00094929349
-0.00092516852
-0.00089803847
-0.00086808123
-0.00083549227
-0.00080048264
-0.00076327699
-0.00072411059
-0.00068322591
-0.00064087027
-0.00059729254
-0.00055274
-0.00050745535
-0.00046167393
-0.00041562142
-0.00036951197
-0.00032354678
-0.0002779131
-0.00023278359
-0.00018831556
-0.00014465091
-0.00010193756
-6.0192258e-05
-1.9501001e-05
-0.00079071624
-0.00077371928
-0.00075415226
-0.0007321422
-0.00070783133
-0.00068137596
-0.00065294499
-0.00062271846
-0.00059088638
-0.00055764241
-0.0005231856
-0.00048771689
-0.00045143644
-0.00041454121
-0.00037722282
-0.0003396656
-0.00030204505
-0.00026452647
-0.00022726396
-0.00019039953
-0.00015406221
-0.00011836783
-8.3434743e-05
-4.9260785e-05
-1.5935402e-05
-0.00061329231
-0.00060016128
-0.00058504208
-0.00056803171
-0.00054923885
-0.00052878281
-0.00050679269
-0.00048340588
-0.00045876981
-0.00043303126
-0.00040634351
-0.0003788613
-0.0003507391
-0.00032212922
-0.0002931802
-0.0002640353
-0.00023483117
-0.0002056967
-0.00017675197
-0.00014810737
-0.00011986275
-9.2107366e-05
-6.4932509e-05
-3.833159e-05
-1.2392905e-05
-0.00043752838
-0.00042818786
-0.00041743167
-0.00040532835
-0.00039195449
-0.00037739443
-0.00036173931
-0.00034508626
-0.00032753736
-0.00030919896
-0.00029017916
-0.00027058774
-0.00025053443
-0.00023012766
-0.00020947337
-0.0001886739
-0.00016782702
-0.00014702491
-0.0001263534
-0.00010589112
-8.5708871e-05
-6.5869767e-05
-4.6437966e-05
-2.7410712e-05
-8.8603073e-06
-0.00026270446
-0.00025710636
-0.00025065939
-0.0002434044
-0.00023538717
-0.00022665798
-0.00021727131
-0.0002072852
-0.00019675784
-0.00018575531
-0.00017434233
-0.00016258447
-0.00015054737
-0.00013829598
-0.00012589393
-0.00011340273
-0.00010088119
-8.8384785e-05
-7.5965107e-05
-6.3669374e-05
-5.1540019e-05
-3.9614741e-05
-2.7931372e-05
-1.6483675e-05
-5.3243816e-06
-8.7915911e-05
-8.6043428e-05
-8.3887145e-05
-8.1460622e-05
-7.8779098e-05
-7.5859394e-05
-7.2719685e-05
-6.9379216e-05
-6.5857087e-05
-6.2175424e-05
-5.8356369e-05
-5.4421785e-05
-5.0393584e-05
-4.6293495e-05
-4.2142819e-05
-3.7962191e-05
-3.3771348e-05
-2.9588915e-05
-2.5432218e-05
-2.1317161e-05
-1.7258078e-05
-1.3267654e-05
-9.3590488e-06
-5.5196784e-06
-1.7771991e-06
)
;

boundaryField
{
    Walls
    {
        type            zeroGradient;
    }
    Inlet
    {
        type            fixedValue;
        value           uniform 500;
    }
    Outlet
    {
        type            fixedValue;
        value           uniform 0;
    }
    Front
    {
        type            wedge;
    }
    Back
    {
        type            wedge;
    }
    defaultFaces
    {
        type            empty;
    }
}


// ************************************************************************* //
