/*--------------------------------*- C++ -*----------------------------------*\
| =========                 |                                                 |
| \\      /  F ield         | OpenFOAM: The Open Source CFD Toolbox           |
|  \\    /   O peration     | Version:  4.0                                   |
|   \\  /    A nd           | Web:      www.OpenFOAM.org                      |
|    \\/     M anipulation  |                                                 |
\*---------------------------------------------------------------------------*/
FoamFile
{
    version     2.0;
    format      ascii;
    class       surfaceScalarField;
    location    "0.23";
    object      phi;
}
// * * * * * * * * * * * * * * * * * * * * * * * * * * * * * * * * * * * * * //

dimensions      [0 3 -1 0 0 0 0];

internalField   nonuniform List<scalar> 
3364
(
-3.0981436e-10
1.7076594e-08
-3.8711101e-10
5.0670988e-08
8.5634422e-08
-1.1752327e-10
1.7194093e-08
-9.994484e-10
5.1552933e-08
8.4634961e-08
4.8999861e-10
1.6704102e-08
-6.3732991e-11
5.2106688e-08
8.4571221e-08
-8.8578841e-11
1.6792669e-08
9.9559608e-10
5.1022494e-08
8.5566799e-08
-3.7931649e-10
1.7171945e-08
-3.403816e-10
5.0983511e-08
8.5226395e-08
3.0554409e-10
1.6866344e-08
-9.5542077e-10
5.2244446e-08
8.4270958e-08
3.6302958e-10
1.6503266e-08
7.0683526e-10
5.1900589e-08
8.4977763e-08
1.6770556e-10
1.6335545e-08
3.6347056e-10
5.1704778e-08
8.5341208e-08
1.9362014e-10
1.6141891e-08
-1.9543896e-10
5.2093836e-08
8.5145768e-08
-2.2049751e-11
1.6163879e-08
-3.990952e-10
5.2470856e-08
8.4746672e-08
-1.9146395e-10
1.6355298e-08
-1.6034802e-09
5.3882819e-08
8.3143159e-08
-2.1284815e-10
1.6568122e-08
-1.3115231e-09
5.498145e-08
8.1831595e-08
2.4782047e-10
1.6320277e-08
1.433345e-09
5.3795891e-08
8.3264889e-08
2.3883775e-10
1.6081409e-08
1.8451957e-09
5.2189498e-08
8.5110025e-08
-1.4334379e-10
1.6224715e-08
-1.4549487e-10
5.2191613e-08
8.4964497e-08
-7.2337813e-10
1.6948065e-08
4.4902724e-10
5.1019181e-08
8.5413513e-08
-9.4979169e-10
1.7897832e-08
1.3416605e-09
4.8727688e-08
8.6755146e-08
-2.0634725e-10
1.8104139e-08
3.5331593e-10
4.8167988e-08
8.7108418e-08
3.2615689e-10
1.7777945e-08
7.5441813e-10
4.7739669e-08
8.7862781e-08
3.4009015e-10
1.7437813e-08
1.0173129e-09
4.7062354e-08
8.8880036e-08
6.1390058e-10
1.6823852e-08
-9.9765646e-10
4.8673842e-08
8.7882352e-08
3.1704573e-10
1.6506771e-08
-1.5283195e-09
5.0519174e-08
8.6354007e-08
-1.7654409e-10
1.6683323e-08
3.8445016e-10
4.995817e-08
8.6738407e-08
1.2939337e-10
1.6553892e-08
2.5566445e-11
5.0061986e-08
8.6763941e-08
-7.6330589e-11
1.6630152e-08
-9.1844125e-10
5.0904066e-08
8.5845481e-08
-4.9726402e-10
1.7127361e-08
-1.4094914e-10
5.0547707e-08
8.5704499e-08
-1.6383676e-10
1.7291152e-08
5.4580756e-10
4.9838022e-08
8.6250258e-08
4.4028148e-10
1.6850854e-08
1.9295486e-10
5.0085334e-08
8.6443184e-08
3.6246745e-10
1.6488428e-08
-9.0264762e-10
5.1350579e-08
8.5540562e-08
1.2311681e-09
1.5257473e-08
4.257627e-09
4.8324259e-08
8.9798174e-08
1.105584e-08
4.2009947e-09
4.8616701e-08
1.0761515e-08
1.0973217e-08
1.2743907e-07
4.7243164e-09
-5.2378707e-10
1.6843617e-08
-1.3592655e-09
-1.3351316e-09
2.9150106e-08
-4.1206796e-10
-1.1168426e-10
-1.4706799e-09
-3.0058152e-10
-3.529612e-10
-2.4527472e-09
-1.0417515e-10
-7.4945414e-12
-3.814349e-10
-2.3286687e-11
-1.584898e-11
-7.1850809e-10
-7.9232125e-12
4.3012601e-13
-3.968503e-11
8.4793656e-12
3.1182881e-11
-8.6711112e-11
-1.0874999e-12
1.5178023e-12
-2.5214297e-12
9.9138352e-12
3.0645436e-11
-1.984168e-12
1.7586248e-13
1.3416687e-12
2.5844883e-12
7.5045826e-12
2.1899107e-11
1.1329918e-11
7.7252022e-13
5.6910041e-13
4.435978e-12
3.8407638e-12
1.210706e-11
1.4227762e-11
5.4579744e-13
2.337854e-14
3.0992073e-12
1.2873637e-12
5.9360157e-12
9.2702996e-12
7.3137629e-14
-4.9656672e-14
7.5969504e-13
6.0093766e-13
3.473024e-12
3.2228881e-12
-2.516347e-13
2.0207933e-13
-7.5103352e-13
1.1004836e-12
3.4624711e-12
-7.402548e-13
-2.5223812e-13
4.5439786e-13
-8.4207763e-13
1.690429e-12
3.8972223e-12
-1.2766803e-12
-1.0382569e-13
5.582771e-13
-3.0589684e-13
1.8925606e-12
3.8892408e-12
-2.9785432e-13
1.8432584e-14
5.3987947e-13
1.2815889e-13
1.7828653e-12
3.602364e-12
4.1504967e-13
5.3167281e-14
4.8673535e-13
2.2332238e-13
1.6127268e-12
3.1400419e-12
6.8564106e-13
5.1600424e-14
4.3514986e-13
2.508338e-13
1.4135014e-12
2.6811639e-12
7.0970114e-13
5.3126301e-14
3.8203241e-13
2.4522904e-13
1.2214005e-12
2.2761498e-12
6.5022929e-13
5.3620582e-14
3.2841626e-13
2.3552279e-13
1.0394948e-12
1.9115348e-12
6.0012061e-13
5.4024181e-14
2.7439326e-13
2.2918136e-13
8.6432964e-13
1.5753305e-12
5.653648e-13
5.3895902e-14
2.2049628e-13
2.2463881e-13
6.9357518e-13
1.258653e-12
5.4129222e-13
5.3303915e-14
1.6718962e-13
2.1980091e-13
5.2706407e-13
9.5726852e-13
5.2115851e-13
5.2169527e-14
1.1501624e-13
2.1267475e-13
3.6654288e-13
6.7322582e-13
4.9668859e-13
5.0197713e-14
6.4813893e-14
2.0582605e-13
2.108975e-13
3.9577322e-13
4.8324852e-13
4.7168547e-14
1.7640316e-14
1.9697355e-13
6.1074953e-14
1.5307756e-13
4.3963872e-13
4.4028798e-14
-2.6393731e-14
1.7148535e-13
-6.639908e-14
-6.8695854e-14
3.9322862e-13
3.7680762e-14
-6.4079795e-14
1.5367754e-13
-1.8241309e-13
-2.7033481e-13
3.5528711e-13
3.4061464e-14
-9.8146539e-14
1.3900579e-13
-2.8737412e-13
-4.5130677e-13
3.1994939e-13
3.0523206e-14
-1.2867488e-13
1.2332087e-13
-3.8018782e-13
-6.0952337e-13
2.815105e-13
2.656082e-14
-1.5524066e-13
1.0659356e-13
-4.6023576e-13
-7.4475254e-13
2.4179723e-13
2.1538803e-14
-1.7678418e-13
8.7568447e-14
-5.2627974e-13
-8.5795172e-13
2.0074379e-13
1.82701e-14
-1.9505873e-13
7.4136829e-14
-5.821598e-13
-9.5383435e-13
1.6999731e-13
1.492407e-14
-2.0998694e-13
6.0253354e-14
-6.2750145e-13
-1.0311895e-12
1.3758813e-13
1.157625e-14
-2.2156703e-13
4.690366e-14
-6.6284021e-13
-1.0905242e-12
1.0621958e-13
8.4602973e-15
-2.3003085e-13
3.4348667e-14
-6.8873898e-13
-1.1345237e-12
7.8331192e-14
5.7942805e-15
-2.3582836e-13
2.3327354e-14
-7.062815e-13
-1.165043e-12
5.383111e-14
3.4296722e-15
-2.3926094e-13
1.4067679e-14
-7.1692808e-13
-1.1837154e-12
3.2726215e-14
1.4839783e-15
-2.4074756e-13
6.2349025e-15
-7.216867e-13
-1.19225e-12
1.4757005e-14
-1.2876972e-16
-2.4062115e-13
-2.9336549e-16
-7.21529e-13
-1.1925085e-12
-4.5984071e-17
-1.3970258e-15
-2.3922625e-13
-5.4174086e-15
-7.1751473e-13
-1.1863141e-12
-1.1621654e-14
-2.3426707e-15
-2.3688544e-13
-9.245342e-15
-7.106175e-13
-1.1752792e-12
-2.0289e-14
-2.9896803e-15
-2.3389743e-13
-1.1873836e-14
-7.0173811e-13
-1.160896e-12
-2.6264751e-14
-3.3558251e-15
-2.3054306e-13
-1.3359212e-14
-6.9173893e-13
-1.1445971e-12
-2.9664842e-14
-3.489182e-15
-2.2705516e-13
-1.3910225e-14
-6.8132155e-13
-1.1275498e-12
-3.0963466e-14
-3.4104428e-15
-2.2364583e-13
-1.3606312e-14
-6.7112891e-13
-1.1108417e-12
-3.0319579e-14
-3.1377506e-15
-2.2050906e-13
-1.2504355e-14
-6.6176512e-13
-1.0954894e-12
-2.7861234e-14
-2.694792e-15
-2.1781513e-13
-1.0691399e-14
-6.5377101e-13
-1.0823937e-12
-2.3791083e-14
-2.10169e-15
-2.1571418e-13
-8.2688231e-15
-6.4760603e-13
-1.0723025e-12
-1.8363446e-14
-1.3625147e-15
-2.1435228e-13
-5.3440043e-15
-6.4362639e-13
-1.0657379e-12
-1.1911621e-14
-5.3173333e-16
-2.1382108e-13
-2.2447563e-15
-6.4191505e-13
-1.0628356e-12
-5.1497838e-15
7.6936637e-17
1.773676e-16
4.3429976e-16
1.3677715e-07
-9.3433608e-09
-8.6036558e-09
1.4537454e-07
2.1176755e-08
-1.3711986e-09
-1.3308526e-09
1.3903424e-08
-3.423287e-09
-4.0052679e-10
-5.1749873e-10
-4.2364957e-09
-1.0925426e-09
-2.6442069e-11
-8.1201054e-11
-1.5287783e-09
-1.6649416e-10
5.3348882e-11
5.8929603e-11
-3.0660971e-10
-4.8964512e-12
5.6262814e-11
7.7024837e-11
-2.29878e-11
2.7299192e-11
4.0293975e-11
5.807796e-11
4.6246955e-11
3.1316296e-11
2.3205536e-11
3.5335993e-11
5.405837e-11
1.8950665e-11
1.3525336e-11
2.1444978e-11
3.2841902e-11
7.6768851e-12
9.0716301e-12
1.5168596e-11
1.3953651e-11
4.3831818e-13
7.893382e-12
1.2653516e-11
2.953804e-12
-6.8946607e-13
7.3063737e-12
1.1605109e-11
3.5921415e-13
2.0941843e-13
6.7991795e-12
1.0503481e-11
1.311152e-12
1.1632287e-12
6.0510019e-12
9.1358338e-12
2.5308739e-12
1.5664775e-12
5.1701383e-12
7.704176e-12
2.9980894e-12
1.5406016e-12
4.3392039e-12
6.402227e-12
2.8424956e-12
1.3619349e-12
3.6274639e-12
5.307238e-12
2.4568691e-12
1.204918e-12
3.0226318e-12
4.3761378e-12
2.1359655e-12
1.1187792e-12
2.4691808e-12
3.5620471e-12
1.9328173e-12
1.0370429e-12
1.9733914e-12
2.7997764e-12
1.7992597e-12
1.0053417e-12
1.4891671e-12
2.1666186e-12
1.6384438e-12
9.4586207e-13
1.0399509e-12
1.5902628e-12
1.5221613e-12
8.5709648e-13
6.660593e-13
1.0440367e-12
1.4032656e-12
7.9051367e-13
3.1514062e-13
5.48177e-13
1.2863166e-12
7.2502996e-13
-1.6703763e-14
1.0360117e-13
1.1695501e-12
6.5143723e-13
-3.1289561e-13
-2.9700904e-13
1.0519936e-12
5.8298357e-13
-5.7596979e-13
-6.4872346e-13
9.3464656e-13
5.106806e-13
-8.0517783e-13
-9.5547299e-13
8.173816e-13
4.3728601e-13
-1.0007022e-12
-1.2201669e-12
7.0193442e-13
3.6337192e-13
-1.1633636e-12
-1.4475074e-12
5.9067026e-13
3.0832044e-13
-1.3017175e-12
-1.6203467e-12
4.8112069e-13
2.4846107e-13
-1.4126186e-12
-1.762079e-12
3.9015763e-13
1.9088268e-13
-1.4973075e-12
-1.8760682e-12
3.0483939e-13
1.4215962e-13
-1.5611594e-12
-1.961431e-12
2.2749289e-13
9.8612981e-14
-1.6059625e-12
-2.0214854e-12
1.5864074e-13
6.0080406e-14
-1.6333357e-12
-2.0591476e-12
9.7718806e-14
2.7773298e-14
-1.646369e-12
-2.077893e-12
4.6497425e-14
1.3600738e-15
-1.6477902e-12
-2.0814992e-12
4.9472583e-15
-1.9318924e-14
-1.6401063e-12
-2.0732473e-12
-2.7587734e-14
-3.4816406e-14
-1.6255909e-12
-2.0561313e-12
-5.1947319e-14
-4.5542789e-14
-1.6063233e-12
-2.0328136e-12
-6.8873679e-14
-5.1735888e-14
-1.5842615e-12
-2.0057144e-12
-7.8846649e-14
-5.417584e-14
-1.5610572e-12
-1.9769835e-12
-8.2916837e-14
-5.3122733e-14
-1.5382611e-12
-1.9486751e-12
-8.144008e-14
-4.8833293e-14
-1.5172953e-12
-1.9226225e-12
-7.4893798e-14
-4.1687023e-14
-1.4994048e-12
-1.9003633e-12
-6.395313e-14
-3.2157885e-14
-1.4856151e-12
-1.8831937e-12
-4.9333453e-14
-2.0959835e-14
-1.476571e-12
-1.8719135e-12
-3.2245236e-14
-9.2727543e-15
-1.4724518e-12
-1.8666928e-12
-1.4498161e-14
9.9486497e-16
1.7936885e-15
2.7201355e-12
-2.7200343e-12
6.2131418e-12
-3.5018739e-12
9.6600141e-12
-3.45865e-12
1.1892087e-11
-2.2442812e-12
1.0836983e-11
1.0455026e-12
4.7104427e-12
6.1204189e-12
-8.3333429e-12
1.3039838e-11
-2.8856686e-11
2.0520954e-11
-5.679235e-11
2.7934541e-11
-9.1483441e-11
3.4690895e-11
-1.310718e-10
3.9588919e-11
-1.7348097e-10
4.2410194e-11
-2.171932e-10
4.3713626e-11
-2.6148584e-10
4.4294168e-11
-3.0587886e-10
4.4394647e-11
-3.4979957e-10
4.3922258e-11
-3.9238536e-10
4.2587234e-11
-4.3241593e-10
4.0031772e-11
-4.6897499e-10
3.6560048e-11
-5.012604e-10
3.2286082e-11
-5.2854025e-10
2.7280291e-11
-5.5029085e-10
2.1750769e-11
-5.6610341e-10
1.5812592e-11
-5.7549656e-10
9.3930762e-12
2.5742524e-12
-3.4237187e-11
3.1520779e-11
-7.6566239e-11
3.883299e-11
-1.2869891e-10
4.8680883e-11
-1.923009e-10
6.1364955e-11
-2.7072798e-10
7.9479878e-11
-3.6686587e-10
1.0226543e-10
-4.8183244e-10
1.280132e-10
-6.159072e-10
1.5460205e-10
-7.6626833e-10
1.7830145e-10
-9.292702e-10
1.9769795e-10
-1.1023179e-09
2.1264115e-10
-1.2832093e-09
2.2330556e-10
-1.4693911e-09
2.2989886e-10
-1.658186e-09
2.3309185e-10
-1.8471585e-09
2.3336945e-10
-2.0350078e-09
2.3177339e-10
-2.2311274e-09
2.3870811e-10
-2.4192637e-09
2.2816885e-10
-2.5907277e-09
2.0802433e-10
-2.7404957e-09
1.8205395e-10
-2.864849e-09
1.5163311e-10
-2.961113e-09
1.1801395e-10
-3.0270677e-09
8.1766273e-11
-3.0587241e-09
4.1048161e-11
1.0602786e-11
-1.1030672e-10
1.4183524e-10
-2.4390161e-10
1.7244016e-10
-4.047813e-10
2.0957493e-10
-6.0071465e-10
2.5731303e-10
-8.3623999e-10
3.1501952e-10
-1.1126938e-09
3.7873258e-10
-1.4319199e-09
4.4725138e-10
-1.8555255e-09
5.7821829e-10
-2.3156851e-09
6.3847011e-10
-2.7856551e-09
6.6767548e-10
-3.2507236e-09
6.7771572e-10
-3.7023469e-09
6.7493352e-10
-4.13427e-09
6.6182551e-10
-4.5408297e-09
6.3965388e-10
-4.9157652e-09
6.0830639e-10
-5.2534265e-09
5.6943516e-10
-5.5390902e-09
5.2437146e-10
-5.784662e-09
4.7373952e-10
-5.995282e-09
4.1864263e-10
-6.1731891e-09
3.5995865e-10
-6.3202277e-09
2.9866889e-10
-6.4376773e-09
2.3546026e-10
-6.5258505e-09
1.6993593e-10
-6.5871521e-09
1.0234594e-10
3.390368e-11
-3.5097489e-10
4.9282551e-10
-7.5234666e-10
5.7383516e-10
-1.2295687e-09
6.8682234e-10
-2.020316e-09
1.0480831e-09
-2.8826235e-09
1.1773463e-09
-3.7072072e-09
1.2033317e-09
-4.4416532e-09
1.1817094e-09
-4.9917335e-09
1.1283078e-09
-5.4057611e-09
1.0525048e-09
-5.6997233e-09
9.6164282e-10
-5.8886907e-09
8.666868e-10
-5.9852831e-09
7.715283e-10
-5.999913e-09
6.7645697e-10
-5.9340367e-09
5.7377824e-10
-5.8033504e-09
4.7762016e-10
-5.6249971e-09
3.9108133e-10
-5.415928e-09
3.153015e-10
-5.192933e-09
2.5074333e-10
-4.971774e-09
1.9748216e-10
-4.7668472e-09
1.550302e-10
-4.5896111e-09
1.2143091e-10
-4.4486722e-09
9.4519226e-11
-4.3491202e-09
7.0381727e-11
-4.2948296e-09
4.8052971e-11
2.5157109e-11
-2.1672328e-09
2.6600833e-09
-3.9037467e-09
2.3103764e-09
-5.4084041e-09
2.191506e-09
-6.1010054e-09
1.7407026e-09
-6.1890005e-09
1.2653558e-09
-5.7303359e-09
7.4467881e-10
-4.9756557e-09
4.270387e-10
-3.9917803e-09
1.4444057e-10
-2.8439694e-09
-9.5298963e-11
-1.5907211e-09
-2.9159936e-10
-3.4829711e-10
-3.7573289e-10
8.8663084e-10
-4.6340002e-10
2.173968e-09
-6.1088089e-10
3.5847364e-09
-8.3698956e-10
4.9647518e-09
-9.0239305e-10
6.27273e-09
-9.1689286e-10
7.4856929e-09
-8.9765565e-10
8.5887585e-09
-8.5231469e-10
9.5717048e-09
-7.854552e-10
1.042686e-08
-7.001142e-10
1.1146599e-08
-5.9829654e-10
1.1722946e-08
-4.8181364e-10
1.2146203e-08
-3.5286026e-10
1.2408207e-08
-2.1393617e-10
-6.3967149e-11
1.0730626e-09
1.5871057e-09
4.2567489e-09
-8.7325874e-10
7.9566965e-09
-1.5083702e-09
1.1631111e-08
-1.9336809e-09
1.5349897e-08
-2.4534052e-09
1.8997048e-08
-2.9024433e-09
2.258978e-08
-3.165661e-09
2.5967746e-08
-3.2334879e-09
2.9039787e-08
-3.1672968e-09
3.1778495e-08
-3.0302607e-09
3.4254645e-08
-2.851833e-09
3.6430876e-08
-2.6395779e-09
3.8240408e-08
-2.4203585e-09
3.9616466e-08
-2.2129917e-09
4.0712029e-08
-1.9979e-09
4.157856e-08
-1.7833679e-09
4.2256301e-08
-1.5753408e-09
4.277884e-08
-1.3747978e-09
4.3175328e-08
-1.1818883e-09
4.3471133e-08
-9.9586386e-10
4.3687865e-08
-8.1497311e-10
4.384289e-08
-6.3678381e-10
4.3948527e-08
-4.5844332e-10
4.4012121e-08
-2.7747633e-10
-8.8052388e-11
1.4927792e-07
-2.3150615e-09
1.478653e-07
5.4027913e-10
1.4528328e-07
1.0744437e-09
1.41816e-07
1.534293e-09
1.3726556e-07
2.0976457e-09
1.3178798e-07
2.5756605e-09
1.257519e-07
2.8708635e-09
1.1954937e-07
2.9694235e-09
1.1345017e-07
2.9322408e-09
1.0760724e-07
2.8129552e-09
1.0209118e-07
2.664474e-09
9.6952825e-08
2.4990005e-09
9.2222804e-08
2.3098606e-09
8.7900946e-08
2.1090448e-09
8.3997764e-08
1.9054428e-09
8.051099e-08
1.7035523e-09
7.7429629e-08
1.5061537e-09
7.4739864e-08
1.3150901e-09
7.2427435e-08
1.1306542e-09
7.0479376e-08
9.5230109e-10
6.88857e-08
7.7880235e-10
6.7640662e-08
6.0834794e-10
6.6744169e-08
4.3813854e-10
6.6201214e-08
2.6556309e-10
8.4777042e-11
1.3171406e-08
-1.5829209e-09
1.5467422e-08
-1.7556237e-09
1.8081631e-08
-1.5396519e-09
2.0799751e-08
-1.1837171e-09
2.3619458e-08
-7.2195453e-10
2.6540512e-08
-3.4529309e-10
2.947113e-08
-5.9662152e-11
3.2250283e-08
1.9035953e-10
3.4835905e-08
3.4670632e-10
3.719524e-08
4.5370798e-10
3.928686e-08
5.7294039e-10
4.0930137e-08
8.5580861e-10
4.2232887e-08
1.0071937e-09
4.3269064e-08
1.0729498e-09
4.4081312e-08
1.0932738e-09
4.4706001e-08
1.0789404e-09
4.5176966e-08
1.0352625e-09
4.5523779e-08
9.683498e-10
4.5772745e-08
8.8175805e-10
4.5946773e-08
7.7834094e-10
4.6065323e-08
6.6031876e-10
4.6144368e-08
5.2936639e-10
4.6195329e-08
3.872389e-10
4.6225484e-08
2.3546758e-10
7.1516975e-11
-5.0615385e-09
-7.578897e-10
-5.7989879e-09
-1.0181848e-09
-6.1942863e-09
-1.1443645e-09
-6.16837e-09
-1.2096437e-09
-5.677258e-09
-1.2130752e-09
-4.8546923e-09
-1.167865e-09
-3.8181868e-09
-1.0961713e-09
-2.6214931e-09
-1.0063348e-09
-1.3687807e-09
-9.0600406e-10
-1.1229762e-10
-8.0277068e-10
1.1592658e-09
-6.9861631e-10
2.6061693e-09
-5.9108579e-10
4.0993549e-09
-4.8598048e-10
5.5616276e-09
-3.8930946e-10
6.9574393e-09
-3.025225e-10
8.2614978e-09
-2.2510104e-10
9.4715386e-09
-1.7475992e-10
1.0575427e-08
-1.3551959e-10
1.156074e-08
-1.0353429e-10
1.2417464e-08
-7.8362146e-11
1.3137137e-08
-5.9333309e-11
1.3711908e-08
-4.5382647e-11
1.4134314e-08
-3.5145859e-11
1.4396255e-08
-2.6453021e-11
-1.6173034e-11
-2.1406962e-09
-1.4597358e-10
-2.9531702e-09
-2.0571392e-10
-3.8037951e-09
-2.9374531e-10
-4.6293706e-09
-3.8407626e-10
-5.3706835e-09
-4.7177214e-10
-5.9233585e-09
-6.1520106e-10
-6.3447575e-09
-6.7478406e-10
-6.6446423e-09
-7.0646197e-10
-6.8301884e-09
-7.2046976e-10
-6.9123734e-09
-7.2059719e-10
-6.9012047e-09
-7.0979611e-10
-6.8009762e-09
-6.9132474e-10
-6.6221239e-09
-6.6484246e-10
-6.3803661e-09
-6.3107611e-10
-6.0917624e-09
-5.9113425e-10
-5.7702071e-09
-5.4666358e-10
-5.4449602e-09
-5.0001337e-10
-5.1301283e-09
-4.5035722e-10
-4.8356157e-09
-3.9805201e-10
-4.570811e-09
-3.4317144e-10
-4.344382e-09
-2.8576644e-10
-4.1639077e-09
-2.258608e-10
-4.0355608e-09
-1.6349625e-10
-3.9631347e-09
-9.8882607e-11
-3.3224538e-11
-4.9299179e-10
4.0410748e-11
-7.2408239e-10
2.5378752e-11
-1.0108971e-09
-6.9292692e-12
-1.3415346e-09
-5.3438221e-11
-1.7210075e-09
-9.2299707e-11
-2.2007379e-09
-1.3547225e-10
-2.6998704e-09
-1.7565451e-10
-3.1984799e-09
-2.0785643e-10
-3.6868848e-09
-2.3206999e-10
-4.1579794e-09
-2.4950852e-10
-4.6064309e-09
-2.6135128e-10
-5.0278445e-09
-2.6991848e-10
-5.4139589e-09
-2.787359e-10
-5.7403901e-09
-3.0465312e-10
-6.0267833e-09
-3.0474944e-10
-6.278218e-09
-2.9523751e-10
-6.4990207e-09
-2.7921927e-10
-6.6916898e-09
-2.5769687e-10
-6.8582145e-09
-2.3153603e-10
-7.0001485e-09
-2.0124616e-10
-7.1186322e-09
-1.6729135e-10
-7.2142817e-09
-1.3021988e-10
-7.2870458e-09
-9.074065e-11
-7.3366976e-09
-4.9239315e-11
-1.1112098e-11
-6.841782e-11
8.5841987e-11
-1.3163337e-10
8.8595632e-11
-2.2518473e-10
8.6623336e-11
-3.5208751e-10
7.3465584e-11
-4.9897398e-10
5.4587466e-11
-6.7293087e-10
3.8484917e-11
-8.668466e-10
1.8261053e-11
-1.0729565e-09
-1.7471634e-12
-1.2860023e-09
-1.9025294e-11
-1.5009001e-09
-3.4612269e-11
-1.717341e-09
-4.4912268e-11
-1.9359315e-09
-5.1330266e-11
-2.1583668e-09
-5.6303239e-11
-2.4036209e-09
-5.9402077e-11
-2.6477826e-09
-6.0591016e-11
-2.8829416e-09
-6.0082159e-11
-3.1041362e-09
-5.8028689e-11
-3.3073014e-09
-5.4535802e-11
-3.4890685e-09
-4.9773294e-11
-3.6464265e-09
-4.3892745e-11
-3.7766733e-09
-3.7049086e-11
-3.8774819e-09
-2.9415984e-11
-3.947059e-09
-2.1168301e-11
-3.9838875e-09
-1.2415409e-11
-3.4117143e-12
5.9500071e-11
7.2589358e-11
6.4684981e-11
8.3411175e-11
6.1634422e-11
8.9674274e-11
4.5096808e-11
9.0003484e-11
1.4178531e-11
8.5505926e-11
-2.4687348e-11
7.7350869e-11
-7.5375215e-11
6.8948874e-11
-1.354595e-10
5.8336952e-11
-2.0138452e-10
4.6899448e-11
-2.7057397e-10
3.457678e-11
-3.4210771e-10
2.662097e-11
-4.1392647e-10
2.0487879e-11
-4.854592e-10
1.522879e-11
-5.5588376e-10
1.1021693e-11
-6.2428058e-10
7.8049136e-12
-6.8974439e-10
5.3806875e-12
-7.5146475e-10
3.6906263e-12
-8.0852174e-10
2.5200812e-12
-8.5989327e-10
1.5970747e-12
-9.0469438e-10
9.0715995e-13
-9.4213141e-10
3.8671528e-13
-9.7153078e-10
-1.7849928e-14
-9.9237986e-10
-3.2043657e-13
-1.0043851e-09
-4.1137042e-13
-6.6897772e-14
7.8137033e-11
4.8511066e-11
1.0239236e-10
5.9156224e-11
1.2525227e-10
6.6814704e-11
1.4430714e-10
7.0948932e-11
1.5877379e-10
7.1039552e-11
1.6754705e-10
6.8577861e-11
1.7195382e-10
6.4542343e-11
1.718684e-10
5.8422585e-11
1.6794616e-10
5.0821878e-11
1.6010349e-10
4.2419629e-11
1.5108202e-10
3.5642607e-11
1.4218095e-10
2.9389094e-11
1.34098e-10
2.3311893e-11
1.2703151e-10
1.8088323e-11
1.210394e-10
1.3797166e-11
1.1644125e-10
9.9789837e-12
1.1283861e-10
7.2934218e-12
1.1009461e-10
5.2642338e-12
1.0820165e-10
3.4901963e-12
1.0682555e-10
2.2834323e-12
1.0585729e-10
1.3551424e-12
1.0506223e-10
7.7737695e-13
1.043259e-10
4.1605446e-13
1.0382902e-10
8.5692739e-14
-1.5487097e-13
5.1494625e-11
2.9858628e-11
7.2430969e-11
3.8220205e-11
9.4308343e-11
4.4937667e-11
1.1568417e-10
4.9573446e-11
1.3479594e-10
5.1928117e-11
1.5092005e-10
5.2454077e-11
1.6425751e-10
5.1205215e-11
1.7480614e-10
4.7874275e-11
1.819034e-10
4.3724938e-11
1.8679337e-10
3.7529978e-11
1.9066095e-10
3.1775353e-11
1.9395445e-10
2.6095913e-11
1.9651454e-10
2.0752128e-11
1.9861679e-10
1.5986392e-11
2.00059e-10
1.2355287e-11
2.014155e-10
8.6228175e-12
2.0300567e-10
5.7035943e-12
2.0492633e-10
3.3439102e-12
2.0707139e-10
1.3454751e-12
2.0921977e-10
1.3539413e-13
2.1111117e-10
-5.359338e-13
2.1271563e-10
-8.2676472e-13
2.1395286e-10
-8.2086867e-13
2.1465633e-10
-6.1748208e-13
-2.7527697e-13
2.2399882e-11
2.1412534e-11
3.3358702e-11
2.7261562e-11
4.5437739e-11
3.2858827e-11
5.7682471e-11
3.7328922e-11
6.9066386e-11
4.0544415e-11
7.9003308e-11
4.2517369e-11
8.6977071e-11
4.3231663e-11
9.250977e-11
4.2341783e-11
9.5840684e-11
4.0394223e-11
9.6690333e-11
3.6680521e-11
9.6254866e-11
3.2211003e-11
9.4489395e-11
2.786156e-11
9.1697543e-11
2.354415e-11
8.8251466e-11
1.9432635e-11
8.4756777e-11
1.5850137e-11
8.0387319e-11
1.2992433e-11
7.6185689e-11
9.9053759e-12
7.234074e-11
7.1890038e-12
6.8727002e-11
4.9593496e-12
6.5597012e-11
3.2655099e-12
6.3020482e-11
2.0407114e-12
6.1077843e-11
1.1159748e-12
5.9797407e-11
4.596569e-13
5.9064215e-11
1.157944e-13
-4.1202251e-14
6.5654528e-12
1.7800877e-11
1.0532607e-11
2.329444e-11
1.5170097e-11
2.8221391e-11
1.9958235e-11
3.2540849e-11
2.447267e-11
3.6030049e-11
2.8513269e-11
3.8476838e-11
3.1895692e-11
3.9849304e-11
3.3426179e-11
4.0811353e-11
3.3520881e-11
4.0299571e-11
3.1680525e-11
3.8520917e-11
2.8486057e-11
3.5405503e-11
2.3599874e-11
3.2747765e-11
1.7651087e-11
2.9492952e-11
1.1295048e-11
2.5788682e-11
4.5559865e-12
2.2589201e-11
-2.0760532e-12
1.9624468e-11
-8.8445584e-12
1.667387e-11
-1.5459327e-11
1.3803754e-11
-2.1699721e-11
1.1199717e-11
-2.7346748e-11
8.9125011e-12
-3.2241544e-11
6.9354616e-12
-3.6335488e-11
5.2098608e-12
-3.9556077e-11
3.6801799e-12
-4.1834475e-11
2.3941261e-12
9.4304123e-13
2.0463324e-12
1.6113637e-11
3.8049075e-12
2.1535792e-11
6.2845992e-12
2.5741654e-11
8.6826087e-12
3.014281e-11
1.094888e-11
3.3763756e-11
1.2798662e-11
3.6627034e-11
1.4035293e-11
3.8612652e-11
1.5028549e-11
3.9818071e-11
1.524944e-11
4.0078649e-11
1.4300459e-11
3.9469862e-11
1.1271927e-11
3.8433993e-11
7.8582163e-12
3.6161429e-11
3.218959e-12
3.4132158e-11
-2.0931118e-12
3.1100697e-11
-7.7937752e-12
2.8289805e-11
-1.3603207e-11
2.5433838e-11
-1.9598583e-11
2.266918e-11
-2.5359937e-11
1.9565038e-11
-3.0825281e-11
1.6664985e-11
-3.5794487e-11
1.3881624e-11
-4.0074412e-11
1.1215295e-11
-4.3536929e-11
8.6722784e-12
-4.6078352e-11
6.2214991e-12
-4.7383419e-11
3.6990933e-12
1.1381087e-12
2.7000427e-12
1.4724543e-11
5.2409012e-12
1.8994782e-11
7.6866987e-12
2.3295745e-11
1.0281472e-11
2.754795e-11
1.2909075e-11
3.1136082e-11
1.5352446e-11
3.41836e-11
1.7499711e-11
3.6465328e-11
1.9294051e-11
3.8023674e-11
2.0575221e-11
3.8797422e-11
2.1157881e-11
3.8887144e-11
2.122474e-11
3.8367076e-11
2.013065e-11
3.7255459e-11
1.8544848e-11
3.57179e-11
1.5940789e-11
3.3704697e-11
1.2846366e-11
3.138417e-11
9.4499788e-12
2.8830167e-11
6.0142457e-12
2.6104855e-11
2.4019773e-12
2.3177245e-11
-1.1075135e-12
2.0174412e-11
-4.3517969e-12
1.7125839e-11
-7.2005733e-12
1.4063999e-11
-9.5442948e-12
1.101592e-11
-1.1412969e-11
8.0900905e-12
-1.2612152e-11
4.8982016e-12
1.2446447e-12
4.5503657e-12
1.2704838e-11
7.02037e-12
1.6524588e-11
9.8796698e-12
2.0436287e-11
1.3325682e-11
2.410181e-11
1.7059058e-11
2.7402598e-11
2.0600977e-11
3.064159e-11
2.3946863e-11
3.3119363e-11
2.7067624e-11
3.4902841e-11
2.9848291e-11
3.6016687e-11
3.2308638e-11
3.6426734e-11
3.4336246e-11
3.633941e-11
3.5736852e-11
3.58548e-11
3.6456148e-11
3.4998553e-11
3.6447702e-11
3.3713097e-11
3.5862427e-11
3.1969404e-11
3.4861012e-11
2.9831543e-11
3.3661302e-11
2.7304528e-11
3.2160446e-11
2.4678066e-11
3.0567372e-11
2.1767449e-11
2.898655e-11
1.8706621e-11
2.7540954e-11
1.5509552e-11
2.6388544e-11
1.2168282e-11
2.5935551e-11
8.5430326e-12
2.5749857e-11
5.0838525e-12
2.0558485e-12
5.0747901e-12
1.0627956e-11
7.7014847e-12
1.3897718e-11
1.0828675e-11
1.7308934e-11
1.4342251e-11
2.0588088e-11
1.7959488e-11
2.3785235e-11
2.2129997e-11
2.6470973e-11
2.6399656e-11
2.8849609e-11
3.0278138e-11
3.1024276e-11
3.3939279e-11
3.2355473e-11
3.7517902e-11
3.2848045e-11
4.0649788e-11
3.3207467e-11
4.3297385e-11
3.3207152e-11
4.5449899e-11
3.2845995e-11
4.714568e-11
3.201728e-11
4.8386044e-11
3.0729011e-11
4.9196296e-11
2.9021267e-11
4.9553274e-11
2.6947529e-11
4.9688311e-11
2.4543011e-11
4.959612e-11
2.1859621e-11
4.9307941e-11
1.899478e-11
4.8920302e-11
1.5897169e-11
4.8535317e-11
1.255324e-11
4.7953592e-11
9.1247288e-12
4.7531248e-11
5.5061744e-12
1.7062156e-12
4.6618756e-12
8.8084172e-12
7.0958346e-12
1.1463606e-11
1.0035889e-11
1.4368733e-11
1.3283489e-11
1.7340351e-11
1.6964947e-11
2.0103652e-11
2.0716519e-11
2.2719289e-11
2.4596191e-11
2.4969838e-11
2.8829588e-11
2.6790792e-11
3.2842768e-11
2.8342217e-11
3.6604211e-11
2.9086535e-11
4.0247021e-11
2.95646e-11
4.3586108e-11
2.9868016e-11
4.6444842e-11
2.9987221e-11
4.8989675e-11
2.9472415e-11
5.1199338e-11
2.8519323e-11
5.3052572e-11
2.7168015e-11
5.455577e-11
2.5444318e-11
5.5731003e-11
2.3367767e-11
5.6616931e-11
2.0973683e-11
5.7293447e-11
1.8318254e-11
5.7800683e-11
1.538992e-11
5.8118378e-11
1.223553e-11
5.8475779e-11
8.7673107e-12
5.8636074e-11
5.3458686e-12
1.9580631e-12
3.9850302e-12
7.2801076e-12
6.0157414e-12
9.4327535e-12
8.5443727e-12
1.1839968e-11
1.1442543e-11
1.4442053e-11
1.4636717e-11
1.690936e-11
1.8117607e-11
1.923829e-11
2.1773408e-11
2.1313939e-11
2.5498371e-11
2.3065742e-11
2.9340224e-11
2.4500286e-11
3.2985031e-11
2.5441661e-11
3.6667135e-11
2.5882438e-11
4.0007979e-11
2.6527122e-11
4.3250635e-11
2.6744525e-11
4.6255773e-11
2.6467245e-11
4.8989338e-11
2.5785735e-11
5.143041e-11
2.4726927e-11
5.357122e-11
2.3303497e-11
5.5404334e-11
2.1534645e-11
5.6926143e-11
1.9451869e-11
5.8179851e-11
1.706454e-11
5.9163064e-11
1.4406699e-11
5.9886295e-11
1.1512288e-11
6.0187781e-11
8.4658112e-12
6.042176e-11
5.111884e-12
1.6156855e-12
3.4747423e-12
5.9411833e-12
5.0990777e-12
7.8082776e-12
7.0986334e-12
9.8402787e-12
9.5636511e-12
1.197691e-11
1.2434988e-11
1.4037907e-11
1.5512037e-11
1.6161135e-11
1.8802108e-11
1.8023772e-11
2.2209734e-11
1.9658031e-11
2.5693701e-11
2.1016242e-11
2.9102992e-11
2.2032303e-11
3.2503369e-11
2.2482002e-11
3.5855265e-11
2.3175177e-11
3.9157829e-11
2.3441921e-11
4.2278391e-11
2.3346651e-11
4.5205909e-11
2.2858194e-11
4.7901992e-11
2.2030827e-11
5.0351751e-11
2.0853729e-11
5.2523353e-11
1.9363037e-11
5.440978e-11
1.7565437e-11
5.6020819e-11
1.5453497e-11
5.7338477e-11
1.3089036e-11
5.8385339e-11
1.0465416e-11
5.9322435e-11
7.5287056e-12
5.9768655e-11
4.6656594e-12
1.7082673e-12
3.0287687e-12
4.8450989e-12
4.4247416e-12
6.4121748e-12
6.1526152e-12
8.11228e-12
8.2578048e-12
9.871602e-12
1.0661431e-11
1.1634169e-11
1.3399361e-11
1.3423102e-11
1.6390496e-11
1.5032543e-11
1.9474832e-11
1.6573611e-11
2.2673812e-11
1.7817188e-11
2.5883163e-11
1.8822886e-11
2.8985891e-11
1.9379217e-11
3.2277692e-11
1.9883327e-11
3.5441266e-11
2.0278309e-11
3.8533802e-11
2.0254085e-11
4.1480463e-11
1.9911511e-11
4.4254997e-11
1.9256279e-11
4.6810005e-11
1.8298712e-11
4.9128156e-11
1.7044881e-11
5.1190295e-11
1.5503295e-11
5.2938158e-11
1.3705631e-11
5.4390527e-11
1.1636663e-11
5.5509457e-11
9.3464798e-12
5.6104108e-11
6.9340464e-12
5.6528041e-11
4.2417242e-12
1.2883785e-12
2.7209479e-12
3.9232916e-12
3.9704107e-12
5.1625953e-12
5.5318743e-12
6.5507038e-12
7.3913846e-12
8.0119845e-12
9.5059794e-12
9.5194732e-12
1.1916216e-11
1.1012772e-11
1.4517433e-11
1.243124e-11
1.7340024e-11
1.3750941e-11
2.0294142e-11
1.4862999e-11
2.3285108e-11
1.5831857e-11
2.6171891e-11
1.649238e-11
2.9261196e-11
1.6793975e-11
3.2323782e-11
1.7215685e-11
3.5293425e-11
1.7284413e-11
3.8158199e-11
1.7046717e-11
4.087828e-11
1.6536184e-11
4.3416407e-11
1.5760577e-11
4.574383e-11
1.4717455e-11
4.7826354e-11
1.342077e-11
4.9655734e-11
1.1876249e-11
5.1182279e-11
1.0110117e-11
5.2388167e-11
8.1405872e-12
5.3359705e-11
5.9625028e-12
5.3959272e-11
3.6421567e-12
1.3077739e-12
2.5080432e-12
3.0535851e-12
3.6321605e-12
4.038373e-12
5.0366589e-12
5.146104e-12
6.6626566e-12
6.3858899e-12
8.5753409e-12
7.6066974e-12
1.0728566e-11
8.8594608e-12
1.3083687e-11
1.007604e-11
1.5630243e-11
1.1204312e-11
1.8288679e-11
1.2204497e-11
2.105348e-11
1.3066998e-11
2.3834934e-11
1.3710875e-11
2.6554028e-11
1.4074838e-11
2.9524608e-11
1.424507e-11
3.2350976e-11
1.4458018e-11
3.5076499e-11
1.4321176e-11
3.7683865e-11
1.3928806e-11
4.0141501e-11
1.3302936e-11
4.2413293e-11
1.2445661e-11
4.4466488e-11
1.1367576e-11
4.6266351e-11
1.0076388e-11
4.778842e-11
8.5880484e-12
4.901361e-11
6.9153954e-12
4.990684e-11
5.069269e-12
5.0439389e-11
3.1096103e-12
1.087799e-12
2.326683e-12
2.2489663e-12
3.3300417e-12
3.0349191e-12
4.5682468e-12
3.9078067e-12
6.0703475e-12
4.8837008e-12
7.7749906e-12
5.9019707e-12
9.699611e-12
6.934762e-12
1.1816748e-11
7.9588304e-12
1.4103769e-11
8.9172242e-12
1.6523781e-11
9.7844241e-12
1.9061665e-11
1.052906e-11
2.1640456e-11
1.1132037e-11
2.4173726e-11
1.1541528e-11
2.6728482e-11
1.1690282e-11
2.945872e-11
1.1727756e-11
3.2035889e-11
1.174399e-11
3.4496923e-11
1.1467762e-11
3.6816328e-11
1.0983527e-11
3.8972939e-11
1.028905e-11
4.0924512e-11
9.416005e-12
4.2640971e-11
8.3599319e-12
4.4094791e-11
7.1342303e-12
4.5255419e-11
5.7547666e-12
4.6079744e-11
4.2449431e-12
4.657639e-11
2.6129672e-12
8.5628078e-13
2.1306915e-12
1.5214516e-12
3.0482688e-12
2.1172548e-12
4.1507819e-12
2.8052092e-12
5.4792773e-12
3.5551245e-12
7.005742e-12
4.3754292e-12
8.7208262e-12
5.2196055e-12
1.0621189e-11
6.0584003e-12
1.2676094e-11
6.8622574e-12
1.4861598e-11
7.5988631e-12
1.7150293e-11
8.2403153e-12
1.9515498e-11
8.7667878e-12
2.1890669e-11
9.1663202e-12
2.4204514e-11
9.3764074e-12
2.6503528e-11
9.4287203e-12
2.8941341e-11
9.3061629e-12
3.122107e-11
9.1880253e-12
3.3391916e-11
8.8126779e-12
3.5383414e-11
8.2975531e-12