/*--------------------------------*- C++ -*----------------------------------*\
| =========                 |                                                 |
| \\      /  F ield         | OpenFOAM: The Open Source CFD Toolbox           |
|  \\    /   O peration     | Version:  4.0                                   |
|   \\  /    A nd           | Web:      www.OpenFOAM.org                      |
|    \\/     M anipulation  |                                                 |
\*---------------------------------------------------------------------------*/
FoamFile
{
    version     2.0;
    format      ascii;
    class       volVectorField;
    location    "0.23";
    object      U;
}
// * * * * * * * * * * * * * * * * * * * * * * * * * * * * * * * * * * * * * //

dimensions      [0 1 -1 0 0 0 0];

internalField   nonuniform List<vector> 
1740
(
(1.5272251 -0.010346712 4.4605541e-06)
(1.5473062 -0.012135102 6.9408329e-07)
(1.5767411 -0.0039032425 3.8362741e-08)
(1.6225864 -0.0068181023 7.805602e-06)
(1.549248 -0.019600221 1.7827102e-06)
(1.5730069 -0.012227984 3.0852889e-07)
(1.5797489 0.01185231 1.1781373e-05)
(1.6071712 0.0078126063 2.6750833e-06)
(1.5056386 -0.0027265576 4.6634499e-07)
(1.4588098 -0.004645762 1.3770901e-05)
(1.5968928 0.013971891 3.6290969e-06)
(1.5926384 0.0086635753 5.6502179e-07)
(1.5868591 -0.011068379 1.5027467e-05)
(1.5117276 -0.011576591 4.4221103e-06)
(1.6000432 -0.010030383 8.2142527e-07)
(1.5967723 0.013971331 1.6187805e-05)
(1.5993918 -0.0099830242 4.9828864e-06)
(1.5138783 -0.01439745 9.7325432e-07)
(1.4980223 0.0089646765 1.7117739e-05)
(1.6106718 0.019065175 5.8205534e-06)
(1.5444997 0.0037387511 1.1055263e-06)
(1.5055554 0.0079056392 1.7599086e-05)
(1.5290993 0.0086960997 6.4722961e-06)
(1.5784072 -0.0023569212 1.3517283e-06)
(1.4918964 0.017422974 1.7943498e-05)
(1.6209254 -0.0067547558 6.8608507e-06)
(1.54245 -0.010025611 1.533238e-06)
(1.484503 -0.00013224201 1.8602079e-05)
(1.6116552 -0.0048573527 7.9003333e-06)
(1.5821317 -0.0071434055 1.6583441e-06)
(1.4695559 -0.013157461 1.9305842e-05)
(1.5940027 -0.023350297 8.2905304e-06)
(1.5745267 -0.015314574 1.9707207e-06)
(1.5362174 -0.012386688 1.9823484e-05)
(1.6928143 -0.016812325 8.9470384e-06)
(1.4767676 -0.012313274 2.1597454e-06)
(1.5297596 0.0028251625 2.0457382e-05)
(1.6870786 0.026937481 9.5085464e-06)
(1.4826604 0.017184001 2.3124302e-06)
(1.4540176 0.0077608766 2.0701591e-05)
(1.5855856 0.029115322 9.9717107e-06)
(1.5722247 0.020134684 2.5127121e-06)
(1.4835636 -0.0026686118 2.0677362e-05)
(1.6024141 -0.0032091416 1.0377467e-05)
(1.5910048 -0.0048179559 2.7151735e-06)
(1.5002127 -0.019067607 2.1076421e-05)
(1.6102881 -0.0070596853 1.0919908e-05)
(1.5130736 -0.0028389355 2.853467e-06)
(1.5893915 -0.024626762 2.144167e-05)
(1.491402 -2.9074036e-05 1.1351498e-05)
(1.5941508 0.0067514803 3.0401339e-06)
(1.6842775 -0.00332822 2.1708764e-05)
(1.4710962 -0.0016949601 1.1743129e-05)
(1.5936467 0.0018476969 3.2593619e-06)
(1.6304939 0.0047082531 2.1451243e-05)
(1.46574 0.018862196 1.2067356e-05)
(1.5745646 0.011922593 3.3979636e-06)
(1.6182079 0.0084406748 2.1260401e-05)
(1.4513327 0.022638272 1.2365172e-05)
(1.645642 0.012016426 3.5739841e-06)
(1.6018149 0.020764394 2.1473091e-05)
(1.4418753 -0.003263876 1.2732501e-05)
(1.6587569 -0.010836263 3.7591943e-06)
(1.4932964 0.0041983983 2.2101507e-05)
(1.5511787 -0.0082410997 1.3192137e-05)
(1.5775147 -0.011620896 3.9124841e-06)
(1.5247657 -0.0067519235 2.2163698e-05)
(1.5247058 -0.00061569952 1.3537833e-05)
(1.5525929 0.0063450134 4.0483448e-06)
(1.5418864 0.015127079 2.1772939e-05)
(1.5162759 -0.0039718249 1.3763329e-05)
(1.6384942 -0.0057443142 4.2112562e-06)
(1.4805388 0.0011625976 2.209024e-05)
(1.5540333 -0.014795172 1.4117061e-05)
(1.5579192 -0.010416296 4.3980074e-06)
(1.5111999 -0.015980619 2.2608655e-05)
(1.5132546 -0.0094607828 1.4334462e-05)
(1.5381539 -0.0019935507 4.556967e-06)
(1.5918509 0.00018519787 2.262159e-05)
(1.5180989 0.0010238092 1.4597396e-05)
(1.5518692 0.0055225766 4.7152297e-06)
(1.5389175 0.012098267 2.2846229e-05)
(1.4712139 0.0099650978 1.4874085e-05)
(1.5633147 -0.0025410896 4.875949e-06)
(1.3781938 0.01039772 2.2420077e-05)
(1.4536585 -0.011483028 1.4982548e-05)
(1.5557821 -0.0061528204 4.8653904e-06)
(1.2531201 0.027711619 2.3460504e-05)
(1.3139993 0.083410358 1.5647899e-05)
(1.3773947 0.051327917 5.5361228e-06)
(0.81896683 0.35754198 1.1855359e-05)
(0.7991711 0.92964388 9.853709e-06)
(0.7457112 1.2544409 5.3726976e-06)
(0.21463856 0.10811033 1.4766063e-06)
(0.18798065 0.36285053 2.9987288e-06)
(0.092758796 0.49780775 6.7409297e-07)
(-0.029226111 -0.01426375 1.238228e-06)
(-0.025575647 -0.028601838 1.6976247e-06)
(-0.016182037 -0.03237743 6.1599773e-07)
(-0.0057313454 -0.0030447336 4.6571688e-07)
(-0.0049560592 -0.0076652906 7.6659812e-07)
(-0.0038642995 -0.0099763829 3.8239379e-07)
(-0.0006237227 -0.00017781968 1.3070086e-07)
(-0.00030717066 -0.0006365669 2.7398464e-07)
(2.0962331e-05 -0.00096701273 1.5564093e-07)
(4.2659511e-05 -2.7446922e-05 3.4491569e-08)
(0.00017836642 -4.0311081e-05 8.2674827e-08)
(0.00039188851 -6.294923e-06 3.8405593e-08)
(0.00012635658 2.0821558e-06 4.5377604e-09)
(0.00023529569 2.9762963e-05 1.324209e-08)
(0.00039987913 0.00011870995 -9.7372082e-09)
(0.00010882569 1.8847648e-05 -5.0976009e-09)
(0.00018016674 7.4777098e-05 -9.8346912e-09)
(0.00029416474 0.0001629734 -2.4622882e-08)
(7.4404175e-05 1.3110939e-05 -6.1737609e-09)
(0.00011924134 5.003312e-05 -1.3528147e-08)
(0.00019399981 0.00010651507 -2.3781777e-08)
(4.52205e-05 8.7508175e-07 -4.2210276e-09)
(7.3482747e-05 1.1221443e-05 -1.0188831e-08)
(0.00012278264 3.2362901e-05 -1.7250029e-08)
(3.6473546e-05 -7.9994768e-06 -2.0750623e-09)
(5.4747576e-05 -1.370701e-05 -5.8930195e-09)
(8.7805936e-05 -1.4698941e-05 -1.0492593e-08)
(4.0418242e-05 -7.8897386e-06 -8.7734029e-10)
(5.2637739e-05 -1.5339199e-05 -2.9510329e-09)
(7.5209991e-05 -1.9338433e-05 -5.678234e-09)
(4.5733382e-05 -3.4649674e-06 -4.6077361e-10)
(5.4186886e-05 -5.6637896e-06 -1.458322e-09)
(7.0069227e-05 -5.2792458e-06 -2.9000359e-09)
(4.7753082e-05 1.8124558e-07 -3.5118438e-10)
(5.3781966e-05 2.2793621e-06 -8.1479078e-10)
(6.5244223e-05 4.7979321e-06 -1.4867477e-09)
(4.6075118e-05 1.2234501e-06 -2.9236136e-10)
(5.0476298e-05 4.0745384e-06 -5.1565968e-10)
(5.890328e-05 8.030463e-06 -7.9536276e-10)
(4.2032025e-05 1.1950359e-06 -2.2823228e-10)
(4.5313294e-05 4.4070895e-06 -3.4078146e-10)
(5.1627289e-05 8.4761895e-06 -4.3885129e-10)
(3.7080348e-05 1.3155544e-06 -1.6518417e-10)
(3.957131e-05 4.3339023e-06 -2.1888193e-10)
(4.4364937e-05 7.8990443e-06 -2.4029869e-10)
(3.2003535e-05 1.3895826e-06 -1.1177844e-10)
(3.3909002e-05 4.1526022e-06 -1.3328454e-10)
(3.7571129e-05 7.4286528e-06 -1.268539e-10)
(2.6991264e-05 1.4444575e-06 -7.9540001e-11)
(2.8457097e-05 4.0755187e-06 -8.4118217e-11)
(3.1272001e-05 7.0186467e-06 -6.5973215e-11)
(2.203455e-05 1.4715949e-06 -6.1590286e-11)
(2.3172885e-05 3.9995966e-06 -6.0162456e-11)
(2.5359206e-05 6.7036594e-06 -3.8084845e-11)
(1.714841e-05 1.4859263e-06 -5.2842066e-11)
(1.8041294e-05 3.9209892e-06 -5.0894101e-11)
(1.9760489e-05 6.5525304e-06 -2.8262089e-11)
(1.2387357e-05 1.467218e-06 -4.8329787e-11)
(1.3092932e-05 3.8282416e-06 -4.8653826e-11)
(1.4461027e-05 6.3065901e-06 -2.6664328e-11)
(7.8141277e-06 1.4308451e-06 -4.4763852e-11)
(8.374857e-06 3.6985086e-06 -4.7892725e-11)
(9.4769215e-06 6.1697249e-06 -2.7335061e-11)
(3.4875473e-06 1.3262787e-06 -3.9651207e-11)
(3.9355414e-06 3.5129163e-06 -4.5994161e-11)
(4.8346132e-06 5.688415e-06 -2.7504029e-11)
(-5.3943052e-07 1.2563351e-06 -3.5788754e-11)
(-1.8121478e-07 3.1143729e-06 -4.3379645e-11)
(5.6153816e-07 5.0310788e-06 -2.6908148e-11)
(-4.2265021e-06 1.0598945e-06 -3.3212703e-11)
(-3.9404945e-06 2.754645e-06 -4.2257462e-11)
(-3.3192574e-06 4.5369704e-06 -2.694835e-11)
(-7.5442845e-06 9.57454e-07 -3.087865e-11)
(-7.3160113e-06 2.488709e-06 -3.9856997e-11)
(-6.7902988e-06 4.0877991e-06 -2.626693e-11)
(-1.0472822e-05 8.5789066e-07 -2.9056538e-11)
(-1.029157e-05 2.2155908e-06 -3.7701594e-11)
(-9.8414732e-06 3.6071283e-06 -2.5418842e-11)
(-1.3014218e-05 7.4442703e-07 -2.7853938e-11)
(-1.287063e-05 1.9201628e-06 -3.6103926e-11)
(-1.2479302e-05 3.1048391e-06 -2.4905401e-11)
(-1.5192789e-05 5.9625014e-07 -2.7137862e-11)
(-1.5078379e-05 1.5744595e-06 -3.4939777e-11)
(-1.4731049e-05 2.5678108e-06 -2.4588728e-11)
(-1.7032065e-05 5.0230046e-07 -2.6770641e-11)
(-1.6940745e-05 1.3346844e-06 -3.3821764e-11)
(-1.6627379e-05 2.1735404e-06 -2.4220323e-11)
(-1.8541167e-05 4.0596972e-07 -2.6483847e-11)
(-1.8469362e-05 1.0876457e-06 -3.2742895e-11)
(-1.8184683e-05 1.7577739e-06 -2.3722843e-11)
(-1.9730075e-05 3.0939528e-07 -2.6299192e-11)
(-1.9674649e-05 8.4245573e-07 -3.1836926e-11)
(-1.9414359e-05 1.3558569e-06 -2.3370445e-11)
(-2.0623329e-05 2.1680032e-07 -2.6115848e-11)
(-2.0580878e-05 6.236098e-07 -3.0941053e-11)
(-2.0340307e-05 1.0026046e-06 -2.3023158e-11)
(-2.1254797e-05 1.3947261e-07 -2.6056034e-11)
(-2.1222564e-05 4.277532e-07 -2.9897919e-11)
(-2.0998122e-05 6.8560935e-07 -2.2480294e-11)
(-2.1659735e-05 6.9925685e-08 -2.5803453e-11)
(-2.1635801e-05 2.5998902e-07 -2.8902186e-11)
(-2.1425189e-05 4.1608722e-07 -2.1904532e-11)
(-2.1872569e-05 1.3449064e-08 -2.5816242e-11)
(-2.1855395e-05 1.1990691e-07 -2.819932e-11)
(-2.1656878e-05 1.8660327e-07 -2.1520546e-11)
(-2.1926476e-05 -3.2797565e-08 -2.5820162e-11)
(-2.1914792e-05 3.0268022e-09 -2.7593175e-11)
(-2.1726965e-05 -3.5729482e-09 -2.1247571e-11)
(-2.1853094e-05 -6.8646184e-08 -2.5809376e-11)
(-2.1845882e-05 -8.9120593e-08 -2.7041379e-11)
(-2.1667631e-05 -1.5264906e-07 -2.1024268e-11)
(-2.1682169e-05 -9.4753936e-08 -2.5790051e-11)
(-2.1678608e-05 -1.5810935e-07 -2.6523802e-11)
(-2.150901e-05 -2.6420372e-07 -2.0809459e-11)
(-2.1441131e-05 -1.1187642e-07 -2.5794375e-11)
(-2.1440548e-05 -2.0564208e-07 -2.6090499e-11)
(-2.1278783e-05 -3.409632e-07 -2.0647698e-11)
(-2.1154787e-05 -1.2058906e-07 -2.5869616e-11)
(-2.1156627e-05 -2.3285086e-07 -2.581489e-11)
(-2.1001923e-05 -3.845135e-07 -2.0606683e-11)
(-2.0845029e-05 -1.2228967e-07 -2.5963549e-11)
(-2.0848831e-05 -2.4335595e-07 -2.5643965e-11)
(-2.0700438e-05 -4.0090211e-07 -2.0656599e-11)
(-2.0530845e-05 -1.1762482e-07 -2.6098216e-11)
(-2.0536225e-05 -2.3862391e-07 -2.5601194e-11)
(-2.0393411e-05 -3.9238325e-07 -2.0813318e-11)
(-2.0229142e-05 -1.0718477e-07 -2.6305085e-11)
(-2.0235776e-05 -2.1976887e-07 -2.571841e-11)
(-2.0097808e-05 -3.6060259e-07 -2.1083021e-11)
(-1.9956543e-05 -9.1705944e-08 -2.6576057e-11)
(-1.9964162e-05 -1.88367e-07 -2.5945202e-11)
(-1.9830284e-05 -3.0806054e-07 -2.1375619e-11)
(-1.9730263e-05 -7.1771086e-08 -2.6847905e-11)
(-1.9738651e-05 -1.4602167e-07 -2.6080105e-11)
(-1.960805e-05 -2.3792472e-07 -2.1422256e-11)
(-1.9573653e-05 -4.7446433e-08 -2.696242e-11)
(-1.9582616e-05 -9.3960006e-08 -2.5665099e-11)
(-1.9454334e-05 -1.5401159e-07 -2.0675676e-11)
(-1.9511303e-05 -2.0244795e-08 -2.6366653e-11)
(-1.9520618e-05 -3.7687382e-08 -2.357894e-11)
(-1.939355e-05 -6.5848444e-08 -1.8097246e-11)
(-1.9552131e-05 4.9407462e-10 -2.3142841e-11)
(-1.9561721e-05 4.6105004e-09 -1.7308076e-11)
(-1.9434785e-05 5.2985892e-09 -1.202826e-11)
(-0.044925555 1.9558072 -3.8848717e-07)
(-0.032380543 1.6970421 -3.4634068e-06)
(-0.05936209 0.34296816 -2.5557943e-07)
(-0.041909917 0.15334043 -1.0031391e-06)
(-0.013311304 -0.03934429 -1.5964214e-07)
(-0.01043163 -0.041726827 -5.7958245e-07)
(-0.0035152039 -0.012088649 -4.4689914e-08)
(-0.0036752954 -0.01350791 -3.3274309e-07)
(6.0889155e-05 -0.0015437298 -4.3580177e-08)
(-0.00020245756 -0.0023600859 -2.1397978e-07)
(0.00053124194 -5.0653341e-06 -5.574479e-08)
(0.00052546783 -0.00010773992 -1.5130128e-07)
(0.0005282016 0.00026608742 -5.7776328e-08)
(0.00057537296 0.00038565348 -1.1137819e-07)
(0.00039211267 0.000292327 -5.0873526e-08)
(0.00044900218 0.00043110348 -8.1382665e-08)
(0.0002646959 0.00018243041 -3.8987231e-08)
(0.00031372373 0.0002590326 -5.6603995e-08)
(0.00017383969 7.1506914e-05 -2.6406867e-08)
(0.0002140747 0.00010991183 -3.6686577e-08)
(0.00012444516 -1.1970095e-06 -1.6013437e-08)
(0.00015649715 2.0176279e-05 -2.1994329e-08)
(0.00010143113 -1.2872001e-05 -8.8576922e-09)
(0.00012630339 1.4997984e-07 -1.22294e-08)
(8.9275977e-05 -8.2441397e-07 -4.5960132e-09)
(0.0001084772 8.1446452e-06 -6.3884098e-09)
(7.9591958e-05 1.0110291e-05 -2.3100724e-09)
(9.452961e-05 1.8681428e-05 -3.1936791e-09)
(6.9757003e-05 1.4502368e-05 -1.1535897e-09)
(8.1478933e-05 2.2699111e-05 -1.5523741e-09)
(5.9942916e-05 1.4402046e-05 -5.7499036e-10)
(6.9188671e-05 2.1855609e-05 -7.375269e-10)
(5.0783935e-05 1.2874652e-05 -2.8056612e-10)
(5.8088519e-05 1.9121595e-05 -3.3697998e-10)
(4.2543624e-05 1.1596585e-05 -1.2948891e-10)
(4.8318117e-05 1.669994e-05 -1.4190649e-10)
(3.5142207e-05 1.0744834e-05 -5.5163611e-11)
(3.9718313e-05 1.5276282e-05 -5.1038459e-11)
(2.8395984e-05 1.0072436e-05 -2.2501122e-11)
(3.204273e-05 1.4287701e-05 -1.2727023e-11)
(2.2167587e-05 9.8174994e-06 -1.1410931e-11)
(2.5095605e-05 1.3351685e-05 1.4713637e-13)
(1.6389769e-05 9.2973703e-06 -9.7612409e-12)
(1.8760154e-05 1.2443378e-05 2.2994538e-12)
(1.1039298e-05 8.6430364e-06 -1.0896931e-11)
(1.2976552e-05 1.1348449e-05 1.0196525e-12)
(6.1152306e-06 7.9404925e-06 -1.2142842e-11)
(7.7151354e-06 1.0460349e-05 -8.2072219e-13)
(1.6246867e-06 7.2152111e-06 -1.2930083e-11)
(2.9615842e-06 9.555059e-06 -2.4085117e-12)
(-2.4252594e-06 6.4921078e-06 -1.3800383e-11)
(-1.2933661e-06 8.5903114e-06 -3.9054244e-12)
(-6.0288896e-06 5.8259094e-06 -1.4506897e-11)
(-5.0582799e-06 7.6603379e-06 -5.3600949e-12)
(-9.1851129e-06 5.1071176e-06 -1.4627114e-11)
(-8.3428092e-06 6.6954685e-06 -6.1537971e-12)
(-1.1904853e-05 4.3802044e-06 -1.4868567e-11)
(-1.1163614e-05 5.7421589e-06 -6.8599216e-12)
(-1.4218224e-05 3.6393257e-06 -1.5180864e-11)
(-1.3554081e-05 4.8074813e-06 -7.5579597e-12)
(-1.6162023e-05 3.0854209e-06 -1.5419651e-11)
(-1.5557182e-05 3.9778105e-06 -8.2066562e-12)
(-1.7758936e-05 2.4670669e-06 -1.5493176e-11)
(-1.7202809e-05 3.1994663e-06 -8.7488073e-12)
(-1.9022163e-05 1.9109652e-06 -1.5573504e-11)
(-1.8507331e-05 2.4969993e-06 -9.2261065e-12)
(-1.997556e-05 1.417826e-06 -1.5624852e-11)
(-1.9495226e-05 1.8632335e-06 -9.6078729e-12)
(-2.0656089e-05 9.7944025e-07 -1.5514023e-11)
(-2.0204625e-05 1.2970682e-06 -9.8140782e-12)
(-2.1102688e-05 5.9577813e-07 -1.5299848e-11)
(-2.0675997e-05 7.9381288e-07 -9.8724581e-12)
(-2.1351522e-05 2.7225042e-07 -1.5215209e-11)
(-2.0946649e-05 3.717154e-07 -1.000213e-11)
(-2.1436893e-05 6.448719e-09 -1.5225008e-11)
(-2.1051613e-05 2.8261817e-08 -1.0207237e-11)
(-2.1391381e-05 -2.0156664e-07 -1.5280237e-11)
(-2.1023923e-05 -2.3994893e-07 -1.0451255e-11)
(-2.1245356e-05 -3.5758469e-07 -1.532813e-11)
(-2.0894213e-05 -4.4086847e-07 -1.0684339e-11)
(-2.1026627e-05 -4.6544725e-07 -1.5398442e-11)
(-2.0690438e-05 -5.8028382e-07 -1.0919736e-11)
(-2.0760204e-05 -5.2702523e-07 -1.5551173e-11)
(-2.0437637e-05 -6.6077712e-07 -1.1205089e-11)
(-2.0468107e-05 -5.5098765e-07 -1.5771256e-11)
(-2.0157826e-05 -6.9343045e-07 -1.1534804e-11)
(-2.0169429e-05 -5.3992773e-07 -1.6070861e-11)
(-1.9870104e-05 -6.8078696e-07 -1.1921743e-11)
(-1.9881115e-05 -4.962749e-07 -1.6435805e-11)
(-1.9591376e-05 -6.259708e-07 -1.2344187e-11)
(-1.9619757e-05 -4.2367229e-07 -1.6760971e-11)
(-1.9338127e-05 -5.3443053e-07 -1.2697316e-11)
(-1.9402459e-05 -3.2683285e-07 -1.6780804e-11)
(-1.9127318e-05 -4.122379e-07 -1.2750762e-11)
(-1.9252236e-05 -2.1252933e-07 -1.5996e-11)
(-1.8981709e-05 -2.6920677e-07 -1.2094886e-11)
(-1.9193278e-05 -9.3147694e-08 -1.3608814e-11)
(-1.8925187e-05 -1.2024865e-07 -1.0145518e-11)
(-1.9234592e-05 9.2301105e-09 -8.6199732e-12)
(-1.8966511e-05 1.4436292e-08 -6.2840349e-12)
(-0.0023530179 2.8922913e-05 -7.0113512e-08)
(-0.0023579613 1.8245762e-05 -1.6504495e-07)
(-0.0023604223 5.7016605e-05 -2.3105281e-07)
(-0.0023488819 5.4955398e-05 -2.7045944e-07)
(-0.0023085448 5.9537424e-05 -2.8896281e-07)
(-0.002234566 3.4959297e-05 -2.9295688e-07)
(-0.0021317458 -6.3439536e-06 -2.8761115e-07)
(-0.0020044642 -6.7221156e-05 -2.7670048e-07)
(-0.0018598519 -0.00014501212 -2.6279806e-07)
(-0.0017051994 -0.00023361601 -2.476206e-07)
(-0.0015469623 -0.00032806676 -2.3230806e-07)
(-0.0013899186 -0.00042219977 -2.1747969e-07)
(-0.001237687 -0.00051105377 -2.0337528e-07)
(-0.0010927911 -0.00059255702 -1.8997499e-07)
(-0.00095666584 -0.00066659112 -1.7715431e-07)
(-0.00082984751 -0.00073278811 -1.6475991e-07)
(-0.00071236132 -0.00079142982 -1.5261151e-07)
(-0.00060399892 -0.00084177702 -1.4044354e-07)
(-0.00050388346 -0.00088164352 -1.2795704e-07)
(-0.00041124993 -0.00091077437 -1.1478066e-07)
(-0.00032535244 -0.00092920641 -1.0044916e-07)
(-0.00024518817 -0.00093695256 -8.4236243e-08)
(-0.00016985122 -0.00093448564 -6.5437322e-08)
(-9.8811048e-05 -0.00092542492 -4.3554297e-08)
(-3.1834999e-05 -0.000880937 -1.8315586e-08)
(0.00012105296 -9.0536174e-05 -8.6901446e-08)
(0.00012460218 -0.00041058095 -2.0129459e-07)
(0.0001409542 -0.0005829506 -2.7594208e-07)
(0.00017787047 -0.00086982366 -3.1559931e-07)
(0.00023236446 -0.0011060352 -3.3015009e-07)
(0.00029292118 -0.0013883325 -3.2945096e-07)
(0.00035089344 -0.001679356 -3.1995143e-07)
(0.00039769315 -0.0020007741 -3.0574496e-07)
(0.0004266823 -0.0023449877 -2.8921786e-07)
(0.00043950227 -0.0026824684 -2.7188635e-07)
(0.00043808928 -0.0030076659 -2.5489594e-07)
(0.00042558841 -0.0033183795 -2.3877264e-07)
(0.00040539641 -0.0036104588 -2.2366746e-07)
(0.00038043265 -0.0038805305 -2.094248e-07)
(0.0003520912 -0.0041258922 -1.9584055e-07)
(0.00032110479 -0.0043469705 -1.8273419e-07)
(0.00028804701 -0.0045548124 -1.6994973e-07)
(0.00025363223 -0.0047445533 -1.5710546e-07)
(0.00021817827 -0.0048945269 -1.4391077e-07)
(0.00018208579 -0.0049964433 -1.2993672e-07)
(0.00014590647 -0.0050475353 -1.1484434e-07)
(0.00011040088 -0.005050275 -9.7476233e-08)
(7.5935331e-05 -0.005008532 -7.6855184e-08)
(4.2806708e-05 -0.0049077508 -5.1724533e-08)
(1.1860981e-05 -0.0046848875 -2.2554713e-08)
(0.00082778652 -0.00026473314 -1.2669706e-07)
(0.00085266483 -0.0013896198 -2.8209081e-07)
(0.00093388832 -0.0018682828 -3.7036227e-07)
(0.0010623933 -0.0027341927 -4.0509236e-07)
(0.0011883874 -0.0034709093 -4.0901833e-07)
(0.0012814631 -0.0042680427 -3.9809701e-07)
(0.0013292439 -0.005069571 -3.8013071e-07)
(0.0013347356 -0.0060232619 -3.5962672e-07)
(0.001309044 -0.0070959546 -3.3814684e-07)
(0.0012597903 -0.0080858561 -3.1656908e-07)
(0.001193982 -0.0089497388 -2.9634814e-07)
(0.0011179848 -0.0096834875 -2.7774171e-07)
(0.0010352854 -0.010286483 -2.6079255e-07)
(0.00094750699 -0.010767103 -2.4498905e-07)
(0.00085683852 -0.011132294 -2.2997094e-07)
(0.0007650864 -0.011384089 -2.1550628e-07)
(0.00067379231 -0.011515043 -2.0171144e-07)
(0.00058401023 -0.011541501 -1.8769788e-07)
(0.00049599764 -0.01149224 -1.7341545e-07)
(0.00041018075 -0.011383712 -1.5845086e-07)
(0.00032701067 -0.011226116 -1.4220193e-07)
(0.00024744677 -0.011028684 -1.2363977e-07)
(0.00017119849 -0.010798876 -1.0124305e-07)
(9.8450925e-05 -0.010507138 -7.2384636e-08)
(3.0277673e-05 -0.010104792 -3.6143967e-08)
(0.003158087 -0.00095653049 -2.1081581e-07)
(0.0032568537 -0.0044767405 -4.3077998e-07)
(0.003349553 -0.0057356683 -5.2534447e-07)
(0.0033146091 -0.0089638062 -5.4068765e-07)
(0.003205984 -0.011894398 -5.2380857e-07)
(0.0030188495 -0.014512382 -4.9642237e-07)
(0.0027851601 -0.016379716 -4.6570762e-07)
(0.0025289806 -0.017383269 -4.3759744e-07)
(0.0022731574 -0.017698837 -4.1039869e-07)
(0.0020238041 -0.017585199 -3.8264525e-07)
(0.0017903783 -0.017152109 -3.5788044e-07)
(0.0015766672 -0.016522361 -3.3555468e-07)
(0.001379285 -0.015718027 -3.1608246e-07)
(0.001185955 -0.014789458 -2.9799035e-07)
(0.0010110153 -0.01378902 -2.80757e-07)
(0.000855339 -0.012762838 -2.6422135e-07)
(0.00071786032 -0.011749688 -2.4818474e-07)
(0.00059676055 -0.010783157 -2.3243684e-07)
(0.00049043303 -0.009886116 -2.1670646e-07)
(0.00039679096 -0.0090792355 -2.0056798e-07)
(0.00031358713 -0.0083748609 -1.8346673e-07)
(0.00023750319 -0.0077776858 -1.6452808e-07)
(0.00016705018 -0.007289086 -1.4233212e-07)
(0.00010060697 -0.0068664655 -1.1438605e-07)
(3.6954804e-05 -0.0065552123 -7.295985e-08)
(0.010791711 -0.0085242332 -4.0009581e-07)
(0.0087842172 -0.02527348 -6.8301323e-07)
(0.0077922907 -0.027815257 -7.507195e-07)
(0.0061846032 -0.032198906 -7.3202781e-07)
(0.0048405858 -0.02975152 -6.887077e-07)
(0.0036420053 -0.026038806 -6.3933069e-07)
(0.0026320592 -0.02137591 -5.9165767e-07)
(0.0018207178 -0.016443759 -5.4759509e-07)
(0.001182041 -0.011508051 -5.0926259e-07)
(0.00068693291 -0.0069288584 -4.7426059e-07)
(0.00030713419 -0.0027810957 -4.4281281e-07)
(2.2197925e-05 0.00077890892 -4.1357775e-07)
(-0.00018320102 0.0040689262 -3.9050935e-07)
(-0.00031611924 0.0072097334 -3.6865657e-07)
(-0.00040089447 0.010108668 -3.4757275e-07)
(-0.00044509056 0.012625237 -3.2754668e-07)
(-0.0004571165 0.014726268 -3.0837622e-07)
(-0.00044374007 0.016429188 -2.8983711e-07)
(-0.00041042551 0.017762146 -2.7166049e-07)
(-0.0003618174 0.018754987 -2.5354559e-07)
(-0.00030197839 0.019433091 -2.3510069e-07)
(-0.00023560298 0.019823284 -2.1571869e-07)
(-0.00016501729 0.019924313 -1.9430868e-07)
(-9.3246001e-05 0.019797666 -1.7397669e-07)
(-2.1102601e-05 0.019100167 -1.5386537e-07)
(0.013305828 0.023591649 -7.7822179e-07)
(0.003149865 -0.0010749749 -1.0935817e-06)
(0.00071867392 0.048494316 -1.0911016e-06)
(-0.0010507136 0.051081983 -1.0147213e-06)
(-0.0026304947 0.06531382 -9.3617241e-07)
(-0.0038193773 0.075583375 -8.490941e-07)
(-0.0044794043 0.082751641 -7.7105143e-07)
(-0.0046824955 0.088754963 -7.0291741e-07)
(-0.0046038552 0.093187796 -6.4326341e-07)
(-0.0043835389 0.095946073 -5.9179365e-07)
(-0.0040945926 0.097514955 -5.4801212e-07)
(-0.0037510868 0.098010255 -5.0207501e-07)
(-0.003402792 0.09776542 -4.7562302e-07)
(-0.0030617007 0.096492903 -4.4688956e-07)
(-0.0027177506 0.094346227 -4.1824092e-07)
(-0.0023820072 0.091926288 -3.9249643e-07)
(-0.0020648772 0.089300891 -3.6859973e-07)
(-0.001767127 0.086555684 -3.4602081e-07)
(-0.0014881599 0.083767852 -3.2439099e-07)
(-0.0012263971 0.080995722 -3.0340639e-07)
(-0.00097968425 0.078275937 -2.8277055e-07)
(-0.00074501336 0.075651722 -2.6211667e-07)
(-0.00052030556 0.073092543 -2.410458e-07)
(-0.00030391518 0.07079629 -2.2017002e-07)
(-9.088648e-05 0.067305731 -2.0007926e-07)
(-0.0023703965 1.174957 -2.5239963e-06)
(-0.0011665265 0.96194967 -2.0002826e-06)
(-0.0012227016 0.86610224 -1.6188968e-06)
(-0.00081657423 0.7737712 -1.3288585e-06)
(-0.00067387813 0.67789693 -1.1115869e-06)
(-0.00056469313 0.58662162 -9.5126688e-07)
(-0.00046982465 0.50826466 -8.3229978e-07)
(-0.00038999136 0.44457667 -7.4390113e-07)
(-0.00032336075 0.39203428 -6.7178972e-07)
(-0.00026723623 0.34717901 -6.1528157e-07)
(-0.00021506942 0.3084663 -5.7066257e-07)
(-0.00016931057 0.27515195 -5.3112561e-07)
(-0.00013080568 0.2466647 -4.9761786e-07)
(-0.00010831006 0.22227822 -4.6766906e-07)
(-8.8369632e-05 0.20133429 -4.4006025e-07)
(-7.2420846e-05 0.18335207 -4.1436271e-07)
(-5.9590448e-05 0.16790271 -3.9012098e-07)
(-4.8827374e-05 0.15462368 -3.6697507e-07)
(-3.9770591e-05 0.14321193 -3.4466076e-07)
(-3.2092705e-05 0.13341783 -3.2297043e-07)
(-2.543894e-05 0.12502398 -3.0171323e-07)
(-1.9197489e-05 0.1178895 -2.8062043e-07)
(-1.3203014e-05 0.11176533 -2.5961566e-07)
(-7.4857638e-06 0.10695404 -2.3858121e-07)
(-2.0326679e-06 0.10092002 -2.1651433e-07)
(-0.012850808 0.091503325 -1.2110191e-06)
(-0.0027217276 0.098781426 -1.2471883e-06)
(-0.00031679598 0.10434026 -1.1988218e-06)
(0.0014510385 0.10590517 -1.1069464e-06)
(0.002987744 0.10794921 -1.0036973e-06)
(0.0041217166 0.10962426 -9.0326378e-07)
(0.0047383443 0.1112668 -8.1337623e-07)
(0.0049039047 0.1127899 -7.3558845e-07)
(0.0047940222 0.11359538 -6.5303836e-07)
(0.0045270548 0.1136604 -6.070155e-07)
(0.0042152357 0.11297089 -5.6525352e-07)
(0.0038828818 0.11132366 -5.2031407e-07)
(0.0035135878 0.10882912 -4.8215688e-07)
(0.0031426014 0.10582622 -4.4901413e-07)
(0.0027825373 0.10256471 -4.195434e-07)
(0.0024385641 0.099171082 -3.9285308e-07)
(0.0021122481 0.09573019 -3.6827756e-07)
(0.0018061022 0.092310812 -3.4529152e-07)
(0.0015192203 0.088964454 -3.2347381e-07)
(0.0012501717 0.085729341 -3.0246644e-07)
(0.00099699461 0.082627009 -2.8190824e-07)
(0.00075754038 0.079688005 -2.6132315e-07)
(0.00052918457 0.076871761 -2.4116877e-07)
(0.00030974928 0.074381899 -2.2045477e-07)
(9.3344662e-05 0.070672316 -2.0018937e-07)
(-0.0087960225 -0.039897935 -7.9601964e-07)
(-0.0076859749 -0.038172406 -8.5836793e-07)
(-0.0064182264 -0.036749611 -8.444581e-07)
(-0.0050794823 -0.033489877 -7.9866099e-07)
(-0.003797995 -0.028654143 -7.4107185e-07)
(-0.0026810003 -0.023099431 -6.8032436e-07)
(-0.0017618859 -0.017347463 -6.2438382e-07)
(-0.0010405086 -0.011738798 -5.7323376e-07)
(-0.00048910418 -0.00671247 -5.2556695e-07)
(-7.6677018e-05 -0.0022575795 -4.8988649e-07)
(0.00022238586 0.001567916 -4.5696841e-07)
(0.00043210071 0.0052902154 -4.2606415e-07)
(0.00056871935 0.0088443201 -3.9807636e-07)
(0.00064943418 0.012029519 -3.7272976e-07)
(0.0006859254 0.014773052 -3.495208e-07)
(0.00068798264 0.017070978 -3.2799773e-07)
(0.00066443886 0.018955738 -3.0784041e-07)
(0.00061908562 0.020468673 -2.8868158e-07)
(0.00055722515 0.021633683 -2.7017703e-07)
(0.00048287999 0.022472571 -2.5195858e-07)
(0.00039937977 0.023006871 -2.3350585e-07)
(0.00030959073 0.023257572 -2.1379819e-07)
(0.0002163492 0.023235906 -1.9554014e-07)
(0.00012270655 0.022987792 -1.7422999e-07)
(3.0017899e-05 0.022137097 -1.5393616e-07)
(-0.0038458218 -0.015169081 -4.9914567e-07)
(-0.003980499 -0.017827991 -5.7058716e-07)
(-0.0039556773 -0.020770744 -5.8339978e-07)
(-0.0037760604 -0.022910685 -5.6637294e-07)
(-0.0034733005 -0.024256793 -5.3762787e-07)
(-0.0031248301 -0.024728037 -5.0676349e-07)
(-0.0027838996 -0.024510922 -4.6915976e-07)
(-0.0024582983 -0.023839155 -4.340955e-07)
(-0.0021564201 -0.022889094 -4.0243163e-07)
(-0.0018828281 -0.021733187 -3.7559266e-07)
(-0.0016346565 -0.020458259 -3.5125975e-07)
(-0.0014055497 -0.019050228 -3.288397e-07)
(-0.001197845 -0.017579037 -3.0828294e-07)
(-0.0010148273 -0.016096699 -2.8943103e-07)
(-0.00085476964 -0.01463902 -2.7184396e-07)
(-0.00071504695 -0.013238152 -2.5515156e-07)
(-0.00059230239 -0.011928976 -2.3941869e-07)
(-0.00048662486 -0.010742699 -2.2419219e-07)
(-0.00039539587 -0.009687448 -2.0912397e-07)
(-0.00031643425 -0.0087647158 -1.9381309e-07)
(-0.00024766293 -0.0079747037 -1.7769546e-07)
(-0.00018697876 -0.0073167964 -1.5997231e-07)
(-0.0001323462 -0.006787223 -1.3986607e-07)
(-8.1489448e-05 -0.0063444812 -1.1312478e-07)
(-3.1829155e-05 -0.0060370605 -7.2874329e-08)
(-0.00048491367 -0.0033071162 -3.2960508e-07)
(-0.00085327774 -0.0042744776 -3.9245826e-07)
(-0.001159919 -0.0053258334 -4.1552459e-07)
(-0.0013772978 -0.006353919 -4.1422399e-07)
(-0.0015259537 -0.0073810172 -3.9977126e-07)
(-0.0015871525 -0.0085501063 -3.78865e-07)
(-0.0015826615 -0.0097793319 -3.5389026e-07)
(-0.0015338457 -0.010833722 -3.2909692e-07)
(-0.0014587084 -0.011713474 -3.0618372e-07)
(-0.0013678072 -0.012423508 -2.8569217e-07)
(-0.0012677272 -0.012985803 -2.6707181e-07)
(-0.0011643911 -0.013406324 -2.4996358e-07)
(-0.0010603456 -0.013695179 -2.3417023e-07)
(-0.00095720187 -0.013832577 -2.1986409e-07)
(-0.00085634818 -0.013842122 -2.0628944e-07)
(-0.00075846922 -0.013764144 -1.9357485e-07)
(-0.00066532565 -0.013624217 -1.8111702e-07)
(-0.00057516194 -0.013437587 -1.6882334e-07)
(-0.00048823033 -0.013213754 -1.56408e-07)
(-0.00040432681 -0.01296003 -1.4348323e-07)
(-0.00032326761 -0.012682239 -1.2943461e-07)
(-0.00024497334 -0.012386186 -1.1332718e-07)
(-0.00016952957 -0.012075575 -9.3756158e-08)
(-9.7289703e-05 -0.011711148 -6.7652974e-08)
(-3.0001025e-05 -0.011250272 -3.4338984e-08)
(0.00045603417 -0.00036631335 -2.2539877e-07)
(0.00034752455 -0.00070158123 -2.7221904e-07)
(0.00019155102 -0.0010941917 -2.9478605e-07)
(2.0977186e-05 -0.0015600081 -2.9991818e-07)
(-0.00015437847 -0.0020454592 -2.9394967e-07)
(-0.00030338974 -0.0025457805 -2.8149221e-07)
(-0.00040644305 -0.0030681524 -2.6545811e-07)
(-0.00046941325 -0.0035589422 -2.4841982e-07)
(-0.00050179706 -0.0040087603 -2.3186955e-07)
(-0.00051395023 -0.0044093901 -2.1644888e-07)
(-0.0005110547 -0.0047634818 -2.0219394e-07)
(-0.0004972246 -0.0050785187 -1.8900336e-07)
(-0.00047459056 -0.0053669837 -1.7677577e-07)
(-0.00044543432 -0.0056566553 -1.6545101e-07)
(-0.00041184949 -0.005943609 -1.5478524e-07)
(-0.00037518888 -0.0061914835 -1.4463629e-07)
(-0.00033644213 -0.0063909933 -1.3473121e-07)
(-0.00029593602 -0.0065397865 -1.248733e-07)
(-0.00025444017 -0.0066374882 -1.1479222e-07)
(-0.00021249461 -0.0066839198 -1.0423919e-07)
(-0.00017053957 -0.0066803937 -9.2680152e-08)
(-0.00012903965 -0.0066302339 -7.9222871e-08)
(-8.8533204e-05 -0.0065384174 -6.3052493e-08)
(-4.9584525e-05 -0.0063867437 -4.2782057e-08)
(-1.3627467e-05 -0.0060995694 -1.9105186e-08)
(0.00055564342 0.00044666655 -1.5701276e-07)
(0.00052154219 0.00044502165 -1.8906156e-07)
(0.00045673428 0.00039054105 -2.0710867e-07)
(0.00037801372 0.00028959997 -2.1365897e-07)
(0.00031004288 0.00014456545 -2.1197797e-07)
(0.00023118885 -2.1352702e-05 -2.0494366e-07)
(0.00015370592 -0.00019897973 -1.9477776e-07)
(8.7033528e-05 -0.00038620803 -1.8324634e-07)
(3.5806791e-05 -0.00057192352 -1.7151279e-07)
(-2.108996e-06 -0.00074558325 -1.6019857e-07)
(-3.2249167e-05 -0.00090544706 -1.4953102e-07)
(-5.4707766e-05 -0.0010494381 -1.3955287e-07)
(-6.9036418e-05 -0.0011761855 -1.3023556e-07)
(-7.6713251e-05 -0.0012891646 -1.2151722e-07)
(-7.9055517e-05 -0.0013886072 -1.1327681e-07)
(-7.7659863e-05 -0.0014718706 -1.0538572e-07)
(-7.337273e-05 -0.0015398586 -9.7681121e-08)
(-6.6966838e-05 -0.0015931956 -8.999983e-08)
(-5.9256565e-05 -0.001632003 -8.214326e-08)
(-5.0617894e-05 -0.0016561714 -7.3877585e-08)
(-4.140514e-05 -0.0016658751 -6.4870924e-08)
(-3.1927881e-05 -0.0016617375 -5.4664909e-08)
(-2.2408492e-05 -0.0016462568 -4.2797346e-08)
(-1.286959e-05 -0.0016184189 -2.8906994e-08)
(-3.3623237e-06 -0.0015380077 -1.3019579e-08)
(0.00046840431 0.0005491435 -1.0893404e-07)