/*--------------------------------*- C++ -*----------------------------------*\
| =========                 |                                                 |
| \\      /  F ield         | OpenFOAM: The Open Source CFD Toolbox           |
|  \\    /   O peration     | Version:  4.0                                   |
|   \\  /    A nd           | Web:      www.OpenFOAM.org                      |
|    \\/     M anipulation  |                                                 |
\*---------------------------------------------------------------------------*/
FoamFile
{
    version     2.0;
    format      ascii;
    class       volScalarField;
    location    "0.22";
    object      nut;
}
// * * * * * * * * * * * * * * * * * * * * * * * * * * * * * * * * * * * * * //

dimensions      [0 2 -1 0 0 0 0];

internalField   nonuniform List<scalar> 
1740
(
2.5912243e-05
1.4067147e-05
1.2287542e-06
2.2731537e-05
7.1231577e-06
1.8236538e-06
1.7441594e-05
5.3778736e-06
2.2808868e-06
1.6569241e-05
4.6789833e-06
2.7340455e-06
1.9167458e-05
4.2667356e-06
3.1183738e-06
1.5856902e-05
3.9962372e-06
3.3652413e-06
1.3514548e-05
3.8273094e-06
3.6339797e-06
1.1977444e-05
3.7182922e-06
3.8617861e-06
1.053392e-05
3.6474497e-06
3.9827707e-06
9.3870249e-06
3.58972e-06
4.1268546e-06
8.5214788e-06
3.5564691e-06
4.2681223e-06
7.8139145e-06
3.5267775e-06
4.3502e-06
7.3142802e-06
3.4930691e-06
4.4086917e-06
6.8610335e-06
3.4833497e-06
4.4896024e-06
6.4982877e-06
3.5029585e-06
4.5414844e-06
6.1839885e-06
3.4983681e-06
4.5609074e-06
5.8696473e-06
3.4936779e-06
4.5919208e-06
5.5592476e-06
3.5055728e-06
4.6291752e-06
5.3345327e-06
3.5446348e-06
4.6298983e-06
5.162036e-06
3.5262268e-06
4.6211462e-06
5.0094964e-06
3.4933214e-06
4.6349754e-06
4.8522013e-06
3.4863061e-06
4.6702287e-06
4.6850317e-06
3.5088217e-06
4.6870122e-06
4.553782e-06
3.5497444e-06
4.6800902e-06
4.4759299e-06
3.5712565e-06
4.6668834e-06
4.39829e-06
3.5404039e-06
4.6446847e-06
4.293683e-06
3.5269844e-06
4.6380536e-06
4.2013984e-06
3.5389971e-06
4.6350882e-06
4.1468869e-06
3.56303e-06
4.5976989e-06
2.8476189e-06
3.4556078e-06
4.303494e-06
1.8380355e-06
2.2070467e-06
4.423337e-06
7.145566e-06
7.334919e-06
6.7122153e-06
6.5236568e-06
6.7285979e-06
6.3653912e-06
5.1757756e-06
5.1161661e-06
4.8677073e-06
4.3150088e-06
4.2437755e-06
4.1085079e-06
3.7320531e-06
3.6890988e-06
3.6268935e-06
3.2723969e-06
3.2529068e-06
3.231309e-06
2.8352978e-06
2.8285282e-06
2.8253005e-06
2.3636104e-06
2.3618141e-06
2.3639053e-06
1.8471536e-06
1.8462682e-06
1.8474919e-06
1.3238683e-06
1.3225503e-06
1.321391e-06
8.6026449e-07
8.5863831e-07
8.5602749e-07
5.0971803e-07
5.0826274e-07
5.0558646e-07
2.8229947e-07
2.8126595e-07
2.7927544e-07
1.5277289e-07
1.5217164e-07
1.5099015e-07
8.671667e-08
8.6417297e-08
8.5818524e-08
5.5766967e-08
5.5637002e-08
5.5378862e-08
4.2641299e-08
4.2599144e-08
4.252145e-08
3.8023999e-08
3.8024088e-08
3.8033978e-08
3.7249414e-08
3.726846e-08
3.7317195e-08
3.8116505e-08
3.8143327e-08
3.8207166e-08
3.9644767e-08
3.9674175e-08
3.9742187e-08
4.1423559e-08
4.1453191e-08
4.152059e-08
4.3292518e-08
4.3321323e-08
4.338613e-08
4.5193927e-08
4.5221453e-08
4.5282922e-08
4.7108838e-08
4.7134904e-08
4.7192809e-08
4.9031285e-08
4.9055834e-08
4.9110165e-08
5.0958637e-08
5.0981667e-08
5.1032499e-08
5.2888315e-08
5.2909852e-08
5.2957296e-08
5.4816844e-08
5.4836928e-08
5.4881107e-08
5.6739662e-08
5.6758342e-08
5.6799387e-08
5.8651177e-08
5.8668505e-08
5.8706547e-08
6.0544845e-08
6.0560875e-08
6.0596046e-08
6.2413264e-08
6.2428054e-08
6.2460487e-08
6.4248265e-08
6.4261872e-08
6.42917e-08
6.6041e-08
6.6053484e-08
6.608084e-08
6.7782061e-08
6.7793482e-08
6.7818502e-08
6.9461638e-08
6.9472058e-08
6.9494882e-08
7.1069749e-08
7.1079233e-08
7.1100005e-08
7.2596567e-08
7.2605184e-08
7.2624054e-08
7.4032847e-08
7.404067e-08
7.4057798e-08
7.5370359e-08
7.5377464e-08
7.5393022e-08
7.660213e-08
7.6608601e-08
7.6622769e-08
7.7722099e-08
7.7728023e-08
7.7740992e-08
7.8723658e-08
7.8729123e-08
7.8741088e-08
7.9596503e-08
7.9601599e-08
7.9612754e-08
8.0320579e-08
8.0325387e-08
8.0335912e-08
8.0855883e-08
8.0860469e-08
8.0870494e-08
8.1122337e-08
8.1126698e-08
8.1136078e-08
8.0900913e-08
8.0904544e-08
8.0910971e-08
4.1808165e-06
4.5041954e-06
6.7195113e-06
8.4419688e-06
5.9855165e-06
6.0286191e-06
4.7182644e-06
4.8197312e-06
4.0589651e-06
4.1635192e-06
3.6234531e-06
3.715559e-06
3.2477128e-06
3.3230529e-06
2.846049e-06
2.9028681e-06
2.3803887e-06
2.4183875e-06
1.8564698e-06
1.8775036e-06
1.3235999e-06
1.3318244e-06
8.5430634e-07
8.5508318e-07
5.0275527e-07
5.0069352e-07
2.7689727e-07
2.7462467e-07
1.4950585e-07
1.4796262e-07
8.5047985e-08
8.4219454e-08
5.5049725e-08
5.470103e-08
4.2433461e-08
4.2357676e-08
3.8064768e-08
3.8125827e-08
3.7400326e-08
3.7521364e-08
3.8309641e-08
3.8451657e-08
3.9848815e-08
3.9993787e-08
4.1624891e-08
4.1765289e-08
4.3485597e-08
4.3618683e-08
4.5376743e-08
4.5501787e-08
4.7280855e-08
4.7397891e-08
4.9192554e-08
4.9301869e-08
5.1109436e-08
5.1211381e-08
5.3029004e-08
5.3123931e-08
5.4947812e-08
5.5036055e-08
5.6861309e-08
5.6943185e-08
5.8763904e-08
5.8839713e-08
6.0649051e-08
6.0719084e-08
6.2509347e-08
6.2573886e-08
6.4336622e-08
6.4395946e-08
6.6122029e-08
6.6176415e-08
6.7856168e-08
6.7905892e-08
6.9529235e-08
6.9574581e-08
7.1131265e-08
7.1172521e-08
7.265245e-08
7.2689922e-08
7.4083571e-08
7.4117578e-08
7.5416429e-08
7.5447313e-08
7.6644085e-08
7.6672208e-08
7.7760504e-08
7.7786248e-08
7.8759092e-08
7.8782845e-08
7.9629539e-08
7.9651684e-08
8.0351747e-08
8.0372634e-08
8.0885605e-08
8.0905528e-08
8.1150596e-08
8.1169759e-08
8.0924622e-08
8.0943057e-08
4.4570557e-10
1.3152155e-08
1.9205935e-07
8.2244712e-07
1.6364306e-06
2.2207569e-06
2.5629848e-06
2.767922e-06
2.9077413e-06
3.0177819e-06
3.1141752e-06
3.2065063e-06
3.2976847e-06
3.3855201e-06
3.4689516e-06
3.5468385e-06
3.6173704e-06
3.6775149e-06
3.7221767e-06
3.7428384e-06
3.7253634e-06
3.6463849e-06
3.4668699e-06
3.1152275e-06
2.3690273e-06
2.1375473e-10
2.6806692e-08
3.5887044e-07
1.3733831e-06
2.5635852e-06
3.36897e-06
3.8381797e-06
4.1400108e-06
4.3684899e-06
4.5658546e-06
4.7511096e-06
4.9335315e-06
5.1154096e-06
5.2943502e-06
5.468635e-06
5.6358575e-06
5.7922116e-06
5.9315878e-06
6.0438985e-06
6.1123753e-06
6.1091294e-06
5.9872261e-06
5.6655251e-06
4.9918973e-06
3.5548441e-06
6.6165156e-10
7.8659306e-08
8.5586842e-07
2.5034737e-06
3.787052e-06
4.5213205e-06
4.9816195e-06
5.3225896e-06
5.6163361e-06
5.8945224e-06
6.1713918e-06
6.4522349e-06
6.736361e-06
7.0217678e-06
7.3064844e-06
7.5874288e-06
7.8590872e-06
8.1129705e-06
8.3345848e-06
8.4997236e-06
8.5680105e-06
8.4702697e-06
8.0826357e-06
7.1637816e-06
5.0997981e-06
3.1186286e-09
2.8477494e-07
2.0593996e-06
3.9983414e-06
5.0380665e-06
5.6246891e-06
6.0297559e-06
6.3696275e-06
6.6941116e-06
7.0211648e-06
7.3608114e-06
7.7153968e-06
8.0806191e-06
8.4541308e-06
8.834588e-06
9.21976e-06
9.6043693e-06
9.9794632e-06
1.0330421e-05
1.0633269e-05
1.0848099e-05
1.0905839e-05
1.0676596e-05
9.8740344e-06
7.6189783e-06
2.3310293e-08
1.136058e-06
3.9834406e-06
5.5906628e-06
6.4418327e-06
6.9626769e-06
7.3460707e-06
7.6916956e-06
8.0400823e-06
8.392822e-06
8.7623533e-06
9.1550841e-06
9.5602779e-06
9.9722396e-06
1.0391743e-05
1.0821909e-05
1.1260621e-05
1.1702275e-05
1.2136964e-05
1.2548134e-05
1.2908741e-05
1.3175703e-05
1.3282734e-05
1.3146608e-05
1.2745112e-05
1.9532414e-07
2.751596e-06
5.8980031e-06
7.700411e-06
8.6142414e-06
9.0311456e-06
9.2279311e-06
9.3656486e-06
9.5049776e-06
9.6637454e-06
9.8498655e-06
1.006941e-05
1.0322541e-05
1.0608492e-05
1.0927232e-05
1.1278158e-05
1.1659406e-05
1.2066827e-05
1.2493482e-05
1.2928618e-05
1.3355521e-05
1.3749166e-05
1.407362e-05
1.4290876e-05
1.4356019e-05
4.3453919e-06
4.3205559e-06
4.3669182e-06
4.479036e-06
4.6542435e-06
4.8821988e-06
5.1538998e-06
5.4672246e-06
5.8239129e-06
6.2250358e-06
6.6695981e-06
7.1542629e-06
7.6728681e-06
8.2174993e-06
8.7802646e-06
9.3548584e-06
9.9367548e-06
1.0522034e-05
1.1106103e-05
1.1682335e-05
1.2240103e-05
1.2762774e-05
1.3225688e-05
1.3602141e-05
1.3840165e-05
9.1072475e-06
9.3651806e-06
9.7637986e-06
1.018112e-05
1.0356069e-05
1.0318904e-05
1.0201585e-05
1.0104538e-05
1.006703e-05
1.0090553e-05
1.0170646e-05
1.0302325e-05
1.0482942e-05
1.0711191e-05
1.098559e-05
1.1303868e-05
1.1662124e-05
1.2054458e-05
1.2472392e-05
1.2903623e-05
1.3329805e-05
1.3724236e-05
1.4049211e-05
1.4265724e-05
1.4329707e-05
6.3999799e-06
6.8089233e-06
7.2391972e-06
7.6379335e-06
7.9385861e-06
8.1542798e-06
8.3443216e-06
8.54871e-06
8.7747958e-06
9.0364017e-06
9.3298558e-06
9.6456457e-06
9.9774597e-06
1.0329887e-05
1.0705212e-05
1.1102604e-05
1.151813e-05
1.1944506e-05
1.2369832e-05
1.2775271e-05
1.313118e-05
1.339158e-05
1.3487128e-05
1.3332106e-05
1.2904437e-05
5.1303358e-06
5.4844725e-06
5.832263e-06
6.1456121e-06
6.4073655e-06
6.6296239e-06
6.8422297e-06
7.0650438e-06
7.3083036e-06
7.5777609e-06
7.8705201e-06
8.1829088e-06
8.5132728e-06
8.8613596e-06
9.2258409e-06
9.6029761e-06
9.9857953e-06
1.0362965e-05
1.0716723e-05
1.1019205e-05
1.1225823e-05
1.1262247e-05
1.0993225e-05
1.0125414e-05
7.7583015e-06
4.4008411e-06
4.6845224e-06
4.9680574e-06
5.23036e-06
5.4647111e-06
5.678376e-06
5.8851726e-06
6.0970898e-06
6.3216792e-06
6.5620783e-06
6.8169855e-06
7.0841277e-06
7.3620569e-06
7.6491304e-06
7.9431386e-06
8.2390989e-06
8.5287582e-06
8.799128e-06
9.0300328e-06
9.1900629e-06
9.2298574e-06
9.0703687e-06
8.5796337e-06
7.5150239e-06
5.2757253e-06
3.8922173e-06
4.1085226e-06
4.3314878e-06
4.544433e-06
4.742278e-06
4.9285544e-06
5.1104459e-06
5.2947779e-06
5.4861869e-06
5.686464e-06
5.8948464e-06
6.1095633e-06
6.3288046e-06
6.5503097e-06
6.7708046e-06
6.98521e-06
7.1856826e-06
7.3602183e-06
7.4904798e-06
7.5484842e-06
7.4917725e-06
7.2562709e-06
6.7440514e-06
5.7911839e-06
3.971355e-06
3.4524111e-06
3.6124986e-06
3.781971e-06
3.9479402e-06
4.1053694e-06
4.2549689e-06
4.4002421e-06
4.5450285e-06
4.6920812e-06
4.8424507e-06
4.9955782e-06
5.150006e-06
5.3039025e-06
5.4549878e-06
5.6002045e-06
5.7352316e-06
5.8538321e-06
5.9467724e-06
6.0001429e-06
5.9929736e-06
5.8941436e-06
5.6586278e-06
5.2221555e-06
4.484678e-06
3.1675691e-06
2.9940511e-06
3.1075871e-06
3.2301843e-06
3.3522185e-06
3.468845e-06
3.5791307e-06
3.6844128e-06
3.7866697e-06
3.8874293e-06
3.9872233e-06
4.0855406e-06
4.1811463e-06
4.272379e-06
4.3572502e-06
4.433352e-06
4.4976283e-06
4.5459752e-06
4.5725232e-06
4.5684794e-06
4.5204965e-06
4.4087664e-06
4.205505e-06
3.8758238e-06
3.3900854e-06
2.8107317e-06
2.4778063e-06
2.5525205e-06
2.6344019e-06
2.7165437e-06
2.7946503e-06
2.8670374e-06
2.9338053e-06
2.9958057e-06
3.0537941e-06
3.1079759e-06
3.1578989e-06
3.2025674e-06
3.2406595e-06
3.2706842e-06
3.2910476e-06
3.3000184e-06
3.2955664e-06
3.274965e-06
3.234089e-06
3.1663947e-06
3.0618654e-06
2.9068235e-06
2.6873295e-06
2.4058e-06
2.1427042e-06
1.9111986e-06
1.954542e-06
2.0027156e-06
2.0509698e-06
2.095872e-06
2.1356228e-06
2.1697253e-06
2.1983963e-06
2.2219486e-06
2.2404432e-06
2.2535454e-06
2.2605733e-06
2.2606571e-06
2.2529115e-06
2.2365686e-06
2.2110628e-06
2.1760209e-06
2.1311021e-06
2.0756456e-06
2.0081742e-06
1.9260684e-06
1.8262417e-06
1.7086623e-06
1.5862236e-06
1.4923536e-06
1.3468349e-06
1.367275e-06
1.3904349e-06
1.4133001e-06
1.433431e-06
1.4493304e-06
1.4603729e-06
1.4664968e-06
1.4678183e-06
1.4643803e-06
1.4560273e-06
1.4424274e-06
1.4231833e-06
1.3979761e-06
1.3667011e-06
1.3295682e-06
1.2871432e-06
1.2402958e-06
1.1900465e-06
1.1373957e-06
1.0834049e-06
1.0300734e-06
9.8274383e-07
9.5365642e-07
9.5384056e-07
8.590099e-07
8.6557595e-07
8.73382e-07
8.8072012e-07
8.8607997e-07
8.8844724e-07
8.8733704e-07
8.8263974e-07
8.7442086e-07
8.6275893e-07
8.4765537e-07
8.290452e-07
8.068632e-07
7.8114682e-07
7.5212013e-07
7.2025944e-07
6.863173e-07
6.5129531e-07
6.1636721e-07
5.8281699e-07
5.5214133e-07
5.2653026e-07
5.0980341e-07
5.0788178e-07
5.2323945e-07
4.9985557e-07
5.0010488e-07
5.0080604e-07
5.0109874e-07
5.0017769e-07
4.9747132e-07
4.9269071e-07
4.8577164e-07
4.7677174e-07
4.6577969e-07
4.5286594e-07
4.3807946e-07
4.2148453e-07
4.0322391e-07
3.8355497e-07
3.6287631e-07
3.4173322e-07
3.2079419e-07
3.0080461e-07
2.8254886e-07
2.6687662e-07
2.5483568e-07
2.4781456e-07
2.4707418e-07
2.4990061e-07
2.7273689e-07
2.7123512e-07
2.6986583e-07
2.682453e-07
2.6599244e-07
2.6283274e-07
2.5862344e-07
2.5333911e-07
2.4702465e-07
2.3974995e-07
2.3158055e-07
2.2257666e-07
2.1279964e-07
2.0236803e-07
1.9145706e-07
1.8030578e-07
1.6921529e-07
1.5853128e-07
1.48617e-07
1.3983031e-07
1.3250905e-07
1.2698264e-07
1.235247e-07
1.2196554e-07
1.1991433e-07
1.4650934e-07
1.4517202e-07
1.4386074e-07
1.4242109e-07
1.4069376e-07
1.3856087e-07
1.3596458e-07
1.3289868e-07
1.293939e-07
1.2549495e-07
1.2124537e-07
1.1668401e-07
1.1183867e-07
1.0677204e-07
1.0157293e-07
9.6357514e-08
9.1266279e-08
8.6455218e-08
8.2084177e-08
7.8313835e-08
7.5229435e-08
7.2898219e-08
7.132075e-08
7.0266005e-08
6.8811846e-08
8.3409225e-08
8.2640401e-08
8.1885873e-08
8.108828e-08
8.0185463e-08
7.9129726e-08
7.7897794e-08
7.6488349e-08
7.4914429e-08
7.319465e-08
7.1347152e-08
6.9389038e-08
6.7338929e-08
6.5219671e-08
6.3073157e-08
6.0951117e-08
5.8913342e-08
5.7023826e-08
5.5345518e-08
5.3935615e-08
5.2837203e-08
5.2022606e-08
5.1464073e-08
5.1051609e-08
5.052277e-08
5.4369826e-08
5.4071069e-08
5.3798201e-08
5.3530774e-08
5.3244325e-08
5.2919044e-08
5.254334e-08
5.2113796e-08
5.1632257e-08
5.1102645e-08
5.0529321e-08
4.9917293e-08
4.927333e-08
4.8607894e-08
4.7933807e-08
4.7273076e-08
4.6649869e-08
4.6089466e-08
4.5616157e-08
4.5251273e-08
4.5012624e-08
4.4868313e-08
4.4791218e-08
4.4724428e-08
4.4553565e-08
4.2311101e-08
4.2301996e-08
4.232898e-08
4.2383897e-08
4.2455804e-08
4.2534336e-08
4.261142e-08
4.2681492e-08
4.2740808e-08
4.2786671e-08
4.2817127e-08
4.2831163e-08
4.2829307e-08
4.2814448e-08
4.2788872e-08
4.2761043e-08
4.2740831e-08
4.2738782e-08
4.2765149e-08
4.2829012e-08
4.2938784e-08
4.3067948e-08
4.3190874e-08
4.3266024e-08
4.3206014e-08
3.8224409e-08
3.836441e-08
3.8544806e-08
3.8760926e-08
3.9006073e-08
3.927294e-08
3.9554479e-08
3.984426e-08
4.0136517e-08
4.0426137e-08
4.0708736e-08
4.0980859e-08
4.1240236e-08
4.1486044e-08
4.171878e-08
4.1939682e-08
4.2153699e-08
4.2366295e-08
4.2582994e-08
4.2808785e-08
4.3048568e-08
4.3279925e-08
4.3477685e-08
4.3603549e-08
4.3574721e-08
3.7682949e-08
3.7886355e-08
3.8129946e-08
3.8409843e-08
3.8720691e-08
3.9056352e-08
3.9410415e-08
3.9776547e-08
4.0148701e-08
4.0521292e-08
4.0889357e-08
4.1248725e-08
4.1596213e-08
4.1929844e-08
4.2249104e-08
4.2553497e-08
4.2845921e-08
4.3130193e-08
4.3410358e-08
4.3689995e-08
4.3972328e-08
4.4237397e-08
4.4460126e-08
4.460206e-08
4.4578716e-08
3.8633673e-08
3.8855494e-08
3.9114977e-08
3.9408485e-08
3.9731292e-08
4.0078001e-08
4.0442879e-08
4.0820126e-08
4.1204092e-08
4.1589458e-08
4.1971399e-08
4.2345746e-08
4.2709171e-08
4.30594e-08
4.3395426e-08
4.3717541e-08
4.4026952e-08
4.432723e-08
4.4622046e-08
4.4914417e-08
4.5206442e-08
4.5479666e-08
4.5708881e-08
4.5854277e-08
4.5827456e-08
4.0176535e-08
4.0396083e-08
4.0650067e-08
4.0935059e-08
4.1246834e-08
4.1580627e-08
4.1931377e-08
4.2293917e-08
4.2663158e-08
4.3034246e-08
4.340271e-08
4.376463e-08
4.4116824e-08
4.4457098e-08
4.4784505e-08
4.5099598e-08
4.5403454e-08
4.5699566e-08
4.5991527e-08
4.6282039e-08
4.6572265e-08
4.684471e-08
4.707387e-08
4.7218386e-08
4.7186633e-08
4.1940735e-08
4.2149866e-08
4.2390296e-08
4.265884e-08
4.2951715e-08
4.3264708e-08
4.3593347e-08
4.3933048e-08
4.4279254e-08
4.4627575e-08
4.4973929e-08
4.5314698e-08
4.5646951e-08
4.5968695e-08
4.6279187e-08
4.6579203e-08
4.6870169e-08
4.7155562e-08
4.7439007e-08
4.7722982e-08
4.8007804e-08
4.8276568e-08
4.8503259e-08
4.8644818e-08
4.8607096e-08
4.3784128e-08
4.3980396e-08
4.4205175e-08
4.4455535e-08
4.4728066e-08
4.5019016e-08
4.53244e-08
4.5640122e-08
4.5962083e-08
4.6286301e-08
4.660905e-08
4.6927023e-08
4.7237553e-08
4.7538894e-08
4.7830523e-08
4.8113373e-08
4.8389767e-08
4.8662812e-08
4.8936304e-08
4.9212562e-08
4.9491129e-08
4.9755397e-08
4.9978624e-08
5.0116007e-08
5.0071092e-08
4.5656719e-08
4.5839943e-08
4.604926e-08
4.6281973e-08
4.6534996e-08
4.6804939e-08
4.708822e-08
4.738114e-08
4.7679979e-08
4.798111e-08
4.8281124e-08
4.8577003e-08
4.8866351e-08
4.9147676e-08
4.9420716e-08
4.968669e-08
4.9948327e-08
5.0208973e-08
5.0472465e-08
5.0740978e-08
5.101334e-08
5.1273003e-08
5.1492238e-08
5.1623931e-08
5.1569917e-08
4.7542578e-08
4.7713328e-08
4.7908062e-08
4.8124294e-08
4.8359202e-08
4.8609707e-08
4.8872542e-08
4.914434e-08
4.9421703e-08
4.9701305e-08
4.9980023e-08
5.0255108e-08
5.0524421e-08
5.0786731e-08
5.1042046e-08
5.1291866e-08
5.1539184e-08
5.1787958e-08
5.2041827e-08
5.2302901e-08
5.2569365e-08
5.2824548e-08
5.3039498e-08
5.3164044e-08
5.3093866e-08
4.9436804e-08
4.9595813e-08
4.977694e-08
4.9977882e-08
5.0196044e-08
5.0428604e-08
5.0672567e-08
5.0924838e-08
5.1182294e-08
5.1441879e-08
5.1700723e-08
5.195633e-08
5.2206804e-08
5.2451172e-08
5.2689715e-08
5.2924227e-08
5.3158006e-08
5.3395352e-08
5.3640028e-08
5.3894032e-08
5.4154951e-08
5.4405905e-08
5.46168e-08
5.4735013e-08
5.4652305e-08
5.1337082e-08
5.1485054e-08
5.1653463e-08
5.1840169e-08
5.2042775e-08
5.2258677e-08
5.2485115e-08
5.2719233e-08
5.2958147e-08
5.3199035e-08
5.3439266e-08
5.3676574e-08
5.3909301e-08
5.4136722e-08
5.4359388e-08
5.4579384e-08
5.4800311e-08
5.502675e-08
5.5262683e-08
5.5509986e-08
5.5765706e-08
5.6012723e-08
5.6219925e-08
5.6332625e-08
5.6239179e-08
5.3240885e-08
5.3378455e-08
5.353492e-08
5.3708293e-08
5.3896351e-08
5.4096683e-08
5.4306734e-08
5.4523862e-08
5.4745395e-08
5.4968728e-08
5.5191442e-08
5.5411488e-08
5.5627437e-08
5.5838806e-08
5.6046407e-08
5.6252609e-08
5.6461304e-08
5.667731e-08
5.6904976e-08
5.7145941e-08
5.7396796e-08
5.764016e-08
5.7843936e-08
5.7951296e-08
5.7846127e-08
5.514471e-08
5.5272442e-08
5.5417643e-08
5.5578463e-08
5.5752838e-08
5.593853e-08
5.613317e-08
5.6334306e-08
5.6539461e-08
5.6746229e-08
5.6952389e-08
5.7156097e-08
5.7356139e-08
5.7552264e-08
5.774554e-08
5.7938618e-08
5.8135679e-08
5.8341807e-08
5.8561558e-08
5.8796513e-08
5.904281e-08
5.9282753e-08
5.9483208e-08
5.9585149e-08
5.9470088e-08
5.7043954e-08
5.716236e-08
5.7296903e-08
5.744586e-08
5.7607312e-08
5.7779182e-08
5.7959268e-08
5.8145291e-08
5.8334958e-08
5.8526043e-08
5.8716512e-08
5.8904715e-08
5.9089642e-08
5.9271267e-08
5.9450906e-08
5.9631484e-08
5.9817466e-08
6.0014199e-08
6.0226412e-08
6.0455679e-08
6.0697699e-08
6.0934394e-08
6.1131518e-08
6.1227685e-08
6.109966e-08
5.8932983e-08
5.9042536e-08
5.9166973e-08
5.9304692e-08
5.9453909e-08
5.9612693e-08
5.9778997e-08
5.9950706e-08
6.0125692e-08
6.0301898e-08
6.0477469e-08
6.0650936e-08
6.0821485e-08
6.0989304e-08
6.1155953e-08
6.1324621e-08
6.1500051e-08
6.168784e-08
6.1892862e-08
6.2116772e-08
6.2354756e-08
6.2588302e-08
6.2781953e-08
6.2871781e-08
6.2729421e-08
6.0805222e-08
6.0906366e-08
6.1021214e-08
6.1148275e-08
6.1285893e-08
6.1432272e-08
6.1585511e-08
6.1743644e-08
6.1904699e-08
6.206678e-08
6.2228196e-08
6.238765e-08
6.2544519e-08
6.2699195e-08
6.2853471e-08
6.3010795e-08
6.317618e-08
6.3355469e-08
6.3553696e-08
6.3772493e-08
6.4006636e-08
6.4237104e-08
6.4427238e-08
6.4510868e-08
6.435551e-08
6.2653247e-08
6.2746408e-08
6.2852157e-08
6.2969112e-08
6.3095733e-08
6.3230351e-08
6.3371201e-08
6.3516458e-08
6.3664295e-08
6.3812966e-08
6.3960937e-08
6.4107075e-08
6.4250935e-08
6.4393108e-08
6.453561e-08
6.4682139e-08
6.4837971e-08
6.5009188e-08
6.520097e-08
6.5414908e-08
6.5645387e-08
6.5872854e-08
6.6059491e-08
6.613703e-08
6.5968843e-08
6.4468877e-08
6.4554467e-08
6.4651594e-08
6.4758973e-08
6.4875176e-08
6.4998655e-08
6.5127769e-08
6.5260825e-08
6.5396133e-08
6.5532089e-08
6.5667305e-08
6.5800805e-08
6.5932311e-08
6.6062608e-08
6.6193924e-08
6.6330197e-08
6.6476956e-08
6.6640509e-08
6.6826176e-08
6.7035493e-08
6.726247e-08
6.7487008e-08
6.7670154e-08
6.7741542e-08
6.7560062e-08
6.6243261e-08
6.6321689e-08
6.641066e-08
6.6508984e-08
6.6615339e-08
6.6728286e-08
6.6846303e-08
6.6967821e-08
6.7091278e-08
6.7215203e-08
6.7338345e-08
6.7459877e-08
6.7579681e-08
6.7698722e-08
6.7819435e-08
6.7945986e-08
6.8084145e-08
6.8240433e-08
6.8420296e-08
6.8625211e-08
6.8848827e-08
6.9070477e-08
6.9250069e-08
6.9315135e-08
6.9120004e-08
6.7966998e-08
6.8038671e-08
6.8119954e-08
6.8209744e-08
6.8306815e-08
6.8409835e-08
6.8517392e-08
6.8628034e-08
6.8740316e-08
6.8852893e-08
6.8964645e-08
6.9074881e-08
6.9183636e-08
6.9292046e-08
6.9402739e-08
6.9520102e-08
6.9650127e-08
6.979954e-08
6.9973898e-08
7.0174605e-08
7.0394998e-08
7.0613797e-08
7.0789786e-08
7.0848386e-08
7.0639178e-08
6.9630295e-08
6.9695627e-08
6.9769693e-08
6.9851475e-08
6.9939835e-08
7.0033541e-08
7.0131283e-08
7.0231717e-08
7.0333511e-08
7.0435434e-08
7.0536488e-08
7.0636112e-08
7.0734484e-08
7.0832896e-08
7.0934164e-08
7.1042874e-08
7.1165233e-08
7.1308153e-08
7.1477294e-08
7.1673994e-08
7.1891249e-08
7.2107206e-08
7.2279494e-08
7.2331247e-08
7.2102147e-08
7.1223203e-08
7.1282619e-08
7.1349954e-08
7.1424265e-08
7.1504504e-08
7.1589524e-08
7.1678114e-08
7.1769029e-08
7.186104e-08
7.1953025e-08
7.2044096e-08
7.2133814e-08
7.2222487e-08
7.2311557e-08
7.2404006e-08
7.250461e-08
7.2619767e-08
7.2756559e-08
7.2920736e-08
7.3113567e-08
7.3327704e-08
7.3540706e-08
7.3708967e-08
7.3753254e-08
7.3508704e-08
7.2735945e-08
7.2789888e-08
7.2850996e-08
7.29184e-08
7.2991128e-08
7.3068119e-08
7.3148249e-08
7.3230363e-08
7.331333e-08
7.3396123e-08
7.347796e-08
7.355851e-08
7.3638201e-08
7.3718609e-08
7.3802868e-08
7.389592e-08
7.4004335e-08
7.4135337e-08
7.4294747e-08
7.4483752e-08
7.4694662e-08
7.4904434e-08
7.5068185e-08
7.5104161e-08
7.4842569e-08
7.415934e-08
7.4208276e-08
7.426369e-08
7.432478e-08
7.4390644e-08
7.4460298e-08
7.4532697e-08
7.4606771e-08
7.4681472e-08
7.4755865e-08
7.4829259e-08
7.4901422e-08
7.4972887e-08
7.5045349e-08
7.5122073e-08
7.5208142e-08
7.5310262e-08
7.5435769e-08
7.5590521e-08
7.5775605e-08
7.5982994e-08
7.6189056e-08
7.634769e-08
7.6374621e-08
7.6094458e-08
7.5485235e-08
7.552966e-08
7.5579947e-08
7.5635353e-08
7.569504e-08
7.5758093e-08
7.5823538e-08
7.5890378e-08
7.5957644e-08
7.6024478e-08
7.6090271e-08
7.6154876e-08
7.6218919e-08
7.6284192e-08
7.6354064e-08
7.6433725e-08
7.6529978e-08
7.6650222e-08
7.6800307e-08
7.6981191e-08
7.7184521e-08
7.7386126e-08
7.7538864e-08
7.7556225e-08
7.7253027e-08
7.6706737e-08
7.6747179e-08
7.679294e-08
7.6843331e-08
7.689757e-08
7.6954801e-08
7.7014115e-08
7.7074579e-08
7.713529e-08
7.7195458e-08
7.7254544e-08
7.7312472e-08
7.7369942e-08
7.7428821e-08
7.749255e-08
7.7566383e-08
7.7657167e-08
7.7772298e-08
7.7917557e-08
7.8093729e-08
7.829214e-08
7.8488159e-08
7.8633858e-08
7.8640866e-08
7.8315734e-08
7.7817853e-08
7.7854864e-08
7.7896729e-08
7.7942804e-08
7.7992358e-08
7.8044587e-08
7.8098633e-08
7.8153619e-08
7.8208696e-08
7.8263133e-08
7.8316445e-08
7.8368617e-08
7.84204e-08
7.8473709e-08
7.853202e-08
7.86006e-08
7.8686271e-08
7.8796344e-08
7.8936444e-08
7.9107116e-08
7.9299367e-08
7.948819e-08
7.9625274e-08
7.962151e-08
7.9281306e-08
7.8812006e-08
7.8846149e-08
7.8884761e-08
7.8927236e-08
7.8972884e-08
7.9020945e-08
7.9070606e-08
7.9121031e-08
7.9171417e-08
7.9221075e-08
7.9269567e-08
7.931692e-08
7.9363918e-08
7.9412491e-08
7.946611e-08
7.9529994e-08
7.9610858e-08
7.971583e-08
7.9850264e-08
8.0014358e-08
8.0198751e-08
8.037819e-08
8.050433e-08
8.048821e-08
8.0135136e-08
7.9678867e-08
7.9710692e-08
7.9746679e-08
7.9786255e-08
7.9828764e-08
7.9873481e-08
7.9919625e-08
7.9966393e-08
8.0013011e-08
8.0058823e-08
8.0103431e-08
8.0146886e-08
8.0189982e-08
8.0234637e-08
8.0284268e-08
8.0343985e-08
8.0420305e-08
8.052006e-08
8.0648194e-08
8.0804397e-08
8.0978732e-08
8.1146053e-08
8.1258139e-08
8.1226695e-08
8.0858223e-08
8.0398266e-08
8.0428273e-08
8.0462215e-08
8.0499555e-08
8.0539651e-08
8.0581802e-08
8.0625251e-08
8.0669215e-08
8.0712935e-08
8.0755779e-08
8.079738e-08
8.0837809e-08
8.0877842e-08
8.0919357e-08
8.0965678e-08
8.102172e-08
8.1093697e-08
8.1188012e-08
8.130906e-08
8.1455924e-08
8.1618141e-08
8.1770452e-08
8.1865119e-08
8.1815554e-08
8.1432933e-08
8.0929958e-08
8.0958559e-08
8.0990968e-08
8.1026695e-08
8.1065038e-08
8.1105325e-08
8.114682e-08
8.1188744e-08
8.1230343e-08
8.1271004e-08
8.1310394e-08
8.1348583e-08
8.138631e-08
8.1425441e-08
8.1469165e-08
8.1522087e-08
8.1590018e-08
8.1678845e-08
8.1792307e-08
8.1928758e-08
8.2077087e-08
8.2211916e-08
8.2286435e-08
8.2217306e-08
8.1827329e-08
8.119322e-08
8.1220704e-08
8.1252032e-08
8.1286877e-08
8.1324061e-08
8.1363053e-08
8.1403179e-08
8.1443668e-08
8.1483758e-08
8.1522856e-08
8.156066e-08
8.1597204e-08
8.1633183e-08
8.167062e-08
8.1712534e-08
8.1762991e-08
8.1827292e-08
8.1910804e-08
8.2016615e-08
8.2142382e-08
8.2276074e-08
8.2392325e-08
8.2445761e-08
8.2357698e-08
8.1965102e-08
8.0965595e-08
8.0992093e-08
8.102294e-08
8.1058481e-08
8.1095178e-08
8.1133241e-08
8.1172332e-08
8.1211726e-08
8.125066e-08
8.128856e-08
8.1325128e-08
8.1360279e-08
8.1394684e-08
8.1430982e-08
8.1471978e-08
8.1520742e-08
8.1581948e-08
8.166055e-08
8.1759286e-08
8.1876305e-08
8.1996473e-08
8.209549e-08
8.2130166e-08
8.2028603e-08
8.1656915e-08
)
;

boundaryField
{
    Walls
    {
        type            nutUWallFunction;
        Cmu             0.09;
        kappa           0.41;
        E               9.8;
        value           uniform 0;
    }
    Inlet
    {
        type            calculated;
        value           nonuniform List<scalar> 3(2.2578246e-05 2.2336613e-05 7.7530716e-07);
    }
    Outlet
    {
        type            calculated;
        value           nonuniform List<scalar> 
86
(
0
0
0
0
0
0
0
0
0
0
0
0
0
0
0
0
0
0
0
0
0
0
0
0
0
0
0
0
0
0
1.3840165e-05
1.4329707e-05
1.2904437e-05
0
0
0
0
2.8107317e-06
2.1427042e-06
1.4923536e-06
0
0
0
1.1991433e-07
6.8811846e-08
5.052277e-08
4.4553565e-08
4.3206014e-08
4.3574721e-08
4.4578716e-08
4.5827456e-08
4.7186633e-08
4.8607096e-08
5.0071092e-08
5.1569917e-08
5.3093866e-08
5.4652305e-08
5.6239179e-08
5.7846127e-08
5.9470088e-08
6.109966e-08
6.2729421e-08
6.435551e-08
6.5968843e-08
6.7560062e-08
0
0
0
0
0
0
0
0
0
0
0
0
0
0
0
0
0
0
0
1.2745112e-05
1.4356019e-05
)
;
    }
    Front
    {
        type            wedge;
    }
    Back
    {
        type            wedge;
    }
    defaultFaces
    {
        type            empty;
    }
}


// ************************************************************************* //
