/*--------------------------------*- C++ -*----------------------------------*\
| =========                 |                                                 |
| \\      /  F ield         | OpenFOAM: The Open Source CFD Toolbox           |
|  \\    /   O peration     | Version:  4.0                                   |
|   \\  /    A nd           | Web:      www.OpenFOAM.org                      |
|    \\/     M anipulation  |                                                 |
\*---------------------------------------------------------------------------*/
FoamFile
{
    version     2.0;
    format      ascii;
    class       volScalarField;
    location    "0.22";
    object      omega;
}
// * * * * * * * * * * * * * * * * * * * * * * * * * * * * * * * * * * * * * //

dimensions      [0 0 -1 0 0 0 0];

internalField   nonuniform List<scalar> 
1740
(
62.906665
643.73677
14919.969
180.48541
1365.0174
15030.614
307.2012
1917.3153
15116.017
411.15101
2277.5983
15200.359
509.4353
2586.7592
15273.046
625.46517
2872.5775
15320.654
744.81213
3074.5976
15371.002
843.4883
3256.2801
15415.127
962.29456
3434.167
15438.92
1077.0237
3548.703
15469.03
1180.6079
3677.5933
15493.437
1279.6181
3774.5265
15507.271
1350.2539
3804.6042
15521.941
1428.2445
3856.0604
15534.827
1487.4673
3979.6424
15544.267
1541.1195
3993.7913
15551.439
1602.412
4001.372
15556.954
1683.1801
4046.3897
15561.328
1730.2234
4169.0544
15562.684
1754.1949
4140.5695
15562.127
1777.4245
4057.2709
15564.608
1814.8606
4040.3325
15572.865
1874.3518
4094.1829
15576.609
1922.316
4191.4155
15573.986
1925.1093
4235.9732
15570.795
1928.6377
4153.2622
15566.676
1952.8291
4118.0229
15567.045
1985.4174
4146.177
15566.723
2011.1576
4183.0757
15557.997
2131.2512
4286.9039
15500.804
3198.2418
4557.2816
10721.59
3320.0022
4221.0336
5912.4017
1568.8204
1856.4757
2151.7819
825.15409
900.60021
958.56887
478.49216
496.67508
506.78324
301.35943
305.08017
305.2255
203.08785
203.41406
202.01068
144.99409
144.67277
143.43473
109.20644
108.87637
108.03674
86.80134
86.571516
86.053742
72.956899
72.816963
72.515484
64.792096
64.714886
64.550182
60.3494
60.31262
60.23217
58.194502
58.182908
58.152539
57.278115
57.275524
57.262777
56.684959
56.682352
56.673156
56.189151
56.188875
56.183859
55.728363
55.730995
55.730056
55.292976
55.297511
55.299312
54.903387
54.908083
54.910673
54.579257
54.583014
54.585108
54.32391
54.326485
54.327691
54.127763
54.129342
54.129751
53.976812
53.977675
53.977511
53.858087
53.858475
53.857942
53.761555
53.761639
53.760888
53.680112
53.680008
53.67914
53.608952
53.608734
53.607816
53.544897
53.544615
53.543688
53.485867
53.485552
53.484644
53.43051
53.430183
53.429309
53.377943
53.377616
53.376787
53.327566
53.327248
53.326469
53.278889
53.278585
53.277859
53.231311
53.231024
53.230351
53.18374
53.183472
53.182853
53.133867
53.133619
53.133051
53.076762
53.076535
53.076018
53.002277
53.002071
53.001605
52.890438
52.890253
52.889839
52.703777
52.703617
52.703258
52.375391
52.375259
52.374966
51.79176
51.791665
51.791455
50.770419
50.770374
50.770278
49.035048
49.035071
49.035129
46.195556
46.195663
46.195907
41.750942
41.75113
41.751539
35.149033
35.149189
35.149281
25.941367
25.940471
25.93553
13.853753
13.847124
13.814641
13481.93
13535.931
5983.7537
5324.7167
2081.6966
1879.8496
922.08504
853.33427
490.3466
463.49434
297.13711
285.30067
197.74039
192.02677
141.07877
138.14245
106.70767
105.12487
85.298276
84.417145
72.089473
71.59298
64.317889
64.042337
60.114957
59.969436
58.101911
58.031483
57.235998
57.193195
56.65373
56.621169
56.169916
56.14404
55.720561
55.699784
55.293083
55.276583
54.906382
54.893488
54.581787
54.5718
54.324841
54.317071
54.127165
54.121012
53.975111
53.970108
53.855698
53.851512
53.758787
53.755193
53.677174
53.674023
53.60598
53.603176
53.541977
53.539455
53.483054
53.48077
53.427835
53.425758
53.375425
53.373532
53.325213
53.323486
53.276704
53.275129
53.229293
53.227859
53.181886
53.180582
53.132171
53.130989
53.075221
53.074154
53.000888
52.999932
52.889204
52.888359
52.702711
52.701985
52.374521
52.373935
51.791141
51.790734
50.770141
50.769975
49.035227
49.035382
46.196293
46.196822
41.752187
41.753009
35.149958
35.150684
25.935285
25.935266
13.810327
13.809396
12058.191
2043.4928
696.57332
368.96115
280.90067
256.44374
249.05848
245.71762
242.99636
240.12803
237.02538
233.67226
230.07472
226.26887
222.22925
217.91034
213.23495
208.06362
202.14042
195.00335
185.83566
173.21167
154.64049
125.54732
75.34447
12058.133
2037.5486
697.75894
374.59679
282.9977
254.05463
242.40252
235.03334
228.72534
222.67319
216.69913
210.76874
204.86621
198.99196
193.12175
187.23704
181.30135
175.24103
168.91017
162.03336
154.10742
144.21362
130.61792
109.76757
72.712131
12058.179
2030.516
718.55516
430.56897
359.1476
332.1794
314.79067
300.25598
286.95665
274.31445
262.22303
250.60886
239.50534
228.86729
218.63825
208.80722
199.36051
190.26416
181.43696
172.72052
163.81793
154.15155
142.49231
125.81788
94.779012
12058.526
2031.6964
817.37625
608.53792
549.66813
512.49285
479.5131
449.03557
421.0937
394.82202
370.18233
347.21215
326.02529
306.17898
287.51531
270.03527
253.72495
238.55077
224.45998
211.36496
199.12626
187.50726
176.02264
163.34176
143.65069
12061.528
2150.7776
1232.0746
1078.0501
989.27218
906.45731
828.00982
756.63237
692.79798
633.81683
579.58139
530.04818
486.0319
445.8796
409.02475
375.47488
345.08984
317.68998
293.08819
271.08292
251.46998
234.06265
218.72696
205.60988
195.79082
12087.273
3818.4675
2806.2602
2402.6832
2094.7598
1826.1283
1590.8257
1387.5373
1211.5968
1059.7678
929.00912
816.49541
719.68527
636.14736
563.93701
501.54674
447.68006
401.20369
361.13465
326.62638
296.95498
271.52807
249.91998
232.21355
219.65676
10358.691
7897.4105
6092.5779
4784.5212
3816.5203
3082.6052
2514.0634
2066.972
1712.0172
1428.1634
1199.6682
1014.6544
864.13088
741.14217
640.17285
556.8499
487.72964
430.11143
381.87528
341.34913
307.20953
278.428
254.26311
234.57577
220.65641
4084.874
3303.4047
2841.1277
2466.5209
2147.7413
1867.3748
1622.6725
1411.0503
1229.6341
1074.1634
940.84148
826.24694
727.39228
642.10022
568.52417
505.06837
450.35477
403.20022
362.5903
327.65632
297.65822
271.99206
250.21828
232.40359
219.77349
1593.5079
1399.1947
1269.0612
1160.8653
1058.6905
961.47244
872.83152
793.91237
722.03476
656.9327
598.72066
547.27021
500.07324
456.97748
417.85373
382.50021
350.67532
322.13136
296.62126
273.90769
253.76933
236.0124
220.49567
207.34904
197.58283
770.82487
707.58598
661.38118
620.85103
580.57169
540.53212
503.06689
468.56754
436.60702
407.15378
380.2561
355.64192
332.62771
311.1014
291.04033
272.41895
255.19368
239.30683
224.68967
211.25764
198.89119
187.38559
176.29809
164.37162
146.06247
434.15584
410.39674
391.70579
374.53866
356.87521
338.68232
320.92481
304.0367
288.09124
273.13883
259.18997
246.1205
233.71864
221.92274
210.75405
200.19795
190.23294
180.82191
171.90143
163.35647
154.95994
146.22556
136.01711
121.36685
92.93463
273.02831
262.65104
254.03103
245.91877
237.46546
228.60309
219.69075
210.99284
202.62622
194.64589
187.05924
179.81514
172.83566
166.08604
159.56862
153.27737
147.19074
141.26282
135.40655
129.45804
123.10096
115.70191
105.93108
90.806286
62.657428
186.24024
181.1868
176.81221
172.63001
168.26279
163.64094
158.89611
154.16773
149.54189
145.06224
140.73789
136.54794
132.45869
128.44837
124.5056
120.61324
116.73831
112.82029
108.75192
104.3453
99.269003
92.927275
84.209914
70.876647
47.182552
135.19243
132.54613
130.18072
127.89121
125.50249
122.96263
120.3167
117.63293
114.96419
112.34052
109.77044
107.24551
104.74863
102.2634
99.77339
97.25434
94.664685
91.933383
88.942372
85.501164
81.311893
75.92952
68.756025
59.281572
48.595994
103.53387
102.06979
100.72365
99.405778
98.031157
96.566083
95.023754
93.436494
91.833993
90.235367
88.64773
87.067729
85.485417
83.887391
82.255572
80.561455
78.75734
76.764211
74.456207
71.643334
68.059755
63.381034
57.341435
50.164226
43.793301
83.522439
82.675095
81.873161
81.076366
80.24371
79.35539
78.414147
77.435178
76.434848
75.425257
74.411995
73.394181
72.365567
71.314887
70.223554
69.060151
67.771306
66.268927
64.414549
62.004106
58.76259
54.371173
48.579976
41.513916
33.402653
71.077721
70.57201
70.076349
69.573543
69.044795
68.480087
67.880095
67.252596
66.607248
65.952253
65.292423
64.628449
63.956358
63.266124
62.538521
61.738921
60.807194
59.643298
58.089133
55.909463
52.778146
48.279542
41.92683
33.102208
20.144644
63.745751
63.44058
63.127556
62.800197
62.451024
62.076284
61.677278
61.259008
60.828089
60.390887
59.952063
59.513503
59.072727
58.620119
58.135101
57.579289
56.885305
55.940628
54.566771
52.495848
49.349237
44.626372
37.707467
27.818908
13.731458
59.802902
59.618997
59.417805
59.197336
58.955673
58.6926
58.410194
58.112478
57.804661
57.492283
57.180235
56.871599
56.565625
56.252653
55.910505
55.497337
54.939789
54.115823
52.832646
50.801587
47.61593
42.744561
35.563409
25.440656
11.870132
57.941008
57.828838
57.693993
57.536146
57.355751
57.154227
56.933941
56.6982
56.451211
56.197964
55.943726
55.692677
55.447906
55.199717
54.92476
54.578679
54.084045
53.313209
52.066412
50.046297
46.841791
41.928517
34.727282
24.776698
12.088856
57.132407
57.051739
56.950211
56.827508
56.683913
56.520305
56.338146
56.139442
55.926702
55.702674
55.47142
55.237399
55.008568
54.777609
54.522588
54.199578
53.730515
52.985532
51.759409
49.741019
46.538034
41.645392
34.525365
24.832979
12.830992
56.572961
56.506971
56.421807
56.316777
56.191768
56.047178
55.883966
55.703873
55.509862
55.306487
55.099545
54.894206
54.692197
54.490185
54.264331
53.969426
53.52685
52.8067
51.604816
49.617831
46.430568
41.574631
34.529527
24.976216
13.270444
56.10357
56.046097
55.970093
55.87483
55.760297
55.62725
55.477406
55.313762
55.140758
54.963947
54.788842
54.618942
54.453107
54.281885
54.085019
53.815907
53.395928
52.696056
51.51397
49.54968
46.389264
41.562639
34.556408
25.047743
13.364469
55.665163
55.614091
55.545253
55.458393
55.354236
55.234531
55.102135
54.960999
54.815863
54.671535
54.531746
54.397602
54.265481
54.123685
53.951605
53.703437
53.301208
52.616979
51.450138
49.503106
46.364419
41.555835
34.561766
25.045814
13.297263
55.24757
55.203543
55.143677
55.068402
54.979197
54.878488
54.769503
54.65601
54.54187
54.430391
54.323483
54.220524
54.116638
53.999843
53.846542
53.614305
53.225494
52.553071
51.397747
49.463657
46.340997
41.544414
34.553939
25.027773
13.304052
54.87021
54.834471
54.785897
54.725303
54.654398
54.57556
54.491604
54.405473
54.319869
54.236781
54.15687
54.078538
53.996322
53.898034
53.759713
53.539456
53.160669
52.497138
51.350619
49.426625
46.316855
41.531388
34.547907
25.029207
13.318934
54.553846
54.526381
54.489286
54.443387
54.390172
54.331554
54.269644
54.206509
54.143897
54.082895
54.023427
53.963399
53.897123
53.812453
53.685791
53.474069
53.102712
52.445939
51.306353
49.390769
46.292703
41.519938
34.54845
25.041186
13.345574
54.303486
54.283016
54.25564
54.222019
54.183267
54.140758
54.095955
54.05023
54.004666
53.959779
53.91507
53.868188
53.813355
53.738471
53.62007
53.415062
53.049371
52.397836
51.263859
49.355563
46.268663
41.510709
34.558048
25.07373
13.43316
54.110699
54.095511
54.075454
54.051004
54.02293
53.992166
53.959686
53.926375
53.892877
53.859352
53.825046
53.787464
53.740779
53.672928
53.560544
53.360676
52.999302
52.351874
51.222495
49.320532
46.244058
41.501831
34.572523
25.11762
13.545783
53.962119
53.950673
53.935784
53.917777
53.897168
53.874578
53.850646
53.825934
53.800802
53.775181
53.748158
53.717141
53.676273
53.613516
53.505602
53.309814
52.951611
52.307416
51.181823
49.285271
46.218024
41.490601
34.585593
25.168121
13.633292
53.84514
53.836275
53.824935
53.81134
53.795835
53.778834
53.760757
53.741957
53.722607
53.702492
53.680589
53.65424
53.61756
53.558523
53.45391
53.261093
52.905557
52.263985
51.141536
49.249547
46.190095
41.475327
34.592596
25.221243
13.8255
53.749952
53.742868
53.733958
53.723377
53.711361
53.69819
53.684141
53.669433
53.654117
53.637879
53.61962
53.596635
53.563012
53.506726
53.40459
53.214052
52.86076
52.221249
51.101416
49.213258
46.160132
41.454585
34.583936
25.226139
13.846897
53.669593
53.663758
53.65654
53.648049
53.638452
53.627943
53.61671
53.60488
53.592427
53.578968
53.563351
53.542831
53.511477
53.457257
53.357002
53.168211
52.816626
52.178902
51.061287
49.176372
46.128448
41.429875
34.566755
25.216143
13.852171
53.599346
53.594415
53.588404
53.581398
53.573519
53.564905
53.555685
53.545928
53.535553
53.52413
53.510468
53.491793
53.462152
53.409508
53.310702
53.123267
52.773026
52.136786
51.02102
49.138863
46.095411
41.402966
34.547385
25.209983
13.886675
53.536089
53.531834
53.526714
53.520796
53.514173
53.506947
53.499207
53.490982
53.482154
53.472259
53.460079
53.442813
53.414493
53.363071
53.265392
53.079016
52.72984
52.094836
50.980553
49.100772
46.061433
41.375328
34.529048
25.205794
13.905915
53.477775
53.474046
53.469607
53.464514
53.458839
53.452661
53.446041
53.438982
53.431338
53.42262
53.411589
53.395424
53.368141
53.317681
53.220884
53.035331
52.68697
52.052895
50.939871
49.062202
46.026828
41.347495
34.511876
25.203699
13.972288
53.423072
53.419766
53.415866
53.411419
53.406485
53.401123
53.395377
53.38923
53.382517
53.37473
53.364612
53.349327
53.322873
53.273178
53.177076
52.992156
52.644409
52.011037
50.899059
49.023296
45.991826
41.319724
34.496358
25.205664
13.99113
53.371109
53.368156
53.364697
53.360772
53.356433
53.351727
53.346683
53.34127
53.335308
53.328276
53.318901
53.304332
53.278552
53.229474
53.133921
52.949483
52.602186
51.969342
50.858243
48.984195
45.956507
41.291572
34.479524
25.200013
13.98537
53.321295
53.318642
53.315553
53.312064
53.308218
53.304053
53.299588
53.294781
53.289441
53.283035
53.274277
53.260303
53.23508
53.186505
53.091385
52.907307
52.560325
51.927853
50.81744
48.944946
45.9208
41.262784
34.462287
25.196878
13.989282
53.273143
53.270754
53.267984
53.264866
53.261438
53.25773
53.253754
53.249459
53.244646
53.23877
53.230535
53.217064
53.192308
53.144145
53.049367
52.865551
52.518775
51.886548
50.776666
48.905527
45.884639
41.233344
34.445232
25.197961
14.002792
53.226058
53.223902
53.221413
53.218618
53.215552
53.212239
53.208685
53.204832
53.200472
53.195053
53.187269
53.174229
53.149871
53.102051
53.007542
52.823909
52.477249
51.84516
50.735667
48.865687
45.84779
41.203145
34.428416
25.201758
14.016094
53.178951
53.177006
53.174766
53.172258
53.169511
53.166546
53.163362
53.159896
53.155934
53.150916
53.143526
53.130863
53.106847
53.059314
52.965016
52.781503
52.434886
51.80284
50.693608
48.824596
45.809436
41.171302
34.410384
25.206419
13.977484
53.129515
53.127762
53.125749
53.1235
53.12104
53.118386
53.115533
53.112413
53.108805
53.104144
53.097105
53.084773
53.061055
53.013765
52.919631
52.736189
52.389555
51.757477
50.648399
48.780204
45.76754
41.135689
34.388513
25.207391
13.993411
53.072827
53.071253
53.06945
53.067439
53.065242
53.062873
53.060323
53.057518
53.054233
53.049895
53.043172
53.031138
53.007682
52.9606
52.866593
52.683181
52.336488
51.704336
50.595374
48.727971
45.717866
41.09256
34.359728
25.199229
13.907109
52.998746
52.997343
52.99574
52.993955
52.992008
52.98991
52.987645
52.985137
52.982155
52.978119
52.971688
52.959927
52.936706
52.889802
52.795894
52.612485
52.265716
51.6335
50.524737
48.658345
45.651197
41.032836
34.314122
25.17602
13.901827
52.887315
52.886083
52.884679
52.883121
52.881425
52.879597
52.877618
52.875406
52.872723
52.868982
52.862834
52.85133
52.828327
52.781581
52.687751
52.504334
52.15751
51.525334
50.417049
48.55228
45.54916
40.939068
34.234919
25.117872
13.869949
52.701092
52.700044
52.698857
52.697545
52.696121
52.694587
52.692919
52.691025
52.688663
52.685234
52.679379
52.668136
52.645347
52.598752
52.504998
52.321597
51.974816
51.342953
50.235795
48.373996
45.377365
40.779358
34.094268
25.001373
13.783153
52.37322
52.37239
52.371459
52.37044
52.369342
52.368162
52.366866
52.365354
52.36337
52.360304
52.354782
52.343831
52.321279
52.274856
52.18122
51.997944
51.65148
51.020575
49.915943
48.059943
45.075125
40.498487
33.847285
24.799317
13.579598
51.790249
51.789698
51.789098
51.78846
51.787788
51.787071
51.786265
51.785252
51.783759
51.781157
51.776056
51.765473
51.743228
51.697062
51.603688
51.420841
51.075363
50.446841
49.347645
47.503111
44.540599
40.003756
33.416614
24.455209
13.30032
50.769798
50.769626
50.769475
50.769357
50.769271
50.769197
50.769074
50.768759
50.767945
50.765977
50.761453
50.751385
50.729607
50.683912
50.591168
50.409479
50.066473
49.443315
48.35535
46.533139
43.612497
39.149295
32.682499
23.90095
12.983834
49.03561
49.035934
49.036385
49.036978
49.03771
49.038549
49.039405
49.040091
49.040245
49.039172
49.035471
49.026183
49.005196
48.960437
48.869136
48.690171
48.3527
47.740787
46.675014
44.894878
42.050414
37.71804
31.462569
22.997152
12.499984
46.197503
46.198382
46.19956
46.201078
46.202916
46.205025
46.207267
46.209372
46.210873
46.211032
46.20851
46.200452
46.180863
46.137982
46.049792
45.876674
45.550618
44.96085
43.936881
42.232904
39.521679
35.411414
29.50596
21.55212
11.72254
41.753958
41.755163
41.757004
41.759625
41.762834
41.766559
41.770593
41.774517
41.777697
41.779371
41.778422
41.772221
41.755004
41.715781
41.633987
41.47258
41.168482
40.619767
39.670616
38.098308
35.609863
31.860152
26.508412
19.34976
10.556386
35.151213
35.15192
35.15407
35.158317
35.163044
35.168411
35.174239
35.179933
35.184653
35.187714
35.188433
35.184489
35.170567
35.137946
35.068618
34.929102
34.664218
34.1865
33.363181
32.006175
29.87165
26.678626
22.159848
16.173938
8.9050456
25.934405
25.933602
25.936454
25.94605
25.952765
25.959008
25.965546
25.971833
25.976951
25.980415
25.981977
25.979385
25.968301
25.945823
25.898034
25.795338
25.594363
25.229765
24.602801
23.574301
21.966713
19.580778
16.237009
11.85929
6.6048539
13.80762
13.806332
13.812528
13.835263
13.844603
13.849727
13.854391
13.858716
13.862105
13.864299
13.86507
13.862195
13.853233
13.842697
13.82272
13.771312
13.663094
13.463482
13.119968
12.558038
11.684757
10.397568
8.6101895
6.301177
3.5956919
)
;

boundaryField
{
    Walls
    {
        Cmu             0.09;
        kappa           0.41;
        E               9.8;
        beta1           0.075;
        type            omegaWallFunction;
        value           nonuniform List<scalar> 
38
(
12058.191
12058.133
12058.179
12058.526
12061.528
12087.273
13481.93
13535.931
14919.969
15030.614
15116.017
15200.359
15273.046
15320.654
15371.002
15415.127
15438.92
15469.03
15493.437
15507.271
15521.941
15534.827
15544.267
15551.439
15556.954
15561.328
15562.684
15562.127
15564.608
15572.865
15576.609
15573.986
15570.795
15566.676
15567.045
15566.723
15557.997
15500.804
)
;
    }
    Inlet
    {
        type            turbulentMixingLengthDissipationRateInlet;
        mixingLength    0.03;
        phi             phi;
        k               k;
        value           nonuniform List<scalar> 3(0.0040062301 0.0047517357 0.004782852);
    }
    Outlet
    {
        type            inletOutlet;
        inletValue      uniform 1e-05;
        value           nonuniform List<scalar> 
86
(
1e-05
1e-05
1e-05
1e-05
1e-05
1e-05
1e-05
1e-05
1e-05
1e-05
1e-05
1e-05
1e-05
1e-05
1e-05
1e-05
1e-05
1e-05
1e-05
1e-05
1e-05
1e-05
1e-05
1e-05
1e-05
1e-05
1e-05
1e-05
1e-05
1e-05
220.65641
219.77349
197.58283
1e-05
1e-05
1e-05
1e-05
48.595994
43.793301
33.402653
1e-05
1e-05
1e-05
12.088856
12.830992
13.270444
13.364469
13.297263
13.304052
13.318934
13.345574
13.43316
13.545783
13.633292
13.8255
13.846897
13.852171
13.886675
13.905915
13.972288
13.99113
13.98537
13.989282
14.002792
14.016094
1e-05
1e-05
1e-05
1e-05
1e-05
1e-05
1e-05
1e-05
1e-05
1e-05
1e-05
1e-05
1e-05
1e-05
1e-05
1e-05
1e-05
1e-05
1e-05
195.79082
219.65676
)
;
    }
    Front
    {
        type            wedge;
    }
    Back
    {
        type            wedge;
    }
    defaultFaces
    {
        type            empty;
    }
}


// ************************************************************************* //
