/*--------------------------------*- C++ -*----------------------------------*\
| =========                 |                                                 |
| \\      /  F ield         | OpenFOAM: The Open Source CFD Toolbox           |
|  \\    /   O peration     | Version:  4.0                                   |
|   \\  /    A nd           | Web:      www.OpenFOAM.org                      |
|    \\/     M anipulation  |                                                 |
\*---------------------------------------------------------------------------*/
FoamFile
{
    version     2.0;
    format      ascii;
    class       volScalarField;
    location    "0.22";
    object      p;
}
// * * * * * * * * * * * * * * * * * * * * * * * * * * * * * * * * * * * * * //

dimensions      [0 2 -2 0 0 0 0];

internalField   nonuniform List<scalar> 
1740
(
491.79899
491.78431
491.79146
475.24715
475.29893
475.30176
458.4297
458.57335
458.48641
441.61417
441.69539
441.65388
424.99429
424.93976
425.11831
408.31636
408.24719
408.37405
391.79843
391.7845
391.81075
375.44628
375.41543
375.56093
358.97615
358.94864
359.1553
342.3911
342.50007
342.29863
325.61449
325.78497
325.49065
308.91117
309.05755
309.15895
292.76053
292.69819
292.67071
276.70669
276.35295
276.20942
259.90462
259.79113
259.8723
242.91796
243.22816
243.19056
226.80534
226.93769
226.7272
210.85412
210.81941
210.82192
194.15322
194.24341
194.49605
177.36783
177.32556
177.65277
161.07879
160.92601
161.20542
144.89038
144.79497
144.86049
128.35867
128.29699
128.21361
111.70344
111.5206
111.42728
95.321652
95.06861
94.848086
79.129108
79.089237
78.77794
62.683994
62.726331
62.550398
46.13641
46.184251
46.092723
30.37342
30.565513
30.418356
15.94295
15.849502
15.549739
4.0621933
3.4146877
1.672725
-0.63913913
-0.58944054
-0.35854697
-0.15597539
-0.14018535
-0.095200883
-0.028941133
-0.01953742
-0.0046394299
-0.0071940328
-0.0017744233
0.0067041166
0.00049367931
0.0032324518
0.0075117953
0.002965407
0.0043264235
0.0066137836
0.0036351724
0.004321136
0.005532211
0.0038124328
0.0041678356
0.0048261008
0.0039572423
0.0041529603
0.0045297698
0.0039833786
0.004098593
0.0043260589
0.0037729574
0.0038445141
0.003986289
0.0033785208
0.0034240965
0.0035147763
0.0028894017
0.0029201973
0.0029819443
0.0023844601
0.0024058771
0.0024496859
0.001903664
0.0019186352
0.0019501985
0.0014614383
0.0014724297
0.0014955666
0.001062076
0.0010703819
0.0010875688
0.00070514871
0.00071152299
0.00072465935
0.00038947359
0.00039451486
0.00040499036
0.00011443193
0.00011857687
0.00012725606
-0.00012070705
-0.000117142
-0.00010964042
-0.00031716419
-0.00031396035
-0.00030718389
-0.00047677658
-0.00047379755
-0.0004674409
-0.00060232882
-0.00059944609
-0.00059324603
-0.00069678161
-0.00069392477
-0.00068776411
-0.00076234502
-0.00075954393
-0.00075347726
-0.00080182028
-0.00079905742
-0.0007930471
-0.00081876008
-0.00081600217
-0.00080999491
-0.00081658101
-0.00081383083
-0.0008078645
-0.00079855576
-0.00079578095
-0.00078989991
-0.00076810193
-0.00076556753
-0.00075982295
-0.00072724461
-0.00072472749
-0.00071916666
-0.00067903021
-0.00067661276
-0.00067130257
-0.00062586693
-0.0006235836
-0.00061857217
-0.0005698542
-0.00056772278
-0.00056304384
-0.00051279851
-0.00051083104
-0.00050650864
-0.00045620639
-0.00045441083
-0.00045046035
-0.00040129555
-0.00039967677
-0.00039610513
-0.00034900205
-0.00034756202
-0.00034436805
-0.00029999816
-0.00029872069
-0.00029590253
-0.0002546786
-0.00025356233
-0.00025110716
-0.00021323622
-0.000212276
-0.00021016782
-0.00017568786
-0.00017487642
-0.00017309732
-0.00014188709
-0.00014121646
-0.00013974776
-0.0001115264
-0.00011098895
-0.00010981249
-8.4133967e-05
-8.3722674e-05
-8.2822137e-05
-5.9042607e-05
-5.8751551e-05
-5.811369e-05
-3.5388624e-05
-3.521405e-05
-3.4830544e-05
-1.2021817e-05
-1.1963372e-05
-1.1833549e-05
-1.2599351
-0.88605492
-0.27978053
-0.21812753
-0.074754967
-0.069205901
0.00095506057
-2.5426154e-05
0.012179118
0.014511832
0.011180599
0.013518113
0.0088342448
0.010513379
0.0068322393
0.0079450293
0.0055931476
0.0063104962
0.004986915
0.0054331817
0.0046042003
0.0048813282
0.0041631637
0.0043404974
0.0036306189
0.0037511069
0.0030612626
0.0031467641
0.0025066141
0.0025675577
0.0019917647
0.0020365053
0.001526428
0.0015601593
0.0011109707
0.0011368134
0.00074277095
0.00076296577
0.00041943063
0.00043571607
0.00013925639
0.00015300789
-9.9193477e-05
-8.6956978e-05
-0.00029764736
-0.00028622627
-0.00045837236
-0.00044728689
-0.00058430375
-0.00057317378
-0.00067879202
-0.0006674663
-0.00074457182
-0.00073320317
-0.00078415942
-0.00077269077
-0.00080106601
-0.00078945777
-0.00079898481
-0.00078739037
-0.00078120193
-0.00076977823
-0.00075111308
-0.00073973122
-0.00071080447
-0.00069983525
-0.00066333212
-0.0006528582
-0.00061104977
-0.00060115381
-0.00055601859
-0.0005467703
-0.00050001715
-0.00049146951
-0.00044452709
-0.00043671498
-0.00039074162
-0.00038367946
-0.00033957548
-0.00033326586
-0.00029167112
-0.00028610192
-0.0002474202
-0.00024256766
-0.00020700223
-0.00020283712
-0.00017042641
-0.00016691358
-0.00013754331
-0.00013464518
-0.00010804684
-0.00010572613
-8.1470426e-05
-7.9693757e-05
-5.7155985e-05
-5.5897245e-05
-3.4254709e-05
-3.3497785e-05
-1.1638512e-05
-1.1381914e-05
0.015752693
0.015545104
0.01516824
0.014677429
0.01410573
0.013469037
0.012772722
0.012012556
0.011178182
0.010274772
0.0093288596
0.0083822443
0.0074612321
0.0065670399
0.0057178611
0.0049260936
0.0041796183
0.0034878449
0.0028638098
0.002304065
0.0018003389
0.0013430282
0.00092300422
0.00053343516
0.00017054166
0.015561676
0.015360151
0.014942063
0.014386123
0.013727425
0.012982791
0.012154118
0.011237979
0.01025586
0.0092496434
0.0082514997
0.0072815988
0.0063569148
0.0054988858
0.0047098409
0.0039900105
0.0033544151
0.0027966493
0.002294101
0.0018409935
0.0014330701
0.0010646031
0.0007284189
0.00042123716
0.00014054722
0.011432277
0.011084546
0.010426815
0.0095653501
0.0084670332
0.0071633522
0.0057231657
0.0042755552
0.0029941725
0.0019071199
0.0010137526
0.00029781651
-0.00026225483
-0.00068617083
-0.00098608211
-0.0011737238
-0.0012601864
-0.0012642365
-0.0011960069
-0.001068441
-0.00089497736
-0.00069245732
-0.00047551044
-0.00025456104
-4.7708504e-05
-0.0044242849
-0.0051932796
-0.0066599304
-0.0086656017
-0.010741266
-0.012514051
-0.013792239
-0.014548277
-0.014897672
-0.014903449
-0.014618993
-0.014112418
-0.0134361
-0.012613901
-0.011672654
-0.010640755
-0.0095420084
-0.0083959532
-0.0072200211
-0.0060316534
-0.0048470131
-0.0036860178
-0.0025564823
-0.0014656997
-0.00043779166
-0.05605872
-0.056962031
-0.057928351
-0.05673334
-0.054713653
-0.051728177
-0.048308566
-0.04464011
-0.04085426
-0.03707128
-0.033454871
-0.03003362
-0.026790687
-0.023506464
-0.020450266
-0.017649448
-0.015095883
-0.012772728
-0.010657003
-0.0087206357
-0.0069339454
-0.0052628094
-0.0036873708
-0.002188212
-0.00075547931
-0.21987178
-0.17851839
-0.15999432
-0.12994589
-0.10524811
-0.083583359
-0.065135648
-0.050087253
-0.038007764
-0.028375382
-0.020705364
-0.01469188
-0.010047481
-0.0066457541
-0.0040578502
-0.0021641862
-0.00082516786
7.2518723e-05
0.00061813046
0.0008851513
0.00093638696
0.00082933426
0.0006104485
0.00032355517
-3.496034e-05
-0.32221213
-0.124112
-0.075418953
-0.038910674
-0.0058133502
0.020292238
0.036725862
0.044569524
0.047065906
0.046797675
0.045007286
0.042277777
0.038987729
0.035415876
0.031752787
0.028119283
0.024586807
0.02119382
0.017953037
0.01486084
0.011903699
0.0090651249
0.0063202204
0.0036584463
0.00099024766
-0.182214
-0.16146218
-0.13895153
-0.11548249
-0.093030012
-0.073187648
-0.056399069
-0.042769872
-0.031916131
-0.023308423
-0.016584529
-0.011398973
-0.0074657242
-0.0044864819
-0.0022772953
-0.0006929194
0.00038729861
0.0010692536
0.0014334632
0.001545072
0.0014589721
0.0012242029
0.00088299215
0.00047934754
8.2911367e-06
-0.070149902
-0.070315448
-0.069038581
-0.066485188
-0.062830601
-0.058370379
-0.053739237
-0.049073941
-0.044463808
-0.040107513
-0.035980721
-0.031972263
-0.028162631
-0.024648508
-0.021432697
-0.018495593
-0.015819421
-0.013363015
-0.011118226
-0.0090652136
-0.0071799807
-0.0054365934
-0.0038102368
-0.0022705457
-0.00079221424
-0.004567194
-0.0091080518
-0.013230374
-0.016629112
-0.01917292
-0.020852035
-0.021779741
-0.022047723
-0.021798805
-0.02117974
-0.020295979
-0.019212684
-0.0179642
-0.016590728
-0.015132651
-0.013625588
-0.012091552
-0.010569006
-0.0090553674
-0.0075551986
-0.0060751574
-0.0046228408
-0.003207285
-0.0018400187
-0.00055520068
0.014723333
0.013404786
0.011263651
0.0085264081
0.0056170075
0.0029084827
0.00066776672
-0.0010920726
-0.0024282086
-0.0034173324
-0.0041112732
-0.0045513313
-0.0047738795
-0.0048149814
-0.0047110112
-0.0044848305
-0.0041576552
-0.0037576128
-0.0033019253
-0.0028046337
-0.002279068
-0.0017386396
-0.0011968627
-0.00066622521
-0.00017207324
0.014645419
0.014832142
0.01444925
0.013755744
0.012718102
0.011416537
0.0099502339
0.0084690297
0.0070762034
0.0057750747
0.0046356276
0.0036759356
0.0028816027
0.0022297377
0.0017063461
0.0012913541
0.00096683235
0.00071554121
0.00052227806
0.00037498715
0.00026357651
0.00017922132
0.00011479844
6.7028306e-05
3.3432143e-05
0.011540067
0.012009615
0.012073361
0.011850368
0.011451823
0.010880876
0.010133862
0.0092678471
0.0083556061
0.0074567908
0.0065881346
0.0057678479
0.0050117431
0.0043232319
0.0037053043
0.0031557103
0.0026670741
0.0022315693
0.0018404362
0.0014862723
0.0011630483
0.00086600882
0.00059151839
0.00033805096
0.00010712384
0.0087535652
0.0092440597
0.0094626952
0.0094947521
0.0093770474
0.0091091568
0.0087074984
0.0081724892
0.0075370938
0.0068876883
0.0062314882
0.0055809617
0.0049491141
0.0043384904
0.0037679148
0.0032469379
0.0027711067
0.0023362865
0.0019387695
0.0015744283
0.0012391195
0.00092886517
0.00064021972
0.00037011867
0.0001164385
0.0068902385
0.0072947168
0.007533534
0.0076392544
0.007635043
0.0075299999
0.0073306582
0.0070292795
0.0066396804
0.0062010684
0.0057247341
0.005216309
0.0046948257
0.0041966472
0.0037175845
0.003254255
0.0028125913
0.0023959545
0.0020057331
0.0016412228
0.0013005212
0.00098112914
0.00068031683
0.00039614496
0.00012577812
0.0058118019
0.0060875835
0.0062675017
0.0063588922
0.0063813353
0.0063437639
0.0062461436
0.0060820807
0.0058480946
0.0055615978
0.0052315186
0.0048668192
0.0044760674
0.004059748
0.0036440691
0.0032352171
0.0028328651
0.0024410514
0.0020640676
0.0017035378
0.0013598281
0.0010318663
0.00071788354
0.00041997616
0.00013634832
0.0051191145
0.0052998582
0.005416338
0.0054764307
0.0054889966
0.0054632733
0.0053999146
0.0052963127
0.005148155
0.004959812
0.0047296704
0.0044638065
0.0041673755
0.0038513234
0.0035095832
0.0031502658
0.0027860604
0.0024219745
0.0020652969
0.001717604
0.0013807552
0.0010540478
0.00073799567
0.00043348537
0.00013964188
0.0044938637
0.0046088133
0.0046814041
0.0047180924
0.0047221253
0.0046997714
0.0046513619
0.0045769446
0.004474598
0.0043423135
0.0041774505
0.0039814226
0.0037554252
0.0035022977
0.0032240499
0.0029261915
0.0026159645
0.0022999243
0.0019788937
0.0016574405
0.0013382403
0.0010251339
0.00071933487
0.00042200935
0.00013458263
0.0038578484
0.0039395931
0.0039902504
0.0040127873
0.0040107346
0.0039881718
0.0039470538
0.0038879142
0.0038095542
0.0037100698
0.0035869282
0.0034391339
0.0032660919
0.0030686918
0.0028478024
0.0026063689
0.0023486858
0.00207893
0.0018003144
0.0015166324
0.0012311707
0.00094711379
0.00066681023
0.00039230495
0.00012568031
0.0032252558
0.0032863572
0.00332419
0.0033391105
0.0033344966
0.0033127417
0.0032766952
0.0032272964
0.0031650428
0.0030870603
0.0029924317
0.002879863
0.0027476573
0.0025952715
0.0024228912
0.0022316202
0.0020237256
0.001802111
0.0015694794
0.0013289291
0.0010835355
0.00083634736
0.00058990706
0.00034818761
0.00011324861
0.0026250643
0.0026711509
0.0027003656
0.0027110727
0.0027056607
0.0026863512
0.0026548278
0.0026136634
0.0025620184
0.0025000845
0.002426991
0.0023403959
0.0022392546
0.0021227199
0.0019903943
0.0018420896
0.0016788149
0.0015023154
0.0013145123
0.0011177982
0.000914765
0.00070798039
0.00050016197
0.00029645539
9.8052655e-05
0.0020790424
0.0021135855
0.0021357848
0.0021438624
0.0021384208
0.0021214516
0.002094568
0.0020594319
0.0020167955
0.001966854
0.0019091165
0.0018423709
0.0017654849
0.001677503
0.0015772233
0.0014645941
0.0013397421
0.0012035085
0.0010570514
0.00090211257
0.00074072702
0.00057511371
0.00040771988
0.00024184898
7.904247e-05
0.0015921271
0.001618157
0.0016349994
0.0016409727
0.0016360929
0.0016214824
0.0015987041
0.0015691247
0.001533892
0.001493503
0.0014478938
0.0013963936
0.0013383107
0.0012726566
0.0011984263
0.0011152145
0.0010228378
0.00092141656
0.00081174029
0.00069489453
0.00057233349
0.00044579246
0.00031711152
0.00018818015
6.0834176e-05
0.0011613747
0.0011814625
0.0011945784
0.0011992842
0.0011953487
0.0011834193
0.0011647876
0.0011406399
0.0011121051
0.0010799354
0.0010444117
0.0010053395
0.00096230527
0.00091458361
0.00086149106
0.00080247544
0.0007371377
0.00066541398
0.00058760626
0.00050431582
0.00041644538
0.00032517421
0.00023173574
0.00013769009
4.4482236e-05
0.00078241469
0.00079857423
0.00080948135
0.00081390669
0.00081151722
0.00080271297
0.0007884035
0.00076974402
0.00074771246
0.00072314527
0.0006965544
0.0006681163
0.00063769603
0.00060484484
0.0005691447
0.00053006596
0.0004872721
0.00044048264
0.00038971258
0.00033520811
0.00027742769
0.00021706527
0.00015488679
9.2141046e-05
2.9854402e-05
0.00045177498
0.0004655413
0.0004755096
0.0004805492
0.00048030866
0.0004750126
0.00046534036
0.00045221385
0.00043661701
0.00041934878
0.00040103891
0.00038206747
0.00036251728
0.00034234139
0.00032119352
0.00029871738
0.0002745951
0.00024852124
0.00022032401
0.00018998603
0.00015769013
0.00012370054
8.8380845e-05
5.2591801e-05
1.6913172e-05
0.00016695728
0.00017952777
0.00018939594
0.00019574699
0.00019812083
0.0001966213
0.00019173961
0.00018422772
0.00017495044
0.00016471564
0.00015418752
0.0001438315
0.00013393777
0.0001246205
0.00011573677
0.00010707907
9.8368067e-05
8.9308949e-05
7.9644227e-05
6.9191858e-05
5.7899118e-05
4.5775293e-05
3.2860738e-05
1.9611885e-05
6.2763478e-06
-7.4144341e-05
-6.1981517e-05
-5.1556964e-05
-4.3542278e-05
-3.8310529e-05
-3.5895718e-05
-3.5967455e-05
-3.7928748e-05
-4.1053307e-05
-4.4587907e-05
-4.7865047e-05
-5.0334141e-05
-5.164836e-05
-5.1587484e-05
-5.0124025e-05
-4.7353883e-05
-4.3482871e-05
-3.8781046e-05
-3.3534892e-05
-2.8011989e-05
-2.2459007e-05
-1.7068844e-05
-1.1998531e-05
-6.9106228e-06
-1.8965404e-06
-0.00027387963
-0.00026156683
-0.0002501589
-0.00024028303
-0.00023220216
-0.00022596614
-0.00022137432
-0.00021800781
-0.0002152768
-0.00021252365
-0.00020912054
-0.00020450732
-0.00019826315
-0.00019013047
-0.00017999705
-0.00016786943
-0.00015388281
-0.00013826908
-0.00012131317
-0.00010333655
-8.4682059e-05
-6.5674808e-05
-4.6648251e-05
-2.7558675e-05
-8.8045836e-06
-0.00043497987
-0.00042216733
-0.00040956621
-0.00039768974
-0.00038685037
-0.0003770524
-0.0003681587
-0.00035986692
-0.00035173091
-0.00034322787
-0.000333793
-0.00032289958
-0.00031012712
-0.00029518747
-0.00027790555
-0.00025825044
-0.00023630831
-0.00021227331
-0.00018641508
-0.00015907779
-0.00013064874
-0.00010152916
-7.2173141e-05
-4.2692281e-05
-1.3645372e-05
-0.00056050805
-0.00054698738
-0.00053313702
-0.00051933257
-0.00050585739
-0.00049280574
-0.00048004821
-0.00046738758
-0.00045448224
-0.00044089971
-0.00042617049
-0.00040985278
-0.00039156199
-0.00037100809
-0.00034799974
-0.00032247925
-0.00029449757
-0.00026420724
-0.00023187432
-0.0001978436
-0.00016251987
-0.00012635011
-8.9813385e-05
-5.306858e-05
-1.6669632e-05
-0.00065432148
-0.00063993736
-0.00062474816
-0.0006090409
-0.00059307669
-0.00057704409
-0.00056094454
-0.00054454266
-0.00052755073
-0.00050963379
-0.00049045588
-0.00046963913
-0.0004468443
-0.00042182657
-0.00039440625
-0.00036451055
-0.00033216978
-0.00029751296
-0.00026078775
-0.00022232599
-0.00018252873
-0.00014185189
-0.00010082464
-5.9597115e-05
-1.8907136e-05
-0.0007197572
-0.00070457346
-0.00068805894
-0.00067063646
-0.00065256325
-0.00063401422
-0.00061503688
-0.0005954493
-0.00057502955
-0.00055352316
-0.00053068234
-0.0005062752
-0.00048003106
-0.00045168721
-0.000421081
-0.000388143
-0.00035289885
-0.00031548698
-0.0002761273
-0.00023512473
-0.00019285245
-0.00014974108
-0.00010634492
-6.2851419e-05
-1.9923638e-05
-0.00075895226
-0.00074323009
-0.00072588389
-0.00070732699
-0.00068780714
-0.00066740521
-0.00064610448
-0.00062392693
-0.00060078764
-0.00057656603
-0.0005510074
-0.00052393043
-0.00049513783
-0.00046443278
-0.00043169834
-0.00039687354
-0.00035998937
-0.00032117526
-0.00028063691
-0.0002386464
-0.00019553288
-0.00015166256
-0.00010751116
-6.3535578e-05
-2.0107609e-05
-0.00077546781
-0.0007594042
-0.00074156349
-0.00072220955
-0.0007016466
-0.00067993827
-0.00065709366
-0.00063317856
-0.00060817507
-0.00058219001
-0.00055492025
-0.00052610831
-0.00049565755
-0.00046350659
-0.00042960178
-0.00039390098
-0.00035646646
-0.0003173993
-0.00027687524
-0.00023514218
-0.00019252548
-0.00014940982
-0.00010621206
-6.2442049e-05
-1.9240351e-05
-0.00077333822
-0.00075709404
-0.00073890843
-0.00071896211
-0.00069770744
-0.00067523014
-0.00065151692
-0.00062666514
-0.00060072779
-0.00057349535
-0.00054503702
-0.00051526306
-0.0004840588
-0.0004513941
-0.00041723842
-0.00038160664
-0.0003445495
-0.00030616569
-0.00026660958
-0.00022609142
-0.00018486633
-0.00014323441
-0.00010158132
-5.9824102e-05
-1.8727344e-05
-0.00075584188
-0.00073966643
-0.00072151986
-0.00070165939
-0.0006800355
-0.00065694989
-0.00063269262
-0.00060730199
-0.00058078803
-0.00055311019
-0.0005242815
-0.0004943105
-0.00046316037
-0.00043078603
-0.00039718187
-0.00036239057
-0.00032646245
-0.00028950031
-0.00025164544
-0.00021307758
-0.00017401516
-0.00013471921
-9.5540406e-05
-5.6190219e-05
-1.7413395e-05
-0.00072595802
-0.00070997552
-0.00069198619
-0.0006721879
-0.0006507166
-0.00062778256
-0.00060358229
-0.00057822543
-0.0005517726
-0.00052425709
-0.00049571709
-0.00046618934
-0.0004356826
-0.0004041927
-0.00037173825
-0.00033836497
-0.00030413739
-0.00026915258
-0.00023353914
-0.00019745911
-0.00016110317
-0.00012469243
-8.8494561e-05
-5.1935593e-05
-1.5902536e-05
-0.00068647502
-0.00067092051
-0.0006533669
-0.00063400576
-0.00061301523
-0.000590584
-0.00056688544
-0.00054205199
-0.00051618281
-0.00048935444
-0.00046163413
-0.00043308042
-0.00040373425
-0.0003736267
-0.00034279748
-0.00031130018
-0.00027920714
-0.00024661047
-0.00021362567
-0.00018039199
-0.00014706604
-0.00011381618
-8.0849848e-05
-4.7364636e-05
-1.4326821e-05
-0.00064005727
-0.00062512305
-0.00060824046
-0.00058959852
-0.00056938282
-0.00054777603
-0.00052494736
-0.00050104174
-0.00047618114
-0.00045046971
-0.0004239977
-0.00039684285
-0.0003690695
-0.00034073293
-0.00031188924
-0.00028260093
-0.00025294246
-0.00022300121
-0.00019287958
-0.00016269489
-0.00013257431
-0.00010264311
-7.3064069e-05
-4.2719941e-05
-1.270067e-05
-0.00058903436
-0.00057487856
-0.00055885906
-0.00054115976
-0.0005219646
-0.00050145229
-0.00047979177
-0.00045713566
-0.00043361882
-0.00040936119
-0.00038446931
-0.00035903649
-0.0003331424
-0.00030685806
-0.00028025061
-0.00025338875
-0.00022634622
-0.00019920444
-0.00017205436
-0.00014499731
-0.00011814218
-9.159083e-05
-6.5492339e-05
-3.818048e-05
-1.1028012e-05
-0.0005354372
-0.00052218273
-0.00050717669
-0.00049059327
-0.00047261111
-0.00045340419
-0.00043314017
-0.00041197508
-0.00039005082
-0.00036749529
-0.00034442426
-0.00032093998
-0.00029713257
-0.0002730819
-0.00024886118
-0.00022454145
-0.00020019352
-0.00017589207
-0.000151718
-0.00012776245
-0.00010413076
-8.0934572e-05
-5.8435309e-05
-3.3855736e-05
-9.2273036e-06
-0.00048099159
-0.00046872823
-0.00045484594
-0.00043950611
-0.00042287688
-0.00040512787
-0.00038642315
-0.00036691773
-0.00034675519
-0.00032606633
-0.00030497045
-0.00028357419
-0.00026197195
-0.00024024746
-0.00021847655
-0.00019672817
-0.00017506841
-0.00015356397
-0.00013228459
-0.00011131051
-9.0748276e-05
-7.0733633e-05
-5.2022113e-05
-2.9672426e-05
-7.2259076e-06
-0.00042713833
-0.00041591925
-0.00040323135
-0.00038921574
-0.00037403095
-0.00035783791
-0.00034079434
-0.00032305093
-0.00030474925
-0.00028601724
-0.00026697477
-0.00024772859
-0.00022837353
-0.00020899293
-0.00018966048
-0.00017044176
-0.00015139645
-0.00013258037
-0.00011404818
-9.5859416e-05
-7.8090031e-05
-6.0827726e-05
-4.455639e-05
-2.5538113e-05
-6.125607e-06
-0.00037502268
-0.00036489013
-0.00035342548
-0.00034077177
-0.000327075
-0.00031248419
-0.00029714801
-0.00028121054
-0.0002648097
-0.00024806045
-0.00023108538
-0.00021398694
-0.00019685688
-0.00017977516
-0.00016281137
-0.00014602552
-0.00012946938
-0.00011318687
-9.721617e-05
-8.1590125e-05
-6.6334931e-05
-5.1456009e-05
-3.7038253e-05
-2.1340009e-05
-5.5310281e-06
-0.0003255344
-0.00031648813
-0.00030624987
-0.00029496343
-0.00028275855
-0.00026977261
-0.0002561436
-0.00024200502
-0.00022748371
-0.00021269533
-0.00019775022
-0.00018274585
-0.00016776849
-0.00015289283
-0.00013818316
-0.00012369262
-0.00010946436
-9.5531839e-05
-8.1919038e-05
-6.8638125e-05
-5.5682166e-05
-4.3016597e-05
-3.0614565e-05
-1.7615889e-05
-4.6187516e-06
-0.00027928086
-0.0002713024
-0.00026227314
-0.00025233033
-0.00024158955
-0.00023017506
-0.00021821331
-0.00020582693
-0.0001931325
-0.00018023773
-0.00016724371
-0.00015424007
-0.00014130623
-0.00012850975
-0.00011590831
-0.00010354734
-9.1462299e-05
-7.9677864e-05
-6.820753e-05
-5.7051888e-05
-4.6191278e-05
-3.5566723e-05
-2.5164275e-05
-1.4370994e-05
-3.615876e-06
-0.00023662512
-0.00022968186
-0.00022183151
-0.00021318693
-0.00020385906
-0.00019395939
-0.00018359958
-0.00017289187
-0.00016194114
-0.0001508454
-0.00013969561
-0.00012857295
-0.00011754793
-0.00010668126
-9.6021458e-05
-8.5607634e-05
-7.5467722e-05
-6.5619133e-05
-5.6068135e-05
-4.6808318e-05
-3.781874e-05
-2.903228e-05
-2.0474819e-05
-1.1587022e-05
-2.7636683e-06
-0.00019773911
-0.00019178578
-0.00018506005
-0.00017765667
-0.00016967641
-0.00016121777
-0.00015238031
-0.00014326077
-0.00013395306
-0.0001245444
-0.00011511509
-0.0001057369
-9.6471623e-05
-8.7371236e-05
-7.8477146e-05
-6.9821314e-05
-6.1425175e-05
-5.3299819e-05
-4.5445624e-05
-3.7851286e-05
-3.0491744e-05
-2.332131e-05
-1.6338285e-05
-9.217271e-06
-2.1713395e-06
-0.0001626162
-0.00015760047
-0.00015193837
-0.00014570958
-0.00013900202
-0.00013190084
-0.00012449215
-0.00011685953
-0.00010908383
-0.00010124131
-9.3401109e-05
-8.5624334e-05
-7.7964049e-05
-7.0464216e-05
-6.3159654e-05
-5.6075735e-05
-4.92281e-05
-4.2622675e-05
-3.6255647e-05
-3.011308e-05
-2.4170198e-05
-1.8402668e-05
-1.2792214e-05
-7.2219499e-06
-1.7369571e-06
-0.00013110084
-0.00012696613
-0.00012230278
-0.00011717684
-0.00011166072
-0.00010582742
-9.97496e-05
-9.3497746e-05
-8.7139868e-05
-8.0739962e-05
-7.4356004e-05
-6.8039021e-05
-6.1833041e-05
-5.5774814e-05
-4.9892454e-05
-4.4205527e-05
-3.8725165e-05
-3.3453896e-05
-2.8385834e-05
-2.3507676e-05
-1.8800491e-05
-1.4248326e-05
-9.8629298e-06
-5.5551164e-06
-1.3439198e-06
-0.00010288891
-9.9580529e-05
-9.5851464e-05
-9.1756204e-05
-8.735203e-05
-8.2698828e-05
-7.7856244e-05
-7.2881762e-05
-6.7830849e-05
-6.2755121e-05
-5.7701595e-05
-5.271163e-05
-4.7820743e-05
-4.3058098e-05
-3.8445718e-05
-3.399844e-05
-2.9724012e-05
-2.5623171e-05
-2.1690398e-05
-1.791512e-05
-1.4284843e-05
-1.0792063e-05
-7.4572752e-06
-4.1858183e-06
-9.9699175e-07
-7.7522277e-05
-7.4991116e-05
-7.2139439e-05
-6.9009568e-05
-6.5645647e-05
-6.2093822e-05
-5.8401068e-05
-5.4611658e-05
-5.0768734e-05
-4.6912242e-05
-4.3078346e-05
-3.9299071e-05
-3.5601674e-05
-3.2008198e-05
-2.8535155e-05
-2.5193425e-05
-2.1988426e-05
-1.8920341e-05
-1.5985039e-05
-1.3175443e-05
-1.0484221e-05
-7.9076263e-06
-5.4605148e-06
-3.0550592e-06
-7.1009372e-07
-5.4359048e-05
-5.2566265e-05
-5.0546958e-05
-4.8331441e-05
-4.5951221e-05
-4.3439366e-05
-4.0828535e-05
-3.8151677e-05
-3.5439262e-05
-3.2719668e-05
-3.0018703e-05
-2.7359218e-05
-2.476046e-05
-2.2237946e-05
-1.9803215e-05
-1.746381e-05
-1.5223378e-05
-1.308219e-05
-1.1037841e-05
-9.0864717e-06
-7.2244996e-06
-5.4501215e-06
-3.7713375e-06
-2.0989444e-06
-4.6777223e-07
-3.2572714e-05
-3.1494479e-05
-3.0279976e-05
-2.8947463e-05
-2.7516171e-05
-2.6005555e-05
-2.4435316e-05
-2.2826347e-05
-2.1196537e-05
-1.956288e-05
-1.7940984e-05
-1.6344645e-05
-1.4785463e-05
-1.3272734e-05
-1.1813374e-05
-1.0411919e-05
-9.0706405e-06
-7.7898917e-06
-6.5686292e-06
-5.4053624e-06
-4.2990311e-06
-3.2491066e-06
-2.260523e-06
-1.2505382e-06
-2.5741556e-07
-1.1068165e-05
-1.0702376e-05
-1.0290273e-05
-9.8379651e-06
-9.3519978e-06
-8.8390369e-06
-8.3057214e-06
-7.7591982e-06
-7.2055813e-06
-6.6505647e-06
-6.0994348e-06
-5.5568843e-06
-5.0268777e-06
-4.5125611e-06
-4.0162789e-06
-3.5396381e-06
-3.0834381e-06
-2.6478597e-06
-2.2326853e-06
-1.8376734e-06
-1.4630403e-06
-1.1094391e-06
-7.9511286e-07
-4.3849818e-07
-6.7903097e-08
)
;

boundaryField
{
    Walls
    {
        type            zeroGradient;
    }
    Inlet
    {
        type            fixedValue;
        value           uniform 500;
    }
    Outlet
    {
        type            fixedValue;
        value           uniform 0;
    }
    Front
    {
        type            wedge;
    }
    Back
    {
        type            wedge;
    }
    defaultFaces
    {
        type            empty;
    }
}


// ************************************************************************* //
