/*--------------------------------*- C++ -*----------------------------------*\
| =========                 |                                                 |
| \\      /  F ield         | OpenFOAM: The Open Source CFD Toolbox           |
|  \\    /   O peration     | Version:  4.0                                   |
|   \\  /    A nd           | Web:      www.OpenFOAM.org                      |
|    \\/     M anipulation  |                                                 |
\*---------------------------------------------------------------------------*/
FoamFile
{
    version     2.0;
    format      ascii;
    class       surfaceScalarField;
    location    "0.22";
    object      phi;
}
// * * * * * * * * * * * * * * * * * * * * * * * * * * * * * * * * * * * * * //

dimensions      [0 3 -1 0 0 0 0];

internalField   nonuniform List<scalar> 
3364
(
1.5927652e-12
1.5878286e-08
-8.5272432e-11
5.0017594e-08
8.6322295e-08
-3.0295862e-10
1.6181217e-08
-4.7712653e-10
5.0191771e-08
8.5845167e-08
-5.2364961e-10
1.6704833e-08
2.2602138e-12
4.9665879e-08
8.5847424e-08
-2.8210425e-10
1.6986907e-08
8.5501086e-11
4.9298268e-08
8.593291e-08
2.1657208e-10
1.6770302e-08
-5.6095021e-10
5.0075733e-08
8.537193e-08
1.3248375e-10
1.6637782e-08
-7.1816102e-10
5.0926325e-08
8.4653737e-08
-1.2090342e-10
1.6758666e-08
-4.452346e-10
5.1250632e-08
8.4208476e-08
1.6455226e-10
1.6594091e-08
-4.3625928e-10
5.1851388e-08
8.3772191e-08
3.0227082e-10
1.6291778e-08
-4.5928616e-10
5.2612899e-08
8.3312872e-08
-1.105824e-10
1.6402322e-08
1.3231688e-09
5.1179111e-08
8.4635993e-08
-4.8258996e-10
1.6884874e-08
1.0297859e-09
4.9666685e-08
8.5665735e-08
-6.5695812e-10
1.7541778e-08
-7.2402484e-10
4.9733705e-08
8.4941668e-08
-1.3543851e-10
1.7677168e-08
3.0405424e-10
4.929417e-08
8.5245668e-08
6.1527976e-10
1.7061851e-08
5.0472273e-10
4.940469e-08
8.5750337e-08
1.8949671e-12
1.705995e-08
-1.3082584e-09
5.0714817e-08
8.4442042e-08
-4.4871545e-10
1.7508631e-08
-4.780146e-10
5.0744092e-08
8.3964009e-08
-5.8249786e-12
1.7514394e-08
1.3700687e-09
4.9368158e-08
8.5334071e-08
7.0147669e-11
1.7444212e-08
3.019725e-10
4.9136293e-08
8.5636014e-08
-2.7736436e-10
1.7721559e-08
-1.5571239e-09
5.0416029e-08
8.4078855e-08
-3.089344e-11
1.7752431e-08
-1.6668743e-09
5.2051988e-08
8.2411955e-08
5.1388184e-10
1.7238502e-08
-3.418129e-10
5.290763e-08
8.2070099e-08
4.7575534e-10
1.6762693e-08
6.4528495e-10
5.2738019e-08
8.2715322e-08
6.6965957e-11
1.6695704e-08
4.212708e-10
5.238366e-08
8.3136544e-08
1.2586389e-10
1.6569847e-08
-4.6148052e-10
5.2971e-08
8.2675029e-08
4.0935112e-10
1.6160477e-08
-8.3072518e-10
5.4211079e-08
8.1844286e-08
-3.3125922e-11
1.6193544e-08
1.456448e-10
5.4032274e-08
8.1989917e-08
-3.4675352e-10
1.6540235e-08
5.220325e-10
5.316344e-08
8.2511919e-08
-3.6433743e-10
1.6904545e-08
3.837678e-10
5.2415304e-08
8.2895645e-08
-3.486294e-10
1.725323e-08
7.6020449e-10
5.1306567e-08
8.3655867e-08
1.5249847e-09
1.5728476e-08
5.4566677e-09
4.7374978e-08
8.9112497e-08
1.1483715e-08
4.2440969e-09
4.8476492e-08
1.0380307e-08
1.0709045e-08
1.2687735e-07
4.7863953e-09
-5.4276567e-10
1.6682495e-08
-1.5172701e-09
-1.4649468e-09
2.8854629e-08
-4.0245983e-10
-1.40271e-10
-1.5445679e-09
-3.7508945e-10
-4.1472884e-10
-2.5946809e-09
-1.1524296e-10
-2.5013434e-11
-4.2887131e-10
-6.1426171e-11
-6.4903089e-11
-7.7865721e-10
-1.7366255e-11
-7.6456591e-12
-6.51082e-11
-1.3680005e-11
-2.6710996e-12
-1.2733388e-10
-4.8704994e-12
-2.7748592e-12
-1.6025444e-11
-2.5243197e-12
8.8219548e-12
-2.7517985e-11
-2.0248257e-12
-7.5035546e-13
-5.0461935e-12
4.9679143e-13
7.8926718e-12
-4.1173477e-12
-4.0967795e-13
-3.4061327e-13
-1.4306085e-13
2.3006746e-13
3.3735282e-12
4.376108e-12
-2.2547504e-14
-3.179171e-13
6.297825e-13
-4.2207741e-13
8.3560623e-13
3.167966e-12
-1.4297713e-13
-1.7479088e-13
-3.34831e-13
-2.2999178e-13
5.9326696e-13
-9.2161061e-14
-3.299662e-13
1.5531022e-13
-1.2028826e-12
6.4312911e-13
1.7156507e-12
-2.3249633e-12
-3.0431609e-13
4.5972811e-13
-1.1561218e-12
1.4950884e-12
2.808664e-12
-2.2489177e-12
-1.4296604e-13
6.0276581e-13
-5.179598e-13
1.8701843e-12
3.2438607e-12
-9.5303355e-13
-3.1570449e-15
6.0597328e-13
4.2901747e-15
1.8628009e-12
3.2282551e-12
1.996262e-14
5.2047617e-14
5.5396224e-13
2.2513646e-13
1.6897582e-12
2.9789312e-12
4.7450028e-13
5.181702e-14
5.021718e-13
1.9500649e-13
1.5466064e-12
2.6824086e-12
4.9156076e-13
4.2776194e-14
4.5941467e-13
1.877447e-13
1.4016666e-12
2.395922e-12
4.7425631e-13
4.4395399e-14
4.1503249e-13
1.8836791e-13
1.2577144e-12
2.1255454e-12
4.5876253e-13
4.6623265e-14
3.6841813e-13
1.9062523e-13
1.1137253e-12
1.8730641e-12
4.4311778e-13
4.7105469e-14
3.2131843e-13
1.9002005e-13
9.708177e-13
1.6311245e-12
4.3196456e-13
4.6126731e-14
2.7519519e-13
1.8657447e-13
8.303725e-13
1.3935722e-12
4.2412618e-13
4.5052744e-14
2.3014426e-13
1.8129254e-13
6.9413187e-13
1.1613106e-12
4.1354919e-13
4.3388977e-14
1.8675588e-13
1.7408827e-13
5.6342926e-13
9.4213508e-13
3.9325564e-13
4.0714165e-14
1.4604146e-13
1.6391479e-13
4.4022364e-13
7.343942e-13
3.7164525e-13
3.6933195e-14
1.091074e-13
1.4810884e-13
3.290419e-13
5.515687e-13
3.3092249e-13
3.2496024e-14
7.6610088e-14
1.3042652e-13
2.311046e-13
3.8623959e-13
2.9574293e-13
2.9502511e-14
4.7106004e-14
1.1857899e-13
1.4202095e-13
2.3711307e-13
2.6769245e-13
2.6040405e-14
2.1063857e-14
1.0437583e-13
6.367826e-14
1.0702162e-13
2.344543e-13
2.2292088e-14
-1.2300505e-15
8.9295464e-14
-3.332266e-15
-4.3283105e-15
2.0063277e-13
1.8492357e-14
-1.9724229e-14
7.425904e-14
-5.910582e-14
-9.7335315e-14
1.6725403e-13
1.4810354e-14
-3.4536352e-14
6.0251443e-14
-1.0455339e-13
-1.7348719e-13
1.363921e-13
1.1943687e-14
-4.6481709e-14
4.6927792e-14
-1.3954348e-13
-2.3139324e-13
1.0482354e-13
8.7940966e-15
-5.5277343e-14
3.508857e-14
-1.6584338e-13
-2.7471048e-13
7.8396535e-14
6.0279609e-15
-6.130668e-14
2.4239645e-14
-1.840599e-13
-3.0490184e-13
5.4422789e-14
3.4626186e-15
-6.4770495e-14
1.4007025e-14
-1.9460851e-13
-3.2249829e-13
3.159637e-14
1.2661651e-15
-6.6037671e-14
4.9493994e-15
-1.9829531e-13
-3.2858085e-13
1.1025953e-14
-4.7010236e-16
-6.5568399e-14
-1.9487504e-15
-1.9681964e-13
-3.2606482e-13
-4.4697306e-15
-1.8722668e-15
-6.3696795e-14
-7.514386e-15
-1.9117994e-13
-3.1659629e-13
-1.6986922e-14
-2.955299e-15
-6.0742003e-14
-1.1816204e-14
-1.8232093e-13
-3.0182987e-13
-2.6585752e-14
-3.7718615e-15
-5.6970508e-14
-1.5044467e-14
-1.7104976e-13
-2.83047e-13
-3.3829692e-14
-4.27464e-15
-5.2696108e-14
-1.7149733e-14
-1.5817569e-13
-2.616438e-13
-3.8554609e-14
-4.4746412e-15
-4.82216e-14
-1.7968061e-14
-1.4468293e-13
-2.3928536e-13
-4.0327568e-14
-4.4788543e-15
-4.3742788e-14
-1.793374e-14
-1.312284e-13
-2.1694358e-13
-4.0276084e-14
-4.2719441e-15
-3.9470819e-14
-1.7130252e-14
-1.183702e-13
-1.955919e-13
-3.8482093e-14
-3.8747428e-15
-3.5596001e-14
-1.5525455e-14
-1.0671942e-13
-1.7625413e-13
-3.4863083e-14
-3.2987922e-15
-3.2297104e-14
-1.3158344e-14
-9.6859673e-14
-1.5990836e-13
-2.9503771e-14
-2.581456e-15
-2.9715527e-14
-1.0213546e-14
-8.9227304e-14
-1.4728364e-13
-2.2837761e-14
-1.7427638e-15
-2.7972627e-14
-6.8378912e-15
-8.4131821e-14
-1.3887642e-13
-1.524447e-14
-8.0481524e-16
-2.7167643e-14
-3.3160579e-15
-8.1620111e-14
-1.3476924e-13
-7.4223929e-15
7.7667587e-18
-1.4427534e-16
-5.1581513e-16
1.3630336e-07
-9.4312917e-09
-8.6000285e-09
1.4489713e-07
2.0889094e-08
-1.4669424e-09
-1.3622387e-09
1.3650778e-08
-3.5898308e-09
-4.7165788e-10
-5.7307464e-10
-4.3788485e-09
-1.1609063e-09
-8.9358367e-11
-1.2808223e-10
-1.6058367e-09
-2.2462777e-10
7.9440966e-12
1.0335612e-11
-3.6303051e-10
-4.4900235e-11
2.5328428e-11
3.9699665e-11
-7.4260003e-11
2.1514653e-12
1.906033e-11
3.1485002e-11
1.0367413e-11
1.4345874e-11
9.0909172e-12
1.6482499e-11
2.9348808e-11
8.5663783e-12
3.6929153e-12
7.6612902e-12
1.7388048e-11
1.1073863e-12
2.4938371e-12
4.9367853e-12
3.8324816e-12
-3.3138292e-12
3.4831311e-12
5.5418694e-12
-3.9183512e-12
-3.3336948e-12
4.5682016e-12
6.4318861e-12
-4.2233362e-12
-1.330882e-12
4.9462018e-12
6.8336964e-12
-1.732503e-12
2.7933257e-13
4.6868992e-12
6.5247329e-12
5.8836646e-13
8.4754876e-13
4.3138847e-12
5.8095409e-12
1.5627643e-12
9.4579496e-13
3.8596716e-12
5.0549121e-12
1.7004322e-12
9.084386e-13
3.4255047e-12
4.4539032e-12
1.5094514e-12
8.523938e-13
3.0318838e-12
3.9546352e-12
1.3516631e-12
8.1359586e-13
2.6614108e-12
3.4806516e-12
1.2875766e-12
7.8528238e-13
2.3080925e-12
3.0080239e-12
1.2579022e-12
7.672793e-13
1.9649333e-12
2.5485831e-12
1.226707e-12
7.440117e-13
1.6344601e-12
2.1125706e-12
1.1800064e-12
7.0592992e-13
1.3217715e-12
1.7008987e-12
1.1175805e-12
6.6027326e-13
1.0331267e-12
1.3352463e-12
1.025902e-12
5.89544e-13
7.7448692e-13
9.9369494e-13
9.3107028e-13
5.2939096e-13
5.4081977e-13
6.9054526e-13
8.3251483e-13
4.7818114e-13
3.3031177e-13
4.2084523e-13
7.4785544e-13
4.1675641e-13
1.4799068e-13
1.8860949e-13
6.4896712e-13
3.5590625e-13
-7.3010603e-15
-8.4518053e-15
5.5294363e-13
2.94972e-13
-1.3503629e-13
-1.7324907e-13
4.5974682e-13
2.4020511e-13
-2.3886532e-13
-3.0530287e-13
3.7223818e-13
1.863212e-13
-3.203776e-13
-4.0905804e-13
2.9005752e-13
1.3977789e-13
-3.8177206e-13
-4.8544691e-13
2.1614992e-13
9.5280649e-14
-4.2264145e-13
-5.3772265e-13
1.4754164e-13
5.5556788e-14
-4.4661179e-13
-5.6674064e-13
8.4562159e-14
1.9951125e-14
-4.5554528e-13
-5.7853455e-13
3.1734468e-14
-7.8990633e-15
-4.521228e-13
-5.7386409e-13
-1.2578206e-14
-3.0449208e-14
-4.3866604e-13
-5.5613201e-13
-4.8188291e-14
-4.7288215e-14
-4.1796791e-13
-5.2958283e-13
-7.3842901e-14
-6.0035881e-14
-3.9176498e-13
-4.9615312e-13
-9.3469725e-14
-6.8466515e-14
-3.6185538e-13
-4.5757936e-13
-1.0704321e-13
-7.1305737e-14
-3.3087868e-13
-4.1846787e-13
-1.1041911e-13
-7.1383652e-14
-2.9977189e-13
-3.7862392e-13
-1.1122859e-13
-6.8204266e-14
-2.7004993e-13
-3.4048509e-13
-1.0634338e-13
-6.1762474e-14
-2.4315035e-13
-3.0647281e-13
-9.577451e-14
-5.2229016e-14
-2.204246e-13
-2.7769161e-13
-8.1009601e-14
-4.0312797e-14
-2.0294886e-13
-2.5543512e-13
-6.2568392e-14
-2.6937827e-14
-1.9125459e-13
-2.4052863e-13
-4.1843141e-14
-1.3215768e-14
-1.8545999e-13
-2.3315745e-13
-2.058537e-14
-9.0946296e-16
-1.3909745e-15
-2.392647e-12
2.3891177e-12
-5.132788e-12
2.7332155e-12
-9.0073638e-12
3.8662305e-12
-1.4666093e-11
5.6504831e-12
-2.2876496e-11
8.203552e-12
-3.4536431e-11
1.165556e-11
-5.0779798e-11
1.6240935e-11
-7.2885097e-11
2.2104352e-11
-1.0131553e-10
2.8430601e-11
-1.352644e-10
3.3949827e-11
-1.734171e-10
3.8154211e-11
-2.1494499e-10
4.1529737e-11
-2.5918991e-10
4.4246957e-11
-3.0445816e-10
4.5270353e-11
-3.4948792e-10
4.5031803e-11
-3.9342929e-10
4.3943287e-11
-4.3630059e-10
4.2873028e-11
-4.7702074e-10
4.0721617e-11
-5.1397781e-10
3.6958253e-11
-5.4630241e-10
3.2325474e-11
-5.734429e-10
2.7141058e-11
-5.9501584e-10
2.1573219e-11
-6.1071332e-10
1.5697509e-11
-6.200528e-10
9.3393426e-12
2.3723407e-12
-4.0422476e-11
4.2815297e-11
-8.9755591e-11
5.2072134e-11
-1.4954911e-10
6.3666526e-11
-2.2135175e-10
7.7460247e-11
-3.0698449e-10
9.3843466e-11
-4.0834461e-10
1.130227e-10
-5.2672367e-10
1.346267e-10
-6.6234734e-10
1.5773429e-10
-8.1304351e-10
1.791325e-10
-9.7654691e-10
1.9745837e-10
-1.1503415e-09
2.1195337e-10
-1.3311972e-09
2.2238934e-10
-1.5160505e-09
2.2910359e-10
-1.7035405e-09
2.3276312e-10
-1.8918966e-09
2.3339016e-10
-2.0797878e-09
2.3183624e-10
-2.2751971e-09
2.382835e-10
-2.4627343e-09
2.282596e-10
-2.6338856e-09
2.081099e-10
-2.7836799e-09
1.8211969e-10
-2.9082687e-09
1.5172937e-10
-3.0047899e-09
1.1809361e-10
-3.0710046e-09
8.1910998e-11
-3.1028599e-09
4.1193304e-11
1.0579455e-11
-1.1920031e-10
1.6202344e-10
-2.629315e-10
1.9581552e-10
-4.3471841e-10
2.3546757e-10
-6.3885404e-10
2.8161034e-10
-8.7889031e-10
3.3389376e-10
-1.1570335e-09
3.9117896e-10
-1.4765417e-09
4.5414675e-10
-1.9005523e-09
5.8175534e-10
-2.3620875e-09
6.4067656e-10
-2.8337473e-09
6.6912561e-10
-3.3006287e-09
6.788406e-10
-3.753813e-09
6.7557828e-10
-4.1868378e-09
6.6213179e-10
-4.5941895e-09
6.4011703e-10
-4.9698009e-09
6.0900278e-10
-5.3082134e-09
5.7024913e-10
-5.5951817e-09
5.2525139e-10
-5.8414608e-09
4.7453743e-10
-6.0526351e-09
4.1928246e-10
-6.2309779e-09
3.6046007e-10
-6.378226e-09
2.9897464e-10
-6.4956737e-09
2.3553795e-10
-6.5836818e-09
1.6991531e-10
-6.6447707e-09
1.0227826e-10
3.384325e-11
-3.6642216e-10
5.2846101e-10
-7.8460274e-10
6.1401918e-10
-1.2721091e-09
7.2299905e-10
-2.0647917e-09
1.0743154e-09
-2.9274705e-09
1.1965915e-09
-3.7530698e-09
1.2167934e-09
-4.4901182e-09
1.1912069e-09
-5.0432797e-09
1.1349259e-09
-5.4599846e-09
1.0573882e-09
-5.7568622e-09
9.6600821e-10
-5.948542e-09
8.7052391e-10
-6.0475795e-09
7.7461796e-10
-6.0648315e-09
6.7938515e-10
-6.0014603e-09
5.7674635e-10
-5.8729316e-09
4.8047406e-10
-5.6964692e-09
3.937861e-10
-5.4890586e-09
3.1783986e-10
-5.2676115e-09
2.5308898e-10
-5.0478476e-09
1.9951704e-10
-4.8436693e-09
1.5627995e-10
-4.6666405e-09
1.2194382e-10
-4.5259083e-09
9.4803584e-11
-4.4265257e-09
7.0530375e-11
-4.3723658e-09
4.8115792e-11
2.5129489e-11
-2.1987306e-09
2.7272163e-09
-3.9453404e-09
2.3606563e-09
-5.4554538e-09
2.2331385e-09
-6.1524024e-09
1.771282e-09
-6.2449561e-09
1.2891594e-09
-5.7889625e-09
7.6081126e-10
-5.0378871e-09
4.4014095e-10
-4.0578532e-09
1.5490004e-10
-2.9131985e-09
-8.7259384e-11
-1.6606853e-09
-2.8649893e-10
-4.1821253e-10
-3.7194435e-10
8.1712742e-10
-4.6072226e-10
2.0981265e-09
-6.0161453e-10
3.5074373e-09
-8.3256385e-10
4.8869954e-09
-8.9908176e-10
6.1947617e-09
-9.1397618e-10
7.4074763e-09
-8.9486895e-10
8.5102375e-09
-8.4966484e-10
9.4927587e-09
-7.8299506e-10
1.034689e-08
-6.9784068e-10
1.1065185e-08
-5.9633929e-10
1.164029e-08
-4.8028779e-10
1.2062573e-08
-3.5173839e-10
1.2323966e-08
-2.1326236e-10
-6.3776768e-11
1.0170881e-09
1.7102136e-09
4.1828943e-09
-8.0509871e-10
7.8680381e-09
-1.4519336e-09
1.1538103e-08
-1.8987518e-09
1.525533e-08
-2.4280419e-09
1.8899599e-08
-2.8834288e-09
2.2490965e-08
-3.1511934e-09
2.5869077e-08
-3.2231738e-09
2.8942159e-08
-3.1602989e-09
3.168128e-08
-3.0255729e-09
3.4158421e-08
-2.8490355e-09
3.6336181e-08
-2.6384292e-09
3.8154545e-08
-2.4199237e-09
3.9534958e-08
-2.2129218e-09
4.063414e-08
-1.9982079e-09
4.1503952e-08
-1.7837314e-09
4.218466e-08
-1.5755211e-09
4.2709861e-08
-1.3748104e-09
4.3108678e-08
-1.1817562e-09
4.3406444e-08
-9.9555144e-10
4.3624695e-08
-8.145355e-10
4.378079e-08
-6.3632788e-10
4.388714e-08
-4.5803452e-10
4.3951123e-08
-2.7719188e-10
-8.7960277e-11
1.488973e-07
-2.2887383e-09
1.4754251e-07
5.5060683e-10
1.4500874e-07
1.0826197e-09
1.4157248e-07
1.5382064e-09
1.3705115e-07
2.0938999e-09
1.3159969e-07
2.5685487e-09
1.2558698e-07
2.8619633e-09
1.1940415e-07
2.9600421e-09
1.1332035e-07
2.9238308e-09
1.0749039e-07
2.8046723e-09
1.0198554e-07
2.6560688e-09
9.6856554e-08
2.4907785e-09
9.2134972e-08
2.3018565e-09
8.7820847e-08
2.1013815e-09
8.3924634e-08
1.8981656e-09
8.0444292e-08
1.696757e-09
7.7368716e-08
1.5001887e-09
7.4684357e-08
1.3096714e-09
7.2376984e-08
1.1257303e-09
7.0433604e-08
9.4793401e-10
6.8844119e-08
7.7504944e-10
6.7602627e-08
6.0525749e-10
6.6708897e-08
4.3578395e-10
6.6167738e-08
2.6405205e-10
8.4240592e-11
1.3005815e-08
-1.6436535e-09
1.5339514e-08
-1.7829795e-09
1.7974252e-08
-1.5520046e-09
2.0703771e-08
-1.1912027e-09
2.3529815e-08
-7.3203773e-10
2.6452047e-08
-3.5358198e-10
2.9383713e-08
-6.9610411e-11
3.2164907e-08
1.7893624e-10
3.4750195e-08
3.3863069e-10
3.7111479e-08
4.4347584e-10
3.9206248e-08
5.613868e-10
4.0854573e-08
8.4253843e-10
4.2161249e-08
9.9526329e-10
4.3201201e-08
1.0615115e-09
4.4017117e-08
1.0823281e-09
4.4645432e-08
1.0685195e-09
4.5119233e-08
1.0264617e-09
4.5468694e-08
9.602834e-10
4.572003e-08
8.7446362e-10
4.58961e-08
7.7193224e-10
4.6016324e-08
6.5489162e-10
4.6096656e-08
5.2498921e-10
4.6148494e-08
3.8400717e-10
4.6179132e-08
2.3347388e-10
7.0823426e-11
-5.199291e-09
-8.2322269e-10
-5.9189612e-09
-1.0633199e-09
-6.2954664e-09
-1.1755104e-09
-6.2557376e-09
-1.2309419e-09
-5.7576696e-09
-1.2301144e-09
-4.9289385e-09
-1.1823195e-09
-3.8888563e-09
-1.1096961e-09
-2.6904531e-09
-1.0194677e-09
-1.4335731e-09
-9.1824741e-10
-1.7496936e-10
-8.151234e-10
1.0975532e-09
-7.11129e-10
2.5436567e-09
-6.0355604e-10
4.0372509e-09
-4.9831949e-10
5.5001899e-09
-4.0141393e-10
6.8969157e-09
-3.1438229e-10
8.2027271e-09
-2.3727501e-10
9.4111767e-09
-1.8196961e-10
1.051417e-08
-1.426905e-10
1.1498657e-08
-1.1000277e-10
1.2354536e-08
-8.3926802e-11
1.3073348e-08
-6.3898738e-11
1.3647252e-08
-4.889355e-11
1.4068864e-08
-3.7583881e-11
1.4330178e-08
-2.7818679e-11
-1.6776316e-11
-2.241144e-09
-1.8791724e-10
-3.0439446e-09
-2.6052253e-10
-3.8812502e-09
-3.3821049e-10
-4.6969626e-09
-4.1523761e-10
-5.4325199e-09
-4.94567e-10
-5.9814858e-09
-6.3336464e-10
-6.4004711e-09
-6.9072251e-10
-6.6989511e-09
-7.2099954e-10
-6.8834525e-09
-7.3375786e-10
-6.9657596e-09
-7.3282785e-10
-6.9552713e-09
-7.2162841e-10
-6.8560984e-09
-7.0273942e-10
-6.6785651e-09
-6.7586253e-10
-6.4383134e-09
-6.416745e-10
-6.1514763e-09
-6.0122753e-10
-5.8326021e-09
-5.5615649e-10
-5.5068227e-09
-5.0775558e-10
-5.1922885e-09
-4.5723051e-10
-4.898256e-09
-4.0404042e-10
-4.6339726e-09
-3.4821492e-10
-4.4080289e-09
-2.8984667e-10
-4.2279403e-09
-2.2898595e-10
-4.0998374e-09
-1.6569046e-10
-4.0274836e-09
-1.0017591e-10
-3.3659484e-11
-5.5215484e-10
1.2093258e-12
-7.9176085e-10
-2.0914478e-11
-1.0764588e-09
-5.3511185e-11
-1.4082553e-09
-8.3440573e-11
-1.7832555e-09
-1.1956731e-10
-2.2576868e-09
-1.5893497e-10
-2.752936e-09
-1.9547617e-10
-3.2487033e-09
-2.2523621e-10
-3.7347878e-09
-2.4767841e-10
-4.2051296e-09
-2.6249195e-10
-4.6540703e-09
-2.7269446e-10
-5.0762033e-09
-2.8061367e-10
-5.4632746e-09
-2.8879914e-10
-5.7908025e-09
-3.1415472e-10
-6.0779291e-09
-3.1410945e-10
-6.3301668e-09
-3.0392739e-10
-6.551087e-09
-2.8684415e-10
-6.7438458e-09
-2.6448043e-10
-6.9103848e-09
-2.3751019e-10
-7.052224e-09
-2.0638451e-10
-7.170503e-09
-1.7157638e-10
-7.2658602e-09
-1.3363739e-10
-7.3382836e-09
-9.3275541e-11
-7.3875724e-09
-5.0895684e-11
-1.1654637e-11
-1.2190071e-10
4.8851304e-11
-1.9340921e-10
5.0595368e-11
-2.9135401e-10
4.4434888e-11
-4.1191057e-10
3.7117031e-11
-5.5910968e-10
2.7632526e-11
-7.3108838e-10
1.304404e-11
-9.2197883e-10
-4.5858646e-12
-1.1246923e-09
-2.2523368e-11
-1.3337612e-09
-3.861058e-11
-1.5479061e-09
-4.8348471e-11
-1.7637698e-09
-5.6832674e-11
-1.9809169e-09
-6.3468819e-11
-2.2017089e-09
-6.8009795e-11
-2.4454748e-09
-7.0391769e-11
-2.6888553e-09
-7.0732321e-11
-2.9234621e-09
-6.9324239e-11
-3.1439818e-09
-6.6328428e-11
-3.3465517e-09
-6.191475e-11
-3.5278178e-09
-5.6248446e-11
-3.6847447e-09
-4.9462137e-11
-3.8146351e-09
-4.1690629e-11
-3.9151791e-09
-3.3098015e-11
-3.9846049e-09
-2.3854448e-11
-4.0214433e-09
-1.4061996e-11
-3.9604e-12
1.7467809e-11
4.1751533e-11
1.8866941e-11
4.9196798e-11
9.1906644e-12
5.4111633e-11
-9.5657662e-12
5.587383e-11
-3.7318258e-11
5.5385282e-11
-7.6862862e-11
5.2588793e-11
-1.2674741e-10
4.5298709e-11
-1.8469518e-10
3.5424309e-11
-2.4866673e-10
2.536076e-11
-3.159936e-10
1.8978063e-11
-3.8558642e-10
1.2759706e-11
-4.5622843e-10
7.1726334e-12
-5.2685963e-10
2.6207427e-12
-5.9671612e-10
-5.3603887e-13
-6.6476052e-10
-2.6887868e-12
-7.2990271e-10
-4.1829971e-12
-7.9120004e-10
-5.0321382e-12
-8.4779912e-10
-5.3167785e-12
-8.9882447e-10
-5.2242618e-12
-9.4339815e-10
-4.8896631e-12
-9.8069317e-10
-4.3968337e-12
-1.0100125e-09
-3.7798808e-12
-1.0308253e-09
-3.0429306e-12
-1.0428092e-09
-2.0792105e-12
-6.2700571e-13
4.7308828e-11
2.3792016e-11
6.628984e-11
3.0216263e-11
8.5070643e-11
3.533126e-11
1.0104658e-10
3.9898281e-11
1.1375608e-10
4.2676142e-11
1.2340083e-10
4.2944369e-11
1.284093e-10
4.0290536e-11
1.2772698e-10
3.6106915e-11
1.2181601e-10
3.1271986e-11
1.1548422e-10
2.5310089e-11
1.0858659e-10
1.9657557e-11
1.0081315e-10
1.4946276e-11
9.3147418e-11
1.0286661e-11
8.6111013e-11
6.50054e-12
8.0034926e-11
3.3874643e-12
7.5334628e-11
5.174575e-13
7.1778306e-11
-1.4756625e-12
6.9166669e-11
-2.7049904e-12
6.7282819e-11
-3.3402604e-12
6.5915486e-11
-3.5221784e-12
6.4812881e-11
-3.2940752e-12
6.3941411e-11
-2.9082553e-12
6.3121778e-11
-2.2231395e-12
6.250541e-11
-1.4626878e-12
-7.5482796e-13
2.956269e-11
1.1617766e-11
4.4284716e-11
1.5494641e-11
6.0613448e-11
1.9002928e-11
7.8211357e-11
2.2300764e-11
9.5699017e-11
2.5188869e-11
1.1157212e-10
2.7071652e-11
1.2463877e-10
2.7224255e-11
1.3458654e-10
2.6159519e-11
1.4254152e-10
2.3317378e-11
1.4787792e-10
1.9974051e-11
1.5074903e-10
1.6786806e-11
1.5330021e-10
1.2395444e-11
1.5475896e-10
8.8282554e-12
1.5622576e-10
5.0340712e-12
1.5790402e-10
1.7095419e-12
1.5953883e-10
-1.1170276e-12
1.6130801e-10
-3.2445248e-12
1.6325353e-10
-4.6501944e-12
1.6532107e-10
-5.4074793e-12
1.6738514e-10
-5.585938e-12
1.6937484e-10
-5.2834747e-12
1.7102004e-10
-4.5531601e-12
1.7224042e-10
-3.4432434e-12
1.7301004e-10
-2.2320414e-12
-9.7884326e-13
7.8144071e-12
7.6360749e-12
1.3402924e-11
9.9063767e-12
1.9946234e-11
1.2459873e-11
2.7532202e-11
1.4715048e-11
3.5881267e-11
1.6840051e-11
4.431288e-11
1.8640283e-11
5.1545367e-11
1.9992007e-11
5.6727815e-11
2.0977304e-11
6.00958e-11
1.9949618e-11
6.1740348e-11
1.8329718e-11
6.161395e-11
1.6913408e-11
5.9545487e-11
1.4464098e-11
5.6676963e-11
1.1696958e-11
5.282658e-11
8.8846196e-12
4.847953e-11
6.056744e-12
4.4093386e-11
3.269256e-12
3.9824189e-11
1.0247989e-12
3.5715646e-11
-5.4153533e-13
3.1968421e-11
-1.6601489e-12
2.8713949e-11
-2.3313708e-12
2.6048638e-11
-2.6180791e-12
2.4020063e-11
-2.5245091e-12
2.2753948e-11
-2.1770623e-12
2.198496e-11
-1.4629972e-12
-4.2970316e-13
-3.6658246e-12
7.3836191e-12
-3.2103112e-12
9.4509594e-12
-2.6069333e-12
1.1856598e-11
-1.6086101e-12
1.3716827e-11
-4.0358746e-13
1.5635126e-11
1.2603819e-12
1.6976406e-11
2.688357e-12
1.8564117e-11
3.7071213e-12
1.9958616e-11
3.2310392e-12
2.0425766e-11
5.8745619e-13
2.0973356e-11
-2.1860283e-12
1.9686935e-11
-5.9500943e-12
1.8228194e-11
-1.0841185e-11
1.6588064e-11
-1.7051675e-11
1.5095113e-11
-2.3727088e-11
1.2732147e-11
-3.0958444e-11
1.0500589e-11
-3.7898268e-11
7.9645879e-12
-4.4728344e-11
6.2884957e-12
-5.1072235e-11
4.6836871e-12
-5.680727e-11
3.4036008e-12
-6.166323e-11
2.23781e-12
-6.5666304e-11
1.4784883e-12
-6.8816727e-11
9.732781e-13
-7.1102685e-11
8.2287385e-13
3.4399451e-13
-5.18921e-12
8.3494222e-12
-6.0640815e-12
1.0325805e-11
-6.5361863e-12
1.2328699e-11
-7.2686136e-12
1.4449258e-11
-7.8115319e-12
1.6178049e-11
-8.3949205e-12
1.7559796e-11
-9.0524773e-12
1.922167e-11
-9.6110772e-12
2.0517205e-11
-1.0743701e-11
2.1558372e-11
-1.2095254e-11
2.2324884e-11
-1.4649366e-11
2.2241011e-11
-1.8124952e-11
2.1703736e-11
-2.2431792e-11
2.089485e-11
-2.6938594e-11
1.9601851e-11
-3.2124948e-11
1.7918428e-11
-3.7586431e-11
1.596199e-11
-4.3499292e-11
1.3877359e-11
-4.9122689e-11
1.1911795e-11
-5.4544773e-11
1.0105668e-11
-5.944029e-11
8.2990103e-12
-6.3648903e-11
6.4463106e-12
-6.7020036e-11
4.8495079e-12
-6.9427488e-11
3.3806132e-12
-7.0564552e-11
1.9598218e-12
5.9314495e-13
-2.1334948e-12
8.7502413e-12
-2.4300251e-12
1.0622214e-11
-2.5081679e-12
1.2406756e-11
-2.3852903e-12
1.4326316e-11
-2.1500294e-12
1.5942734e-11
-2.1216038e-12
1.7531321e-11
-1.9900702e-12
1.9090088e-11
-1.8804567e-12
2.0407543e-11
-1.6055271e-12
2.1283392e-11
-1.6827659e-12
2.2402069e-11
-2.2525483e-12
2.2810736e-11
-3.4160132e-12
2.2867138e-11
-5.0425588e-12
2.2521329e-11
-7.1498151e-12
2.1709036e-11
-9.7263811e-12
2.0494917e-11
-1.2560448e-11
1.8795976e-11
-1.5878109e-11
1.7194935e-11
-1.9284132e-11
1.5317729e-11
-2.2525572e-11
1.3347017e-11
-2.5526892e-11
1.1300238e-11
-2.8282227e-11
9.2015513e-12
-3.0588158e-11
7.1553458e-12
-3.2325987e-11
5.1183488e-12
-3.3404444e-11
3.038188e-12
9.3932216e-13
1.0538239e-12
8.2846073e-12
1.6688851e-12
1.0006993e-11
2.4660562e-12
1.160945e-11
3.5059411e-12
1.3286321e-11
4.5624775e-12
1.4886106e-11
5.8573224e-12
1.6236396e-11
7.1660748e-12
1.7781264e-11
8.7903316e-12
1.8783219e-11
9.9121255e-12
2.0161534e-11
1.1196616e-11
2.1117517e-11
1.2546928e-11
2.1460363e-11
1.3433533e-11
2.1980473e-11
1.3893855e-11
2.2060947e-11
1.3995206e-11
2.1607625e-11
1.3662352e-11
2.082771e-11
1.2783691e-11
1.9674574e-11
1.1701631e-11
1.8276931e-11
1.040581e-11
1.6613486e-11
9.0141383e-12
1.4738624e-11
7.6142218e-12
1.270009e-11
6.3142213e-12
1.0501488e-11
5.1289666e-12
8.3405389e-12
4.0502376e-12
6.1970166e-12
3.411051e-12
3.6773172e-12
9.4221612e-13
2.4926191e-12
7.3546064e-12
3.6127433e-12
8.8867267e-12
4.855055e-12
1.0367006e-11
6.396379e-12
1.1744878e-11
8.0813487e-12
1.320103e-11
9.8166647e-12
1.4500987e-11
1.1902786e-11
1.569506e-11
1.3764865e-11
1.6921067e-11
1.5975091e-11
1.7951241e-11
1.820521e-11
1.8887337e-11
2.005256e-11
1.9612957e-11
2.1907279e-11
2.01257e-11
2.3661786e-11
2.0306388e-11
2.5272688e-11
1.9996674e-11
2.6335555e-11
1.9764796e-11
2.7037574e-11
1.8972508e-11
2.7482889e-11
1.7831571e-11
2.7658634e-11
1.6437696e-11
2.7621467e-11
1.4775746e-11
2.7439794e-11
1.288172e-11
2.7153678e-11
1.0787561e-11
2.6962784e-11
8.5313932e-12
2.7127441e-11
6.0323194e-12
2.7066873e-11
3.7378504e-12
1.4539057e-12
2.6445425e-12
6.4103703e-12
3.799865e-12
7.7312817e-12
5.1666164e-12
9.0001377e-12
6.6630783e-12
1.0248307e-11
8.4284677e-12
1.1435541e-11
1.0291909e-11
1.2637455e-11
1.2270525e-11
1.3716363e-11
1.4435104e-11
1.4756416e-11
1.667184e-11
1.571444e-11
1.8992486e-11
1.6566632e-11
2.1390614e-11
1.7214776e-11
2.3707374e-11
1.780889e-11
2.5934094e-11
1.8079623e-11
2.7844797e-11
1.8085928e-11
2.9719084e-11
1.7890467e-11
3.1325316e-11
1.7366238e-11
3.2731275e-11
1.6425575e-11
3.3790479e-11
1.5378457e-11
3.4612527e-11
1.3953665e-11
3.5224264e-11
1.2269949e-11
3.5650904e-11
1.036089e-11
3.5931094e-11
8.251174e-12
3.5972064e-11
5.9913204e-12
3.6063236e-11
3.6466529e-12
1.3109887e-12
2.3366493e-12
5.5830498e-12
3.3619819e-12
6.7058336e-12
4.562144e-12
7.7998681e-12
5.9358961e-12
8.8744552e-12
7.4606389e-12
9.9107061e-12
9.1412673e-12
1.0956742e-11
1.0964844e-11
1.1892709e-11
1.2961698e-11
1.2759492e-11
1.5102146e-11
1.3573929e-11
1.73561e-11
1.4312622e-11
1.9635607e-11
1.4935218e-11
2.2007639e-11
1.5436811e-11
2.4331989e-11
1.5755231e-11
2.6543052e-11
1.5874825e-11
2.8680596e-11
1.5752886e-11
3.0658419e-11
1.538838e-11
3.2352375e-11
1.4731585e-11
3.3902129e-11
1.3828672e-11
3.5216662e-11
1.2639102e-11
3.6288482e-11
1.1198101e-11
3.7118445e-11
9.5309011e-12
3.7704984e-11
7.6646102e-12
3.8042091e-11
5.6541893e-12
3.8224048e-11
3.4646756e-12
1.1077878e-12
2.0422577e-12
4.8923402e-12
2.9003763e-12
5.8476036e-12
3.9121464e-12
6.787994e-12
5.0873458e-12
7.6991594e-12
6.4163491e-12
8.5816143e-12
7.9514292e-12
9.4215817e-12
9.5634224e-12
1.0280643e-11
1.132475e-11
1.0998098e-11
1.32415e-11
1.165712e-11
1.5292563e-11
1.2261505e-11
1.7423799e-11
1.2803932e-11
1.9636684e-11
1.3223881e-11
2.1861844e-11
1.3530031e-11
2.409267e-11
1.3643961e-11
2.6274943e-11
1.3570579e-11
2.8299574e-11
1.3363717e-11
3.0227015e-11
1.2804113e-11
3.1983037e-11
1.2072621e-11
3.352017e-11
1.1101942e-11
3.4809116e-11
9.90913e-12
3.5861508e-11
8.4784852e-12
3.6672284e-11
6.8538127e-12
3.725404e-11
5.0724122e-12
3.7578472e-11
3.1402247e-12
9.869095e-13
1.8961882e-12
4.2836315e-12
2.6446416e-12
5.0990546e-12
3.537809e-12
5.8947343e-12
4.5763886e-12
6.6604923e-12
5.7614835e-12
7.3964377e-12
7.0792156e-12
8.1037748e-12
8.596954e-12
8.7628367e-12
1.0184033e-11
9.4109571e-12
1.1894598e-11
9.9464994e-12
1.3731837e-11
1.0424216e-11
1.5691565e-11
1.084416e-11
1.7740379e-11
1.1175026e-11
1.9773847e-11
1.1496525e-11
2.1892488e-11
1.1525286e-11
2.3972187e-11
1.1490848e-11
2.6043289e-11
1.1292585e-11
2.7964728e-11
1.0882647e-11
2.9757368e-11
1.0279956e-11
3.1379495e-11
9.4797911e-12
3.2771506e-11
8.5170963e-12
3.3966028e-11
7.2839419e-12
3.4934939e-11
5.8848834e-12
3.5705689e-11
4.3016437e-12
3.6207613e-11
2.6382843e-12
1.0022028e-12
1.8304244e-12
3.7110274e-12
2.5606021e-12
4.3687962e-12
3.3688509e-12
5.0864072e-12
4.3177335e-12
5.7115352e-12
5.4005177e-12
6.3135835e-12
6.6209047e-12
6.8833227e-12
7.9627934e-12
7.4208881e-12
9.4507299e-12
7.9229657e-12
1.1019854e-11
8.3773257e-12
1.2689863e-11
8.7541613e-12
1.4465829e-11
9.0681533e-12
1.6314208e-11
9.3266097e-12
1.8293181e-11
9.5175181e-12
2.0245135e-11
9.5733009e-12
2.2192961e-11
9.5429935e-12
2.4127363e-11
9.358157e-12
2.5987096e-11
9.0228902e-12
2.7731135e-11
8.5358946e-12
2.9324748e-11
7.8861571e-12
3.0769193e-11
7.0726318e-12
3.1968538e-11
6.0845797e-12
3.292738e-11
4.9260253e-12
3.3581221e-11
3.6477872e-12
3.3966031e-11
2.2534605e-12
7.4103811e-13
1.7976358e-12
3.1400285e-12
2.4652911e-12
3.7010718e-12
3.2710085e-12
4.280623e-12
4.1554262e-12
4.8270538e-12
5.154665e-12
5.3142846e-12
6.2710555e-12
5.7668761e-12
7.5075358e-12
6.1843559e-12
8.8633498e-12
6.5671042e-12
1.0328101e-11
6.9125312e-12
1.1876711e-11
7.2055112e-12
1.349131e-11
7.4535188e-12
1.5203581e-11
7.6143061e-12
1.6997154e-11
7.7239156e-12
1.8808545e-11
7.761883e-12
2.0639034e-11
7.7124804e-12
2.2442701e-11
7.5544674e-12
2.4185013e-11
7.2805575e-12
2.5830334e-11
6.8905548e-12
2.7344073e-11
6.3724013e-12
2.8724842e-11
5.6918463e-12
2.9909706e-11
4.8997007e-12
3.082113e-11
4.014589e-12
3.1406131e-11
3.0627729e-12
3.18139e-11
1.8456803e-12
4.5300035e-13
1.7224476e-12
2.5975261e-12
2.3588723e-12
3.0645871e-12
3.1207389e-12
3.5186985e-12
3.9793425e-12
3.968395e-12
4.9129455e-12
4.3806295e-12
5.9352441e-12
4.7445288e-12
7.0644741e-12
5.0550809e-12
8.2974267e-12
5.3341101e-12
9.6317301e-12
5.57819e-12
1.1053848e-11
5.7833589e-12
1.2559351e-11
5.9479849e-12
1.4101115e-11
6.0725136e-12
1.5706343e-11
6.1186621e-12
1.7353472e-11
6.1147303e-12
1.9018767e-11
6.0471648e-12
2.0668638e-11
5.9045766e-12
2.2269646e-11
5.6795318e-12
2.3795484e-11
5.3647014e-12
2.5218795e-11
4.9490759e-12
2.64868e-11
4.4238276e-12
2.7586541e-11
3.7999468e-12
2.8533224e-11
3.0678961e-12
2.9447161e-11
2.1488254e-12
2.9920019e-11
1.3728132e-12
5.9917504e-13
1.6200667e-12
2.0949853e-12
2.2132158e-12
2.4713849e-12
2.8958331e-12
2.8360301e-12
3.7049138e-12
3.1592656e-12
4.5991104e-12
3.4863872e-12
5.563885e-12
3.7797114e-12
6.5923725e-12
4.0265538e-12
7.7011878e-12
4.2252584e-12
8.8974841e-12
4.3818604e-12
1.0168706e-11
4.5121064e-12
1.1514028e-11
4.6026357e-12
1.2923266e-11
4.6632506e-12
1.436323e-11
4.6786767e-12
1.5818024e-11
4.6599158e-12