/*--------------------------------*- C++ -*----------------------------------*\
| =========                 |                                                 |
| \\      /  F ield         | OpenFOAM: The Open Source CFD Toolbox           |
|  \\    /   O peration     | Version:  4.0                                   |
|   \\  /    A nd           | Web:      www.OpenFOAM.org                      |
|    \\/     M anipulation  |                                                 |
\*---------------------------------------------------------------------------*/
FoamFile
{
    version     2.0;
    format      ascii;
    class       volVectorField;
    location    "0.22";
    object      U;
}
// * * * * * * * * * * * * * * * * * * * * * * * * * * * * * * * * * * * * * //

dimensions      [0 1 -1 0 0 0 0];

internalField   nonuniform List<vector> 
1740
(
(1.4627053 0.00083120842 5.254137e-06)
(1.5285486 -0.0016821302 7.7780394e-07)
(1.5880671 -0.0012550152 1.9306621e-08)
(1.4769099 -0.0063600843 9.6015123e-06)
(1.5643943 -0.013847767 1.829928e-06)
(1.6075791 -0.007852449 3.0935436e-07)
(1.4696833 -0.015201575 1.1819726e-05)
(1.5026419 -0.011257969 2.6182363e-06)
(1.5097395 -0.0042821044 4.6643862e-07)
(1.5719282 -0.010074196 1.3371226e-05)
(1.5024127 -0.0020773772 3.4579108e-06)
(1.6074098 -0.0011102542 5.5379764e-07)
(1.5734088 0.0043399501 1.5274687e-05)
(1.5252358 -0.0010324918 4.3211231e-06)
(1.6023321 -0.0081041135 8.275841e-07)
(1.4707567 0.0017364532 1.6372802e-05)
(1.5172839 -0.0053193893 5.157254e-06)
(1.4948531 -0.010128271 1.0018482e-06)
(1.5668413 -0.0071016398 1.725768e-05)
(1.5866641 -0.0085669954 5.9096183e-06)
(1.5842829 -0.0054681647 1.0996953e-06)
(1.5660993 0.0049958529 1.8320062e-05)
(1.586166 -0.00033372303 6.5641385e-06)
(1.5744272 -0.0073213576 1.4026798e-06)
(1.4711307 0.0069155305 1.8724097e-05)
(1.5872599 0.0024646318 7.2581691e-06)
(1.4899656 -0.003870781 1.5789413e-06)
(1.4925867 -0.0045165485 1.9116144e-05)
(1.6035785 0.016921417 7.8694675e-06)
(1.5129322 0.016091844 1.7081209e-06)
(1.5038816 -0.011054272 1.9256416e-05)
(1.5117112 0.0050483905 8.243057e-06)
(1.5996462 0.0063735958 1.9255213e-06)
(1.5817141 -0.021042316 1.9662495e-05)
(1.5364202 -0.020204143 8.9713394e-06)
(1.5848374 -0.0048650999 2.1132112e-06)
(1.6643425 -0.010333864 2.0160431e-05)
(1.5154962 0.0034437853 9.4179562e-06)
(1.5028388 0.0085427013 2.3244993e-06)
(1.5911824 0.012109434 2.0439793e-05)
(1.5021364 0.018506523 9.9046617e-06)
(1.6079629 0.0096903293 2.4777924e-06)
(1.5278436 0.0014861247 2.0548307e-05)
(1.5087634 -0.01710741 1.0421484e-05)
(1.5926908 -0.017120202 2.7303826e-06)
(1.5808215 -0.0027378064 2.0332343e-05)
(1.5875323 -0.020096803 1.0593015e-05)
(1.4883131 -0.013335067 2.8749091e-06)
(1.6605836 0.0011013874 2.0788945e-05)
(1.5574239 0.020916617 1.1369628e-05)
(1.5577387 0.0085105806 3.061863e-06)
(1.5669782 -0.0023972895 2.1449975e-05)
(1.4599681 0.0093661104 1.1743581e-05)
(1.6032859 0.0050558449 3.2373705e-06)
(1.5833558 -0.0065444628 2.1628122e-05)
(1.5043884 -0.027475378 1.2063678e-05)
(1.536161 -0.016379029 3.4123446e-06)
(1.6340075 -0.0015124708 2.1668024e-05)
(1.5542927 -0.021736362 1.2495331e-05)
(1.4997368 -0.015808211 3.572561e-06)
(1.6360247 0.0088941514 2.1634583e-05)
(1.6349564 0.0062567078 1.2717921e-05)
(1.5241728 -0.0010793903 3.7779471e-06)
(1.5777061 0.011852398 2.2070878e-05)
(1.6553888 0.01870109 1.316284e-05)
(1.5345098 0.010728695 3.970377e-06)
(1.492012 -0.0013009621 2.2795053e-05)
(1.5744804 0.0081593555 1.3550338e-05)
(1.5047213 0.005130231 4.1092994e-06)
(1.5246983 0.0040504464 2.3023425e-05)
(1.566824 -0.0060412264 1.389637e-05)
(1.5013576 -0.006192015 4.2334779e-06)
(1.5000376 0.026093048 2.2243335e-05)
(1.6389359 -0.01219818 1.4060813e-05)
(1.5091899 -0.013575938 4.3987437e-06)
(1.4587478 0.0077152901 2.1765797e-05)
(1.6907189 -0.006930962 1.4351209e-05)
(1.4989797 -0.006100788 4.5474857e-06)
(1.4786913 -0.011298977 2.1991049e-05)
(1.5908376 0.00047830607 1.4579255e-05)
(1.4827397 0.0063507992 4.6765302e-06)
(1.4609421 -0.016011318 2.2531876e-05)
(1.5523068 -0.0005597441 1.4884246e-05)
(1.4746086 0.0063665434 4.8486402e-06)
(1.45115 -0.012996741 2.2042738e-05)
(1.5006589 0.0037720203 1.5020999e-05)
(1.4911963 0.0053299846 4.8008037e-06)
(1.3205813 0.03560319 2.3511016e-05)
(1.2680574 0.10579731 1.563782e-05)
(1.3826823 0.066617037 5.5513124e-06)
(0.81996932 0.37620327 1.138395e-05)
(0.79109819 0.93382365 9.9004234e-06)
(0.73364409 1.2493416 5.3939288e-06)
(0.21501588 0.11069609 1.4700806e-06)
(0.18026253 0.36130628 3.088546e-06)
(0.0890004 0.49364445 7.0277464e-07)
(-0.031602054 -0.013985476 1.2465037e-06)
(-0.029715192 -0.029430582 1.7186205e-06)
(-0.01841076 -0.034272616 6.1621583e-07)
(-0.0077634089 -0.0034143333 4.6536337e-07)
(-0.0072531716 -0.0084927736 7.6888552e-07)
(-0.0053242165 -0.010842955 3.8554443e-07)
(-0.0015552906 -0.00046660933 1.3083769e-07)
(-0.0012066935 -0.0011689789 2.7684995e-07)
(-0.00063990928 -0.0015914063 1.6004524e-07)
(-0.00054105848 -0.00015160068 3.5690632e-08)
(-0.00032808021 -0.00027140781 8.6074678e-08)
(7.0517605e-07 -0.00034623683 4.2776912e-08)
(-0.0001697092 -6.6390073e-05 5.6095012e-09)
(-6.1639528e-05 -9.6068462e-05 1.5811453e-08)
(0.00010093492 -8.1143866e-05 -6.329295e-09)
(-4.7498305e-05 -1.7752596e-05 -4.2562639e-09)
(5.5971737e-06 -8.2389534e-06 -7.8132583e-09)
(9.1891982e-05 3.0894315e-05 -2.1790439e-08)
(-1.8594156e-05 -3.2044666e-06 -5.5998359e-09)
(7.3009859e-06 3.2474075e-06 -1.2019099e-08)
(5.1474848e-05 2.6766482e-05 -2.1486651e-08)
(-1.0012587e-05 -5.0385774e-06 -3.8139794e-09)
(2.7036706e-06 -8.6522405e-06 -9.052496e-09)
(2.557941e-05 -5.7702758e-06 -1.5450182e-08)
(8.8684961e-06 -1.0853256e-05 -1.8141461e-09)
(1.5518508e-05 -2.145254e-05 -5.0720521e-09)
(2.8024564e-05 -3.1395165e-05 -9.1544721e-09)
(3.1052744e-05 -9.3003268e-06 -7.3310199e-10)
(3.4894694e-05 -2.0531106e-05 -2.4063885e-09)
(4.218795e-05 -3.0734453e-05 -4.7637923e-09)
(4.5755642e-05 -4.3801607e-06 -3.6951423e-10)
(4.8119894e-05 -9.4988331e-06 -1.1146967e-09)
(5.2411155e-05 -1.3248459e-05 -2.3292302e-09)
(5.1636147e-05 -3.7611477e-07 -3.1147135e-10)
(5.3136652e-05 1.0972403e-06 -6.1713889e-10)
(5.5671681e-05 4.3449025e-07 -1.1566382e-09)
(5.1273667e-05 1.1366469e-06 -2.8298989e-10)
(5.2324451e-05 4.2725697e-06 -4.1384504e-10)
(5.3969741e-05 6.7337578e-06 -6.1915507e-10)
(4.8043316e-05 1.4086607e-06 -2.3477818e-10)
(4.8792944e-05 3.2492144e-06 -2.9241251e-10)
(4.9928316e-05 6.4295801e-06 -3.5110632e-10)
(4.3819399e-05 1.0963428e-06 -1.7284528e-10)
(4.4352285e-05 3.0033094e-06 -1.9484865e-10)
(4.5148395e-05 6.2011276e-06 -1.9841791e-10)
(3.9384302e-05 1.1823569e-06 -1.2165662e-10)
(3.9789795e-05 3.243141e-06 -1.2112954e-10)
(4.0349737e-05 6.2079308e-06 -1.0687596e-10)
(3.5026997e-05 1.2792629e-06 -8.9500889e-11)
(3.5342585e-05 3.4060313e-06 -7.7554566e-11)
(3.5725243e-05 6.0537803e-06 -5.6906462e-11)
(3.0760311e-05 1.3073585e-06 -7.1652223e-11)
(3.100362e-05 3.4461334e-06 -5.826725e-11)
(3.1263693e-05 5.9411843e-06 -3.5068283e-11)
(2.6561937e-05 1.2896702e-06 -5.9916597e-11)
(2.6748388e-05 3.3760814e-06 -4.9230407e-11)
(2.6926761e-05 5.7914248e-06 -2.7542525e-11)
(2.2464094e-05 1.2714417e-06 -5.5357552e-11)
(2.2605746e-05 3.2843255e-06 -4.6989604e-11)
(2.272442e-05 5.5392921e-06 -2.6676866e-11)
(1.8525105e-05 1.2284389e-06 -5.2128782e-11)
(1.8632165e-05 3.1588658e-06 -4.7416889e-11)
(1.8707915e-05 5.2077102e-06 -2.8138617e-11)
(1.4827184e-05 1.1558961e-06 -4.7834878e-11)
(1.490541e-05 2.9358649e-06 -4.6209671e-11)
(1.4948469e-05 4.7636421e-06 -2.8717957e-11)
(1.1428598e-05 1.0498324e-06 -4.3395805e-11)
(1.1482795e-05 2.6398992e-06 -4.3619208e-11)
(1.1503466e-05 4.3191625e-06 -2.7931959e-11)
(8.3003262e-06 9.2047439e-07 -3.9352779e-11)
(8.3397996e-06 2.3699267e-06 -4.0440011e-11)
(8.3548493e-06 3.8923643e-06 -2.655357e-11)
(5.4343378e-06 8.3486195e-07 -3.6715313e-11)
(5.4628829e-06 2.1599136e-06 -3.8076427e-11)
(5.4767021e-06 3.5228412e-06 -2.5574185e-11)
(2.8997774e-06 7.3438235e-07 -3.4917071e-11)
(2.9155238e-06 1.9035282e-06 -3.6529035e-11)
(2.9228648e-06 3.0832914e-06 -2.510144e-11)
(7.2930647e-07 6.2458584e-07 -3.3494887e-11)
(7.346998e-07 1.6267191e-06 -3.5227523e-11)
(7.3967324e-07 2.6306012e-06 -2.4948346e-11)
(-1.0916423e-06 5.1279016e-07 -3.2240718e-11)
(-1.095191e-06 1.3493725e-06 -3.386473e-11)
(-1.0872161e-06 2.1866448e-06 -2.469954e-11)
(-2.562926e-06 4.0383676e-07 -3.1407266e-11)
(-2.5601748e-06 1.0916957e-06 -3.2624846e-11)
(-2.5482804e-06 1.7762821e-06 -2.4196741e-11)
(-3.7501968e-06 3.1979319e-07 -3.0810166e-11)
(-3.7501148e-06 8.6102369e-07 -3.157826e-11)
(-3.7339666e-06 1.3625659e-06 -2.3550639e-11)
(-4.6728732e-06 2.2656406e-07 -3.063785e-11)
(-4.6840732e-06 6.4528329e-07 -3.0960832e-11)
(-4.6626714e-06 1.0177872e-06 -2.3252211e-11)
(-5.3105793e-06 1.4480832e-07 -3.0325754e-11)
(-5.3183133e-06 4.4663839e-07 -3.015285e-11)
(-5.2914325e-06 7.0907595e-07 -2.2977682e-11)
(-5.7130316e-06 6.9969587e-08 -2.970719e-11)
(-5.7197829e-06 2.6154496e-07 -2.8999058e-11)
(-5.6890238e-06 4.1072847e-07 -2.236722e-11)
(-5.9117202e-06 6.7740583e-09 -2.9326166e-11)
(-5.9178616e-06 1.0165732e-07 -2.7966098e-11)
(-5.884361e-06 1.441246e-07 -2.1628593e-11)
(-5.9376521e-06 -4.33924e-08 -2.9162206e-11)
(-5.9430113e-06 -2.3162465e-08 -2.730961e-11)
(-5.9076218e-06 -5.6249642e-08 -2.1307166e-11)
(-5.8216115e-06 -8.3483493e-08 -2.9088279e-11)
(-5.8259951e-06 -1.2415269e-07 -2.6803192e-11)
(-5.7895215e-06 -2.1789352e-07 -2.1097299e-11)
(-5.593414e-06 -1.1371816e-07 -2.905242e-11)
(-5.5966853e-06 -2.0229835e-07 -2.6339185e-11)
(-5.5599198e-06 -3.4249506e-07 -2.0906192e-11)
(-5.2815566e-06 -1.3521241e-07 -2.897483e-11)
(-5.2844842e-06 -2.6053818e-07 -2.5875311e-11)
(-5.2478261e-06 -4.361963e-07 -2.0701915e-11)
(-4.9143175e-06 -1.4902925e-07 -2.8893964e-11)
(-4.9168432e-06 -2.9885551e-07 -2.5465635e-11)
(-4.8808592e-06 -4.9719031e-07 -2.0541384e-11)
(-4.5167343e-06 -1.5297228e-07 -2.8883331e-11)
(-4.5181413e-06 -3.1420989e-07 -2.51888e-11)
(-4.483544e-06 -5.2025189e-07 -2.0488197e-11)
(-4.1085399e-06 -1.509038e-07 -2.890566e-11)
(-4.1090827e-06 -3.1465662e-07 -2.5013606e-11)
(-4.0761215e-06 -5.1955661e-07 -2.0528015e-11)
(-3.7074483e-06 -1.4275039e-07 -2.8984199e-11)
(-3.7072903e-06 -3.0104934e-07 -2.49743e-11)
(-3.6760981e-06 -4.9639275e-07 -2.0680799e-11)
(-3.3303852e-06 -1.2882482e-07 -2.9148314e-11)
(-3.3296305e-06 -2.7327077e-07 -2.5101697e-11)
(-3.3002203e-06 -4.4979864e-07 -2.0951565e-11)
(-2.9943381e-06 -1.0951303e-07 -2.9379744e-11)
(-2.9930861e-06 -2.3211099e-07 -2.5337539e-11)
(-2.9653467e-06 -3.8083726e-07 -2.1251861e-11)
(-2.71809e-06 -8.5946237e-08 -2.958135e-11)
(-2.7164737e-06 -1.8075049e-07 -2.5466404e-11)
(-2.6901701e-06 -2.9518548e-07 -2.1314175e-11)
(-2.5220672e-06 -5.866226e-08 -2.9595099e-11)
(-2.5202195e-06 -1.2116587e-07 -2.5043957e-11)
(-2.4949669e-06 -1.9726899e-07 -2.0602865e-11)
(-2.4315549e-06 -2.8302195e-08 -2.8961561e-11)
(-2.4295849e-06 -5.7361193e-08 -2.2966309e-11)
(-2.4047709e-06 -9.5989413e-08 -1.8061086e-11)
(-2.4559798e-06 -1.5060381e-09 -2.581522e-11)
(-2.454114e-06 -7.0255192e-10 -1.6641564e-11)
(-2.429062e-06 -5.8514937e-09 -1.1840006e-11)
(-0.045115848 1.9485481 -3.7139065e-07)
(-0.032275934 1.6919081 -3.4516015e-06)
(-0.060303859 0.33930607 -2.3893038e-07)
(-0.042368228 0.15052976 -9.9684719e-07)
(-0.014585596 -0.041418774 -1.5644049e-07)
(-0.011351246 -0.043314859 -5.7248774e-07)
(-0.0045369451 -0.012868946 -4.0225602e-08)
(-0.0043689769 -0.014255586 -3.2654989e-07)
(-0.00053343266 -0.002204634 -3.8139248e-08)
(-0.00070494617 -0.0029405417 -2.0778987e-07)
(0.00017415065 -0.00043621424 -5.0640223e-08)
(0.00020986733 -0.00057418402 -1.4537282e-07)
(0.00022652536 -3.9672902e-06 -5.3418211e-08)
(0.00029167799 7.7682302e-05 -1.0612822e-07)
(0.00016890832 0.00011811634 -4.7127549e-08)
(0.00021991041 0.00022191632 -7.6751283e-08)
(9.6118512e-05 7.3812159e-05 -3.5884869e-08)
(0.00013143015 0.00012966029 -5.2730661e-08)
(5.1505833e-05 6.1283234e-06 -2.3929915e-08)
(7.4830076e-05 2.3786037e-05 -3.3584201e-08)
(4.2910567e-05 -3.6757033e-05 -1.4157757e-08)
(5.7179385e-05 -3.7372608e-05 -1.9661222e-08)
(5.0818416e-05 -3.6541766e-05 -7.5833865e-09)
(5.9149938e-05 -3.8361868e-05 -1.0614696e-08)
(5.7611076e-05 -1.4577307e-05 -3.7932164e-09)
(6.2513114e-05 -1.5371153e-05 -5.3633027e-09)
(5.8823981e-05 1.6589244e-06 -1.8428568e-09)
(6.2008401e-05 4.449915e-06 -2.5942264e-09)
(5.5997006e-05 7.9340218e-06 -9.0197858e-10)
(5.8180787e-05 1.1410966e-05 -1.2276996e-09)
(5.1331257e-05 9.504337e-06 -4.4790533e-10)
(5.2793893e-05 1.3022988e-05 -5.723806e-10)
(4.6129112e-05 9.3781746e-06 -2.1859363e-10)
(4.7147929e-05 1.2160498e-05 -2.5696874e-10)
(4.1040754e-05 8.9868754e-06 -1.0020136e-10)
(4.1772504e-05 1.116901e-05 -1.0493506e-10)
(3.6213208e-05 8.5920099e-06 -4.2089314e-11)
(3.6731833e-05 1.0687056e-05 -3.4676589e-11)
(3.1598897e-05 8.2464776e-06 -1.7204258e-11)
(3.1950825e-05 1.0370302e-05 -5.8536429e-12)
(2.7148301e-05 8.0238079e-06 -9.5949389e-12)
(2.7372048e-05 1.0117802e-05 2.7310421e-12)
(2.2863647e-05 7.723445e-06 -9.3755883e-12)
(2.2995216e-05 9.7682132e-06 2.8808004e-12)
(1.87885e-05 7.239601e-06 -1.1291605e-11)
(1.8856606e-05 9.1348495e-06 7.6445735e-13)
(1.4986433e-05 6.6283764e-06 -1.2906149e-11)
(1.500809e-05 8.4737614e-06 -1.2591306e-12)
(1.1514218e-05 6.0523658e-06 -1.3452983e-11)
(1.1507092e-05 7.7335703e-06 -2.7313486e-12)
(8.3613595e-06 5.4597605e-06 -1.3797844e-11)
(8.3532672e-06 6.9506641e-06 -4.0741922e-12)
(5.4847476e-06 4.9374625e-06 -1.4029052e-11)
(5.4808882e-06 6.2673607e-06 -5.1138303e-12)
(2.9246473e-06 4.3157449e-06 -1.4306513e-11)
(2.9153758e-06 5.4582941e-06 -5.9174549e-12)
(7.4245134e-07 3.7047983e-06 -1.4771903e-11)
(7.3860013e-07 4.6721553e-06 -6.6961953e-12)
(-1.0732446e-06 3.1150049e-06 -1.5100706e-11)
(-1.0612114e-06 3.9123436e-06 -7.339536e-12)
(-2.5380722e-06 2.5408747e-06 -1.5249869e-11)
(-2.52504e-06 3.1832784e-06 -7.9422717e-12)
(-3.7154332e-06 1.9620509e-06 -1.5359857e-11)
(-3.6900279e-06 2.4866405e-06 -8.56155e-12)
(-4.623169e-06 1.4413462e-06 -1.5461977e-11)
(-4.5741394e-06 1.8486261e-06 -9.0506899e-12)
(-5.2469468e-06 9.831897e-07 -1.5500672e-11)
(-5.1894954e-06 1.2820695e-06 -9.3851758e-12)
(-5.6392285e-06 5.7257821e-07 -1.534033e-11)
(-5.573994e-06 7.6859292e-07 -9.5275705e-12)
(-5.8302435e-06 2.0428362e-07 -1.5015953e-11)
(-5.7587532e-06 2.8300274e-07 -9.5327889e-12)
(-5.8504365e-06 -7.8587249e-08 -1.4981952e-11)
(-5.7744928e-06 -9.3730926e-08 -9.7144424e-12)
(-5.7305536e-06 -3.0603311e-07 -1.5029596e-11)
(-5.6521579e-06 -3.929052e-07 -9.9470722e-12)
(-5.5003629e-06 -4.7663475e-07 -1.5118458e-11)
(-5.4211923e-06 -6.0867272e-07 -1.0223646e-11)
(-5.1887763e-06 -6.0608644e-07 -1.5174377e-11)
(-5.1102072e-06 -7.7377683e-07 -1.0462184e-11)
(-4.8232382e-06 -6.9166063e-07 -1.5238935e-11)
(-4.7466384e-06 -8.8622563e-07 -1.0689072e-11)
(-4.4280349e-06 -7.2160808e-07 -1.5366833e-11)
(-4.3542883e-06 -9.1805296e-07 -1.0947757e-11)
(-4.0232367e-06 -7.2166196e-07 -1.558079e-11)
(-3.9529285e-06 -9.2257511e-07 -1.1273035e-11)
(-3.6260983e-06 -6.8949366e-07 -1.5880287e-11)
(-3.5596555e-06 -8.8208305e-07 -1.1658556e-11)
(-3.2531514e-06 -6.2460184e-07 -1.6244565e-11)
(-3.1906777e-06 -7.9625559e-07 -1.2078575e-11)
(-2.9210292e-06 -5.2834791e-07 -1.6578457e-11)
(-2.8622958e-06 -6.7337625e-07 -1.2439615e-11)
(-2.648198e-06 -4.0813511e-07 -1.6627609e-11)
(-2.5926108e-06 -5.1974641e-07 -1.2525894e-11)
(-2.4546758e-06 -2.7256728e-07 -1.5894502e-11)
(-2.4013241e-06 -3.4752871e-07 -1.1924723e-11)
(-2.3651757e-06 -1.3333042e-07 -1.3569152e-11)
(-2.3127615e-06 -1.7082399e-07 -1.0045788e-11)
(-2.3890712e-06 -9.2300804e-09 -8.4889679e-12)
(-2.3360997e-06 -1.1550769e-08 -6.1463719e-12)
(-0.0016464974 8.6179619e-06 -6.7386086e-08)
(-0.0016288278 -4.0518298e-05 -1.5854521e-07)
(-0.001586684 -3.456521e-05 -2.2177377e-07)
(-0.0015309559 -6.7172282e-05 -2.5936821e-07)
(-0.0014654578 -8.8375678e-05 -2.7680991e-07)
(-0.0013921858 -0.00012593457 -2.8024704e-07)
(-0.0013115855 -0.00016953848 -2.7468698e-07)
(-0.0012232027 -0.00022602908 -2.6379898e-07)
(-0.0011275585 -0.00029529984 -2.500771e-07)
(-0.0010270828 -0.00037328905 -2.3517773e-07)
(-0.00092483486 -0.00045558889 -2.2019612e-07)
(-0.00082405662 -0.00053867469 -2.0572181e-07)
(-0.00072700968 -0.00062028271 -1.9197422e-07)
(-0.00063487078 -0.00069781543 -1.7892935e-07)
(-0.00054871415 -0.00076850196 -1.6646448e-07)
(-0.0004692043 -0.00083042069 -1.5443786e-07)
(-0.00039649678 -0.00088476433 -1.4269025e-07)
(-0.00033075248 -0.00093186972 -1.3098572e-07)
(-0.00027147249 -0.00096884408 -1.1905784e-07)
(-0.00021817432 -0.00099490228 -1.0657279e-07)
(-0.00017019974 -0.0010100517 -9.3110215e-08)
(-0.00012674346 -0.0010147287 -7.7988442e-08)
(-8.6946659e-05 -0.001009909 -6.0543758e-08)
(-5.0272819e-05 -0.00099888441 -4.0298873e-08)
(-1.6365101e-05 -0.00094996617 -1.6927058e-08)
(0.00022607171 -0.00011199702 -8.4220583e-08)
(0.00023377963 -0.00047857967 -1.9491751e-07)
(0.00024850418 -0.00068780213 -2.6694752e-07)
(0.00026777542 -0.0010059076 -3.0496809e-07)
(0.00029512275 -0.0012632533 -3.1858634e-07)
(0.00032981299 -0.0015546761 -3.174128e-07)
(0.00036858309 -0.001851374 -3.0775087e-07)
(0.00040447115 -0.0021681878 -2.935954e-07)
(0.00042782816 -0.0025032438 -2.7725836e-07)
(0.00043743125 -0.00283115 -2.6019922e-07)
(0.00043469419 -0.0031486089 -2.4352405e-07)
(0.00042266351 -0.0034517754 -2.27731e-07)
(0.00040383072 -0.0037344672 -2.1295618e-07)
(0.00037924337 -0.0039945926 -1.9903892e-07)
(0.00035049304 -0.0042318791 -1.8577842e-07)
(0.00031885523 -0.0044470733 -1.7300608e-07)
(0.00028428611 -0.0046495927 -1.6058513e-07)
(0.00024827498 -0.004833731 -1.4816467e-07)
(0.00021205183 -0.0049789406 -1.3548122e-07)
(0.00017610126 -0.0050771687 -1.221457e-07)
(0.00014072715 -0.005125324 -1.0784606e-07)
(0.00010628902 -0.0051255232 -9.1482225e-08)
(7.3045505e-05 -0.0050814747 -7.212458e-08)
(4.1171783e-05 -0.0049786731 -4.855435e-08)
(1.1415101e-05 -0.0047534662 -2.1179964e-08)
(0.0010465543 -0.00030407958 -1.2410081e-07)
(0.0010780245 -0.0014881527 -2.7602822e-07)
(0.0011323547 -0.0020133267 -3.6199245e-07)
(0.0012069234 -0.0029165417 -3.9537211e-07)
(0.0012798471 -0.0036656423 -3.9855763e-07)
(0.0013328324 -0.0044576953 -3.8729391e-07)
(0.0013558807 -0.0052466274 -3.6925444e-07)
(0.0013472419 -0.0061875271 -3.4884936e-07)
(0.001314 -0.0072511889 -3.2756965e-07)
(0.0012615568 -0.0082351898 -3.0624744e-07)
(0.0011943757 -0.0090946215 -2.8630948e-07)
(0.0011170629 -0.0098242283 -2.6798964e-07)
(0.0010332478 -0.010422695 -2.5131967e-07)
(0.00094533836 -0.010898254 -2.3578475e-07)
(0.0008548559 -0.011258394 -2.2102843e-07)
(0.00076324267 -0.01150574 -2.0683188e-07)
(0.00067264353 -0.011633255 -1.9331571e-07)
(0.00058368745 -0.011656449 -1.7964662e-07)
(0.00049608637 -0.011603634 -1.6577207e-07)
(0.00041045391 -0.011491497 -1.5131912e-07)
(0.00032740981 -0.011330294 -1.357204e-07)
(0.00024769049 -0.011129179 -1.1798939e-07)
(0.00017132555 -0.010895708 -9.6653673e-08)
(9.8439353e-05 -0.010600414 -6.9157665e-08)
(3.0214597e-05 -0.010193744 -3.4557556e-08)
(0.0035345031 -0.001013013 -2.0821314e-07)
(0.00356838 -0.0046432329 -4.2507934e-07)
(0.0035800043 -0.0059625446 -5.1779222e-07)
(0.0034674085 -0.009196713 -5.3217383e-07)
(0.00330186 -0.012109758 -5.1480446e-07)
(0.0030763109 -0.014710419 -4.8726152e-07)
(0.0028207251 -0.01656769 -4.5660392e-07)
(0.0025509378 -0.017566758 -4.2867481e-07)
(0.0022870519 -0.017878404 -4.0170748e-07)
(0.0020338321 -0.017761302 -3.7419921e-07)
(0.0017981217 -0.017324918 -3.496782e-07)
(0.0015819098 -0.016691614 -3.2758305e-07)
(0.001383205 -0.015884609 -3.0832185e-07)
(0.0011895535 -0.014953384 -2.9041969e-07)
(0.0010143406 -0.013949941 -2.7335709e-07)
(0.00085836981 -0.012920357 -2.5698326e-07)
(0.00072062934 -0.011903715 -2.4111642e-07)
(0.00059922635 -0.010933709 -2.2555571e-07)
(0.00049249314 -0.010033114 -2.1006741e-07)
(0.00039824719 -0.0092223234 -1.9424718e-07)
(0.0003142408 -0.0085132985 -1.775698e-07)
(0.00023781944 -0.007911371 -1.5919393e-07)
(0.00016716548 -0.0074183846 -1.3773682e-07)
(0.0001006733 -0.0069915146 -1.1075643e-07)
(3.6921787e-05 -0.0066747701 -7.0687177e-08)
(0.0112615 -0.0086409749 -3.9731307e-07)
(0.0090702264 -0.025534301 -6.7770493e-07)
(0.0080004742 -0.028076616 -7.4430275e-07)
(0.0063220062 -0.032468622 -7.2525437e-07)
(0.0049321784 -0.03001155 -6.8182199e-07)
(0.0037081294 -0.026289201 -6.3245874e-07)
(0.0026784156 -0.021616767 -5.8487898e-07)
(0.0018532644 -0.016679167 -5.4092878e-07)
(0.0012049678 -0.011738378 -5.0277512e-07)
(0.00070234953 -0.0071486712 -4.679619e-07)
(0.00031733407 -0.0029834475 -4.3669508e-07)
(3.0388885e-05 0.0005898935 -4.0763244e-07)
(-0.0001762497 0.0038777377 -3.8471182e-07)
(-0.00031049273 0.0070199297 -3.6298523e-07)
(-0.00039609921 0.0099264926 -3.4198772e-07)
(-0.00044081188 0.012451198 -3.2201189e-07)
(-0.00045316986 0.014559969 -3.0287083e-07)
(-0.00044011663 0.016269617 -2.8435695e-07)
(-0.00040722707 0.01760864 -2.6622342e-07)
(-0.00035924867 0.01860638 -2.4819271e-07)
(-0.00030029928 0.019288031 -2.2990096e-07)
(-0.00023440394 0.019681332 -2.1077101e-07)
(-0.00016421814 0.019785532 -1.8974293e-07)
(-9.2739186e-05 0.019662855 -1.6985096e-07)
(-2.0988373e-05 0.018969994 -1.5021078e-07)
(0.013896654 0.023403093 -7.76161e-07)
(0.0035031438 -0.0015937111 -1.0899017e-06)
(0.00091090952 0.048025753 -1.0871707e-06)
(-0.00092748473 0.050556664 -1.0105527e-06)
(-0.0025432369 0.064849966 -9.3239235e-07)
(-0.0037505797 0.075172273 -8.4541509e-07)
(-0.0044278772 0.082362208 -7.6738621e-07)
(-0.0046451218 0.088393608 -6.9908513e-07)
(-0.0045777293 0.092855504 -6.3926002e-07)
(-0.004366356 0.095638921 -5.8770844e-07)
(-0.0040843515 0.097229009 -5.4389607e-07)
(-0.0037439981 0.097746316 -4.9798471e-07)
(-0.0033972958 0.097527005 -4.7156608e-07)
(-0.0030578971 0.096286339 -4.4296084e-07)
(-0.0027151616 0.09415912 -4.1437212e-07)
(-0.0023798307 0.091755885 -3.8862965e-07)
(-0.0020627396 0.089144982 -3.6466707e-07)
(-0.0017650263 0.086412409 -3.4198025e-07)
(-0.0014861687 0.083635584 -3.2022435e-07)
(-0.0012245281 0.080872918 -2.9911837e-07)
(-0.00097786367 0.078161119 -2.7839452e-07)
(-0.00074354401 0.075543669 -2.5771834e-07)
(-0.00051921853 0.072989608 -2.3671798e-07)
(-0.00030329606 0.070699179 -2.1599381e-07)
(-9.0705483e-05 0.067211482 -1.9607889e-07)
(-0.001960888 1.1709724 -2.519947e-06)
(-0.00088958832 0.95951204 -1.9995162e-06)
(-0.0010967296 0.8644313 -1.6187409e-06)
(-0.0007537106 0.7724283 -1.3266628e-06)
(-0.00063660447 0.67679909 -1.1082326e-06)
(-0.000541602 0.58574145 -9.488073e-07)
(-0.00045514841 0.50756415 -8.3133528e-07)
(-0.00038121065 0.4440128 -7.433086e-07)
(-0.00031734634 0.3915724 -6.7051149e-07)
(-0.00026393347 0.34679247 -6.1324894e-07)
(-0.00021462447 0.30813819 -5.6815542e-07)
(-0.00017148256 0.27487207 -5.282828e-07)
(-0.00013442213 0.24642413 -4.9455233e-07)
(-0.000112388 0.22207058 -4.6457612e-07)
(-9.2639601e-05 0.20115433 -4.3705647e-07)
(-7.6512267e-05 0.18319565 -4.1140845e-07)
(-6.3021114e-05 0.16776645 -3.8710858e-07)
(-5.1777188e-05 0.15450488 -3.6381692e-07)
(-4.232721e-05 0.1431085 -3.4130645e-07)
(-3.4237703e-05 0.13332792 -3.1939911e-07)
(-2.7096631e-05 0.12494571 -2.9793516e-07)
(-2.0465404e-05 0.11782131 -2.7668193e-07)
(-1.4120153e-05 0.1117043 -2.5559499e-07)
(-8.0687971e-06 0.10690137 -2.345711e-07)
(-2.2387034e-06 0.10086863 -2.1255678e-07)
(-0.013034981 0.089782338 -1.2072051e-06)
(-0.0027843263 0.097761991 -1.2440779e-06)
(-0.00033130872 0.10358569 -1.1955245e-06)
(0.0014350079 0.10535676 -1.103562e-06)
(0.002966704 0.10750482 -1.000493e-06)
(0.0040931575 0.10923508 -9.0028763e-07)
(0.0047078132 0.11091566 -8.105086e-07)
(0.0048735905 0.11247385 -7.3243142e-07)
(0.0047637791 0.11330496 -6.498845e-07)
(0.0044985357 0.11339235 -6.0368428e-07)
(0.0041905169 0.11272706 -5.619097e-07)
(0.0038612328 0.11110624 -5.1693595e-07)
(0.003493878 0.10863628 -4.7883046e-07)
(0.0031246304 0.1056535 -4.4577689e-07)
(0.0027661811 0.10240947 -4.1636284e-07)
(0.0024238339 0.099031503 -3.8965435e-07)
(0.0021004108 0.095604008 -3.6499066e-07)
(0.001795793 0.092195837 -3.4186994e-07)
(0.0015102332 0.088859307 -3.1989199e-07)
(0.0012425258 0.085632692 -2.9871965e-07)
(0.00099072742 0.082537573 -2.7801917e-07)
(0.00075263184 0.079604713 -2.5734605e-07)
(0.00052564306 0.076792998 -2.3718061e-07)
(0.00030759924 0.074308459 -2.1654148e-07)
(9.2606323e-05 0.070600496 -1.9638771e-07)
(-0.0092611023 -0.041055007 -7.9016117e-07)
(-0.0079422447 -0.0390625 -8.5264566e-07)
(-0.006553667 -0.037432782 -8.3881019e-07)
(-0.005152837 -0.033995141 -7.9314579e-07)
(-0.0038499218 -0.029059848 -7.3572673e-07)
(-0.0027274002 -0.023437406 -6.7517549e-07)
(-0.0018042344 -0.017637125 -6.1937256e-07)
(-0.0010799723 -0.011994837 -5.6831552e-07)
(-0.0005273157 -0.0069395662 -5.2089889e-07)
(-0.00011108543 -0.0024634022 -4.8535602e-07)
(0.00019313209 0.0013798889 -4.5253585e-07)
(0.00040673164 0.0051179902 -4.217422e-07)
(0.0005464181 0.0086811231 -3.9385207e-07)
(0.00062986478 0.011876575 -3.685715e-07)
(0.00066878258 0.014629812 -3.4538587e-07)
(0.00067261361 0.016937573 -3.2384722e-07)
(0.00064881003 0.018828831 -3.036496e-07)
(0.00060490691 0.02034486 -2.8443862e-07)
(0.00054498623 0.021513423 -2.6588597e-07)
(0.00047269184 0.022355648 -2.4764366e-07)
(0.0003912374 0.022892992 -2.2921701e-07)
(0.00030344092 0.02314638 -2.0961303e-07)
(0.00021210966 0.02312744 -1.9155547e-07)
(0.00012029372 0.022882281 -1.705317e-07)
(2.9367628e-05 0.022034728 -1.5058192e-07)
(-0.0044306974 -0.015902802 -4.9256634e-07)
(-0.004370691 -0.018500016 -5.6370512e-07)
(-0.0041918789 -0.021287769 -5.7646636e-07)
(-0.0039135526 -0.023302228 -5.5949475e-07)
(-0.0035670807 -0.024570597 -5.3078054e-07)
(-0.0031939267 -0.024990336 -5.0028245e-07)
(-0.0028383955 -0.024738204 -4.6281659e-07)
(-0.002503003 -0.024041128 -4.2793806e-07)
(-0.0021925591 -0.023071862 -3.9650533e-07)
(-0.0019134411 -0.021901708 -3.6984963e-07)
(-0.0016617251 -0.020617049 -3.4567467e-07)
(-0.0014294785 -0.01920187 -3.2339516e-07)
(-0.0012189938 -0.017725133 -3.0295421e-07)
(-0.001033436 -0.016238321 -2.8419213e-07)
(-0.00087105217 -0.014777291 -2.6667348e-07)
(-0.00072958035 -0.013374575 -2.5003184e-07)
(-0.00060708715 -0.012061349 -2.3434915e-07)
(-0.00049989541 -0.010869011 -2.191835e-07)
(-0.00040667489 -0.0098091922 -2.0420364e-07)
(-0.00032565613 -0.0088825154 -1.8903006e-07)
(-0.00025489023 -0.0080888947 -1.7312444e-07)
(-0.00019232246 -0.0074275768 -1.5571895e-07)
(-0.00013594837 -0.0068946149 -1.3607363e-07)
(-8.3493764e-05 -0.0064484114 -1.1001175e-07)
(-3.2343549e-05 -0.0061364165 -7.0838015e-08)
(-0.0010015583 -0.0038105071 -3.2294076e-07)
(-0.0012491041 -0.0047542449 -3.8532624e-07)
(-0.0014445489 -0.0057349789 -4.0812581e-07)
(-0.0015859808 -0.006709983 -4.0670728e-07)
(-0.0016646904 -0.0076917521 -3.922403e-07)
(-0.0016844627 -0.0088101795 -3.7146018e-07)
(-0.0016564006 -0.0099986839 -3.4662096e-07)
(-0.0015930484 -0.01102317 -3.2200923e-07)
(-0.0015072685 -0.011880124 -2.9930494e-07)
(-0.0014068797 -0.012573727 -2.7901591e-07)
(-0.001301087 -0.013125892 -2.6058652e-07)
(-0.0011942637 -0.013539618 -2.4365313e-07)
(-0.001087314 -0.013823156 -2.2801698e-07)
(-0.00098147639 -0.013956138 -2.1384576e-07)
(-0.00087806727 -0.013961426 -2.0040203e-07)
(-0.00077761409 -0.01387938 -1.878125e-07)
(-0.00068057604 -0.013735091 -1.754856e-07)
(-0.00058800315 -0.01354376 -1.6334613e-07)
(-0.00049897279 -0.013315573 -1.5112797e-07)
(-0.00041309428 -0.013057692 -1.3846702e-07)
(-0.0003301861 -0.012775889 -1.2477566e-07)
(-0.00025017625 -0.012475974 -1.0915586e-07)
(-0.00017314571 -0.012161707 -9.0251512e-08)
(-9.9425595e-05 -0.011793754 -6.5083035e-08)
(-3.0741169e-05 -0.011328662 -3.300393e-08)
(0.00016783817 -0.00080293812 -2.1882947e-07)
(7.4321157e-05 -0.0011053047 -2.6511452e-07)
(-4.1021108e-05 -0.0014894175 -2.8728812e-07)
(-0.00017250348 -0.0019018175 -2.9219278e-07)
(-0.00030378455 -0.0023317008 -2.8613322e-07)
(-0.00041557273 -0.0028037488 -2.7370456e-07)
(-0.00049373463 -0.0032936453 -2.5777747e-07)
(-0.00054051481 -0.0037548154 -2.4090416e-07)
(-0.00056272788 -0.0041776542 -2.2455162e-07)
(-0.00056749714 -0.0045591497 -2.0934016e-07)
(-0.00055841131 -0.0049016862 -1.9529364e-07)
(-0.00053857345 -0.0052055274 -1.8230213e-07)
(-0.00051071235 -0.0054827126 -1.7026057e-07)
(-0.00047689096 -0.0057622063 -1.5910877e-07)
(-0.00043917488 -0.0060410377 -1.4861076e-07)
(-0.00039864881 -0.0062826668 -1.3862984e-07)
(-0.00035604202 -0.0064766405 -1.2890598e-07)
(-0.00031241804 -0.0066203319 -1.1925923e-07)
(-0.00026821604 -0.0067135472 -1.0944037e-07)
(-0.00022380087 -0.0067559993 -9.9223626e-08)
(-0.0001795478 -0.0067489571 -8.8098548e-08)
(-0.00013589294 -0.0066956773 -7.5212163e-08)
(-9.3347313e-05 -0.0066012051 -5.9782753e-08)
(-5.244583e-05 -0.0064473768 -4.0484565e-08)
(-1.4598927e-05 -0.0061578183 -1.8012931e-08)
(0.00030892467 0.00012500942 -1.5097237e-07)
(0.00029319361 0.00013482288 -1.8238664e-07)
(0.00026160465 9.4638743e-05 -1.999687e-07)
(0.00022363682 5.3966708e-06 -2.062164e-07)
(0.00017549225 -0.00011070721 -2.0437623e-07)
(0.00012141198 -0.00024921267 -1.9730626e-07)
(6.5710495e-05 -0.00040700253 -1.8720354e-07)
(1.6193809e-05 -0.00057078017 -1.7580654e-07)
(-2.341604e-05 -0.00073546446 -1.6425246e-07)
(-5.7552021e-05 -0.00089202303 -1.5314112e-07)
(-8.2899211e-05 -0.0010368897 -1.4268407e-07)
(-9.9145935e-05 -0.0011686191 -1.3291382e-07)
(-0.00010771893 -0.0012860493 -1.2379649e-07)
(-0.00010992878 -0.0013910949 -1.1526992e-07)
(-0.00010750304 -0.0014841516 -1.0721757e-07)
(-0.00010199938 -0.0015619971 -9.9517547e-08)
(-9.4123484e-05 -0.0016250027 -9.201938e-08)
(-8.4560017e-05 -0.0016736457 -8.4576083e-08)
(-7.3911866e-05 -0.0017082181 -7.700884e-08)
(-6.2594791e-05 -0.0017287119 -6.9105676e-08)
(-5.0919974e-05 -0.0017352125 -6.0553709e-08)
(-3.914005e-05 -0.0017282439 -5.0923646e-08)
(-2.7445223e-05 -0.0017102214 -3.9760843e-08)
(-1.5841474e-05 -0.001680151 -2.6733038e-08)
(-4.3425215e-06 -0.0015975904 -1.191169e-08)
(0.00024372361 0.00032002866 -1.0355914e-07)