/*--------------------------------*- C++ -*----------------------------------*\
| =========                 |                                                 |
| \\      /  F ield         | OpenFOAM: The Open Source CFD Toolbox           |
|  \\    /   O peration     | Version:  4.0                                   |
|   \\  /    A nd           | Web:      www.OpenFOAM.org                      |
|    \\/     M anipulation  |                                                 |
\*---------------------------------------------------------------------------*/
FoamFile
{
    version     2.0;
    format      ascii;
    class       volScalarField;
    location    "0.66";
    object      k;
}
// * * * * * * * * * * * * * * * * * * * * * * * * * * * * * * * * * * * * * //

dimensions      [0 2 -2 0 0 0 0];

internalField   nonuniform List<scalar> 
1740
(
0.0088483006
0.0092748197
0.018076589
0.0091978807
0.0097023813
0.026895317
0.0095851124
0.010249751
0.03496017
0.0099359602
0.010850336
0.042017934
0.010171339
0.011385564
0.047727429
0.010241156
0.011645481
0.052765772
0.010252422
0.011908219
0.05610098
0.010182111
0.011938146
0.059463801
0.010118371
0.012433476
0.062570733
0.010071714
0.012643374
0.064058146
0.010013161
0.012840804
0.066339326
0.0098565725
0.013311176
0.068130935
0.009727828
0.013239371
0.068616362
0.0096144719
0.013295164
0.069981649
0.0095228378
0.013707505
0.070778571
0.0094216065
0.013698401
0.070735141
0.00934078
0.013831698
0.071884869
0.0092946938
0.014423242
0.07270698
0.0092385444
0.014661613
0.072190412
0.0090698152
0.014475862
0.072353962
0.0089096646
0.01437936
0.072939761
0.0088123948
0.014775991
0.073237934
0.0088068174
0.015070917
0.073022262
0.0086377065
0.01470001
0.072428426
0.0084551897
0.014270577
0.072809326
0.0084254578
0.014385939
0.07327403
0.0083929537
0.014859012
0.072933112
0.0084112382
0.015464809
0.072264374
0.008363777
0.01526509
0.071331971
0.0089273121
0.016280688
0.066410217
0.01266308
0.018173178
0.047200573
0.023840293
0.031147383
0.039743783
0.010262905
0.012520789
0.013712803
0.00426953
0.0045969902
0.0046529819
0.0020744565
0.0021152402
0.002087452
0.0011420622
0.0011425844
0.0011239936
0.00069131495
0.00068881416
0.00068084513
0.00045092664
0.00044968159
0.00044714833
0.00031163681
0.00031137162
0.00031116273
0.00022485576
0.00022504444
0.00022568914
0.0001672424
0.00016758239
0.0001684472
0.00012684895
0.0001272019
0.00012803396
9.723128e-05
9.754343e-05
9.8255319e-05
7.4759652e-05
7.5015674e-05
7.558968e-05
5.7309075e-05
5.7509683e-05
5.7955287e-05
4.3586228e-05
4.373817e-05
4.4073909e-05
3.2765734e-05
3.2877437e-05
3.31235e-05
2.4285007e-05
2.4364777e-05
2.4540166e-05
1.7725796e-05
1.7781115e-05
1.7902593e-05
1.2747499e-05
1.2784739e-05
1.2866446e-05
9.0537077e-06
9.07805e-06
9.1314201e-06
6.3799945e-06
6.3954467e-06
6.429318e-06
4.4940711e-06
4.5036175e-06
4.5245482e-06
3.1999181e-06
3.2056999e-06
3.2183666e-06
2.3365707e-06
2.3400291e-06
2.3475944e-06
1.7769238e-06
1.778986e-06
1.7834924e-06
1.4256849e-06
1.4269323e-06
1.4296558e-06
1.2140238e-06
1.2148075e-06
1.2165178e-06
1.0936745e-06
1.0941995e-06
1.0953449e-06
1.0316666e-06
1.0320482e-06
1.032881e-06
1.0059897e-06
1.0062907e-06
1.006948e-06
1.0022303e-06
1.0024838e-06
1.0030375e-06
1.0110782e-06
1.011301e-06
1.0117877e-06
1.0265437e-06
1.0267441e-06
1.027182e-06
1.0447171e-06
1.0448994e-06
1.0452975e-06
1.0629244e-06
1.0630908e-06
1.063454e-06
1.0791597e-06
1.0793116e-06
1.0796429e-06
1.0917055e-06
1.091844e-06
1.0921458e-06
1.0988791e-06
1.0990051e-06
1.0992795e-06
1.0988634e-06
1.0989778e-06
1.0992266e-06
1.0895999e-06
1.0897036e-06
1.0899286e-06
1.0687368e-06
1.0688304e-06
1.0690333e-06
1.0336383e-06
1.0337224e-06
1.0339046e-06
9.8146744e-07
9.8154258e-07
9.8170512e-07
9.0938656e-07
9.0945296e-07
9.0959634e-07
8.1489077e-07
8.1494821e-07
8.1507191e-07
6.9627629e-07
6.9632369e-07
6.9642488e-07
5.5321633e-07
5.5325119e-07
5.5332301e-07
3.8725912e-07
3.872782e-07
3.8730969e-07
2.0006387e-07
2.0006749e-07
2.0005728e-07
0.056113191
0.060762465
0.046026125
0.046539624
0.012472397
0.01134581
0.0043533536
0.0041240923
0.0019980942
0.0019408846
0.0010946883
0.001079979
0.0006720429
0.00067038632
0.00044559384
0.00044786836
0.00031206363
0.00031518374
0.00022726333
0.00023022368
0.00017003997
0.00017255423
0.00012942553
0.00013145829
9.9394075e-05
0.00010099211
7.6486559e-05
7.7717689e-05
5.8642348e-05
5.9573516e-05
4.4587553e-05
4.527831e-05
3.3498167e-05
3.3999596e-05
2.4806412e-05
2.5161609e-05
1.8086613e-05
1.8331567e-05
1.2990022e-05
1.3154225e-05
9.2120347e-06
9.3189873e-06
6.4804394e-06
6.5481759e-06
4.5561226e-06
4.597908e-06
3.2374534e-06
3.2626725e-06
2.3589756e-06
2.3739845e-06
1.7902614e-06
1.7991703e-06
1.4337411e-06
1.4391078e-06
1.2190806e-06
1.2224417e-06
1.0970602e-06
1.0993076e-06
1.0341282e-06
1.0357616e-06
1.0079326e-06
1.0092223e-06
1.0038671e-06
1.0049538e-06
1.0125168e-06
1.0134716e-06
1.0278376e-06
1.0286954e-06
1.045893e-06
1.0466711e-06
1.0639967e-06
1.0647043e-06
1.0801373e-06
1.0807805e-06
1.0925954e-06
1.0931787e-06
1.0996874e-06
1.1002151e-06
1.0995958e-06
1.1000717e-06
1.0902618e-06
1.0906898e-06
1.069333e-06
1.0697164e-06
1.034173e-06
1.0345148e-06
9.8194384e-07
9.8224652e-07
9.0980626e-07
9.1007114e-07
8.1525213e-07
8.1547837e-07
6.9657036e-07
6.9675139e-07
5.5341915e-07
5.5353181e-07
3.8732502e-07
3.8730651e-07
1.99976e-07
1.9977855e-07
3.8533038e-06
2.6981968e-05
0.00013441317
0.00030490989
0.00046207455
0.00057300945
0.00064330559
0.00068694675
0.00071570019
0.00073669295
0.00075396621
0.00077054261
0.00078608015
0.00080033745
0.00081300428
0.00082353129
0.00083093401
0.00083354472
0.00082864278
0.00081194339
0.000776892
0.00071380695
0.00060922468
0.00044618494
0.00020411581
2.5211324e-06
5.4773691e-05
0.00025111572
0.00051593427
0.00072777084
0.00085922948
0.00093514363
0.00097964821
0.0010081723
0.0010287443
0.001045612
0.0010613117
0.001075715
0.0010885536
0.0010994338
0.0011077336
0.00111232
0.0011112756
0.0011013969
0.0010775533
0.0010317382
0.0009516847
0.00081912454
0.00060852212
0.00028844296
7.9559132e-06
0.00016006494
0.00061636983
0.0010802881
0.0013632548
0.0015058838
0.0015732311
0.0016046997
0.0016202905
0.0016284638
0.0016336005
0.0016366286
0.0016387492
0.0016393186
0.0016378454
0.0016338583
0.0016262968
0.0016133585
0.0015916271
0.0015554945
0.0014959245
0.0013981899
0.0012375726
0.00097111169
0.00052307438
3.7588754e-05
0.00057956596
0.0016866844
0.0024379336
0.0027745961
0.0028882631
0.0028973865
0.0028669476
0.0028267441
0.0027817323
0.0027369701
0.0026943543
0.0026543881
0.0026139086
0.0025723684
0.0025301795
0.0024868439
0.0024409268
0.0023896809
0.0023283202
0.0022489196
0.0021381771
0.0019717427
0.0016966315
0.0011557862
0.00028091694
0.0024460073
0.0049136994
0.0060347604
0.0063812772
0.0063200269
0.0060910798
0.005828398
0.0055787463
0.0053278551
0.0050875111
0.0048630966
0.0046595394
0.0044622862
0.0042708272
0.0040898214
0.0039201925
0.0037613404
0.0036114686
0.0034670692
0.0033224604
0.0031693729
0.0029967635
0.0027962493
0.0025861829
0.0023543173
0.010504127
0.016550947
0.018502918
0.018045817
0.016493304
0.014682748
0.012998164
0.011519335
0.01024514
0.0091550699
0.0082266029
0.0074345167
0.0067551848
0.0061710349
0.0056688063
0.0052371602
0.0048657942
0.0045453153
0.004266898
0.0040216873
0.003800691
0.003595287
0.0034047492
0.0032445103
0.044883554
0.034017726
0.026532223
0.021383091
0.017732788
0.015028953
0.012942747
0.011292307
0.0099684992
0.0088935146
0.0080081748
0.0072681014
0.0066403959
0.006101036
0.0056325948
0.00522292
0.0048635317
0.0045479781
0.0042707756
0.0040266854
0.0038101094
0.0036150489
0.0034357484
0.0032735306
0.0031435524
0.037233219
0.030944849
0.027737485
0.025109767
0.022241446
0.019271548
0.016559127
0.014265192
0.012387694
0.010849375
0.009580746
0.0085252086
0.0076395295
0.0068940587
0.0062651242
0.005733295
0.0052822644
0.0048983404
0.0045697944
0.0042860955
0.0040371616
0.0038131811
0.0036049696
0.0034116658
0.0032491486
0.010209992
0.0095383871
0.0091999823
0.0088813407
0.0084203432
0.0078567754
0.0073008719
0.0068050794
0.0063544401
0.0059565904
0.005608565
0.0053043996
0.005018827
0.0047549597
0.00451419
0.0042957721
0.0040976292
0.003916841
0.0037494839
0.0035904903
0.0034331033
0.0032683414
0.0030847071
0.0028736326
0.002653736
0.0039665858
0.0038940955
0.0038720152
0.0038315318
0.0037373535
0.0036026021
0.0034632369
0.0033341122
0.0032177843
0.0031164006
0.0030289881
0.0029524231
0.0028811199
0.0028144955
0.0027523547
0.0026938462
0.0026372856
0.0025800506
0.0025183339
0.0024466098
0.002356542
0.0022346963
0.0020567055
0.0017688548
0.0012087379
0.0019249536
0.0019389428
0.001964351
0.0019793909
0.0019731869
0.0019493177
0.0019187411
0.0018884429
0.001861485
0.0018391774
0.0018212997
0.0018065932
0.0017933768
0.0017809747
0.0017689999
0.0017562126
0.0017407111
0.0017196778
0.0016890275
0.0016427734
0.0015718521
0.0014618747
0.0012886391
0.0010092249
0.00054622357
0.0010849765
0.0011039205
0.0011279828
0.0011484289
0.0011607987
0.0011658636
0.0011672452
0.0011679327
0.0011696542
0.0011731493
0.0011783639
0.0011847129
0.0011913907
0.0011976924
0.0012028332
0.00120557
0.0012040527
0.0011956299
0.0011765609
0.0011415525
0.0010830077
0.00098983695
0.00084572429
0.00062724725
0.00030356078
0.00067808647
0.00069279712
0.00071049847
0.00072737068
0.00074131572
0.00075230276
0.00076156445
0.00077039664
0.00077968359
0.00078983864
0.00080085274
0.00081240434
0.00082398369
0.00083496634
0.00084452413
0.00085147372
0.000854164
0.00085033673
0.00083695211
0.00080995887
0.00076400998
0.00069217027
0.00058573598
0.00043400775
0.00021944816
0.00045486715
0.00046562509
0.00047831837
0.00049117503
0.00050312711
0.0005139887
0.0005241588
0.0005341853
0.00054449611
0.00055529918
0.00056656766
0.00057807577
0.00058943512
0.00060010492
0.00060934528
0.00061614273
0.00061913683
0.00061654583
0.00060609798
0.00058499189
0.00054995995
0.00049764166
0.00042584724
0.00033741883
0.00025142731
0.00032089483
0.00032877099
0.00033796419
0.00034761506
0.0003571573
0.00036641058
0.00037548221
0.00038459
0.00039391871
0.00040354763
0.00041342288
0.00042335598
0.000433027
0.00044197732
0.00044958099
0.00045500542
0.00045717415
0.00045474012
0.00044608589
0.0004293872
0.00040282332
0.00036512852
0.00031692829
0.00026378
0.00022187286
0.00023472254
0.00024055954
0.00024732421
0.00025458229
0.00026202118
0.00026950404
0.00027703524
0.00028468487
0.00029251508
0.00030053274
0.00030866298
0.00031673673
0.0003244827
0.00033151661
0.00033732316
0.00034123648
0.00034242524
0.00033989219
0.00033250366
0.00031907495
0.00029856318
0.00027046322
0.00023559176
0.00019756124
0.000162945
0.0001760494
0.00018042281
0.0001854665
0.00019095192
0.00019670035
0.00020261324
0.00020866134
0.00021485059
0.00022118379
0.00022762992
0.00023410413
0.00024045398
0.00024644938
0.00025177255
0.00025600744
0.00025862991
0.00025900502
0.00025639626
0.00024999566
0.00023898495
0.00022263538
0.00020043297
0.00017211686
0.00013706488
8.8887351e-05
0.00013415221
0.00013745
0.00014124099
0.00014539933
0.00014981867
0.00015442908
0.00015919328
0.00016409095
0.00016909791
0.0001741669
0.00017921273
0.00018410074
0.00018863805
0.00019256557
0.0001955516
0.00019718779
0.00019699045
0.00019441047
0.00018885358
0.00017971079
0.00016638638
0.00014828138
0.0001246075
9.3666957e-05
5.0299084e-05
0.00010305337
0.00010554339
0.00010839977
0.00011154992
0.00011492799
0.00011848388
0.00012218192
0.00012599318
0.00012988365
0.00013380201
0.00013766923
0.00014136976
0.00014474463
0.00014758553
0.000149631
0.00015056486
0.00015001851
0.00014757825
0.0001427967
0.00013520476
0.00012431218
0.00010957173
9.0262429e-05
6.5228876e-05
3.2262872e-05
7.9280563e-05
8.1153458e-05
8.3298942e-05
8.5673176e-05
8.8233905e-05
9.0944611e-05
9.3774631e-05
9.6694462e-05
9.9669089e-05
0.00010265001
0.00010556794
0.00010832658
0.00011079739
0.00011281543
0.00011417688
0.00011463858
0.00011392015
0.00011170883
0.00010766618
0.00010143388
9.2633612e-05
8.0855603e-05
6.5640162e-05
4.6504566e-05
2.2949134e-05
6.0744299e-05
6.2140355e-05
6.3738288e-05
6.551032e-05
6.7428402e-05
6.9465921e-05
7.1597648e-05
7.3797311e-05
7.6032945e-05
7.8262225e-05
8.0427291e-05
8.2450222e-05
8.4229196e-05
8.5635802e-05
8.6513254e-05
8.667637e-05
8.5913216e-05
8.3988676e-05
8.0649361e-05
7.5629319e-05
6.8656514e-05
5.9463518e-05
4.7816365e-05
3.3607968e-05
1.7181301e-05
4.6141693e-05
4.7167892e-05
4.834184e-05
4.9645348e-05
5.1059262e-05
5.2564232e-05
5.4140295e-05
5.5765482e-05
5.7412953e-05
5.9047736e-05
6.0623362e-05
6.2078611e-05
6.3334816e-05
6.4293951e-05
6.4837375e-05
6.4825975e-05
6.4101494e-05
6.2489388e-05
5.9803326e-05
5.5851921e-05
5.0449788e-05
4.3437434e-05
3.4718456e-05
2.4339012e-05
1.2759335e-05
3.4623938e-05
3.5364387e-05
3.6210994e-05
3.7151652e-05
3.8173089e-05
3.9261228e-05
4.0400852e-05
4.1574512e-05
4.2760799e-05
4.3932152e-05
4.5052653e-05
4.607564e-05
4.6941951e-05
4.7578386e-05
4.7897009e-05
4.7795199e-05
4.7156783e-05
4.5854402e-05
4.375374e-05
4.0720474e-05
3.6632102e-05
3.1397675e-05
2.4987541e-05
1.7480284e-05
9.2139679e-06
2.560276e-05
2.6124999e-05
2.6721773e-05
2.7384891e-05
2.8105149e-05
2.8872423e-05
2.9675398e-05
3.0500813e-05
3.1332341e-05
3.2149172e-05
3.2924461e-05
3.3623798e-05
3.4203906e-05
3.4611569e-05
3.478311e-05
3.4644471e-05
3.4112095e-05
3.3094925e-05
3.1498047e-05
2.9228847e-05
2.6207192e-05
2.2380949e-05
1.7745985e-05
1.2372949e-05
6.5042098e-06
1.8635198e-05
1.8994121e-05
1.9403884e-05
1.9858999e-05
2.0353107e-05
2.0879024e-05
2.1428575e-05
2.1992033e-05
2.2557426e-05
2.3109622e-05
2.3629261e-05
2.4091745e-05
2.4466333e-05
2.4715395e-05
2.4794015e-05
2.4650031e-05
2.4224708e-05
2.3454326e-05
2.2273088e-05
2.0618005e-05
1.8436603e-05
1.5697809e-05
1.2404534e-05
8.6101079e-06
4.5011999e-06
1.335741e-05
1.3597273e-05
1.3870769e-05
1.4174201e-05
1.4503249e-05
1.4852908e-05
1.5217408e-05
1.5589851e-05
1.5961761e-05
1.6322487e-05
1.6658523e-05
1.6952813e-05
1.7184149e-05
1.7326636e-05
1.7349404e-05
1.7216616e-05
1.6887947e-05
1.6319759e-05
1.5467267e-05
1.4288149e-05
1.2747982e-05
1.0827494e-05
8.5304909e-06
5.8951745e-06
3.0567315e-06
9.4511212e-06
9.6068657e-06
9.7841806e-06
9.9805753e-06
1.0193132e-05
1.0418443e-05
1.0652538e-05
1.089065e-05
1.1126957e-05
1.135418e-05
1.1563157e-05
1.1742382e-05
1.1877596e-05
1.195142e-05
1.1943137e-05
1.1828682e-05
1.158096e-05
1.1170654e-05
1.0567782e-05
9.7442296e-06
8.6774512e-06
7.3552484e-06
5.7808977e-06
3.9811501e-06
2.051209e-06
6.6317357e-06
6.7300638e-06
6.8418141e-06
6.9653236e-06
7.0986399e-06
7.239482e-06
7.3851698e-06
7.5324914e-06
7.6775335e-06
7.8154373e-06
7.9401218e-06
8.0439872e-06
8.1176303e-06
8.1496002e-06
8.1262474e-06
8.0317128e-06
7.8481011e-06
7.5560003e-06
7.1355752e-06
6.568307e-06
5.8394787e-06
4.9413338e-06
3.876508e-06
2.6635488e-06
1.3668467e-06
4.6493728e-06
4.7098222e-06
4.7783703e-06
4.8539378e-06
4.9352312e-06
5.0207479e-06
5.1087187e-06
5.1970244e-06
5.2830854e-06
5.3637207e-06
5.4349623e-06
5.4918572e-06
5.5282587e-06
5.5366367e-06
5.5080033e-06
5.4320078e-06
5.2969818e-06
5.0901742e-06
4.7985138e-06
4.4098341e-06
3.9145272e-06
3.3076406e-06
2.5912168e-06
1.778182e-06
9.15146e-07
3.2936709e-06
3.3299916e-06
3.3710574e-06
3.4161639e-06
3.4644757e-06
3.5150065e-06
3.5665999e-06
3.617873e-06
3.6671442e-06
3.7123419e-06
3.7508955e-06
3.7796046e-06
3.7944957e-06
3.7906823e-06
3.7622303e-06
3.7021148e-06
3.6025939e-06
3.4553274e-06
3.2516642e-06
2.983559e-06
2.6446826e-06
2.231832e-06
1.7465675e-06
1.1979887e-06
6.1750344e-07
2.3923884e-06
2.4138871e-06
2.4381035e-06
2.4645789e-06
2.4927677e-06
2.5220251e-06
2.5515878e-06
2.5805439e-06
2.607784e-06
2.6319408e-06
2.6513177e-06
2.6638065e-06
2.6667979e-06
2.6570885e-06
2.6307596e-06
2.5830582e-06
2.5085356e-06
2.4015176e-06
2.2561678e-06
2.0670509e-06
1.8298968e-06
1.5425835e-06
1.2063176e-06
8.2754548e-07
4.2743418e-07
1.8100661e-06
1.8227515e-06
1.8369795e-06
1.8524486e-06
1.868798e-06
1.8855984e-06
1.9023374e-06
1.9183958e-06
1.9330185e-06
1.9452694e-06
1.953981e-06
1.957697e-06
1.9546071e-06
1.9424819e-06
1.9186138e-06
1.8797665e-06
1.8220593e-06
1.741332e-06
1.633439e-06
1.4945345e-06
1.3215996e-06
1.113159e-06
8.701813e-07
5.97452e-07
3.1004379e-07
1.4456544e-06
1.4532497e-06
1.4617288e-06
1.4708893e-06
1.4804855e-06
1.4902213e-06
1.499738e-06
1.5085964e-06
1.5162528e-06
1.522028e-06
1.5250676e-06
1.524298e-06
1.5183769e-06
1.5056437e-06
1.4840759e-06
1.4512622e-06
1.4043699e-06
1.3401955e-06
1.2555713e-06
1.1475802e-06
1.0139352e-06
8.5352976e-07
6.6716344e-07
4.5861705e-07
2.3897329e-07
1.2265324e-06
1.231263e-06
1.2365195e-06
1.2421597e-06
1.2480086e-06
1.2538503e-06
1.2594177e-06
1.2643776e-06
1.2683105e-06
1.2706844e-06
1.2708234e-06
1.2678708e-06
1.2607493e-06
1.2481201e-06
1.2283482e-06
1.1994804e-06
1.1592539e-06
1.1050797e-06
1.034357e-06
9.4469446e-07
8.3421979e-07
7.0202981e-07
5.4880147e-07
3.7766321e-07
1.9657627e-07
1.1020384e-06
1.1051881e-06
1.1086737e-06
1.1123893e-06
1.1162014e-06
1.1199413e-06
1.1233953e-06
1.1262905e-06
1.128277e-06
1.1289046e-06
1.1275947e-06
1.1236084e-06
1.1160111e-06
1.1036382e-06
1.0850641e-06
1.0585853e-06
1.0222336e-06
9.7377596e-07
9.1093214e-07
8.315989e-07
7.3412966e-07
6.1772953e-07
4.8299069e-07
3.3261274e-07
1.7332075e-07
1.0377446e-06
1.0400281e-06
1.042547e-06
1.0452169e-06
1.0479282e-06
1.0505393e-06
1.0528662e-06
1.0546692e-06
1.0556356e-06
1.0553581e-06
1.0533082e-06
1.0488067e-06
1.040991e-06
1.0287836e-06
1.0108648e-06
9.8565684e-07
9.513383e-07
9.0586239e-07
8.4711845e-07
7.7315185e-07
6.8243233e-07
5.7422433e-07
4.4909093e-07
3.0954276e-07
1.6162636e-07
1.0107874e-06
1.0125876e-06
1.0145686e-06
1.0166581e-06
1.01876e-06
1.0207475e-06
1.0224527e-06
1.0236532e-06
1.0240549e-06
1.023271e-06
1.0207962e-06
1.015978e-06
1.0079855e-06
9.9577909e-07
9.7808487e-07
9.5338069e-07
9.1990962e-07
8.7571074e-07
8.1875311e-07
7.4715003e-07
6.5942482e-07
5.5487051e-07
4.3403958e-07
2.9937232e-07
1.5662146e-07
1.0062721e-06
1.0077868e-06
1.0094495e-06
1.0111947e-06
1.0129339e-06
1.014548e-06
1.0158774e-06
1.0167077e-06
1.0167531e-06
1.015635e-06
1.0128563e-06
1.0077731e-06
9.9956378e-07
9.8719933e-07
9.6941863e-07
9.4471544e-07
9.1135223e-07
8.6739799e-07
8.1085013e-07
7.3984489e-07
6.5292496e-07
5.4939487e-07
4.2979474e-07
2.9649744e-07
1.5511547e-07
1.0146288e-06
1.0159562e-06
1.0174088e-06
1.0189248e-06
1.0204196e-06
1.0217783e-06
1.0228447e-06
1.0234079e-06
1.0231846e-06
1.0217975e-06
1.0187499e-06
1.0133967e-06
1.0049137e-06
9.9226799e-07
9.7419355e-07
9.4917903e-07
9.1548213e-07
8.711721e-07
8.1424699e-07
7.4284233e-07
6.5550337e-07
5.5154225e-07
4.3150112e-07
2.9769257e-07
1.5488286e-07
1.0297334e-06
1.0309212e-06
1.0322155e-06
1.0335567e-06
1.0348621e-06
1.0360187e-06
1.0368717e-06
1.0372108e-06
1.0367522e-06
1.0351166e-06
1.0318034e-06
1.0261616e-06
1.0173583e-06
1.0043497e-06
9.8585609e-07
9.6035077e-07
9.2607497e-07
8.8108385e-07
8.2336264e-07
7.5103511e-07
6.626416e-07
5.5750166e-07
4.3616965e-07
3.0086691e-07
1.5570169e-07
1.0476107e-06
1.0486821e-06
1.0498433e-06
1.0510356e-06
1.0521775e-06
1.0531566e-06
1.0538182e-06
1.0539513e-06
1.05327e-06
1.0513916e-06
1.0478096e-06
1.0418648e-06
1.0327135e-06
1.0192975e-06
1.0003205e-06
9.7423643e-07
9.3926584e-07
8.9344457e-07
8.3474049e-07
7.6126244e-07
6.7154371e-07
5.6491037e-07
4.4193293e-07
3.048262e-07
1.5763171e-07
1.0655565e-06
1.066524e-06
1.0675655e-06
1.0686229e-06
1.0696151e-06
1.0704298e-06
1.0709118e-06
1.0708488e-06
1.0699522e-06
1.067835e-06
1.0639845e-06
1.0577327e-06
1.0482243e-06
1.0343871e-06
1.0149076e-06
9.8822082e-07
9.5252712e-07
9.0584361e-07
8.4612225e-07
7.7145933e-07
6.8038351e-07
5.7222953e-07
4.4759145e-07
3.0874269e-07
1.6040621e-07
1.0815524e-06
1.0824241e-06
1.0833548e-06
1.0842866e-06
1.0851388e-06
1.0857987e-06
1.0861105e-06
1.08586e-06
1.0847562e-06
1.0824076e-06
1.0782955e-06
1.0717438e-06
1.0618867e-06
1.0476391e-06
1.0276728e-06
1.0004069e-06
9.6402565e-07
9.1653219e-07
8.5586851e-07
7.8012517e-07
6.8783193e-07
5.7833409e-07
4.5224132e-07
3.1186709e-07
1.6157926e-07
1.093876e-06
1.0946586e-06
1.0954859e-06
1.0963004e-06
1.0970212e-06
1.0975355e-06
1.0976867e-06
1.0972591e-06
1.095959e-06
1.0933913e-06
1.0890321e-06
1.0821985e-06
1.0720164e-06
1.0573909e-06
1.0369831e-06
1.0092016e-06
9.7222168e-07
9.2404065e-07
8.6260032e-07
7.8599625e-07
6.9276808e-07
5.8227354e-07
4.551176e-07
3.1352973e-07
1.6170119e-07
1.1008429e-06
1.1015426e-06
1.1022736e-06
1.1029787e-06
1.1035771e-06
1.1039557e-06
1.1039573e-06
1.103365e-06
1.1018833e-06
1.0991142e-06
1.0945303e-06
1.087444e-06
1.0769762e-06
1.0620266e-06
1.0412519e-06
1.0130575e-06
9.7561979e-07
9.26942e-07
8.6497924e-07
7.8784662e-07
6.9410651e-07
5.8313841e-07
4.5556081e-07
3.1361132e-07
1.6152914e-07
1.1006351e-06
1.1012578e-06
1.1018996e-06
1.1025035e-06
1.1029888e-06
1.1032426e-06
1.1031073e-06
1.1023655e-06
1.1007209e-06
1.0977743e-06
1.0929968e-06
1.0856996e-06
1.075003e-06
1.0598075e-06
1.0387729e-06
1.0103126e-06
9.7261625e-07
9.2370861e-07
8.6157546e-07
7.8436988e-07
6.9069351e-07
5.7995955e-07
4.5281404e-07
3.115558e-07
1.6051295e-07
1.0911934e-06
1.0917449e-06
1.0923045e-06
1.0928154e-06
1.0931976e-06
1.0933384e-06
1.0930808e-06
1.092208e-06
1.0904241e-06
1.0873313e-06
1.0824023e-06
1.0749515e-06
1.0641046e-06
1.0487708e-06
1.0276237e-06
9.9909799e-07
9.6141279e-07
9.1263262e-07
8.5079644e-07
7.7411722e-07
6.8125697e-07
5.7167918e-07
4.4606364e-07
3.0675479e-07
1.581044e-07
1.0701647e-06
1.0706505e-06
1.0711346e-06
1.0715609e-06
1.0718503e-06
1.0718913e-06
1.0715283e-06
1.0705467e-06
1.0686536e-06
1.0654552e-06
1.0604306e-06
1.0529033e-06
1.042012e-06
1.0266854e-06
1.0056245e-06
9.7730137e-07
9.3998289e-07
8.9179814e-07
8.3086431e-07
7.5547923e-07
6.643888e-07
5.5712463e-07
4.344002e-07
2.985376e-07
1.5316389e-07
1.0349117e-06
1.0353369e-06
1.035752e-06
1.0361021e-06
1.0363096e-06
1.0362652e-06
1.0358166e-06
1.0347533e-06
1.0327887e-06
1.0295376e-06
1.024491e-06
1.0169894e-06
1.006195e-06
9.9106872e-07
9.7035554e-07
9.4258366e-07
9.0609375e-07
8.5910634e-07
7.9984361e-07
7.2671577e-07
6.385769e-07
5.35044e-07
4.1686666e-07
2.8631218e-07
1.4682178e-07
9.8259535e-07
9.8296442e-07
9.8331647e-07
9.8359849e-07
9.8373539e-07
9.8362168e-07
9.8311031e-07
9.8199848e-07
9.8000995e-07
9.7677388e-07
9.7180103e-07
9.6445847e-07
9.53945e-07
9.3927021e-07
9.1924218e-07
8.9247096e-07
8.5739827e-07
8.1236484e-07
7.557279e-07
6.8603851e-07
6.022817e-07
5.0417259e-07
3.9249735e-07
2.6945267e-07
1.3821765e-07
9.1037416e-07
9.106906e-07
9.1098486e-07
9.1120642e-07
9.1128414e-07
9.1111839e-07
9.1057054e-07
9.0944963e-07
9.0749571e-07
9.0435981e-07
8.9958171e-07
8.9256749e-07
8.8256835e-07
8.6866269e-07
8.4974609e-07
8.2453747e-07
7.9160979e-07
7.4945564e-07
6.9659861e-07
6.3175826e-07
5.5406965e-07
4.6335021e-07
3.6040285e-07
2.4729841e-07
1.2688595e-07
8.1573597e-07
8.1600177e-07
8.1624222e-07
8.1641021e-07
8.1643996e-07
8.162406e-07
8.1568574e-07
8.1460151e-07
8.1275178e-07
8.0981911e-07
8.0538326e-07
7.9890353e-07
7.8970257e-07
7.7695225e-07
7.5966307e-07
7.3669291e-07
7.067782e-07
6.6859597e-07
6.2086698e-07
5.6250369e-07
4.9280486e-07
4.1168687e-07
3.1993978e-07
2.1944314e-07
1.1265574e-07
6.9696004e-07
6.9717499e-07
6.973649e-07
6.9748745e-07
6.9748214e-07
6.9727061e-07
6.9674323e-07
6.9574711e-07
6.9407991e-07
6.9146849e-07
6.8754483e-07
6.818368e-07
6.7375943e-07
6.6260925e-07
6.4754203e-07
6.2758542e-07
6.0167131e-07
5.6869212e-07
5.2759567e-07
4.7750536e-07
4.1788896e-07
3.4875081e-07
2.7083647e-07
1.857921e-07
9.580512e-08
5.5368002e-07
5.5384158e-07
5.5398799e-07
5.5408693e-07
5.5407202e-07
5.5388056e-07
5.5343192e-07
5.5258268e-07
5.5118049e-07
5.4901603e-07
5.4578872e-07
5.4111243e-07
5.3450681e-07
5.2543478e-07
5.1323054e-07
4.9712005e-07
4.7625751e-07
4.4977359e-07
4.1688472e-07
3.769292e-07
3.2953492e-07
2.7477004e-07
2.1329464e-07
1.4644868e-07
7.5831141e-08
3.8736939e-07
3.8747563e-07
3.8760394e-07
3.8775776e-07
3.8784037e-07
3.8773462e-07
3.8747573e-07
3.8685368e-07
3.8580483e-07
3.8421744e-07
3.8188601e-07
3.7853656e-07
3.7376508e-07
3.6724971e-07
3.5853978e-07
3.4708692e-07
3.3228025e-07
3.1346515e-07
2.9027841e-07
2.6222217e-07
2.2905014e-07
1.908541e-07
1.4816061e-07
1.0199673e-07
5.3564341e-08
1.9974293e-07
1.9979748e-07
1.9994175e-07
2.002903e-07
2.0095488e-07
2.0105334e-07
2.0114707e-07
2.0086514e-07
2.0028756e-07
1.9942953e-07
1.9821694e-07
1.9652374e-07
1.9399195e-07
1.9052262e-07
1.8590119e-07
1.7985004e-07
1.7198555e-07
1.6163786e-07
1.4949292e-07
1.349426e-07
1.1779566e-07
9.8112068e-08
7.6206917e-08
5.2700445e-08
2.8529509e-08
)
;

boundaryField
{
    Walls
    {
        type            kqRWallFunction;
        value           nonuniform List<scalar> 
38
(
3.8533038e-06
2.5211324e-06
7.9559132e-06
3.7588754e-05
0.00028091694
0.0023543173
0.056113191
0.060762465
0.018076589
0.026895317
0.03496017
0.042017934
0.047727429
0.052765772
0.05610098
0.059463801
0.062570733
0.064058146
0.066339326
0.068130935
0.068616362
0.069981649
0.070778571
0.070735141
0.071884869
0.07270698
0.072190412
0.072353962
0.072939761
0.073237934
0.073022262
0.072428426
0.072809326
0.07327403
0.072933112
0.072264374
0.071331971
0.066410217
)
;
    }
    Inlet
    {
        type            turbulentIntensityKineticEnergyInlet;
        intensity       0.05;
        value           nonuniform List<scalar> 3(0.0089538445 0.0088163263 0.0093177951);
    }
    Outlet
    {
        type            inletOutlet;
        inletValue      uniform 0;
        value           nonuniform List<scalar> 
86
(
0
0
0
0
0
0
0
0
0
0
0
0
0
0
0
0
0
0
0
0
0
0
0
0
0
0
0
0
0
0
0.0031435524
0.0032491486
0.002653736
0
0
0
0
0.00025142731
0.00022187286
0.000162945
0
0
0
0
1.7181301e-05
1.2759335e-05
9.2139679e-06
6.5042098e-06
4.5011999e-06
3.0567315e-06
2.051209e-06
1.3668467e-06
9.15146e-07
6.1750344e-07
4.2743418e-07
3.1004379e-07
2.3897329e-07
0
0
0
0
0
0
0
0
0
0
0
0
0
0
0
0
0
0
0
0
0
0
0
0
0
0
0
0.0025861829
0.0032445103
)
;
    }
    Front
    {
        type            wedge;
    }
    Back
    {
        type            wedge;
    }
    defaultFaces
    {
        type            empty;
    }
}


// ************************************************************************* //
