/*--------------------------------*- C++ -*----------------------------------*\
| =========                 |                                                 |
| \\      /  F ield         | OpenFOAM: The Open Source CFD Toolbox           |
|  \\    /   O peration     | Version:  4.0                                   |
|   \\  /    A nd           | Web:      www.OpenFOAM.org                      |
|    \\/     M anipulation  |                                                 |
\*---------------------------------------------------------------------------*/
FoamFile
{
    version     2.0;
    format      ascii;
    class       volScalarField;
    location    "0.66";
    object      nut;
}
// * * * * * * * * * * * * * * * * * * * * * * * * * * * * * * * * * * * * * //

dimensions      [0 2 -1 0 0 0 0];

internalField   nonuniform List<scalar> 
1740
(
2.4953664e-05
1.5512143e-05
1.2118117e-06
1.8071132e-05
8.373467e-06
1.790124e-06
1.3240259e-05
6.0990316e-06
2.3118956e-06
1.171955e-05
5.0189698e-06
2.7629173e-06
1.3011804e-05
4.4339597e-06
3.1246216e-06
1.6336034e-05
4.1066003e-06
3.4414479e-06
1.3490861e-05
3.8792092e-06
3.6493449e-06
1.1897732e-05
3.7355824e-06
3.8573824e-06
1.0468015e-05
3.6471885e-06
4.0492114e-06
9.2321898e-06
3.5672366e-06
4.1413027e-06
8.3836264e-06
3.5151351e-06
4.2813704e-06
7.7964327e-06
3.5031486e-06
4.3910931e-06
7.2369067e-06
3.4662397e-06
4.4200975e-06
6.7720587e-06
3.452509e-06
4.5035895e-06
6.3768744e-06
3.475545e-06
4.5524019e-06
6.0398501e-06
3.4670482e-06
4.5493242e-06
5.7593887e-06
3.4771143e-06
4.6192139e-06
5.5096403e-06
3.5247149e-06
4.6695081e-06
5.2935262e-06
3.5381837e-06
4.6377778e-06
5.1485873e-06
3.5228654e-06
4.64786e-06
5.0064234e-06
3.5144604e-06
4.6841451e-06
4.8317085e-06
3.5409587e-06
4.7025506e-06
4.6706593e-06
3.5599129e-06
4.6892964e-06
4.5566699e-06
3.531606e-06
4.6528332e-06
4.4705641e-06
3.5005891e-06
4.6753724e-06
4.3694856e-06
3.5142259e-06
4.7034776e-06
4.2876507e-06
3.551968e-06
4.683175e-06
4.2078797e-06
3.5978896e-06
4.6423132e-06
4.1588646e-06
3.588219e-06
4.5855059e-06
2.9466807e-06
3.3398478e-06
4.2848929e-06
1.914814e-06
2.1663068e-06
4.398227e-06
7.1597737e-06
7.347773e-06
6.695597e-06
6.5332549e-06
6.7365585e-06
6.3697962e-06
5.1799603e-06
5.1155798e-06
4.866592e-06
4.338254e-06
4.2650844e-06
4.1290635e-06
3.7985906e-06
3.7556076e-06
3.6956802e-06
3.4378744e-06
3.4207916e-06
3.4066475e-06
3.185496e-06
3.1843295e-06
3.1950243e-06
2.9939329e-06
3.0010844e-06
3.0237098e-06
2.8299243e-06
2.8407005e-06
2.8677993e-06
2.6699194e-06
2.6816839e-06
2.7091599e-06
2.4976545e-06
2.5090231e-06
2.534747e-06
2.3031012e-06
2.3134016e-06
2.3363566e-06
2.0821785e-06
2.0911259e-06
2.1109127e-06
1.8367245e-06
1.84424e-06
1.8607946e-06
1.5742142e-06
1.5803302e-06
1.5937749e-06
1.3066852e-06
1.3114988e-06
1.3220701e-06
1.0485501e-06
1.0522025e-06
1.06022e-06
8.1355991e-07
8.1622349e-07
8.2206992e-07
6.118581e-07
6.13722e-07
6.1781415e-07
4.4826672e-07
4.4951852e-07
4.5226884e-07
3.2235939e-07
3.2316741e-07
3.2494639e-07
2.2999401e-07
2.304998e-07
2.3161472e-07
1.6524659e-07
1.6555817e-07
1.662426e-07
1.2151706e-07
1.2170606e-07
1.2212036e-07
9.2953432e-08
9.3067796e-08
9.3318261e-08
7.4964153e-08
7.5034524e-08
7.5188644e-08
6.4141063e-08
6.4186155e-08
6.4285027e-08
5.8052878e-08
5.8083664e-08
5.8151383e-08
5.5019841e-08
5.5042518e-08
5.5092704e-08
5.3911372e-08
5.392933e-08
5.3969425e-08
5.3982354e-08
5.3997419e-08
5.4031379e-08
5.4749885e-08
5.4763041e-08
5.4792941e-08
5.5905428e-08
5.5917217e-08
5.5944143e-08
5.7254561e-08
5.7265286e-08
5.7289827e-08
5.8676556e-08
5.8686395e-08
5.8708895e-08
6.0097602e-08
6.0106668e-08
6.0127356e-08
6.14733e-08
6.1481677e-08
6.1500736e-08
6.2777503e-08
6.2785259e-08
6.2802855e-08
6.39955e-08
6.4002702e-08
6.4018994e-08
6.5120207e-08
6.5126924e-08
6.5142072e-08
6.615045e-08
6.6156764e-08
6.6170943e-08
6.7090288e-08
6.7096343e-08
6.7109769e-08
6.7906632e-08
6.7912412e-08
6.7925148e-08
6.8591554e-08
6.859707e-08
6.8609191e-08
6.9141e-08
6.9146285e-08
6.9157887e-08
6.9545334e-08
6.9550427e-08
6.9561599e-08
6.9784546e-08
6.9789478e-08
6.9800289e-08
6.9813865e-08
6.9818653e-08
6.9829125e-08
6.9486695e-08
6.9491322e-08
6.9501365e-08
4.1630961e-06
4.4898448e-06
6.6907849e-06
8.4023816e-06
5.990252e-06
6.0348847e-06
4.7246452e-06
4.8310903e-06
4.0831591e-06
4.1934699e-06
3.6991262e-06
3.8018986e-06
3.437168e-06
3.5322343e-06
3.2386879e-06
3.3260279e-06
3.0720094e-06
3.1514587e-06
2.9157887e-06
2.987246e-06
2.7541014e-06
2.8175542e-06
2.5752405e-06
2.6307887e-06
2.3717977e-06
2.4196634e-06
2.1411578e-06
2.1816728e-06
1.8859684e-06
1.9195514e-06
1.614166e-06
1.6413146e-06
1.3380826e-06
1.3593834e-06
1.072357e-06
1.0884975e-06
8.3091785e-07
8.4268371e-07
6.2400686e-07
6.3224177e-07
4.5643209e-07
4.6196845e-07
3.2764174e-07
3.3122646e-07
2.3330418e-07
2.3554978e-07
1.6727745e-07
1.6865066e-07
1.2274571e-07
1.2357428e-07
9.3695986e-08
9.4195995e-08
7.5421054e-08
7.5728698e-08
6.4434312e-08
6.4632183e-08
5.8253961e-08
5.8390358e-08
5.5169142e-08
5.5271288e-08
5.4030929e-08
5.4113602e-08
5.4083851e-08
5.415477e-08
5.4839403e-08
5.4902458e-08
5.598613e-08
5.604324e-08
5.7328138e-08
5.7380284e-08
5.8743997e-08
5.8791749e-08
6.0159578e-08
6.0203354e-08
6.1530355e-08
6.1570529e-08
6.2830136e-08
6.2867071e-08
6.4044194e-08
6.407825e-08
6.5165445e-08
6.5196971e-08
6.6192742e-08
6.622207e-08
6.7130257e-08
6.7157701e-08
6.7944487e-08
6.7970309e-08
6.8627554e-08
6.865202e-08
6.9175438e-08
6.9198792e-08
6.9578483e-08
6.960093e-08
6.9816604e-08
6.9838272e-08
6.9844861e-08
6.9865689e-08
6.9516195e-08
6.9535504e-08
3.1955956e-10
1.3207927e-08
1.9303127e-07
8.2638143e-07
1.6433674e-06
2.2298738e-06
2.5747684e-06
2.783129e-06
2.9272452e-06
3.0427009e-06
3.1466145e-06
3.2528756e-06
3.3584321e-06
3.4621576e-06
3.5632576e-06
3.6603795e-06
3.7510663e-06
3.8311762e-06
3.8940032e-06
3.9289533e-06
3.9194037e-06
3.8391185e-06
3.6456881e-06
3.2628003e-06
2.4559553e-06
2.090815e-10
2.6889786e-08
3.599933e-07
1.3774035e-06
2.5704102e-06
3.3785314e-06
3.8514643e-06
4.1580743e-06
4.3927536e-06
4.5982252e-06
4.7950407e-06
4.9955797e-06
5.1977599e-06
5.400522e-06
5.6022028e-06
5.8000633e-06
5.9893505e-06
6.1622748e-06
6.3061061e-06
6.4005139e-06
6.4131147e-06
6.291494e-06
5.9478343e-06
5.2213025e-06
3.6836412e-06
6.5979393e-10
7.8826798e-08
8.5768327e-07
2.5079988e-06
3.7933446e-06
4.5296814e-06
4.9931378e-06
5.3386739e-06
5.6388574e-06
5.9260641e-06
6.215604e-06
6.5142223e-06
6.8204877e-06
7.1332484e-06
7.4510865e-06
7.7709408e-06
8.0865785e-06
8.3880087e-06
8.6575499e-06
8.8664213e-06
8.9678924e-06
8.8842373e-06
8.4798889e-06
7.4962721e-06
5.2899225e-06
3.1171931e-09
2.8521886e-07
2.0628389e-06
4.0038673e-06
5.0444093e-06
5.6319424e-06
6.0384916e-06
6.3808192e-06
6.7091512e-06
7.0420742e-06
7.3904125e-06
7.7572742e-06
8.1391755e-06
8.5348461e-06
8.9441618e-06
9.3657813e-06
9.7947333e-06
1.0221487e-05
1.0629357e-05
1.0990374e-05
1.1258202e-05
1.1354236e-05
1.1134578e-05
1.0289955e-05
7.890754e-06
2.3290336e-08
1.1371829e-06
3.9876783e-06
5.5968783e-06
6.4490702e-06
6.9704375e-06
7.3541057e-06
7.7003102e-06
8.0495858e-06
8.4039275e-06
8.7768118e-06
9.1751017e-06
9.5885314e-06
1.0012609e-05
1.0450056e-05
1.0905549e-05
1.1378439e-05
1.1864131e-05
1.235271e-05
1.2825897e-05
1.3252477e-05
1.3582115e-05
1.3737971e-05
1.362408e-05
1.3212079e-05
1.9477792e-07
2.7481114e-06
5.8945647e-06
7.6990046e-06
8.615247e-06
9.0344443e-06
9.2327282e-06
9.3709917e-06
9.5105589e-06
9.6697813e-06
9.8567393e-06
1.0077763e-05
1.0333458e-05
1.0624087e-05
1.0950935e-05
1.1315133e-05
1.171693e-05
1.2154429e-05
1.2622636e-05
1.3111723e-05
1.3603961e-05
1.4070393e-05
1.4467718e-05
1.4747087e-05
1.485091e-05
4.3309861e-06
4.3060412e-06
4.354213e-06
4.4688751e-06
4.6465583e-06
4.8769553e-06
5.1512215e-06
5.4673391e-06
5.8270346e-06
6.2311724e-06
6.6785058e-06
7.165671e-06
7.6868627e-06
8.2349511e-06
8.8032504e-06
9.3871434e-06
9.9843265e-06
1.059355e-05
1.1212957e-05
1.1837975e-05
1.2458311e-05
1.3054821e-05
1.3596707e-05
1.4047036e-05
1.4337993e-05
9.1054542e-06
9.3629991e-06
9.7631438e-06
1.0182578e-05
1.0360154e-05
1.0325724e-05
1.0210646e-05
1.011516e-05
1.0079251e-05
1.0104826e-05
1.0187813e-05
1.0323644e-05
1.0510396e-05
1.0747874e-05
1.1036046e-05
1.1374434e-05
1.1761175e-05
1.2192399e-05
1.266109e-05
1.3155001e-05
1.3653521e-05
1.4124507e-05
1.4521495e-05
1.4794255e-05
1.488885e-05
6.4072477e-06
6.8171689e-06
7.2493122e-06
7.6503702e-06
7.9533329e-06
8.1713523e-06
8.3641765e-06
8.571859e-06
8.8026443e-06
9.0713155e-06
9.3746457e-06
9.7035143e-06
1.0053201e-05
1.0429962e-05
1.0837704e-05
1.1277067e-05
1.1745135e-05
1.2234643e-05
1.2732031e-05
1.3214458e-05
1.3645227e-05
1.3967905e-05
1.4099873e-05
1.3942252e-05
1.3474163e-05
5.1445946e-06
5.5018763e-06
5.853057e-06
6.170462e-06
6.4372923e-06
6.6661937e-06
6.8874357e-06
7.1214909e-06
7.3794894e-06
7.6680644e-06
7.9852098e-06
8.3282359e-06
8.6970067e-06
9.0926434e-06
9.5147015e-06
9.9595071e-06
1.0418897e-05
1.0878516e-05
1.1315213e-05
1.16929e-05
1.1955613e-05
1.2014303e-05
1.1715086e-05
1.0738378e-05
8.1289192e-06
4.4378523e-06
4.7286926e-06
5.0202773e-06
5.2923334e-06
5.5391579e-06
5.768932e-06
5.9961256e-06
6.2335272e-06
6.4896895e-06
6.7687689e-06
7.0704637e-06
7.3935518e-06
7.7376856e-06
8.1018204e-06
8.4830298e-06
8.8742998e-06
9.263434e-06
9.6311564e-06
9.9483892e-06
1.0172143e-05
1.0238953e-05
1.0053345e-05
9.4644136e-06
8.2063565e-06
5.6429782e-06
3.9920079e-06
4.2234424e-06
4.4635242e-06
4.696605e-06
4.9191559e-06
5.1359429e-06
5.3551324e-06
5.5844745e-06
5.8296566e-06
6.0935098e-06
6.3762389e-06
6.6769277e-06
6.9942707e-06
7.3254865e-06
7.6651275e-06
8.0039941e-06
8.3277551e-06
8.6153282e-06
8.8367827e-06
8.9504794e-06
8.8989742e-06
8.602471e-06
7.9458567e-06
6.7409413e-06
4.503108e-06
3.6853611e-06
3.8721565e-06
4.0715511e-06
4.2720647e-06
4.4705324e-06
4.6692053e-06
4.8727266e-06
5.085874e-06
5.3123383e-06
5.5540294e-06
5.8111351e-06
6.0826441e-06
6.3665099e-06
6.6589426e-06
6.9534541e-06
7.2399927e-06
7.5039929e-06
7.7252583e-06
7.8767291e-06
7.9231232e-06
7.8194066e-06
7.5086315e-06
6.9163635e-06
5.9240712e-06
4.1578846e-06
3.4534663e-06
3.6077445e-06
3.7758205e-06
3.9496141e-06
4.126228e-06
4.3064152e-06
4.4926828e-06
4.6878708e-06
4.8942248e-06
5.1128494e-06
5.3435721e-06
5.5850507e-06
5.834665e-06
6.0880187e-06
6.3382805e-06
6.5755517e-06
6.7862392e-06
6.9524757e-06
7.0516938e-06
7.0565623e-06
6.9356795e-06
6.6559805e-06
6.1898715e-06
5.5398576e-06
4.8404476e-06
3.2599558e-06
3.3900325e-06
3.5336657e-06
3.6852815e-06
3.8423977e-06
4.0049166e-06
4.1740387e-06
4.3513067e-06
4.5379124e-06
4.7342489e-06
4.9397134e-06
5.1526032e-06
5.3699203e-06
5.5870107e-06
5.7971221e-06
5.9909963e-06
6.1565411e-06
6.2786626e-06
6.3394063e-06
6.3186754e-06
6.1960801e-06
5.9552849e-06
5.5947288e-06
5.1559737e-06
4.7895919e-06
3.0807815e-06
3.1920018e-06
3.3158932e-06
3.4486125e-06
3.5881032e-06
3.7338422e-06
3.886218e-06
4.0458982e-06
4.213315e-06
4.3883065e-06
4.569883e-06
4.7560605e-06
4.9436596e-06
5.1280424e-06
5.3028318e-06
5.4596868e-06
5.5881872e-06
5.6759124e-06
5.7088374e-06
5.6722382e-06
5.552477e-06
5.3404765e-06
5.0390427e-06
4.6795791e-06
4.331483e-06
2.8984902e-06
2.9941835e-06
3.1014086e-06
3.2174778e-06
3.3407125e-06
3.4703908e-06
3.6064041e-06
3.7488409e-06
3.8976114e-06
4.0521502e-06
4.2111993e-06
4.3726273e-06
4.5332573e-06
4.6886814e-06
4.833097e-06
4.9591999e-06
5.0581954e-06
5.119971e-06
5.133492e-06
5.087469e-06
4.9712867e-06
4.7759325e-06
4.493576e-06
4.1085537e-06
3.5047026e-06
2.7005826e-06
2.7828378e-06
2.8754051e-06
2.9763601e-06
3.0843335e-06
3.1985367e-06
3.3185719e-06
3.4441639e-06
3.5748863e-06
3.7099237e-06
3.8478805e-06
3.9866194e-06
4.1231228e-06
4.2533666e-06
4.3722303e-06
4.4734651e-06
4.5497519e-06
4.5928717e-06
4.593979e-06
4.5439124e-06
4.4332798e-06
4.2515101e-06
3.982238e-06
3.5841996e-06
2.8768291e-06
2.4793097e-06
2.5495151e-06
2.6287959e-06
2.715742e-06
2.8092372e-06
2.9085027e-06
3.0129947e-06
3.1222346e-06
3.2356098e-06
3.352187e-06
3.4705544e-06
3.5886911e-06
3.7038566e-06
3.8125075e-06
3.9102536e-06
3.9918588e-06
4.0513074e-06
4.0819281e-06
4.076534e-06
4.027461e-06
3.9261919e-06
3.7617873e-06
3.5159565e-06
3.1466537e-06
2.49613e-06
2.2319474e-06
2.2911237e-06
2.3581463e-06
2.4319668e-06
2.5116811e-06
2.5965667e-06
2.6860369e-06
2.7795252e-06
2.876349e-06
2.9755655e-06
3.075846e-06
3.1753752e-06
3.2717686e-06
3.3620162e-06
3.4424614e-06
3.5088159e-06
3.5562116e-06
3.5792734e-06
3.5721624e-06
3.5284734e-06
3.4407398e-06
3.2990007e-06
3.0870804e-06
2.7719287e-06
2.2447837e-06
1.9611473e-06
2.0101457e-06
2.0657872e-06
2.1272861e-06
2.1939207e-06
2.2650585e-06
2.3401336e-06
2.4185794e-06
2.4997245e-06
2.5826959e-06
2.6663217e-06
2.7490512e-06
2.828896e-06
2.9033948e-06
2.9696009e-06
3.0240979e-06
3.063032e-06
3.0821451e-06
3.0767607e-06
3.0416381e-06
2.9705323e-06
2.8551321e-06
2.6825793e-06
2.4287715e-06
2.0279214e-06
1.6749227e-06
1.7145552e-06
1.7596677e-06
1.8096754e-06
1.8640136e-06
1.9221566e-06
1.9836026e-06
2.0478359e-06
2.1142575e-06
2.1821143e-06
2.2504305e-06
2.3179485e-06
2.3830869e-06
2.443918e-06
2.4981573e-06
2.5431759e-06
2.5760159e-06
2.5933958e-06
2.5916713e-06
2.5666945e-06
2.5134792e-06
2.4254818e-06
2.2929782e-06
2.0986872e-06
1.8005468e-06
1.3857542e-06
1.4168885e-06
1.4524004e-06
1.4918636e-06
1.5348481e-06
1.5809355e-06
1.6297123e-06
1.680744e-06
1.7335338e-06
1.7874732e-06
1.8417978e-06
1.8955414e-06
1.9475113e-06
1.9962674e-06
2.0401197e-06
2.0771309e-06
2.1051218e-06
2.1216608e-06
2.1240195e-06
2.109056e-06
2.0729779e-06
2.0108656e-06
1.915563e-06
1.7744031e-06
1.55561e-06
1.1084874e-06
1.1321102e-06
1.1591011e-06
1.1891552e-06
1.221956e-06
1.2571848e-06
1.2945197e-06
1.3336187e-06
1.3740962e-06
1.4154918e-06
1.4572399e-06
1.4986418e-06
1.5388474e-06
1.5768398e-06
1.6114325e-06
1.6412683e-06
1.664819e-06
1.6803714e-06
1.6859876e-06
1.6794171e-06
1.6579322e-06
1.6180059e-06
1.5545141e-06
1.4581837e-06
1.3047522e-06
8.5726035e-07
8.7450004e-07
8.9422072e-07
9.1621233e-07
9.4024891e-07
9.6609724e-07
9.9351905e-07
1.0222604e-06
1.0520391e-06
1.0825279e-06
1.1133335e-06
1.1439806e-06
1.1738992e-06
1.2024136e-06
1.2287368e-06
1.2519688e-06
1.2710934e-06
1.2849699e-06
1.2923044e-06
1.2915885e-06
1.2809858e-06
1.2581065e-06
1.219424e-06
1.1583416e-06
1.0574708e-06
6.4244575e-07
6.54521e-07
6.6834343e-07
6.8377046e-07
7.0064662e-07
7.1880719e-07
7.3808287e-07
7.5829426e-07
7.792463e-07
8.0071837e-07
8.2245399e-07
8.4414995e-07
8.654484e-07
8.8592722e-07
9.0509359e-07
9.2237955e-07
9.3714154e-07
9.4865925e-07
9.5612122e-07
9.5858634e-07
9.5490638e-07
9.4356759e-07
9.2227738e-07
8.8661755e-07
8.2475912e-07
4.6882909e-07
4.7694967e-07
4.8624819e-07
4.9662875e-07
5.0798628e-07
5.2020864e-07
5.3318006e-07
5.4677858e-07
5.6087563e-07
5.7533037e-07
5.8998519e-07
6.0465962e-07
6.1914441e-07
6.331929e-07
6.4651225e-07
6.5875678e-07
6.6952952e-07
6.7839038e-07
6.8485598e-07
6.8837751e-07
6.8828904e-07
6.8369997e-07
6.7322094e-07
6.5410741e-07
6.1900332e-07
3.3566839e-07
3.4092597e-07
3.4694617e-07
3.5366554e-07
3.6101438e-07
3.6891857e-07
3.7730122e-07
3.8608291e-07
3.9518191e-07
4.0451273e-07
4.1398426e-07
4.2349706e-07
4.3293879e-07
4.4217639e-07
4.5104459e-07
4.5933517e-07
4.6679908e-07
4.7316584e-07
4.7815509e-07
4.8146386e-07
4.8273146e-07
4.8147023e-07
4.768986e-07
4.6744091e-07
4.4886492e-07
2.3833021e-07
2.4161862e-07
2.4538079e-07
2.4957658e-07
2.5416095e-07
2.5908678e-07
2.6430557e-07
2.6976806e-07
2.7542492e-07
2.8122741e-07
2.87127e-07
2.9307476e-07
2.9901839e-07
3.0489429e-07
3.1061274e-07
3.1604309e-07
3.2101595e-07
3.2535492e-07
3.2889793e-07
3.3148553e-07
3.3293389e-07
3.3299181e-07
3.3124666e-07
3.2685104e-07
3.175793e-07
1.7034802e-07
1.7235158e-07
1.7463913e-07
1.7718478e-07
1.799601e-07
1.8293489e-07
1.8607876e-07
1.8936157e-07
1.9275412e-07
1.9622911e-07
1.9976248e-07
2.0333515e-07
2.0693539e-07
2.105571e-07
2.1417208e-07
2.1767996e-07
2.209321e-07
2.2379646e-07
2.2618157e-07
2.2800982e-07
2.2919346e-07
2.296082e-07
2.290411e-07
2.2704378e-07
2.2246054e-07
1.245968e-07
1.2580152e-07
1.2717418e-07
1.2869829e-07
1.3035584e-07
1.3212788e-07
1.3399531e-07
1.3593963e-07
1.3794347e-07
1.3999126e-07
1.4207026e-07
1.44172e-07
1.4629413e-07
1.4844258e-07
1.5063046e-07
1.5285458e-07
1.549815e-07
1.5685551e-07
1.5842271e-07
1.5965053e-07
1.6050047e-07
1.6091172e-07
1.6077149e-07
1.5983374e-07
1.5748752e-07
9.4812362e-08
9.5537626e-08
9.6362769e-08
9.7277445e-08
9.8270355e-08
9.9329704e-08
1.0044371e-07
1.0160103e-07
1.0279137e-07
1.0400592e-07
1.0523798e-07
1.06484e-07
1.0774473e-07
1.0902687e-07
1.1034497e-07
1.1172219e-07
1.1311982e-07
1.1436116e-07
1.1539714e-07
1.1621581e-07
1.1680162e-07
1.1712418e-07
1.1712129e-07
1.166503e-07
1.1534745e-07
7.6107885e-08
7.6553971e-08
7.7061346e-08
7.7623569e-08
7.8233605e-08
7.888413e-08
7.956786e-08
8.0277896e-08
8.1008059e-08
8.1753311e-08
8.2510185e-08
8.3277417e-08
8.4056836e-08
8.4854586e-08
8.5682883e-08
8.6562273e-08
8.750374e-08
8.835668e-08
8.9068344e-08
8.9633515e-08
9.004591e-08
9.0289025e-08
9.0326275e-08
9.0072582e-08
8.9300289e-08
6.4876427e-08
6.5164209e-08
6.5492072e-08
6.585601e-08
6.6251627e-08
6.6674333e-08
6.7119556e-08
6.7582992e-08
6.8060844e-08
6.8550088e-08
6.904881e-08
6.9556675e-08
7.0075607e-08
7.0610844e-08
7.1172535e-08
7.1777823e-08
7.2450216e-08
7.3074719e-08
7.3597649e-08
7.4015489e-08
7.4325239e-08
7.451649e-08
7.4565092e-08
7.4416454e-08
7.3924648e-08
5.8559294e-08
5.8759094e-08
5.898763e-08
5.9242385e-08
5.9520549e-08
5.9819156e-08
6.0135221e-08
6.046591e-08
6.0808704e-08
6.1161604e-08
6.1523372e-08
6.1893904e-08
6.2274822e-08
6.2670423e-08
6.3089215e-08
6.3546231e-08
6.4064823e-08
6.4558504e-08
6.4974424e-08
6.5309333e-08
6.5561234e-08
6.572227e-08
6.5773943e-08
6.5675195e-08
6.5315484e-08
5.5398449e-08
5.5549676e-08
5.5723652e-08
5.5918741e-08
5.6133061e-08
5.6364573e-08
5.6611185e-08
5.6870862e-08
5.7141744e-08
5.7422307e-08
5.7711558e-08
5.8009357e-08
5.8316925e-08
5.8637723e-08
5.8978909e-08
5.9353714e-08
5.9783858e-08
6.0201625e-08
6.0555841e-08
6.0843346e-08
6.1062166e-08
6.1205271e-08
6.1256486e-08
6.1180213e-08
6.0879059e-08
5.4217115e-08
5.4340966e-08
5.4484317e-08
5.4646038e-08
5.4824769e-08
5.5018987e-08
5.5227083e-08
5.5447445e-08
5.5678552e-08
5.5919102e-08
5.6168185e-08
5.6425558e-08
5.6692103e-08
5.6970604e-08
5.7267124e-08
5.7593333e-08
5.7969232e-08
5.8339548e-08
5.8655446e-08
5.891364e-08
5.9111709e-08
5.9242567e-08
5.9290773e-08
5.9223188e-08
5.8948883e-08
5.424402e-08
5.4351368e-08
5.4476247e-08
5.4617808e-08
5.4774979e-08
5.4946524e-08
5.5131103e-08
5.5327344e-08
5.5533926e-08
5.5749683e-08
5.5973763e-08
5.6205862e-08
5.6446619e-08
5.6698307e-08
5.6966091e-08
5.7260259e-08
5.7599064e-08
5.793586e-08
5.8224814e-08
5.846233e-08
5.8645267e-08
5.8765999e-08
5.8808835e-08
5.8740899e-08
5.8472389e-08
5.4982099e-08
5.5078242e-08
5.5190466e-08
5.5318081e-08
5.5460183e-08
5.5615708e-08
5.5783492e-08
5.5962338e-08
5.6151082e-08
5.6348694e-08
5.6554406e-08
5.6767917e-08
5.698972e-08
5.7221706e-08
5.7468294e-08
5.7738513e-08
5.8048803e-08
5.8358846e-08
5.8626299e-08
5.8847124e-08
5.901734e-08
5.9128527e-08
5.9164274e-08
5.9090809e-08
5.8813658e-08
5.6115517e-08
5.620294e-08
5.6305172e-08
5.6421617e-08
5.6551484e-08
5.6693842e-08
5.6847676e-08
5.7011944e-08
5.718565e-08
5.7367916e-08
5.7558097e-08
5.7755946e-08
5.7961886e-08
5.817752e-08
5.8406636e-08
5.86571e-08
5.8943508e-08
5.9230396e-08
5.9479147e-08
5.9685235e-08
5.9843791e-08
5.9945485e-08
5.9972951e-08
5.9890933e-08
5.9599038e-08
5.7446313e-08
5.7526226e-08
5.7619728e-08
5.7726296e-08
5.7845233e-08
5.7975732e-08
5.811692e-08
5.8267922e-08
5.8427915e-08
5.8596194e-08
5.8772264e-08
5.8955965e-08
5.9147693e-08
5.9348837e-08
5.9562646e-08
5.9795927e-08
6.0061462e-08
6.0327525e-08
6.0559304e-08
6.0751808e-08
6.0899283e-08
6.0991459e-08
6.1009902e-08
6.0917802e-08
6.0611372e-08
5.8852184e-08
5.8925299e-08
5.9010827e-08
5.9108307e-08
5.9217134e-08
5.933662e-08
5.9466042e-08
5.960469e-08
5.9751923e-08
5.9907217e-08
6.0070232e-08
6.0240912e-08
6.0419659e-08
6.0607696e-08
6.0807823e-08
6.102591e-08
6.1273033e-08
6.152007e-08
6.173617e-08
6.1915926e-08
6.2052755e-08
6.2135459e-08
6.2144522e-08
6.204157e-08
6.1721999e-08
6.0258696e-08
6.0325584e-08
6.0403777e-08
6.049287e-08
6.059235e-08
6.0701646e-08
6.0820179e-08
6.0947407e-08
6.1082863e-08
6.1226196e-08
6.1377223e-08
6.1535992e-08
6.170293e-08
6.1879144e-08
6.2067072e-08
6.2271785e-08
6.2502823e-08
6.273231e-08
6.2933755e-08
6.3101426e-08
6.3227967e-08
6.330129e-08
6.3300778e-08
6.3186245e-08
6.2846587e-08
6.1621245e-08
6.1682468e-08
6.1753977e-08
6.1835425e-08
6.1926382e-08
6.2026394e-08
6.2135016e-08
6.225186e-08
6.2376623e-08
6.2509117e-08
6.2649299e-08
6.2797324e-08
6.2953654e-08
6.3119322e-08
6.329649e-08
6.348957e-08
6.3706768e-08
6.3919854e-08
6.4107424e-08
6.4263505e-08
6.4380033e-08
6.4444085e-08
6.4433977e-08
6.4307598e-08
6.3947462e-08
6.2913628e-08
6.2969759e-08
6.3035265e-08
6.3109849e-08
6.3193163e-08
6.3284854e-08
6.3384605e-08
6.3492164e-08
6.3607376e-08
6.3730198e-08
6.3860716e-08
6.3999181e-08
6.4146103e-08
6.430248e-08
6.4470272e-08
6.4653304e-08
6.4858526e-08
6.5056024e-08
6.5230257e-08
6.5375082e-08
6.5481785e-08
6.5536688e-08
6.5517197e-08
6.5379879e-08
6.5004112e-08
6.4121113e-08
6.4172724e-08
6.4232905e-08
6.4301406e-08
6.4377952e-08
6.4462281e-08
6.4554188e-08
6.4653546e-08
6.4760328e-08
6.4874618e-08
6.4996615e-08
6.5126659e-08
6.5265321e-08
6.5413621e-08
6.5573426e-08
6.5747875e-08
6.5941656e-08
6.6123989e-08
6.6285213e-08
6.6418985e-08
6.6515981e-08
6.6561869e-08
6.6533335e-08
6.6385994e-08
6.5996906e-08
6.5236584e-08
6.5284217e-08
6.533971e-08
6.5402856e-08
6.5473442e-08
6.5551292e-08
6.5636295e-08
6.5728437e-08
6.5827804e-08
6.5934593e-08
6.60491e-08
6.6171746e-08
6.6303181e-08
6.6444609e-08
6.659835e-08
6.6766991e-08
6.6945435e-08
6.7112329e-08
6.7260686e-08
6.7383539e-08
6.7470912e-08
6.7507931e-08
6.7470862e-08
6.7315031e-08
6.6917064e-08
6.6258843e-08
6.6302981e-08
6.6354339e-08
6.6412747e-08
6.647805e-08
6.6550146e-08
6.6629014e-08
6.6714738e-08
6.6807512e-08
6.6907631e-08
6.7015478e-08
6.7131528e-08
6.7256494e-08
6.7391969e-08
6.7542712e-08
6.7701147e-08
6.7860851e-08
6.801222e-08
6.8147953e-08
6.8260066e-08
6.8337891e-08
6.8366135e-08
6.8320957e-08
6.8158575e-08
6.7761054e-08
6.7192e-08
6.7233042e-08
6.728069e-08
6.7334807e-08
6.7395295e-08
6.7462121e-08
6.7535351e-08
6.7615164e-08
6.7701858e-08
6.7795827e-08
6.7897529e-08
6.8007432e-08
6.8126e-08
6.8253717e-08
6.8390806e-08
6.8533997e-08
6.8677964e-08
6.8815632e-08
6.8939642e-08
6.9041416e-08
6.9109814e-08
6.9129251e-08
6.9075807e-08
6.8905945e-08
6.8502515e-08
6.8002493e-08
6.804091e-08
6.8085427e-08
6.8135931e-08
6.8192358e-08
6.8254722e-08
6.832314e-08
6.8397843e-08
6.8479173e-08
6.8567552e-08
6.8663425e-08
6.8767176e-08
6.8879023e-08
6.8998855e-08
6.912585e-08
6.9257473e-08
6.9389364e-08
6.9515599e-08
6.9629077e-08
6.9721066e-08
6.9780216e-08
6.9790797e-08
6.9728846e-08
6.9550825e-08
6.9138781e-08
6.8682457e-08
6.871873e-08
6.8760709e-08
6.8808296e-08
6.8861449e-08
6.8920213e-08
6.8984736e-08
6.9055276e-08
6.9132196e-08
6.9215918e-08
6.9306854e-08
6.9405307e-08
6.9511324e-08
6.9624497e-08
6.9743646e-08
6.9866353e-08
6.9988713e-08
7.0105347e-08
7.0209404e-08
7.0292193e-08
7.0342337e-08
7.0344105e-08
7.027357e-08
7.0087164e-08
6.9665957e-08
6.9227812e-08
6.9262358e-08
6.9302303e-08
6.9347557e-08
6.9398092e-08
6.9453969e-08
6.9515355e-08
6.9582523e-08
6.965584e-08
6.9735715e-08
6.9822523e-08
6.9916494e-08
7.001757e-08
7.0125193e-08
7.0238018e-08
7.0353596e-08
7.0468168e-08
7.0576585e-08
7.0672172e-08
7.0746344e-08
7.0787817e-08
7.0780991e-08
7.0702138e-08
7.050788e-08
7.0078973e-08
6.962881e-08
6.9661982e-08
6.9700315e-08
6.9743723e-08
6.9792178e-08
6.9845755e-08
6.9904627e-08
6.9969069e-08
7.0039448e-08
7.0116163e-08
7.0199545e-08
7.0289771e-08
7.038673e-08
7.0489818e-08
7.0597602e-08
7.0707499e-08
7.0815667e-08
7.0917018e-08
7.1005013e-08
7.1071209e-08
7.11045e-08
7.1089551e-08
7.1003054e-08
7.0802342e-08
7.0370863e-08
6.9865224e-08
6.9897305e-08
6.9934381e-08
6.9976373e-08
7.0023209e-08
7.0074971e-08
7.0131853e-08
7.0194083e-08
7.0262047e-08
7.033615e-08
7.0416688e-08
7.0503812e-08
7.0597414e-08
7.0697023e-08
7.0801243e-08
7.0907091e-08
7.1010275e-08
7.1105685e-08
7.1187019e-08
7.1246034e-08
7.127188e-08
7.1249609e-08
7.1156578e-08
7.0951371e-08
7.0519935e-08
6.9891805e-08
6.9923005e-08
6.995916e-08
7.0000261e-08
7.0046048e-08
7.0096453e-08
7.0151891e-08
7.021231e-08
7.0278213e-08
7.0350088e-08
7.0428235e-08
7.0512834e-08
7.0603808e-08
7.0701329e-08
7.0804802e-08
7.0909608e-08
7.1009731e-08
7.1100277e-08
7.1175994e-08
7.1228875e-08
7.1248381e-08
7.122007e-08
7.1122292e-08
7.0916144e-08
7.0497544e-08
6.9560573e-08
6.9590968e-08
6.9626663e-08
6.9668188e-08
6.9715557e-08
6.9765375e-08
6.98204e-08
6.9879339e-08
6.9943245e-08
7.0012972e-08
7.008899e-08
7.0171621e-08
7.0260587e-08
7.0358441e-08
7.0472491e-08
7.0586913e-08
7.0687278e-08
7.0772109e-08
7.0842979e-08
7.0890983e-08
7.090572e-08
7.0873354e-08
7.0773659e-08
7.0571928e-08
7.0185949e-08
)
;

boundaryField
{
    Walls
    {
        type            nutUWallFunction;
        Cmu             0.09;
        kappa           0.41;
        E               9.8;
        value           uniform 0;
    }
    Inlet
    {
        type            calculated;
        value           nonuniform List<scalar> 3(2.3786018e-05 4.3219397e-05 7.7608394e-07);
    }
    Outlet
    {
        type            calculated;
        value           nonuniform List<scalar> 
86
(
0
0
0
0
0
0
0
0
0
0
0
0
0
0
0
0
0
0
0
0
0
0
0
0
0
0
0
0
0
0
1.4337993e-05
1.488885e-05
1.3474163e-05
0
0
0
0
4.8404476e-06
4.7895919e-06
4.331483e-06
0
0
0
0
2.0279214e-06
1.8005468e-06
1.55561e-06
1.3047522e-06
1.0574708e-06
8.2475912e-07
6.1900332e-07
4.4886492e-07
3.175793e-07
2.2246054e-07
1.5748752e-07
1.1534745e-07
8.9300289e-08
0
0
0
0
0
0
0
0
0
0
0
0
0
0
0
0
0
0
0
0
0
0
0
0
0
0
0
1.3212079e-05
1.485091e-05
)
;
    }
    Front
    {
        type            wedge;
    }
    Back
    {
        type            wedge;
    }
    defaultFaces
    {
        type            empty;
    }
}


// ************************************************************************* //
