/*--------------------------------*- C++ -*----------------------------------*\
| =========                 |                                                 |
| \\      /  F ield         | OpenFOAM: The Open Source CFD Toolbox           |
|  \\    /   O peration     | Version:  4.0                                   |
|   \\  /    A nd           | Web:      www.OpenFOAM.org                      |
|    \\/     M anipulation  |                                                 |
\*---------------------------------------------------------------------------*/
FoamFile
{
    version     2.0;
    format      ascii;
    class       volScalarField;
    location    "0.66";
    object      omega;
}
// * * * * * * * * * * * * * * * * * * * * * * * * * * * * * * * * * * * * * //

dimensions      [0 0 -1 0 0 0 0];

internalField   nonuniform List<scalar> 
1740
(
55.459742
597.90705
14916.995
136.64183
1158.7054
15024.276
238.17144
1680.5538
15121.864
353.46693
2161.8651
15207.815
482.2633
2567.8095
15274.627
626.90588
2835.7961
15332.434
759.95308
3069.7542
15372.891
855.80269
3195.7924
15415.584
966.59879
3409.0578
15452.573
1090.9345
3544.3049
15468.115
1194.3711
3653.0043
15494.881
1264.2413
3799.7749
15515.712
1344.197
3819.5198
15523.721
1419.7266
3850.8703
15539.082
1493.3394
3943.9873
15547.522
1559.9073
3951.027
15548.494
1621.8353
3977.9246
15562.143
1686.9874
4092.0307
15570.587
1745.2534
4143.8246
15565.733
1761.6124
4109.1159
15567.156
1779.6467
4091.4843
15571.627
1823.8672
4172.8787
15574.087
1885.562
4233.5072
15572.115
1895.6182
4162.4149
15566.521
1891.3026
4076.6216
15572.947
1928.2494
4093.6294
15578.692
1957.4714
4183.3181
15573.433
1998.9255
4298.3001
15566.458
2011.0722
4254.2246
15555.965
2126.3195
4313.1817
15498.688
3191.3354
4573.6129
10731.727
3329.7551
4239.0236
5935.8087
1570.8716
1858.6329
2152.7852
824.23991
898.62546
956.10682
478.17775
495.94333
505.55095
300.65418
304.23425
304.13714
201.0879
201.36104
199.85782
141.55618
141.21704
139.95146
104.08944
103.75304
102.90761
79.456458
79.221459
78.697676
62.639496
62.491479
62.176914
50.787231
50.697778
50.511534
42.217546
42.164504
42.054932
35.904535
35.873341
35.809004
31.201782
31.183405
31.145451
27.687608
27.676602
27.653785
25.075462
25.068599
25.05427
23.16056
23.155979
23.146296
21.787942
21.784615
21.777457
20.834078
20.831482
20.825755
20.197144
20.195052
20.190248
19.791558
19.789887
19.785781
19.539949
19.538488
19.534804
19.364503
19.362982
19.359458
19.228335
19.22689
19.223612
19.11628
19.114947
19.111933
19.018222
19.01701
19.014252
18.927404
18.926317
18.923813
18.839282
18.838334
18.836093
18.75081
18.750018
18.748054
18.660065
18.659434
18.65775
18.565887
18.565402
18.563981
18.467221
18.466852
18.465657
18.362147
18.361861
18.360849
18.24688
18.246646
18.245778
18.114976
18.114775
18.114018
17.956784
17.956603
17.955935
17.759018
17.758852
17.758255
17.504345
17.504191
17.503654
17.170947
17.170803
17.17032
16.732133
16.731998
16.731562
16.156153
16.156025
16.15563
15.406675
15.406539
15.406172
14.45319
14.453066
14.452749
13.257996
13.257898
13.257646
11.785927
11.785857
11.785668
10.011833
10.011782
10.011628
7.9274905
7.9274298
7.9272309
5.5470231
5.546916
5.546535
2.879168
2.8790285
2.8784655
13478.716
13533.311
5989.8284
5327.3567
2082.1156
1880.0376
921.41387
853.65663
489.35007
462.83499
295.9316
284.06308
195.52227
189.79101
137.58468
134.65562
101.5829
100.01202
77.942317
77.068873
61.740635
61.242559
50.257649
49.969155
41.906641
41.738083
35.722056
35.622982
31.094025
31.035124
27.622656
27.586612
25.034454
25.011042
23.132606
23.115908
21.767029
21.753793
20.817114
20.805687
20.182706
20.172346
19.779041
19.769483
19.52868
19.519899
19.353794
19.345744
19.218396
19.210992
19.10713
19.100284
19.009826
19.003467
18.919742
18.913823
18.832371
18.826869
18.744684
18.739596
18.654735
18.650066
18.56131
18.557069
18.463309
18.459494
18.35879
18.355387
18.243974
18.240954
18.112432
18.109758
17.954535
17.952164
17.757014
17.754902
17.502547
17.500658
17.169328
17.167631
16.730674
16.729149
16.154837
16.153473
15.405468
15.404262
14.452149
14.451111
13.257157
13.256291
11.785283
11.784575
10.01129
10.010662
7.9267555
7.9259093
5.5455048
5.5435869
2.8766822
2.8730438
12058.171
2042.8616
696.32847
368.96992
281.17544
256.96945
249.84988
246.82534
244.49616
242.1181
239.61188
236.88044
234.06165
231.16725
228.16321
224.98522
221.51941
217.56888
212.79972
206.65641
198.21689
185.92991
167.10828
136.74908
83.110557
12058.132
2036.9701
697.55665
374.57016
283.13412
254.32041
242.8021
235.60142
229.50804
223.72639
218.06113
212.45015
206.95743
201.56451
196.25026
190.98646
185.7163
180.33529
174.65562
168.35418
160.87942
151.2653
137.71812
116.54604
78.30376
12058.179
2030.5905
718.64504
430.73711
359.38069
332.44807
315.07864
300.5802
287.34376
274.79685
262.82248
251.2393
240.26863
229.81376
219.81296
210.25232
201.11062
192.34106
183.84267
175.43656
166.80892
157.37872
145.94208
129.54595
98.881292
12058.526
2032.0043
817.65201
608.89471
550.0339
512.83605
479.81958
449.30713
421.32663
395.01604
370.34065
347.33261
326.12494
306.26312
287.60306
270.15146
253.89603
238.80349
224.81895
211.85086
199.75833
188.31536
177.08284
164.8823
146.47348
12061.523
2150.9357
1232.2206
1078.2368
989.48794
906.69013
828.25568
756.90431
693.04762
633.97205
579.65367
530.0319
485.94923
445.6667
408.68941
375.02205
344.52815
317.03463
292.36246
270.31788
250.70487
233.349
218.13727
205.24316
195.74383
12087.188
3822.3075
2807.832
2403.287
2094.6372
1825.6025
1590.2936
1387.0639
1211.2153
1059.5007
928.81323
816.31242
719.46071
635.83673
563.5167
500.99335
446.97375
400.33095
360.0924
325.42618
295.62619
270.11976
248.50409
230.87605
218.47216
10363.357
7900.0001
6093.4601
4784.8934
3816.3275
3081.6262
2512.5588
2065.4119
1710.7328
1427.2619
1199.0968
1014.2946
863.86295
740.87095
639.83126
556.39078
487.11665
429.31576
380.87862
340.14985
305.82872
276.91295
252.68974
233.04066
219.24634
4089.1117
3305.0146
2841.0403
2465.9538
2146.8257
1866.3629
1621.7511
1410.2784
1229.0292
1073.6826
940.41243
825.79455
726.8546
641.43463
567.69648
504.05102
449.12727
401.75361
360.93214
325.8149
295.68648
269.96914
248.25059
230.60748
218.22696
1593.5067
1399.1713
1269.0835
1160.9034
1058.7188
961.50246
872.87397
793.88606
721.87855
656.6402
598.26954
546.64727
499.22674
455.89423
416.52642
380.92991
348.87884
320.14347
294.4922
271.70924
251.59738
233.98938
218.77552
206.10964
196.94998
771.02009
707.77591
661.53725
620.94732
580.5785
540.42865
502.83401
468.17615
436.0443
406.41294
379.32479
354.50762
331.27719
309.53545
289.27389
270.47987
253.12521
237.16935
222.56178
209.23893
197.10759
186.00299
175.56043
164.72272
148.69601
433.75793
410.03783
391.28336
374.011
356.22507
337.89923
319.99682
302.94933
286.8373
271.7152
257.59268
244.34714
231.77174
219.82401
208.53397
197.89872
187.91207
178.55362
169.77899
161.49727
153.51687
145.41177
136.15625
122.98088
96.797036
271.78716
261.37932
252.71126
244.52319
235.97518
227.0009
217.96758
209.13923
200.63862
192.5244
184.80548
177.43384
170.33808
163.49664
156.92279
150.62105
144.58311
138.77938
133.14358
127.54093
121.70029
115.06426
106.43588
93.050394
67.411394
183.99458
178.91764
174.50314
170.26209
165.82269
161.12009
156.29123
151.47773
146.76844
142.21002
137.81348
133.56105
129.42471
125.39023
121.4539
117.60699
113.82793
110.07227
106.2563
102.22722
97.7069
92.183279
84.688431
73.261737
52.778799
131.71321
129.06266
126.67932
124.36026
121.93391
119.35419
116.66944
113.95052
111.25278
108.60855
106.02789
103.50412
101.02296
98.571465
96.137318
93.702058
91.234159
88.680042
85.950695
82.900408
79.294314
74.766093
68.797429
60.907492
51.942987
98.435332
96.981665
95.641246
94.325239
92.951674
91.490191
89.956571
88.384945
86.80615
85.240053
83.693699
82.163513
80.639372
79.108013
77.552444
75.948206
74.25828
72.426272
70.36714
67.955256
65.012607
61.31168
56.647659
51.160074
46.32396
76.189285
75.363221
74.587509
73.821657
73.024985
72.178744
71.286592
70.363825
69.42635
68.484901
67.542861
66.596447
65.636134
64.64779
63.611892
62.50111
61.276622
59.883269
58.243672
56.252036
53.771169
50.644024
46.753278
42.217737
37.618755
60.73831
60.257766
59.800729
59.348327
58.879761
58.383406
57.858558
57.311206
56.748549
56.175094
55.590844
54.990733
54.364745
53.697944
52.969646
52.151541
51.205026
50.077677
48.698948
46.975215
44.784256
41.967295
38.302871
33.36086
25.362309
49.675287
49.392027
49.12038
48.851391
48.574081
48.281165
47.970417
47.64319
47.301619
46.946222
46.574401
46.179663
45.751256
45.273683
44.725824
44.079431
43.296966
42.328739
41.108935
39.549791
37.531215
34.877343
31.290821
26.133298
17.48421
41.565349
41.397437
41.235522
41.0753
40.910745
40.73707
40.551655
40.353529
40.141938
39.914841
39.667792
39.393125
39.079439
38.710883
38.266318
37.717982
37.029653
36.154053
35.028949
33.570719
31.662279
29.127572
25.672226
20.729601
12.925157
35.520803
35.42081
35.323907
35.227938
35.129422
35.024947
34.911893
34.788122
34.65125
34.497649
34.321594
34.114575
33.864678
33.555885
33.16722
32.671585
32.034131
31.209918
30.140338
28.747242
26.922586
24.509119
21.262861
16.77697
10.223316
30.973858
30.913359
30.854237
30.795256
30.734201
30.668488
30.595538
30.512668
30.41653
30.302531
30.164136
29.992247
29.774582
29.49506
29.132956
28.661893
28.048423
27.250072
26.212426
24.864667
23.112529
20.826889
17.824772
13.837435
8.4723705
27.548551
27.51028
27.472142
27.433289
27.392108
27.346488
27.293922
27.231422
27.155137
27.059873
26.938563
26.781705
26.576797
26.307736
25.95408
25.490165
24.883967
24.095585
23.075197
21.760253
20.071695
17.908786
15.141206
11.597255
7.0863668
24.985628
24.959189
24.931826
24.902848
24.870922
24.834175
24.790175
24.735779
24.666839
24.577796
24.461238
24.307378
24.103558
23.833674
23.477548
23.010201
22.400976
21.612504
20.599501
19.307441
17.671246
15.614009
13.044489
9.8513601
5.9230578
23.097025
23.076373
23.053875
23.028862
23.000132
22.965933
22.923868
22.870714
22.802145
22.712368
22.593714
22.43618
22.226965
21.949958
21.585211
21.108352
20.489972
19.695007
18.682253
17.404161
15.807156
13.832428
11.415777
8.4851785
4.9850156
21.738084
21.719977
21.699211
21.675105
21.646509
21.611721
21.568358
21.513143
21.441623
21.34783
21.223884
21.059574
20.841936
20.554821
20.178458
19.689013
19.058165
18.252822
17.235172
15.963292
14.392512
12.477329
10.172453
7.4331336
4.2565712
20.791498
20.774389
20.753954
20.729473
20.699806
20.663271
20.617479
20.559104
20.48359
20.384803
20.254656
20.082703
19.855775
19.557629
19.16863
18.665435
18.020701
17.202972
16.177099
14.905438
13.349981
11.475059
9.2493767
6.6490613
3.7062112
20.15899
20.142305
20.121783
20.096652
20.065763
20.027431
19.979251
19.917843
19.838546
19.735061
19.599063
19.419821
19.183886
18.874848
18.47318
17.956069
17.297162
16.46641
15.430664
14.155357
12.607278
10.758006
8.5869249
6.0863859
3.3137286
19.756807
19.740543
19.720103
19.694663
19.663039
19.623523
19.57367
19.510036
19.427847
19.320622
19.179767
18.994198
18.750065
18.430654
18.016506
17.485517
16.812589
15.969032
14.92314
13.642368
12.096744
10.26301
8.1285792
5.6981508
3.0451181
19.508114
19.492795
19.473286
19.448691
19.41774
19.378634
19.328835
19.264788
19.181581
19.072539
18.928775
18.738759
18.488022
18.159201
17.732703
17.187554
16.500681
15.644989
14.589675
13.303248
11.757671
9.9330989
7.8226202
5.4403436
2.8816299
19.334952
19.320923
19.30299
19.280233
19.251355
19.214522
19.167152
19.105635
19.024985
18.918405
18.776777
18.588054
18.33662
18.003108
17.56639
17.007146
16.30634
15.439598
14.376344
13.085221
11.539084
9.7201758
7.6255638
5.2764659
2.7757887
19.201043
19.18806
19.171372
19.150051
19.122793
19.087759
19.042367
18.983014
18.90473
18.800751
18.662017
18.476587
18.229015
17.899773
17.464991
16.898795
16.186033
15.310381
14.241442
12.947348
11.401193
9.5865203
7.5033054
5.1775393
2.7140829
19.091035
19.078887
19.063166
19.042941
19.016905
18.983228
18.939338
18.881658
18.80526
18.703449
18.567261
18.384894
18.141093
17.816543
17.387415
16.825364
16.107339
15.226602
14.154934
12.859993
11.314909
9.5040927
7.4297449
5.1217356
2.6879119
18.994805
18.983335
18.968379
18.949003
18.923907
18.891269
18.84854
18.792176
18.717308
18.617325
18.483386
18.303857
18.063693
17.743811
17.320565
16.765528
16.049256
15.168015
14.096718
12.803025
11.260203
9.4533058
7.3861503
5.0916387
2.676064
18.905672
18.894774
18.880445
18.861752
18.837403
18.805592
18.763796
18.708518
18.634951
18.536584
18.404711
18.227882
17.991272
17.67604
17.258739
16.711016
16.000696
15.1226
14.054213
12.76347
11.22391
9.4211336
7.3600321
5.0749961
2.6591438
18.819188
18.808801
18.79502
18.776916
18.75321
18.722118
18.681153
18.626868
18.554532
18.457734
18.327908
18.153781
17.920743
17.610191
17.198885
16.658506
15.956238
15.08362
14.019857
12.733232
11.197618
9.39909
7.3431919
5.0645109
2.6535935
18.732377
18.722487
18.709237
18.69171
18.668646
18.638291
18.5982
18.544983
18.473983
18.378887
18.251252
18.079957
17.850581
17.54474
17.139428
16.60649
15.912963
15.047142
13.989046
12.707254
11.176026
9.3819425
7.3313205
5.059524
2.6548761
18.643326
18.633964
18.621297
18.604424
18.582112
18.552641
18.513611
18.461684
18.392269
18.299132
18.173922
18.005635
17.779998
17.478823
17.079343
16.553664
15.868929
15.010585
13.958689
12.682123
11.15557
9.3660781
7.3205248
5.0549848
2.6569029
18.550839
18.542068
18.530086
18.514011
18.492638
18.46428
18.426574
18.376224
18.308685
18.217772
18.095198
17.930036
17.708125
17.411443
17.017468
16.498623
15.822345
14.971695
13.926195
12.65507
11.133464
9.3488561
7.3083362
5.0475469
2.6527986
18.453803
18.445691
18.434503
18.419381
18.399139
18.372117
18.335974
18.28744
18.221992
18.133473
18.013626
17.851575
17.633245
17.340762
16.951844
16.43927
15.770904
14.92785
13.888767
12.623256
11.106962
9.3278536
7.2932716
5.0378828
2.6334505
18.350245
18.342834
18.332517
18.318452
18.299469
18.273919
18.239474
18.192868
18.129586
18.043475
17.926294
17.767202
17.552195
17.263536
16.879179
16.372285
15.711229
14.875535
13.842879
12.583265
11.072855
9.3001443
7.2727728
5.0235803
2.6124867
18.236344
18.229635
18.220205
18.207223
18.189528
18.165472
18.132726
18.088019
18.026829
17.943001
17.828301
17.671915
17.459911
17.174684
16.794427
16.292689
15.638411
14.809899
13.783852
12.530696
11.02712
9.2621225
7.2436262
5.0038935
2.6006953
18.105641
18.099595
18.091011
18.079064
18.062594
18.039952
18.008796
17.965848
17.906574
17.824814
17.712342
17.558377
17.349061
17.066927
16.690412
16.193463
15.545617
14.724359
13.705454
12.459788
10.964598
9.2093877
7.2024281
4.9763842
2.5988498
17.948486
17.943036
17.935216
17.924205
17.908841
17.887467
17.857732
17.816345
17.758765
17.678831
17.568334
17.416535
17.209663
16.930407
16.557456
16.065171
15.423714
14.61021
13.599515
12.363036
10.878603
9.1362133
7.1443248
4.9356802
2.5710109
17.751605
17.746674
17.73952
17.729326
17.714925
17.694653
17.666153
17.626125
17.570027
17.491709
17.38299
17.233194
17.02866
16.752253
16.382948
15.89555
15.260885
14.456238
13.455545
12.230834
10.760605
9.0353294
7.0633169
4.8754694
2.5286569
17.497686
17.493199
17.486618
17.477124
17.463552
17.444233
17.416805
17.377971
17.323199
17.246364
17.139336
16.99153
16.789425
16.516107
16.150884
15.669076
15.042275
14.248365
13.260399
12.051176
10.599994
8.8978925
6.9533012
4.796756
2.4849065
17.164941
17.160839
17.154752
17.145868
17.133021
17.114545
17.088082
17.050349
16.996839
16.921476
16.816211
16.670587
16.471275
16.201633
15.841371
15.366467
14.749649
13.969342
12.998004
11.809423
10.383873
8.71309
6.8058221
4.6930954
2.4321284
16.72671
16.722953
16.717314
16.708986
16.69681
16.679129
16.653603
16.616978
16.564796
16.491059
16.387843
16.244872
16.049073
15.784137
15.430167
14.963951
14.36114
13.598584
12.649238
11.488224
10.097047
8.4683261
6.6112041
4.5570029
2.3626918
16.151274
16.147849
16.142645
16.134868
16.123372
16.106521
16.082008
16.04663
15.99601
15.92427
15.823667
15.684185
15.493107
15.234536
14.88872
14.435521
13.851622
13.112322
12.192065
11.06766
9.7221145
8.1491316
6.3582277
4.3800446
2.2603528
15.402306
15.399228
15.394491
15.387318
15.376587
15.360697
15.337398
15.303569
15.254954
15.185855
15.088783
14.954092
14.769617
14.520363
14.188392
13.753519
13.193369
12.484174
11.602085
10.525795
9.2400321
7.7397627
6.0349155
4.1551158
2.143305
14.449402
14.446668
14.442393
14.435827
14.425889
14.411042
14.389127
14.357156
14.311066
14.245425
14.15311
14.024983
13.849572
13.612838
13.298096
12.886277
12.356336
11.68608
10.853625
9.8397593
8.631124
7.2240555
5.6289093
3.8741837
1.9991335
13.254828
13.252436
13.248625
13.242683
13.233589
13.219901
13.199595
13.169879
13.126962
13.065778
12.979693
12.86022
12.696756
12.476395
12.18385
11.801639
11.310535
10.69042
9.921728
8.9876021
7.8767592
6.586909
5.128569
3.5284409
1.821348
11.783356
11.781317
11.777996
11.772732
11.764588
11.752253
11.733893
11.706984
11.668107
11.612688
11.53472
11.426539
11.278634
11.079502
10.815554
10.47129
10.029751
9.4733398
8.785169
7.9509931
6.9617186
5.8163479
4.5251784
3.1123208
1.6075541
10.00965
10.00797
10.00519
10.00072
9.9937007
9.9830063
9.9670546
9.9436383
9.9098426
9.861756
9.7941494
9.7003702
9.5722508
9.4000704
9.1722949
8.8757973
8.4963023
8.0191206
7.4304003
6.7186891
5.8771098
4.9057956
3.8144341
2.6240954
1.3614316
7.924973
7.9236472
7.9215399
7.9182001
7.912691
7.904114
7.8913061
7.8722117
7.8446404
7.8056024
7.7508433
7.6749387
7.5711952
7.4322052
7.2488917
7.0108651
6.7068816
6.3254238
5.8561902
5.2905289
4.6236316
3.8564428
2.9975393
2.0640712
1.075315
5.542415
5.5414613
5.5404315
5.5393759
5.5369343
5.5314442
5.5233825
5.50977
5.4896791
5.4615063
5.4223425
5.3683356
5.2938374
5.1943821
5.0637777
4.8947798
4.6793621
4.4087754
4.078319
3.6814026
3.2148119
2.6797797
2.0831811
1.4382724
0.75980436
2.8714964
2.8710259
2.8716262
2.8749176
2.882497
2.8818499
2.8809213
2.8744568
2.8635726
2.8484654
2.8280753
2.8006157
2.7610352
2.7078858
2.6379256
2.5479233
2.4330481
2.2839203
2.1102009
1.9035227
1.6612998
1.3843294
1.0767695
0.74676216
0.40648463
)
;

boundaryField
{
    Walls
    {
        Cmu             0.09;
        kappa           0.41;
        E               9.8;
        beta1           0.075;
        type            omegaWallFunction;
        value           nonuniform List<scalar> 
38
(
12058.171
12058.132
12058.179
12058.526
12061.523
12087.188
13478.716
13533.311
14916.995
15024.276
15121.864
15207.815
15274.627
15332.434
15372.891
15415.584
15452.573
15468.115
15494.881
15515.712
15523.721
15539.082
15547.522
15548.494
15562.143
15570.587
15565.733
15567.156
15571.627
15574.087
15572.115
15566.521
15572.947
15578.692
15573.433
15566.458
15555.965
15498.688
)
;
    }
    Inlet
    {
        type            turbulentMixingLengthDissipationRateInlet;
        mixingLength    0.03;
        phi             phi;
        k               k;
        value           nonuniform List<scalar> 3(0.0042972395 0.0050590406 0.0047866564);
    }
    Outlet
    {
        type            inletOutlet;
        inletValue      uniform 1e-05;
        value           nonuniform List<scalar> 
86
(
1e-05
1e-05
1e-05
1e-05
1e-05
1e-05
1e-05
1e-05
1e-05
1e-05
1e-05
1e-05
1e-05
1e-05
1e-05
1e-05
1e-05
1e-05
1e-05
1e-05
1e-05
1e-05
1e-05
1e-05
1e-05
1e-05
1e-05
1e-05
1e-05
1e-05
219.24634
218.22696
196.94998
1e-05
1e-05
1e-05
1e-05
51.942987
46.32396
37.618755
1e-05
1e-05
1e-05
1e-05
8.4723705
7.0863668
5.9230578
4.9850156
4.2565712
3.7062112
3.3137286
3.0451181
2.8816299
2.7757887
2.7140829
2.6879119
2.676064
1e-05
1e-05
1e-05
1e-05
1e-05
1e-05
1e-05
1e-05
1e-05
1e-05
1e-05
1e-05
1e-05
1e-05
1e-05
1e-05
1e-05
1e-05
1e-05
1e-05
1e-05
1e-05
1e-05
1e-05
1e-05
1e-05
1e-05
195.74383
218.47216
)
;
    }
    Front
    {
        type            wedge;
    }
    Back
    {
        type            wedge;
    }
    defaultFaces
    {
        type            empty;
    }
}


// ************************************************************************* //
