/*--------------------------------*- C++ -*----------------------------------*\
| =========                 |                                                 |
| \\      /  F ield         | OpenFOAM: The Open Source CFD Toolbox           |
|  \\    /   O peration     | Version:  4.0                                   |
|   \\  /    A nd           | Web:      www.OpenFOAM.org                      |
|    \\/     M anipulation  |                                                 |
\*---------------------------------------------------------------------------*/
FoamFile
{
    version     2.0;
    format      ascii;
    class       volVectorField;
    location    "0.66";
    object      U;
}
// * * * * * * * * * * * * * * * * * * * * * * * * * * * * * * * * * * * * * //

dimensions      [0 1 -1 0 0 0 0];

internalField   nonuniform List<vector> 
1740
(
(1.5294135 -0.0099141448 5.7264916e-06)
(1.5228782 -0.0068584648 9.1096913e-07)
(1.5616611 -0.0017075356 1.1409659e-07)
(1.6238112 -0.012166409 8.9028389e-06)
(1.5385616 -0.0021044782 1.8594877e-06)
(1.5844492 -0.00092071029 2.7084571e-07)
(1.5951382 0.012717868 1.245571e-05)
(1.5308614 0.0072297651 2.817269e-06)
(1.5829437 -0.0019180196 4.1491941e-07)
(1.4790722 0.028010265 1.3732206e-05)
(1.5374944 0.015885486 3.4830905e-06)
(1.546645 -0.0078593174 6.0309508e-07)
(1.4647187 0.021694132 1.4896833e-05)
(1.621526 0.018086416 4.2342772e-06)
(1.5867105 -0.00026350018 7.6497822e-07)
(1.4416549 -0.0051437009 1.6590464e-05)
(1.5693706 0.00020710503 5.1971041e-06)
(1.6512744 -0.0034794692 9.4466155e-07)
(1.4479536 -0.021664803 1.7668919e-05)
(1.5695495 -0.022088172 5.8973724e-06)
(1.5664804 -0.0080759037 1.1814907e-06)
(1.4816589 -0.0145625 1.7927462e-05)
(1.6063098 -0.0095752673 6.5464141e-06)
(1.5246467 -0.00010201924 1.2925313e-06)
(1.5097025 -0.0065116285 1.7940956e-05)
(1.5332694 0.00024366037 6.9908789e-06)
(1.5626007 -0.00031916498 1.5428314e-06)
(1.5507348 -0.015913885 1.8477418e-05)
(1.5323782 -0.0039037944 7.6913612e-06)
(1.5314714 0.00099449526 1.7191225e-06)
(1.6310598 -0.020115098 1.9034434e-05)
(1.4961078 -0.01226096 8.2479581e-06)
(1.5987341 0.0024372761 1.8171829e-06)
(1.6985109 0.0031895007 1.9510796e-05)
(1.5888768 -0.013248867 8.6459066e-06)
(1.601201 -0.012042141 2.1599874e-06)
(1.5996388 0.0027739917 2.0129263e-05)
(1.6032573 0.0054324949 9.4790744e-06)
(1.4903701 0.00018188103 2.2915148e-06)
(1.5863636 -0.0076636043 2.0507675e-05)
(1.4746131 0.002704195 9.9216706e-06)
(1.5735886 0.0059889579 2.4697288e-06)
(1.6455725 0.00011303237 2.0735025e-05)
(1.5686589 -0.013809097 1.0327759e-05)
(1.5649603 -0.010712214 2.7155321e-06)
(1.6472724 0.0036485207 2.1203631e-05)
(1.5880796 0.0052066649 1.0940098e-05)
(1.4870298 0.0027545807 2.8743839e-06)
(1.5995867 0.020426203 2.1305496e-05)
(1.5112481 0.022666935 1.1348765e-05)
(1.5711079 0.012724067 3.0411289e-06)
(1.51311 0.022392921 2.1340645e-05)
(1.622049 0.011072843 1.1650619e-05)
(1.5773733 -0.0058676683 3.2465715e-06)
(1.4993064 -0.00021301269 2.1536077e-05)
(1.6083273 0.01355761 1.2232579e-05)
(1.5123361 0.0076888891 3.3905832e-06)
(1.5058118 -0.0019781171 2.1333936e-05)
(1.4837179 0.028059752 1.2443823e-05)
(1.5893622 0.020225714 3.573332e-06)
(1.5020951 0.0061462917 2.1271112e-05)
(1.4707173 0.014999513 1.274866e-05)
(1.6389319 0.008943987 3.7706593e-06)
(1.4745528 -0.0084900341 2.1877793e-05)
(1.4662388 -0.025234611 1.3153246e-05)
(1.6262168 -0.014467398 3.9053425e-06)
(1.5758714 -0.02896399 2.2452777e-05)
(1.540921 -0.052883585 1.3493262e-05)
(1.5845167 -0.026366117 4.1014069e-06)
(1.7214071 -0.020223236 2.2464585e-05)
(1.5729654 -0.028353638 1.3839486e-05)
(1.5253155 -0.0084412116 4.2454317e-06)
(1.6471429 -0.0029456395 2.2390363e-05)
(1.5315642 0.0088153826 1.4051144e-05)
(1.5317771 0.0055801293 4.42273e-06)
(1.6356649 -0.005458299 2.2418782e-05)
(1.5425924 0.0012238996 1.4334656e-05)
(1.5336788 -0.00026269711 4.584102e-06)
(1.7076003 0.015184087 2.2305932e-05)
(1.5283106 -0.0019392664 1.4603246e-05)
(1.5197502 -0.0055205344 4.707541e-06)
(1.5354543 0.029912554 2.23371e-05)
(1.559411 0.0042015971 1.4850378e-05)
(1.4747237 -0.012208607 4.8637745e-06)
(1.3742983 0.016044017 2.194547e-05)
(1.5864087 0.0091625159 1.4991703e-05)
(1.4542423 0.0030069396 4.8476273e-06)
(1.2527965 0.026922049 2.3059486e-05)
(1.3468892 0.10668634 1.5573248e-05)
(1.3617149 0.068050165 5.5258999e-06)
(0.82514509 0.36089987 1.1657672e-05)
(0.81080783 0.9324534 9.8982229e-06)
(0.73647388 1.2521011 5.3762183e-06)
(0.21979285 0.10983469 1.5112928e-06)
(0.19394856 0.36739497 3.0868031e-06)
(0.086616376 0.50449697 6.9642673e-07)
(-0.02910213 -0.013859626 1.223178e-06)
(-0.02581289 -0.027581482 1.6762064e-06)
(-0.020244818 -0.031990373 5.5823095e-07)
(-0.0062835636 -0.0027793667 4.4415373e-07)
(-0.0061668203 -0.0071872493 7.1976141e-07)
(-0.0063818078 -0.010015517 3.1082694e-07)
(-0.00023449197 -0.00023602191 1.1696571e-07)
(-0.00051640722 -0.00076016764 2.2921014e-07)
(-0.0011083682 -0.0013962233 8.5550794e-08)
(0.00016249593 -7.015108e-06 2.0454886e-08)
(2.1971109e-05 -4.7429306e-05 4.0169882e-08)
(-0.0002378188 -0.00021957461 -2.9219245e-08)
(0.00010172597 2.4015747e-05 -8.8617864e-09)
(3.7523995e-05 4.2110197e-05 -2.6486122e-08)
(-6.9842285e-05 1.6620249e-05 -7.3815215e-08)
(4.5313731e-05 3.122393e-05 -1.7896521e-08)
(1.5390961e-05 7.9673547e-05 -4.6794081e-08)
(-3.2268751e-05 0.00010617071 -8.448011e-08)
(-1.8751983e-05 2.4354637e-05 -1.8120104e-08)
(-3.3060701e-05 5.3011393e-05 -4.7466998e-08)
(-5.4437844e-05 7.5883376e-05 -7.8847347e-08)
(-6.1731636e-05 1.0774166e-05 -1.4988353e-08)
(-6.7917408e-05 1.8914731e-05 -4.0686694e-08)
(-7.6331447e-05 2.2878639e-05 -6.6786048e-08)
(-7.6100076e-05 -3.0943227e-06 -1.1477958e-08)
(-7.8248597e-05 -4.3842953e-06 -3.2543989e-08)
(-8.0159954e-05 -1.1611194e-05 -5.386186e-08)
(-7.0749424e-05 -5.8474795e-06 -8.8057582e-09)
(-7.0856302e-05 -1.2980284e-05 -2.5476615e-08)
(-6.9522851e-05 -2.390101e-05 -4.2484653e-08)
(-5.9387595e-05 -4.4613955e-06 -6.8965462e-09)
(-5.8519811e-05 -1.171636e-05 -1.9901916e-08)
(-5.5800318e-05 -1.8592123e-05 -3.3187758e-08)
(-4.9703825e-05 -2.5257376e-06 -5.466322e-09)
(-4.8458467e-05 -5.8749148e-06 -1.5550044e-08)
(-4.5292038e-05 -9.8110152e-06 -2.5746161e-08)
(-4.3195944e-05 -1.2282259e-06 -4.3058972e-09)
(-4.1892393e-05 -1.936092e-06 -1.2050819e-08)
(-3.878862e-05 -3.2543626e-06 -1.9767283e-08)
(-3.9058718e-05 -7.0817061e-07 -3.3194924e-09)
(-3.78573e-05 -1.042342e-06 -9.1742938e-09)
(-3.5041617e-05 -1.304827e-06 -1.4936776e-08)
(-3.6365514e-05 -6.6456966e-07 -2.4791459e-09)
(-3.5323819e-05 -9.8486839e-07 -6.8188435e-09)
(-3.2873185e-05 -1.0658663e-06 -1.1058278e-08)
(-3.4471154e-05 -6.6726382e-07 -1.7978417e-09)
(-3.3592549e-05 -1.0602844e-06 -4.9446694e-09)
(-3.1500226e-05 -1.3271686e-06 -8.0065373e-09)
(-3.2998524e-05 -6.0264218e-07 -1.273367e-09)
(-3.2267952e-05 -1.0370946e-06 -3.5045364e-09)
(-3.0498816e-05 -1.3839512e-06 -5.6698521e-09)
(-3.1789185e-05 -4.813125e-07 -8.8721533e-10)
(-3.1188636e-05 -9.1189869e-07 -2.4347843e-09)
(-2.9701783e-05 -1.2127764e-06 -3.9309074e-09)
(-3.0799212e-05 -3.9143399e-07 -6.0848978e-10)
(-3.0310109e-05 -7.3898775e-07 -1.661026e-09)
(-2.9062506e-05 -8.9245112e-07 -2.6720339e-09)
(-3.0005894e-05 -3.152899e-07 -4.1319881e-10)
(-2.960975e-05 -5.2270169e-07 -1.1161359e-09)
(-2.8560932e-05 -5.8277702e-07 -1.7846408e-09)
(-2.9365111e-05 -1.9677045e-07 -2.834439e-10)
(-2.9044263e-05 -2.7777009e-07 -7.4311313e-10)
(-2.8157693e-05 -3.7396627e-07 -1.1738968e-09)
(-2.8809343e-05 -1.9246306e-07 -1.9265632e-10)
(-2.8548107e-05 -1.7875756e-07 -4.9156472e-10)
(-2.7790346e-05 -2.7806845e-07 -7.6204253e-10)
(-2.8264375e-05 -2.1016701e-07 -1.3213421e-10)
(-2.8050365e-05 -2.8071102e-07 -3.2351231e-10)
(-2.7394824e-05 -3.3747082e-07 -4.8914594e-10)
(-2.7671209e-05 -2.4231759e-07 -9.1409241e-11)
(-2.749513e-05 -3.9010926e-07 -2.1228048e-10)
(-2.6922554e-05 -5.6482268e-07 -3.108979e-10)
(-2.6994737e-05 -2.7458821e-07 -6.5680335e-11)
(-2.6849134e-05 -4.8834122e-07 -1.413928e-10)
(-2.6344921e-05 -7.3571762e-07 -1.9759301e-10)
(-2.6218794e-05 -3.0997002e-07 -4.9488623e-11)
(-2.6097746e-05 -5.9186929e-07 -9.6804566e-11)
(-2.5650145e-05 -8.9964725e-07 -1.2690059e-10)
(-2.5339917e-05 -3.4138906e-07 -3.9803833e-11)
(-2.5238826e-05 -6.7965209e-07 -6.9353503e-11)
(-2.4838788e-05 -1.0520245e-06 -8.3594072e-11)
(-2.4364879e-05 -3.5918168e-07 -3.4776509e-11)
(-2.4279828e-05 -7.1870146e-07 -5.3137054e-11)
(-2.3920437e-05 -1.1564689e-06 -5.7599273e-11)
(-2.3306322e-05 -3.8856038e-07 -3.0652773e-11)
(-2.3234017e-05 -8.1022761e-07 -4.2126971e-11)
(-2.2909228e-05 -1.2993639e-06 -4.1651957e-11)
(-2.2176854e-05 -4.1041942e-07 -2.8328082e-11)
(-2.2114849e-05 -8.7817629e-07 -3.5665093e-11)
(-2.1819688e-05 -1.4157244e-06 -3.2481171e-11)
(-2.0990477e-05 -4.2800211e-07 -2.6939051e-11)
(-2.0936778e-05 -9.1081973e-07 -3.2182592e-11)
(-2.0667792e-05 -1.4704747e-06 -2.7722336e-11)
(-1.976557e-05 -4.3574398e-07 -2.6259645e-11)
(-1.9718613e-05 -9.3684712e-07 -3.0023774e-11)
(-1.9473118e-05 -1.5199776e-06 -2.500769e-11)
(-1.852222e-05 -4.3787731e-07 -2.5702812e-11)
(-1.8480856e-05 -9.5188176e-07 -2.8432652e-11)
(-1.8256562e-05 -1.5495198e-06 -2.3310129e-11)
(-1.7279353e-05 -4.340581e-07 -2.5203697e-11)
(-1.7242641e-05 -9.5081141e-07 -2.7191609e-11)
(-1.7037655e-05 -1.549294e-06 -2.2204985e-11)
(-1.6054663e-05 -4.242579e-07 -2.4762253e-11)
(-1.6021824e-05 -9.3496085e-07 -2.6216467e-11)
(-1.5834503e-05 -1.5236761e-06 -2.1493283e-11)
(-1.4864694e-05 -4.0928994e-07 -2.4378156e-11)
(-1.4835146e-05 -9.0741069e-07 -2.5479635e-11)
(-1.4664075e-05 -1.4790851e-06 -2.1082919e-11)
(-1.3723986e-05 -3.8940269e-07 -2.4110831e-11)
(-1.3697433e-05 -8.685878e-07 -2.4993023e-11)
(-1.3541358e-05 -1.4170648e-06 -2.0903448e-11)
(-1.2644541e-05 -3.6516201e-07 -2.4008752e-11)
(-1.2620766e-05 -8.1657305e-07 -2.4765801e-11)
(-1.2478402e-05 -1.3349236e-06 -2.0908782e-11)
(-1.1636448e-05 -3.3935668e-07 -2.3754136e-11)
(-1.1614902e-05 -7.5768711e-07 -2.4534056e-11)
(-1.1484956e-05 -1.2340254e-06 -2.1033443e-11)
(-1.0708531e-05 -3.0838471e-07 -2.3783727e-11)
(-1.0688679e-05 -6.8901001e-07 -2.4584117e-11)
(-1.0569873e-05 -1.1236899e-06 -2.1257296e-11)
(-9.8684837e-06 -2.7687499e-07 -2.3594052e-11)
(-9.85014e-06 -6.2031103e-07 -2.4423962e-11)
(-9.7412521e-06 -1.0086244e-06 -2.1385665e-11)
(-9.1226951e-06 -2.4313163e-07 -2.3399167e-11)
(-9.1057064e-06 -5.4528999e-07 -2.416992e-11)
(-9.0056061e-06 -8.8721797e-07 -2.1327499e-11)
(-8.4764267e-06 -2.0668492e-07 -2.3346399e-11)
(-8.4605948e-06 -4.6378833e-07 -2.4081692e-11)
(-8.368112e-06 -7.563109e-07 -2.1331759e-11)
(-7.9353131e-06 -1.6934702e-07 -2.3399863e-11)
(-7.9204416e-06 -3.7941554e-07 -2.4159551e-11)
(-7.8343145e-06 -6.1556889e-07 -2.1400813e-11)
(-7.5077781e-06 -1.3005946e-07 -2.3546435e-11)
(-7.4936642e-06 -2.895928e-07 -2.4203214e-11)
(-7.4125635e-06 -4.6928201e-07 -2.1221786e-11)
(-7.1992047e-06 -8.9068819e-08 -2.3572824e-11)
(-7.1856205e-06 -1.9630301e-07 -2.3689883e-11)
(-7.1081922e-06 -3.1852252e-07 -2.0231348e-11)
(-7.0332144e-06 -4.6404385e-08 -2.3010057e-11)
(-7.020061e-06 -1.0171622e-07 -2.1581471e-11)
(-6.9448146e-06 -1.6818274e-07 -1.7482008e-11)
(-6.9536808e-06 -7.9678681e-09 -2.0075149e-11)
(-6.9406535e-06 -1.5811241e-08 -1.5530329e-11)
(-6.8663697e-06 -2.8198893e-08 -1.1408637e-11)
(-0.04741823 1.954414 -3.7831203e-07)
(-0.033386003 1.7003181 -3.4527349e-06)
(-0.063002155 0.34503806 -2.5600492e-07)
(-0.043560244 0.1542717 -1.0183824e-06)
(-0.015866747 -0.040509788 -2.3138462e-07)
(-0.011882622 -0.043373057 -6.4675746e-07)
(-0.0058926171 -0.012926127 -1.3273608e-07)
(-0.0052840706 -0.01456384 -4.3231207e-07)
(-0.0014127306 -0.0024219106 -1.3410561e-07)
(-0.0014541025 -0.0034465354 -3.2026897e-07)
(-0.00035773474 -0.00051622655 -1.4485386e-07)
(-0.00033761473 -0.00083024656 -2.5799384e-07)
(-0.00011313122 -2.2295866e-05 -1.4328256e-07)
(-8.4322616e-05 -6.7865837e-05 -2.1510605e-07)
(-5.2768828e-05 0.00012674399 -1.3140536e-07)
(-3.8265722e-05 0.00015030758 -1.7993024e-07)
(-6.3763476e-05 9.7715705e-05 -1.1344474e-07)
(-5.6581949e-05 0.00011576 -1.4827539e-07)
(-7.8735247e-05 2.8492941e-05 -9.3608423e-08)
(-7.2705086e-05 2.8888608e-05 -1.1979977e-07)
(-7.8323297e-05 -2.28361e-05 -7.5021689e-08)
(-7.1486253e-05 -3.5804925e-05 -9.5241826e-08)
(-6.5594022e-05 -3.8492739e-05 -5.9117487e-08)
(-5.8863309e-05 -5.1746689e-05 -7.4827403e-08)
(-5.1186522e-05 -2.723607e-05 -4.6108405e-08)
(-4.4952158e-05 -3.6026746e-05 -5.8249974e-08)
(-4.055766e-05 -1.3062049e-05 -3.5633865e-08)
(-3.4702412e-05 -1.6089913e-05 -4.4915954e-08)
(-3.4344342e-05 -4.952709e-06 -2.7227868e-08)
(-2.9004174e-05 -6.0897181e-06 -3.4230729e-08)
(-3.1087256e-05 -1.9951522e-06 -2.0489857e-08)
(-2.6385212e-05 -3.0346367e-06 -2.5700245e-08)
(-2.9443488e-05 -1.3922714e-06 -1.5131253e-08)
(-2.5372729e-05 -1.4587218e-06 -1.8950372e-08)
(-2.8565269e-05 -1.4804318e-06 -1.0942566e-08)
(-2.5070374e-05 -1.4448737e-06 -1.3694025e-08)
(-2.8011262e-05 -1.5941585e-06 -7.7444878e-09)
(-2.5033822e-05 -1.5307757e-06 -9.688292e-09)
(-2.7603991e-05 -1.3069961e-06 -5.3652994e-09)
(-2.5076611e-05 -1.273239e-06 -6.7097585e-09)
(-2.7293764e-05 -8.7011198e-07 -3.6419372e-09)
(-2.5145736e-05 -8.4740994e-07 -4.5515302e-09)
(-2.7064576e-05 -5.10941e-07 -2.4255959e-09)
(-2.5231444e-05 -4.5301406e-07 -3.0269428e-09)
(-2.6883496e-05 -3.1809826e-07 -1.5873028e-09)
(-2.5309062e-05 -2.3996512e-07 -1.9755089e-09)
(-2.6694678e-05 -3.1441837e-07 -1.0217825e-09)
(-2.5330682e-05 -2.843312e-07 -1.2662979e-09)
(-2.644209e-05 -4.0271371e-07 -6.4788131e-10)
(-2.5248524e-05 -5.028604e-07 -7.9780627e-10)
(-2.6085988e-05 -6.30517e-07 -4.0522352e-10)
(-2.5031677e-05 -7.6242843e-07 -4.9454536e-10)
(-2.5604292e-05 -9.3900633e-07 -2.5100467e-10)
(-2.4665559e-05 -1.130278e-06 -3.021083e-10)
(-2.4989399e-05 -1.1953208e-06 -1.5519729e-10)
(-2.4147525e-05 -1.4920512e-06 -1.8258905e-10)
(-2.4245474e-05 -1.4175203e-06 -9.67672e-11)
(-2.3485764e-05 -1.7959535e-06 -1.0990834e-10)
(-2.3384996e-05 -1.5942008e-06 -6.176857e-11)
(-2.2696301e-05 -2.0298631e-06 -6.6574865e-11)
(-2.2423635e-05 -1.7586591e-06 -4.1081664e-11)
(-2.1796654e-05 -2.2362968e-06 -4.1242204e-11)
(-2.1377223e-05 -1.9198843e-06 -2.9279216e-11)
(-2.0804014e-05 -2.4081364e-06 -2.6943398e-11)
(-2.0263525e-05 -2.0085031e-06 -2.309212e-11)
(-1.9738222e-05 -2.5447404e-06 -1.9307447e-11)
(-1.9103338e-05 -2.0699809e-06 -1.9800578e-11)
(-1.8621715e-05 -2.6235271e-06 -1.5382771e-11)
(-1.7918157e-05 -2.1001123e-06 -1.8000752e-11)
(-1.7476484e-05 -2.6648443e-06 -1.3410547e-11)
(-1.6728013e-05 -2.1039608e-06 -1.7031122e-11)
(-1.6323012e-05 -2.6700799e-06 -1.2510165e-11)
(-1.5551376e-05 -2.0819483e-06 -1.6566123e-11)
(-1.5180515e-05 -2.6376015e-06 -1.2225931e-11)
(-1.4405491e-05 -2.0316004e-06 -1.6441087e-11)
(-1.4066477e-05 -2.5664665e-06 -1.231151e-11)
(-1.330558e-05 -1.9528981e-06 -1.6535241e-11)
(-1.2996195e-05 -2.4603359e-06 -1.2602416e-11)
(-1.2263641e-05 -1.8435014e-06 -1.6769361e-11)
(-1.1981585e-05 -2.3203689e-06 -1.3026061e-11)
(-1.1289184e-05 -1.7005401e-06 -1.7140666e-11)
(-1.103191e-05 -2.1476607e-06 -1.3557145e-11)
(-1.039111e-05 -1.5499355e-06 -1.750985e-11)
(-1.015614e-05 -1.9616857e-06 -1.4035315e-11)
(-9.5777204e-06 -1.3906706e-06 -1.7817159e-11)
(-9.3627546e-06 -1.7650473e-06 -1.4428402e-11)
(-8.8555894e-06 -1.222784e-06 -1.7941189e-11)
(-8.6583592e-06 -1.5471246e-06 -1.4698951e-11)
(-8.2298132e-06 -1.0431188e-06 -1.8042804e-11)
(-8.0479443e-06 -1.3190971e-06 -1.4886764e-11)
(-7.7058098e-06 -8.481423e-07 -1.8086838e-11)
(-7.5368022e-06 -1.0747984e-06 -1.4930267e-11)
(-7.2918077e-06 -6.4676462e-07 -1.7766497e-11)
(-7.1329939e-06 -8.2011535e-07 -1.4575071e-11)
(-6.9930974e-06 -4.3971133e-07 -1.6592036e-11)
(-6.8417369e-06 -5.5857264e-07 -1.3429125e-11)
(-6.8330465e-06 -2.3302635e-07 -1.3853383e-11)
(-6.6860481e-06 -2.9540058e-07 -1.0989004e-11)
(-6.7560768e-06 -3.8043034e-08 -8.5936835e-12)
(-6.6109791e-06 -4.6284632e-08 -6.632669e-12)
(0.00057410394 -1.7372323e-05 -1.1955477e-07)
(0.00052622031 -9.5295668e-05 -2.836152e-07)
(0.00045023518 -0.00011091147 -4.0160174e-07)
(0.00037062914 -0.00014624312 -4.7647526e-07)
(0.00029686032 -0.00016670347 -5.1742468e-07)
(0.00023096423 -0.00020044048 -5.348925e-07)
(0.00017350596 -0.0002271924 -5.3669357e-07)
(0.00012547405 -0.00026018895 -5.2829103e-07)
(8.769428e-05 -0.00030141701 -5.1349858e-07)
(6.0122756e-05 -0.00035024832 -4.9496374e-07)
(4.185409e-05 -0.00040661691 -4.7453214e-07)
(3.1064308e-05 -0.00046820206 -4.5333273e-07)
(2.5699229e-05 -0.00053225832 -4.3192727e-07)
(2.3889716e-05 -0.00059644945 -4.1043861e-07)
(2.4167204e-05 -0.00065863227 -3.8874505e-07)
(2.5389225e-05 -0.00071672362 -3.6657194e-07)
(2.6493885e-05 -0.00077015919 -3.435206e-07)
(2.6794056e-05 -0.00081700853 -3.1901518e-07)
(2.6186615e-05 -0.00085461037 -2.9241491e-07)
(2.4539093e-05 -0.0008823784 -2.6297926e-07)
(2.1847123e-05 -0.00090039173 -2.2991523e-07)
(1.830572e-05 -0.00090875272 -1.9203219e-07)
(1.4055675e-05 -0.0009069867 -1.483064e-07)
(9.0171596e-06 -0.00089985008 -9.8171742e-08)
(2.8585577e-06 -0.00085514437 -4.1024748e-08)
(0.00028064444 -0.00013749841 -1.3542939e-07)
(0.00027335577 -0.00056053785 -3.1707844e-07)
(0.0002725554 -0.00078240806 -4.4087159e-07)
(0.00027773512 -0.0010885255 -5.1284539e-07)
(0.000289172 -0.0013392575 -5.4742959e-07)
(0.00030624234 -0.0016124048 -5.5856548e-07)
(0.00032884822 -0.0018759801 -5.5507619e-07)
(0.00035486253 -0.0021610711 -5.4263286e-07)
(0.00037610147 -0.0024662463 -5.2483433e-07)
(0.00038935849 -0.002768055 -5.0403515e-07)
(0.00039376097 -0.0030643078 -4.8203351e-07)
(0.00038927392 -0.0033520265 -4.5981912e-07)
(0.00037710936 -0.0036254657 -4.3782559e-07)
(0.00035897878 -0.0038809152 -4.1602337e-07)
(0.00033591289 -0.004115927 -3.9419808e-07)
(0.00030879234 -0.0043317473 -3.7204558e-07)
(0.00027874517 -0.0045382937 -3.4922129e-07)
(0.00024674853 -0.0047274735 -3.2501246e-07)
(0.00021321808 -0.0048762397 -2.9882259e-07)
(0.0001786005 -0.0049772502 -2.6983751e-07)
(0.00014352089 -0.0050278929 -2.3759656e-07)
(0.00010873939 -0.0050306346 -2.001765e-07)
(7.4717511e-05 -0.0049888811 -1.5619522e-07)
(4.1938489e-05 -0.0048884033 -1.0395144e-07)
(1.1487989e-05 -0.0046671732 -4.4981087e-08)
(0.0011221164 -0.00033101864 -1.7364032e-07)
(0.0011304157 -0.0015564465 -3.9204613e-07)
(0.0011557997 -0.0020843109 -5.2354116e-07)
(0.0011954454 -0.0029603762 -5.8497324e-07)
(0.0012356396 -0.0036709906 -6.051523e-07)
(0.0012648728 -0.0044132601 -6.0340448e-07)
(0.0012764369 -0.0051556484 -5.8953654e-07)
(0.001266247 -0.0060665094 -5.6957575e-07)
(0.0012376868 -0.0071131862 -5.4636323e-07)
(0.001193155 -0.0080845109 -5.2133945e-07)
(0.0011362449 -0.008934299 -4.9652764e-07)
(0.001069163 -0.0096560314 -4.7256498e-07)
(0.00099461784 -0.010246755 -4.4969984e-07)
(0.0009145207 -0.010715313 -4.2752177e-07)
(0.00083071492 -0.011069167 -4.0564396e-07)
(0.00074479817 -0.011309989 -3.8369169e-07)
(0.00065834125 -0.011430869 -3.6173107e-07)
(0.00057233119 -0.011451002 -3.3836695e-07)
(0.00048730369 -0.011398704 -3.1344077e-07)
(0.00040388914 -0.011288981 -2.8616108e-07)
(0.00032288454 -0.011131793 -2.5558557e-07)
(0.00024482792 -0.010936118 -2.2017323e-07)
(0.00016947292 -0.010708697 -1.7779348e-07)
(9.7276335e-05 -0.010420476 -1.2481802e-07)
(2.988079e-05 -0.01002543 -6.1197022e-08)
(0.0036761619 -0.0010651624 -2.5602076e-07)
(0.0036457358 -0.0047411943 -5.3131235e-07)
(0.0035750475 -0.0060320115 -6.5969511e-07)
(0.003403072 -0.0091726156 -6.9430703e-07)
(0.0032038477 -0.011980342 -6.8902372e-07)
(0.0029691875 -0.014512437 -6.6722633e-07)
(0.0027178285 -0.016332676 -6.3804303e-07)
(0.0024574674 -0.017304625 -6.085823e-07)
(0.0022038703 -0.01759858 -5.7926277e-07)
(0.0019600655 -0.017472761 -5.4836909e-07)
(0.0017347017 -0.017032554 -5.200515e-07)
(0.001526249 -0.01639515 -4.9387296e-07)
(0.0013333842 -0.015578457 -4.702863e-07)
(0.0011467152 -0.014637382 -4.4792201e-07)
(0.00097883487 -0.013625839 -4.2622822e-07)
(0.00082968606 -0.012589535 -4.0492352e-07)
(0.00069773737 -0.011567882 -3.836647e-07)
(0.00058121175 -0.010594744 -3.6190985e-07)
(0.00047856687 -0.009693016 -3.3913238e-07)
(0.00038785454 -0.008882523 -3.1464954e-07)
(0.00030665134 -0.008176805 -2.8757643e-07)
(0.00023242077 -0.0075810352 -2.5662266e-07)
(0.00016390202 -0.0070950224 -2.1985649e-07)
(9.9283644e-05 -0.0066771095 -1.7405768e-07)
(3.6768325e-05 -0.0063771557 -1.0910211e-07)
(0.011617685 -0.008743332 -4.4388553e-07)
(0.0091886851 -0.02566307 -7.6676293e-07)
(0.0079297152 -0.028016768 -8.5543615e-07)
(0.0061924956 -0.032199532 -8.446086e-07)
(0.0047815213 -0.029621543 -8.0607752e-07)
(0.0035582804 -0.025851092 -7.5846199e-07)
(0.0025373689 -0.021191655 -7.1105368e-07)
(0.0017237108 -0.016259694 -6.6678259e-07)
(0.0010879747 -0.011322701 -6.2719922e-07)
(0.00059924984 -0.0067587994 -5.907801e-07)
(0.00022492875 -0.0026370136 -5.5793965e-07)
(-4.9402976e-05 0.00091130112 -5.2739703e-07)
(-0.00024278373 0.0042175416 -5.0283155e-07)
(-0.00036645703 0.0073687381 -4.7960227e-07)
(-0.00044346302 0.010267945 -4.5724368e-07)
(-0.00048093266 0.012784589 -4.358847e-07)
(-0.00048709627 0.014887095 -4.1516617e-07)
(-0.00046866794 0.016592349 -3.9463312e-07)
(-0.00043104215 0.017928544 -3.7379618e-07)
(-0.00037869234 0.018924418 -3.5210258e-07)
(-0.00031584334 0.019606041 -3.2886323e-07)
(-0.00024638676 0.02000007 -3.0310975e-07)
(-0.00017240268 0.020104041 -2.732875e-07)
(-9.7144255e-05 0.019975275 -2.4406921e-07)
(-2.2102837e-05 0.019272875 -2.1494106e-07)
(0.014368679 0.023928682 -8.0106409e-07)
(0.00334305 -0.00082673207 -1.1343211e-06)
(0.00068098497 0.048666249 -1.1381616e-06)
(-0.0011257687 0.051527473 -1.0660348e-06)
(-0.0027121868 0.06567541 -9.892847e-07)
(-0.0039020276 0.075882618 -9.0354263e-07)
(-0.0045630386 0.083017998 -8.2675804e-07)
(-0.0047650338 0.088969132 -7.6009149e-07)
(-0.0046829844 0.093346626 -7.022521e-07)
(-0.004456792 0.096066706 -6.5296245e-07)
(-0.0041649029 0.097615422 -6.1146711e-07)
(-0.0038132239 0.098078784 -5.6822765e-07)
(-0.0034562138 0.097798632 -5.4351503e-07)
(-0.0031086395 0.096484648 -5.1678475e-07)
(-0.0027587188 0.094320442 -4.9049628e-07)
(-0.0024182347 0.09188904 -4.6704726e-07)
(-0.0020968182 0.089255865 -4.4533266e-07)
(-0.0017952157 0.086505062 -4.246666e-07)
(-0.0015126383 0.083713389 -4.0449931e-07)
(-0.0012473375 0.080938636 -3.8432153e-07)
(-0.00099675984 0.078217637 -3.6358985e-07)
(-0.00075832402 0.075592717 -3.4163541e-07)
(-0.00052998747 0.073036069 -3.1776079e-07)
(-0.00030991764 0.070734748 -2.9289016e-07)
(-9.2788288e-05 0.06725176 -2.6843833e-07)
(-0.0016975806 1.1768493 -2.5219853e-06)
(-0.00086364447 0.96317037 -2.0054476e-06)
(-0.0011102403 0.8668358 -1.6273318e-06)
(-0.00080158779 0.7740762 -1.3375771e-06)
(-0.00068666287 0.67784729 -1.1204173e-06)
(-0.00059227853 0.58638605 -9.6172063e-07)
(-0.00050200648 0.50799791 -8.4586784e-07)
(-0.00042394119 0.44428164 -7.6075836e-07)
(-0.00035766489 0.39171322 -6.9189276e-07)
(-0.00029961764 0.34685441 -6.3942794e-07)
(-0.00024485627 0.30814248 -5.9968987e-07)
(-0.0001996186 0.27482913 -5.6537144e-07)
(-0.0001623751 0.24634366 -5.3667011e-07)
(-0.00013846863 0.22195865 -5.1120308e-07)
(-0.00011598094 0.20101703 -4.8799787e-07)
(-9.6989651e-05 0.18303672 -4.6670723e-07)
(-8.0897314e-05 0.16758754 -4.4680881e-07)
(-6.6996163e-05 0.15430665 -4.2779288e-07)
(-5.4946371e-05 0.14289164 -4.0922771e-07)
(-4.4427274e-05 0.13309331 -3.9072967e-07)
(-3.5029146e-05 0.12469566 -3.7189739e-07)
(-2.6257677e-05 0.1175568 -3.5218617e-07)
(-1.8013451e-05 0.11143547 -3.3125028e-07)
(-1.0275021e-05 0.10661369 -3.0883236e-07)
(-2.9100189e-06 0.10060123 -2.8442414e-07)
(-0.012928388 0.092294635 -1.2369101e-06)
(-0.0023849947 0.099816555 -1.2780734e-06)
(-3.2746907e-05 0.1053171 -1.2332651e-06)
(0.0016100474 0.10680284 -1.1427938e-06)
(0.0030686974 0.10861054 -1.0400612e-06)
(0.0041635388 0.11011014 -9.4028318e-07)
(0.0047580378 0.11164206 -8.5130178e-07)
(0.0049099435 0.11307317 -7.7468909e-07)
(0.0047864802 0.11380169 -6.9392833e-07)
(0.004514586 0.113813 -6.5067487e-07)
(0.004207541 0.11306997 -6.1038497e-07)
(0.0038695488 0.11136518 -5.6798643e-07)
(0.0034982495 0.10881795 -5.3239481e-07)
(0.003127306 0.10577533 -5.018906e-07)
(0.0027683401 0.10248359 -4.7522807e-07)
(0.0024265903 0.099066537 -4.5146559e-07)
(0.0021030522 0.095607597 -4.2982335e-07)
(0.0017992818 0.092174786 -4.0963673e-07)
(0.001514593 0.088818854 -3.9032855e-07)
(0.0012474765 0.085577312 -3.7135439e-07)
(0.0009958685 0.082471488 -3.5210923e-07)
(0.000757511 0.079530839 -3.3179779e-07)
(0.00052972991 0.076717912 -3.1072722e-07)
(0.00031033324 0.074223765 -2.8764164e-07)
(9.3484722e-05 0.070527243 -2.6431085e-07)
(-0.0093584305 -0.040962114 -8.7345069e-07)
(-0.0078044651 -0.038409225 -9.3875403e-07)
(-0.0063570544 -0.036543483 -9.2583592e-07)
(-0.0049664924 -0.033042539 -8.7952045e-07)
(-0.0036994104 -0.028127324 -8.209419e-07)
(-0.0026088339 -0.022591495 -7.5944879e-07)
(-0.001713507 -0.016899944 -7.022625e-07)
(-0.0010088035 -0.011343568 -6.4999391e-07)
(-0.00046831514 -0.0063712276 -6.01622e-07)
(-6.5434309e-05 -0.0019673878 -5.6534165e-07)
(0.00022867424 0.0018224794 -5.3202215e-07)
(0.00043492105 0.0055303747 -5.0096695e-07)
(0.00056965583 0.0090716893 -4.7309514e-07)
(0.00064944121 0.012237583 -4.4810195e-07)
(0.00068539187 0.014959808 -4.2540671e-07)
(0.00068668307 0.017238792 -4.0446322e-07)
(0.00066234059 0.019113495 -3.8481393e-07)
(0.00061717538 0.020623471 -3.6594854e-07)
(0.00055581501 0.021787021 -3.4734362e-07)
(0.00048195776 0.022625414 -3.2840003e-07)
(0.00039878547 0.02316003 -3.0828283e-07)
(0.0003090791 0.023411636 -2.8551662e-07)
(0.00021580544 0.0233904 -2.6308736e-07)
(0.00012211857 0.023139922 -2.3569967e-07)
(2.9612191e-05 0.022285922 -2.0879864e-07)
(-0.0048216083 -0.016002398 -6.0663627e-07)
(-0.0044738177 -0.018319718 -6.8321142e-07)
(-0.0041395332 -0.020913734 -6.9841687e-07)
(-0.0037972017 -0.022807019 -6.8167579e-07)
(-0.003440484 -0.02400679 -6.5182129e-07)
(-0.0030867004 -0.024408514 -6.1927298e-07)
(-0.0027515277 -0.024170089 -5.7951598e-07)
(-0.0024331275 -0.023503637 -5.4236113e-07)
(-0.0021379248 -0.022567023 -5.0862403e-07)
(-0.0018693155 -0.021423695 -4.7972378e-07)
(-0.0016299555 -0.020159449 -4.5342994e-07)
(-0.0014036298 -0.018758987 -4.2918268e-07)
(-0.0011982036 -0.017290223 -4.0694774e-07)
(-0.0010165657 -0.015807042 -3.8653157e-07)
(-0.00085755677 -0.014346072 -3.673919e-07)
(-0.00071915768 -0.012942331 -3.4910333e-07)
(-0.00059780706 -0.011635989 -3.3151154e-07)
(-0.00049245141 -0.010456631 -3.1403159e-07)
(-0.00040106553 -0.0094076016 -2.9610803e-07)
(-0.00032173058 -0.0084904519 -2.770703e-07)
(-0.00025247047 -0.0077059069 -2.5599538e-07)
(-0.00019120195 -0.0070537229 -2.3161794e-07)
(-0.00013584003 -0.006530636 -2.0263626e-07)
(-8.4002212e-05 -0.0060965235 -1.6342854e-07)
(-3.2889408e-05 -0.0058032462 -1.0469378e-07)
(-0.0014858468 -0.0043268095 -4.4752561e-07)
(-0.0015249118 -0.0051058009 -5.1853209e-07)
(-0.0015638613 -0.0059139105 -5.4668667e-07)
(-0.0015983659 -0.0066817944 -5.4799818e-07)
(-0.0016158909 -0.0074966079 -5.3433889e-07)
(-0.00160747 -0.0085204425 -5.1294935e-07)
(-0.0015746396 -0.0096708903 -4.8662629e-07)
(-0.0015182808 -0.010688511 -4.5985089e-07)
(-0.0014437843 -0.011551991 -4.3450658e-07)
(-0.0013582348 -0.012253762 -4.1130597e-07)
(-0.0012657232 -0.012810898 -3.898346e-07)
(-0.0011675409 -0.013225482 -3.6981118e-07)
(-0.00106671 -0.013503974 -3.5107482e-07)
(-0.00096614243 -0.01363141 -3.3381848e-07)
(-0.00086698275 -0.013636876 -3.1707588e-07)
(-0.00076947935 -0.013558936 -3.0096114e-07)
(-0.00067592042 -0.01342094 -2.847894e-07)
(-0.00058540223 -0.013237432 -2.6823215e-07)
(-0.00049776217 -0.013017791 -2.5076446e-07)
(-0.00041279649 -0.012769243 -2.3172107e-07)
(-0.00033039517 -0.012497501 -2.1009477e-07)
(-0.00025055759 -0.012208068 -1.843908e-07)
(-0.00017346439 -0.011904354 -1.5243888e-07)
(-9.9584985e-05 -0.01154896 -1.0973457e-07)
(-3.0819893e-05 -0.011101196 -5.555826e-08)
(-0.00027925841 -0.0011531371 -3.4593786e-07)
(-0.00025863783 -0.0014598395 -4.0323203e-07)
(-0.00026746262 -0.0017936107 -4.3318532e-07)
(-0.00030725597 -0.0021321803 -4.4303104e-07)
(-0.00036251858 -0.0024722234 -4.3958712e-07)
(-0.00041969047 -0.0028494883 -4.2792583e-07)
(-0.00046731989 -0.0032532852 -4.1136224e-07)
(-0.00050097875 -0.0036488152 -3.9277231e-07)
(-0.00051965277 -0.0040305094 -3.7390856e-07)
(-0.00052356165 -0.0043900911 -3.5563545e-07)
(-0.00051756617 -0.00472311 -3.3816342e-07)
(-0.0005039132 -0.0050300609 -3.2150712e-07)
(-0.00048308728 -0.0053238703 -3.0562446e-07)
(-0.00045600682 -0.0056250591 -2.9046373e-07)
(-0.000423849 -0.0059201956 -2.7568796e-07)
(-0.00038764226 -0.0061730035 -2.6108184e-07)
(-0.0003485373 -0.0063759895 -2.4625226e-07)
(-0.0003073281 -0.0065274089 -2.3080814e-07)
(-0.00026474775 -0.0066271943 -2.1424461e-07)
(-0.00022138497 -0.0066751795 -1.9611631e-07)
(-0.00017775737 -0.0066727507 -1.7552362e-07)
(-0.00013443404 -0.0066229711 -1.5100372e-07)
(-9.2082243e-05 -0.0065306187 -1.2115084e-07)
(-5.1434837e-05 -0.0063780996 -8.3474934e-08)
(-1.4139221e-05 -0.0060924755 -3.8450761e-08)
(-2.853516e-05 -0.00010540772 -2.757362e-07)
(1.6652897e-05 -0.00013024512 -3.1962325e-07)
(4.3455421e-05 -0.00016618328 -3.4655372e-07)
(5.4029715e-05 -0.0002244506 -3.593113e-07)
(5.2343635e-05 -0.00030508713 -3.6149662e-07)
(4.0355078e-05 -0.00040483431 -3.5636346e-07)
(2.0722514e-05 -0.00051930767 -3.4649613e-07)
(-3.8237667e-06 -0.00064300286 -3.3398196e-07)
(-2.7891114e-05 -0.00077481521 -3.2027178e-07)
(-4.6011079e-05 -0.00090736848 -3.0623501e-07)
(-6.0643357e-05 -0.0010354596 -2.9229718e-07)
(-7.479828e-05 -0.0011563103 -2.7864358e-07)
(-8.5263145e-05 -0.0012681813 -2.6532731e-07)
(-9.0778075e-05 -0.0013720501 -2.5230791e-07)
(-9.1769331e-05 -0.0014662782 -2.3942108e-07)
(-8.923203e-05 -0.0015472334 -2.2646133e-07)
(-8.3918437e-05 -0.0016148107 -2.1314749e-07)
(-7.6543477e-05 -0.0016684571 -1.9915316e-07)
(-6.7763476e-05 -0.0017076205 -1.8408768e-07)
(-5.7962344e-05 -0.0017318387 -1.6751916e-07)
(-4.7486347e-05 -0.0017410224 -1.4891228e-07)