/*--------------------------------*- C++ -*----------------------------------*\
| =========                 |                                                 |
| \\      /  F ield         | OpenFOAM: The Open Source CFD Toolbox           |
|  \\    /   O peration     | Version:  4.0                                   |
|   \\  /    A nd           | Web:      www.OpenFOAM.org                      |
|    \\/     M anipulation  |                                                 |
\*---------------------------------------------------------------------------*/
FoamFile
{
    version     2.0;
    format      ascii;
    class       volScalarField;
    location    "0.13";
    object      k;
}
// * * * * * * * * * * * * * * * * * * * * * * * * * * * * * * * * * * * * * //

dimensions      [0 2 -2 0 0 0 0];

internalField   nonuniform List<scalar> 
1740
(
0.008793899
0.0091631621
0.018390305
0.0091233283
0.0099493795
0.027313404
0.0094250193
0.010421793
0.03438315
0.0096405854
0.0106472
0.041408621
0.0097759622
0.010951439
0.047514101
0.0098490276
0.011314655
0.051558343
0.0098903275
0.01146688
0.055858373
0.0099074578
0.011922207
0.059626504
0.0099431814
0.012325142
0.061796618
0.0099318337
0.012603614
0.064397736
0.0099287695
0.013069396
0.066571861
0.0098822575
0.013474087
0.067222253
0.0098129011
0.013442368
0.068291861
0.0097461375
0.013467852
0.069490282
0.0096625085
0.013706677
0.070354689
0.0095755277
0.014077988
0.071225786
0.0094943831
0.014500643
0.071422272
0.0094211362
0.014482644
0.071587878
0.0093276379
0.014366089
0.072056365
0.0092185441
0.014340835
0.072490744
0.0091088701
0.014485632
0.072491754
0.0089804009
0.014466072
0.072428785
0.0088462403
0.014497643
0.072821857
0.0086709454
0.014748647
0.072826751
0.0085399535
0.014665712
0.07276607
0.008456727
0.014775268
0.072877757
0.0084037767
0.015017543
0.073140499
0.0084134821
0.01524083
0.072792844
0.0084360096
0.015287717
0.072005776
0.0090196147
0.016349827
0.0668795
0.012749916
0.018202955
0.047503252
0.023822826
0.031071937
0.039764925
0.010250105
0.012501676
0.013702844
0.0042505705
0.0045803123
0.0046335477
0.0020333452
0.0020748568
0.0020474131
0.0010744506
0.0010744837
0.0010545001
0.00059335923
0.00058961432
0.00057874326
0.00032495757
0.00032220057
0.00031624809
0.00016911722
0.00016744751
0.0001640978
8.165435e-05
8.0735927e-05
7.8914504e-05
3.6707784e-05
3.6255433e-05
3.5353813e-05
1.5984668e-05
1.5786447e-05
1.5389246e-05
7.4033592e-06
7.3267554e-06
7.1728007e-06
4.207588e-06
4.1825e-06
4.132317e-06
3.1699371e-06
3.1645136e-06
3.1542253e-06
2.9284557e-06
2.9298635e-06
2.9334721e-06
2.9605655e-06
2.9640654e-06
2.9719054e-06
3.0812716e-06
3.0852444e-06
3.0940039e-06
3.2297703e-06
3.2337045e-06
3.2423391e-06
3.3874576e-06
3.3912069e-06
3.3994218e-06
3.5490266e-06
3.5525577e-06
3.560289e-06
3.7130455e-06
3.7163578e-06
3.7236075e-06
3.8791042e-06
3.8822056e-06
3.8889928e-06
4.0470101e-06
4.0499105e-06
4.0562572e-06
4.2165789e-06
4.2192882e-06
4.2252164e-06
4.3875847e-06
4.3901123e-06
4.3956428e-06
4.5597486e-06
4.5621034e-06
4.5672558e-06
4.7327353e-06
4.7349257e-06
4.7397186e-06
4.9061522e-06
4.9081862e-06
4.912637e-06
5.0795478e-06
5.0814331e-06
5.0855584e-06
5.2524115e-06
5.2541551e-06
5.2579707e-06
5.4241726e-06
5.4257817e-06
5.4293028e-06
5.5942018e-06
5.5956829e-06
5.5989244e-06
5.7618121e-06
5.7631719e-06
5.766148e-06
5.9262619e-06
5.9275069e-06
5.9302316e-06
6.0867567e-06
6.0878932e-06
6.0903806e-06
6.2424478e-06
6.243482e-06
6.2457458e-06
6.3924161e-06
6.3933544e-06
6.3954084e-06
6.5356147e-06
6.5364633e-06
6.5383212e-06
6.6707003e-06
6.6714655e-06
6.6731412e-06
6.7955992e-06
6.7962875e-06
6.7977949e-06
6.9064892e-06
6.907107e-06
6.9084602e-06
6.995616e-06
6.9961696e-06
6.9973825e-06
7.0470421e-06
7.0475379e-06
7.0486244e-06
7.0292374e-06
7.0296822e-06
7.0306569e-06
6.8838801e-06
6.8842833e-06
6.8851648e-06
6.5124323e-06
6.5128087e-06
6.5136272e-06
5.7679394e-06
5.7683068e-06
5.7691018e-06
4.4724079e-06
4.4727598e-06
4.4735287e-06
2.5124038e-06
2.512656e-06
2.5132243e-06
0.056347214
0.060927518
0.046063438
0.046534727
0.012462476
0.011328928
0.0043305171
0.004099868
0.0019566595
0.0018961724
0.0010221681
0.0010025685
0.00056518766
0.00055691395
0.00030940185
0.00030460043
0.00016019063
0.0001569433
7.6710049e-05
7.4643999e-05
3.4228049e-05
3.3095486e-05
1.4883085e-05
1.4353406e-05
6.9746691e-06
6.7638436e-06
4.068335e-06
4.0014219e-06
3.1425478e-06
3.132933e-06
2.9401247e-06
2.9507533e-06
2.9840923e-06
3.0007509e-06
3.1073099e-06
3.1250464e-06
3.2553722e-06
3.272625e-06
3.4117949e-06
3.4281382e-06
3.5719241e-06
3.5872813e-06
3.7345143e-06
3.7489063e-06
3.8992021e-06
3.912673e-06
4.0658036e-06
4.0784001e-06
4.2341333e-06
4.2459e-06
4.4039618e-06
4.4149403e-06
4.5750065e-06
4.5852358e-06
4.7469288e-06
4.7564453e-06
4.9193329e-06
4.9281713e-06
5.0917649e-06
5.0999579e-06
5.2637117e-06
5.2712908e-06
5.4346011e-06
5.4415963e-06
5.6038021e-06
5.6102426e-06
5.7706268e-06
5.7765411e-06
5.9343327e-06
5.9397486e-06
6.0941248e-06
6.0990699e-06
6.2491538e-06
6.2536556e-06
6.3985009e-06
6.4025864e-06
6.5411189e-06
6.5448157e-06
6.675665e-06
6.6790007e-06
6.8000659e-06
6.8030683e-06
6.9104995e-06
6.9131967e-06
6.9992113e-06
7.0016314e-06
7.0502631e-06
7.0524331e-06
7.0321257e-06
7.0340707e-06
6.8864875e-06
6.8882337e-06
6.5148428e-06
6.5164349e-06
5.7702752e-06
5.7718161e-06
4.4746979e-06
4.4763177e-06
2.5141548e-06
2.5155758e-06
3.8727805e-06
2.452289e-05
0.00012154157
0.00027310885
0.00040948267
0.00050049157
0.00055004738
0.00057235072
0.0005783792
0.00057451609
0.00056402634
0.00054840197
0.00052821184
0.00050361151
0.00047470305
0.0004417859
0.00040544483
0.00036656951
0.00032630515
0.00028586357
0.00024609347
0.00020673686
0.00016559691
0.00011880564
6.2726093e-05
2.4261565e-06
5.2684108e-05
0.00024013605
0.00048912442
0.00068303559
0.00079589608
0.0008520075
0.00087566138
0.00088131715
0.00087622345
0.00086380954
0.00084550856
0.00082168662
0.00079216593
0.00075671413
0.00071543956
0.00066880113
0.00061760041
0.0005629413
0.00050600847
0.00044746174
0.00038614306
0.00031699055
0.00022889077
0.00010513858
7.9037916e-06
0.00015920152
0.00061047195
0.0010641776
0.001334234
0.0014619539
0.0015136965
0.0015273606
0.0015224834
0.0015066612
0.0014833995
0.0014540889
0.0014188446
0.0013768083
0.0013270376
0.0012694169
0.0012041826
0.0011318282
0.0010531036
0.00096879497
0.00087896075
0.00078090152
0.00066510995
0.00050813782
0.00026388759
3.7698627e-05
0.00058042016
0.0016867429
0.0024339852
0.0027647013
0.0028705517
0.0028697372
0.002826751
0.0027719746
0.0027092925
0.0026422148
0.0025722731
0.0024996739
0.002421797
0.0023355592
0.0022409678
0.0021380641
0.0020268376
0.0019074562
0.0017802666
0.001645176
0.0014998389
0.0013344377
0.0011167186
0.00073595084
0.00028092484
0.0024459303
0.0049175147
0.0060422051
0.0063916356
0.0063313106
0.0060998054
0.0058300604
0.0055742444
0.005316354
0.0050628758
0.0048194413
0.0045911615
0.0043702297
0.0041452862
0.0039208404
0.0036979204
0.0034761668
0.0032549372
0.0030338252
0.0028125503
0.0025908908
0.0023680923
0.0021468515
0.0019478023
0.0023576352
0.010492276
0.016554307
0.018525096
0.018084332
0.016543958
0.014738313
0.013057565
0.011579489
0.010302022
0.0092052509
0.0082668429
0.007463185
0.0067691772
0.0061633933
0.005630943
0.0051593072
0.0047372631
0.0043550442
0.0040045929
0.0036795532
0.0033757345
0.003091271
0.0028345902
0.0026310781
0.044995946
0.034082865
0.026564467
0.021397631
0.017742017
0.015039486
0.012956141
0.011308084
0.0099863479
0.0089136025
0.0080301927
0.0072905594
0.0066606746
0.0061153526
0.0056356834
0.0052077061
0.0048210292
0.0044674539
0.0041402655
0.0038340188
0.0035444647
0.0032690394
0.0030073996
0.0027687465
0.0025812796
0.037192889
0.030931705
0.027744252
0.025131367
0.022278354
0.01931806
0.016611737
0.014319553
0.012439605
0.010896084
0.009620271
0.0085561055
0.0076591421
0.006897703
0.0062464094
0.0056842651
0.0051935636
0.004759489
0.0043698944
0.0040151198
0.0036876745
0.003382538
0.0030970796
0.0028392634
0.0026344254
0.010193398
0.0095284402
0.0091952226
0.0088809695
0.0084228864
0.0078584427
0.0072962192
0.0067974615
0.0063404255
0.0059317082
0.0055684354
0.005246202
0.0049404071
0.0046493111
0.0043730331
0.0041097935
0.0038571792
0.0036126158
0.0033738559
0.0031390669
0.0029068045
0.0026758976
0.0024446872
0.0022151369
0.0020075446
0.0039412998
0.0038677293
0.0038443028
0.0038009817
0.0037018144
0.0035591521
0.0034089273
0.0032674751
0.0031354363
0.0030144865
0.0029033882
0.0027989348
0.0026949861
0.0025894489
0.0024812168
0.0023692126
0.002252455
0.0021301249
0.0020016891
0.0018668205
0.0017247845
0.0015725597
0.0013994916
0.0011717468
0.00077362967
0.0018758623
0.0018852098
0.0019046432
0.0019119434
0.0018955256
0.0018585101
0.0018118608
0.0017626887
0.0017134821
0.0016651776
0.00161732
0.0015684415
0.0015165126
0.0014603293
0.0013991417
0.0013326486
0.0012606451
0.001183097
0.0011002484
0.0010123716
0.00091892638
0.00081653245
0.00069483306
0.00052948225
0.00027426989
0.0010010631
0.0010122308
0.0010270158
0.0010363102
0.0010351642
0.0010240261
0.0010063399
0.00098502656
0.00096157998
0.00093655363
0.00090977858
0.00088059736
0.00084816634
0.00081186458
0.0007713378
0.00072654197
0.00067773002
0.00062542056
0.00057037802
0.00051340212
0.00045470717
0.0003926275
0.00032155636
0.00023005282
0.00010296538
0.00055641061
0.00056155833
0.00056824975
0.00057239
0.00057154484
0.00056542997
0.00055514516
0.00054193882
0.00052663599
0.00050961253
0.00049088924
0.00047025476
0.00044741728
0.00042217577
0.0003944995
0.00036456189
0.00033276028
0.00029970533
0.00026617104
0.00023293939
0.00020044445
0.00016813781
0.0001336519
9.2350129e-05
3.8553805e-05
0.00030300092
0.00030383852
0.00030532024
0.0003055476
0.0003032814
0.00029820163
0.00029065622
0.00028119726
0.00027028231
0.00025819265
0.00024504856
0.00023086474
0.0002156253
0.00019935739
0.00018217976
0.00016432259
0.00014612831
0.00012802969
0.00011050161
9.3968122e-05
7.8644094e-05
6.4311511e-05
5.0140461e-05
3.5053833e-05
2.0329671e-05
0.0001549155
0.00015386481
0.00015304938
0.00015162926
0.00014901271
0.00014499759
0.00013970681
0.00013340244
0.00012634228
0.00011872265
0.00011067085
0.00010226694
9.3575048e-05
8.467298e-05
7.5671517e-05
6.6719353e-05
5.7996367e-05
4.9697478e-05
4.2006291e-05
3.5056859e-05
2.8881423e-05
2.3353545e-05
1.8183582e-05
1.3159714e-05
9.0371788e-06
7.2988786e-05
7.1692967e-05
7.04779e-05
6.9004244e-05
6.7022817e-05
6.4441703e-05
6.1311743e-05
5.7757585e-05
5.39137e-05
4.9892112e-05
4.5775259e-05
4.1622833e-05
3.748327e-05
3.3404503e-05
2.9440008e-05
2.5649845e-05
2.2096898e-05
1.8839816e-05
1.5923179e-05
1.3364528e-05
1.1138606e-05
9.1633811e-06
7.3081505e-06
5.472013e-06
3.5990192e-06
3.2083184e-05
3.1193981e-05
3.0337676e-05
2.9391865e-05
2.8263824e-05
2.6919672e-05
2.538136e-05
2.3702592e-05
2.1943269e-05
2.0154863e-05
1.8376074e-05
1.6635077e-05
1.4953437e-05
1.3349692e-05
1.1841474e-05
1.0445804e-05
9.1776616e-06
8.0473632e-06
7.0566985e-06
6.1933808e-06
5.4236714e-06
4.6845634e-06
3.8809856e-06
2.8929008e-06
1.5355656e-06
1.385523e-05
1.3399142e-05
1.2959868e-05
1.24982e-05
1.198289e-05
1.1402958e-05
1.0766936e-05
1.0095054e-05
9.4100375e-06
8.7313418e-06
8.073417e-06
7.4463472e-06
6.8572778e-06
6.3114554e-06
5.8129229e-06
5.3645774e-06
4.9675601e-06
4.6198802e-06
4.3140054e-06
4.0328432e-06
3.7437333e-06
3.3911269e-06
2.8913765e-06
2.1357177e-06
9.9933111e-07
6.5621348e-06
6.3765556e-06
6.201143e-06
6.0243969e-06
5.8365665e-06
5.6340719e-06
5.4195513e-06
5.1995087e-06
4.9812583e-06
4.7709664e-06
4.5730338e-06
4.3902337e-06
4.2242252e-06
4.0758324e-06
3.9452219e-06
3.8318266e-06
3.7338616e-06
3.6472079e-06
3.5632334e-06
3.4649709e-06
3.3213024e-06
3.0799935e-06
2.6638249e-06
1.9805072e-06
9.5951601e-07
3.9394858e-06
3.8857421e-06
3.8390456e-06
3.7960692e-06
3.7537166e-06
3.7105338e-06
3.6669133e-06
3.6243985e-06
3.584803e-06
3.5495844e-06
3.5196318e-06
3.4952975e-06
3.4765408e-06
3.4630298e-06
3.4541252e-06
3.4487118e-06
3.4447096e-06
3.4379734e-06
3.4201173e-06
3.3747012e-06
3.2714996e-06
3.0599791e-06
2.6670345e-06
2.0121758e-06
1.0596103e-06
3.1279504e-06
3.1287145e-06
3.1349159e-06
3.1454099e-06
3.1589719e-06
3.1747612e-06
3.192423e-06
3.2119377e-06
3.2333705e-06
3.2566988e-06
3.2817398e-06
3.3081628e-06
3.3355152e-06
3.3632526e-06
3.3906644e-06
3.4166666e-06
3.4392907e-06
3.4545656e-06
3.454321e-06
3.4223563e-06
3.3287517e-06
3.1235985e-06
2.7355429e-06
2.0890459e-06
1.1561823e-06
2.9660196e-06
2.9861215e-06
3.0107738e-06
3.0393708e-06
3.071208e-06
3.1056396e-06
3.1421314e-06
3.1802373e-06
3.2195431e-06
3.2596218e-06
3.3000173e-06
3.340245e-06
3.3797938e-06
3.4181108e-06
3.4545249e-06
3.4880214e-06
3.5167144e-06
3.5367089e-06
3.539872e-06
3.5099545e-06
3.416853e-06
3.2103272e-06
2.8186283e-06
2.1661174e-06
1.2270262e-06
3.0219074e-06
3.0474183e-06
3.0769534e-06
3.1100431e-06
3.1461477e-06
3.1847117e-06
3.2251923e-06
3.2670658e-06
3.3098202e-06
3.3529486e-06
3.3959483e-06
3.4383212e-06
3.4795679e-06
3.519161e-06
3.5564586e-06
3.5904805e-06
3.6193648e-06
3.6392054e-06
3.6417763e-06
3.6105703e-06
3.5149283e-06
3.3035562e-06
2.902829e-06
2.2338465e-06
1.265716e-06
3.1470459e-06
3.1730591e-06
3.2027439e-06
3.2356824e-06
3.2714061e-06
3.309419e-06
3.3492119e-06
3.3902748e-06
3.4321006e-06
3.4741882e-06
3.5160463e-06
3.5571939e-06
3.5971536e-06
3.6354202e-06
3.6713702e-06
3.7040333e-06
3.7315373e-06
3.7499149e-06
3.7507697e-06
3.7172093e-06
3.6178067e-06
3.3998841e-06
2.9874974e-06
2.2978333e-06
1.294445e-06
3.2938814e-06
3.3188716e-06
3.3472643e-06
3.3786764e-06
3.4126841e-06
3.4488362e-06
3.4866626e-06
3.5256848e-06
3.5654237e-06
3.6054033e-06
3.645156e-06
3.6842237e-06
3.72215e-06
3.7584485e-06
3.7925097e-06
3.8233621e-06
3.8491065e-06
3.8656898e-06
3.864505e-06
3.8282132e-06
3.7245345e-06
3.4993246e-06
3.0743077e-06
2.3626276e-06
1.3253132e-06
3.4482321e-06
3.4718134e-06
3.4985707e-06
3.5281502e-06
3.5601625e-06
3.5941929e-06
3.6298068e-06
3.6665585e-06
3.7039983e-06
3.7416784e-06
3.7791567e-06
3.8159984e-06
3.8517674e-06
3.8859944e-06
3.918081e-06
3.9470517e-06
3.9709738e-06
3.9856964e-06
3.9823862e-06
3.9432373e-06
3.8351017e-06
3.602393e-06
3.1647294e-06
2.4324976e-06
1.3684899e-06
3.606151e-06
3.6282838e-06
3.6533897e-06
3.681141e-06
3.7111779e-06
3.743116e-06
3.7765518e-06
3.8110701e-06
3.8462496e-06
3.8816692e-06
3.9169114e-06
3.9515643e-06
3.9852118e-06
4.0174009e-06
4.047543e-06
4.0746587e-06
4.0967781e-06
4.1096487e-06
4.1042055e-06
4.0621708e-06
3.9495244e-06
3.7092166e-06
3.2586391e-06
2.504562e-06
1.4022906e-06
3.7665872e-06
3.7873239e-06
3.8108459e-06
3.8368493e-06
3.8650002e-06
3.8949411e-06
3.9262961e-06
3.9586773e-06
3.9916902e-06
4.0249389e-06
4.0580297e-06
4.0905723e-06
4.1221704e-06
4.1523872e-06
4.180643e-06
4.2059536e-06
4.2263118e-06
4.237361e-06
4.2298006e-06
4.1848728e-06
4.0676551e-06
3.8195136e-06
3.3552643e-06
2.5783292e-06
1.4435457e-06
3.9292223e-06
3.9486326e-06
3.9706525e-06
3.9949989e-06
4.0213614e-06
4.0494066e-06
4.0787838e-06
4.1091302e-06
4.1400761e-06
4.1712491e-06
4.2022786e-06
4.2327953e-06
4.2624219e-06
4.2907372e-06
4.3171705e-06
4.3407318e-06
4.3593759e-06
4.3686403e-06
4.3589828e-06
4.3111529e-06
4.1893003e-06
3.9331848e-06
3.4551934e-06
2.6561178e-06
1.4895499e-06
4.0938761e-06
4.1120292e-06
4.1326255e-06
4.1554012e-06
4.1800671e-06
4.2063121e-06
4.2338087e-06
4.2622171e-06
4.2911906e-06
4.3203796e-06
4.349435e-06
4.3780078e-06
4.4057394e-06
4.4322235e-06
4.456898e-06
4.4787664e-06
4.495745e-06
4.5032616e-06
4.4915249e-06
4.4407751e-06
4.3142116e-06
4.049994e-06
3.558218e-06
2.7374522e-06
1.5460151e-06
4.2603577e-06
4.2773181e-06
4.2965635e-06
4.3178481e-06
4.3409018e-06
4.3654347e-06
4.3911404e-06
4.417701e-06
4.4447911e-06
4.4720826e-06
4.499247e-06
4.5259549e-06
4.5518654e-06
4.5765869e-06
4.5995652e-06
4.6197968e-06
4.6351575e-06
4.6409618e-06
4.6271587e-06
4.5734579e-06
4.4420769e-06
4.1695499e-06
3.6636005e-06
2.8194329e-06
1.5828852e-06
4.4284308e-06
4.4442583e-06
4.4622199e-06
4.4820868e-06
4.503607e-06
4.5265093e-06
4.5505077e-06
4.5753046e-06
4.6005952e-06
4.6260713e-06
4.651424e-06
4.6763428e-06
4.7005038e-06
4.7235295e-06
4.7448728e-06
4.7635223e-06
4.7773114e-06
4.7814368e-06
4.7655769e-06
4.7088863e-06
4.5725573e-06
4.2914439e-06
3.770899e-06
2.9033469e-06
1.6324716e-06
4.5978067e-06
4.6125567e-06
4.6292971e-06
4.6478145e-06
4.6678742e-06
4.6892227e-06
4.7115924e-06
4.7347051e-06
4.7582754e-06
4.7820142e-06
4.8056314e-06
4.8288342e-06
4.8513152e-06
4.8727099e-06
4.892478e-06
4.909599e-06
4.9218617e-06
4.924341e-06
4.9064359e-06
4.8467286e-06
4.705354e-06
4.4154414e-06
3.8800064e-06
2.9893693e-06
1.6868117e-06
4.7681414e-06
4.781866e-06
4.7974438e-06
4.8146761e-06
4.8333438e-06
4.8532106e-06
4.8740262e-06
4.8955303e-06
4.917456e-06
4.9395325e-06
4.9614874e-06
4.9830449e-06
5.0039133e-06
5.0237405e-06
5.041992e-06
5.0576369e-06
5.0684174e-06
5.0692831e-06
5.0493479e-06
4.9866118e-06
4.8401337e-06
4.5412781e-06
3.9906716e-06
3.0765182e-06
1.7409124e-06
4.9390347e-06
4.9517833e-06
4.9662539e-06
4.9822617e-06
4.9996026e-06
5.0180562e-06
5.0373887e-06
5.0573567e-06
5.0777106e-06
5.0981968e-06
5.1185601e-06
5.1385412e-06
5.1578626e-06
5.1761844e-06
5.1929766e-06
5.2071968e-06
5.2165384e-06
5.2158224e-06
5.1938728e-06
5.1280994e-06
4.9764643e-06
4.6684821e-06
4.1020593e-06
3.1623741e-06
1.7903684e-06
5.1100289e-06
5.1218482e-06
5.1352644e-06
5.1501057e-06
5.166182e-06
5.1832879e-06
5.2012053e-06
5.2197068e-06
5.2385592e-06
5.2575253e-06
5.2763659e-06
5.2948372e-06
5.312676e-06
5.3295533e-06
5.3449427e-06
5.3577888e-06
5.3657339e-06
5.363467e-06
5.3395167e-06
5.2706948e-06
5.1138463e-06
4.7965616e-06
4.2137657e-06
3.2472252e-06
1.8446118e-06
5.2806077e-06
5.2915425e-06
5.3039549e-06
5.3176853e-06
5.3325569e-06
5.3483782e-06
5.3649461e-06
5.3820485e-06
5.3994674e-06
5.4169813e-06
5.4343665e-06
5.4513937e-06
5.4678131e-06
5.4833058e-06
5.4973481e-06
5.5088701e-06
5.5154609e-06
5.5116728e-06
5.4857339e-06
5.4138522e-06
5.2517554e-06
4.9251273e-06
4.3259362e-06
3.3319446e-06
1.8874327e-06
5.4501961e-06
5.4602896e-06
5.4717471e-06
5.4844203e-06
5.498145e-06
5.512743e-06
5.5280252e-06
5.5437938e-06
5.5598456e-06
5.575974e-06
5.5919695e-06
5.6076171e-06
5.6226793e-06
5.6368467e-06
5.6495973e-06
5.6598453e-06
5.6651234e-06
5.6598436e-06
5.631926e-06
5.556966e-06
5.3895715e-06
5.0535515e-06
4.4381064e-06
3.4181159e-06
1.9316675e-06
5.6181611e-06
5.6274552e-06
5.638005e-06
5.6496733e-06
5.6623075e-06
5.6757419e-06
5.6898006e-06
5.7042996e-06
5.7190495e-06
5.7338576e-06
5.7485283e-06
5.7628598e-06
5.7766265e-06
5.7895274e-06
5.8010416e-06
5.8100656e-06
5.8140739e-06
5.807333e-06
5.7774475e-06
5.6993901e-06
5.5266426e-06
5.1811622e-06
4.5494568e-06
3.5033785e-06
1.9800435e-06
5.7838131e-06
5.7923487e-06
5.8020371e-06
5.8127515e-06
5.8243502e-06
5.8366797e-06
5.8495762e-06
5.8628686e-06
5.8763808e-06
5.8899331e-06
5.9033433e-06
5.9164217e-06
5.9289542e-06
5.9406475e-06
5.9509806e-06
5.9588316e-06
5.9616145e-06
5.953447e-06
5.9216125e-06
5.8404541e-06
5.6623346e-06
5.3074264e-06
4.6597894e-06
3.5887619e-06
2.0304436e-06
5.9464084e-06
5.9542256e-06
5.9630981e-06
5.9729088e-06
5.9835265e-06
5.9948087e-06
6.0066034e-06
6.0187517e-06
6.0310898e-06
6.0434506e-06
6.055664e-06
6.0675523e-06
6.0789117e-06
6.0894562e-06
6.0986642e-06
6.1053943e-06
6.106999e-06
6.0974457e-06
6.0636939e-06
5.9794586e-06
5.796e-06
5.4317868e-06
4.7687458e-06
3.6749737e-06
2.0810383e-06
6.1051512e-06
6.1122896e-06
6.1203913e-06
6.129348e-06
6.1390385e-06
6.1493307e-06
6.1600837e-06
6.17115e-06
6.1823774e-06
6.1936106e-06
6.204691e-06
6.2154522e-06
6.2257e-06
6.2351551e-06
6.2432946e-06
6.2489573e-06
6.249434e-06
6.2385418e-06
6.2029186e-06
6.1156568e-06
5.9269297e-06
5.553515e-06
4.8750671e-06
3.7574144e-06
2.1306214e-06
6.2591921e-06
6.2656911e-06
6.2730667e-06
6.2812189e-06
6.2900359e-06
6.2993953e-06
6.3091665e-06
6.3192129e-06
6.329393e-06
6.3395627e-06
6.3495743e-06
6.3592716e-06
6.3684697e-06
6.3768953e-06
6.3840238e-06
6.388674e-06
6.3880755e-06
6.3758971e-06
6.33846e-06
6.2482455e-06
6.0543638e-06
5.6719471e-06
4.9784756e-06
3.8381606e-06
2.1907953e-06
6.4076117e-06
6.4135108e-06
6.420205e-06
6.4276023e-06
6.4355994e-06
6.4440834e-06
6.4529331e-06
6.4620219e-06
6.4712186e-06
6.4803894e-06
6.4893967e-06
6.4980941e-06
6.5063051e-06
6.5137619e-06
6.5199379e-06
6.5236321e-06
6.5220136e-06
6.5086062e-06
6.4694219e-06
6.3763466e-06
6.177455e-06
5.7862712e-06
5.0781051e-06
3.9151677e-06
2.2386299e-06
6.5493634e-06
6.5547023e-06
6.56076e-06
6.5674523e-06
6.5746838e-06
6.58235e-06
6.5903389e-06
6.5985331e-06
6.606811e-06
6.6150482e-06
6.6231167e-06
6.630879e-06
6.6381666e-06
6.6447164e-06
6.6499996e-06
6.6527956e-06
6.6502149e-06
6.6356404e-06
6.5947848e-06
6.4989575e-06
6.2952245e-06
5.8955122e-06
5.1728919e-06
3.9875732e-06
2.2847076e-06
6.6831048e-06
6.6879233e-06
6.6933901e-06
6.6994279e-06
6.7059487e-06
6.7128558e-06
6.7200456e-06
6.7274092e-06
6.7348338e-06
6.7422039e-06
6.7494003e-06
6.7562935e-06
6.7627224e-06
6.7684284e-06
6.77288e-06
6.7748376e-06
6.7713553e-06
6.7556813e-06
6.7132428e-06
6.6147994e-06
6.4064522e-06
5.9985935e-06
5.262213e-06
4.0562117e-06
2.3326893e-06
6.8067633e-06
6.811102e-06
6.8160245e-06
6.8214594e-06
6.8273256e-06
6.8335337e-06
6.8399875e-06
6.8465861e-06
6.8532248e-06
6.859796e-06
6.8661884e-06
6.8722804e-06
6.877917e-06
6.8828436e-06
6.8865261e-06
6.8877067e-06
6.8833863e-06
6.8666866e-06
6.8227677e-06
6.7218787e-06
6.5092319e-06
6.0938414e-06
5.3450263e-06
4.1211267e-06
2.3759093e-06
6.9165175e-06
6.9204182e-06
6.9248441e-06
6.9297297e-06
6.935e-06
6.9405717e-06
6.9463555e-06
6.9522575e-06
6.9581802e-06
6.9640235e-06
6.9696828e-06
6.9750433e-06
6.9799558e-06
6.9841689e-06
6.9871459e-06
6.9876118e-06
6.982518e-06
6.9648698e-06
6.9195839e-06
6.81645e-06
6.5998887e-06
6.177667e-06
5.4173807e-06
4.1758951e-06
2.4080625e-06
7.0046132e-06
7.0081183e-06
7.0120978e-06
7.0164913e-06
7.0212287e-06
7.0262318e-06
7.0314169e-06
7.0366962e-06
7.0419785e-06
7.0471696e-06
7.052171e-06
7.0568734e-06
7.0611324e-06
7.0646991e-06
7.0670337e-06
7.0668456e-06
7.0610416e-06
7.0425223e-06
6.9959913e-06
6.8908477e-06
6.6708671e-06
6.2428578e-06
5.4732659e-06
4.2188343e-06
2.4375009e-06
7.0551103e-06
7.0582629e-06
7.0618489e-06
7.0658136e-06
7.0700899e-06
7.0746023e-06
7.0792709e-06
7.0840129e-06
7.0887419e-06
7.0933672e-06
7.0977944e-06
7.1019184e-06
7.1055984e-06
7.1085862e-06
7.1103391e-06
7.1095533e-06
7.1030977e-06
7.0837866e-06
7.0361556e-06
6.9293231e-06
6.7066652e-06
6.274511e-06
5.4988267e-06
4.2357572e-06
2.4410627e-06
7.0364748e-06
7.0393161e-06
7.0425641e-06
7.0461722e-06
7.0500744e-06
7.0541931e-06
7.0584486e-06
7.0627618e-06
7.067049e-06
7.0712178e-06
7.0751727e-06
7.0788112e-06
7.0819943e-06
7.0844722e-06
7.0856997e-06
7.0843661e-06
7.0773173e-06
7.0573156e-06
7.0088138e-06
6.9008557e-06
6.6768835e-06
6.2437022e-06
5.4685103e-06
4.2094027e-06
2.423036e-06
6.8903944e-06
6.8929586e-06
6.8959208e-06
6.8992536e-06
6.9028892e-06
6.9067399e-06
6.9107196e-06
6.9147542e-06
6.9187605e-06
6.9226284e-06
6.9262484e-06
6.9295193e-06
6.9323029e-06
6.9343442e-06
6.9350997e-06
6.9332701e-06
6.9257143e-06
6.9052198e-06
6.856335e-06
6.7484368e-06
6.5259133e-06
6.0977923e-06
5.3354711e-06
4.1022944e-06
2.3534662e-06
6.5183979e-06
6.5207103e-06
6.5234192e-06
6.5265488e-06
6.5300333e-06
6.5337615e-06
6.5376342e-06
6.5415936e-06
6.5455561e-06
6.5493473e-06
6.5528208e-06
6.5558727e-06
6.5583725e-06
6.5600594e-06
6.560406e-06
6.5581688e-06
6.5503051e-06
6.5298045e-06
6.4816941e-06
6.3764903e-06
6.1611292e-06
5.7499109e-06
5.0233843e-06
3.8568272e-06
2.2116741e-06
5.7737008e-06
5.7757902e-06
5.7782252e-06
5.7811521e-06
5.7845293e-06
5.7882156e-06
5.7921015e-06
5.7961783e-06
5.8003497e-06
5.8042287e-06
5.8077287e-06
5.8106906e-06
5.8130038e-06
5.8144152e-06
5.8144497e-06
5.812007e-06
5.8043208e-06
5.7849616e-06
5.7402305e-06
5.6433128e-06
5.4463813e-06
5.073997e-06
4.4234456e-06
3.3914764e-06
1.9549118e-06
4.4783084e-06
4.4801959e-06
4.482228e-06
4.48475e-06
4.4877901e-06
4.4912035e-06
4.4948993e-06
4.4989428e-06
4.5030773e-06
4.5061387e-06
4.5093982e-06
4.5121536e-06
4.5142128e-06
4.5153589e-06
4.5152294e-06
4.5129949e-06
4.5064714e-06
4.4905147e-06
4.4541862e-06
4.3759978e-06
4.2173974e-06
3.9203935e-06
3.4086633e-06
2.6092522e-06
1.5101518e-06
2.5173688e-06
2.5187896e-06
2.520085e-06
2.5216781e-06
2.523665e-06
2.5259585e-06
2.528518e-06
2.5313703e-06
2.5335908e-06
2.5318867e-06
2.5333693e-06
2.5351766e-06
2.536534e-06
2.5372487e-06
2.5371248e-06
2.535723e-06
2.5318214e-06
2.5225258e-06
2.5017176e-06
2.4569974e-06
2.3649748e-06
2.1935476e-06
1.9025135e-06
1.4583256e-06
8.6945729e-07
)
;

boundaryField
{
    Walls
    {
        type            kqRWallFunction;
        value           nonuniform List<scalar> 
38
(
3.8727805e-06
2.4261565e-06
7.9037916e-06
3.7698627e-05
0.00028092484
0.0023576352
0.056347214
0.060927518
0.018390305
0.027313404
0.03438315
0.041408621
0.047514101
0.051558343
0.055858373
0.059626504
0.061796618
0.064397736
0.066571861
0.067222253
0.068291861
0.069490282
0.070354689
0.071225786
0.071422272
0.071587878
0.072056365
0.072490744
0.072491754
0.072428785
0.072821857
0.072826751
0.07276607
0.072877757
0.073140499
0.072792844
0.072005776
0.0668795
)
;
    }
    Inlet
    {
        type            turbulentIntensityKineticEnergyInlet;
        intensity       0.05;
        value           nonuniform List<scalar> 3(0.0080940445 0.0084726147 0.0097254794);
    }
    Outlet
    {
        type            inletOutlet;
        inletValue      uniform 0;
        value           nonuniform List<scalar> 
86
(
0
0
0
0
0
0
0
0
0
0
0
0
0
0
0
0
0
0
0
0
0
0
0
0
0
0
0
0
0
0
0.0025812796
0.0026344254
0.0020075446
0
0
0
0
2.0329671e-05
9.0371788e-06
0
0
0
0
1.0596103e-06
1.1561823e-06
1.2270262e-06
1.265716e-06
1.294445e-06
1.3253132e-06
1.3684899e-06
1.4022906e-06
1.4435457e-06
1.4895499e-06
1.5460151e-06
0
0
0
0
0
0
0
0
0
0
0
0
0
0
0
0
0
0
0
0
0
0
0
0
0
0
0
0
0
0
0.0019478023
0.0026310781
)
;
    }
    Front
    {
        type            wedge;
    }
    Back
    {
        type            wedge;
    }
    defaultFaces
    {
        type            empty;
    }
}


// ************************************************************************* //
