/*--------------------------------*- C++ -*----------------------------------*\
| =========                 |                                                 |
| \\      /  F ield         | OpenFOAM: The Open Source CFD Toolbox           |
|  \\    /   O peration     | Version:  4.0                                   |
|   \\  /    A nd           | Web:      www.OpenFOAM.org                      |
|    \\/     M anipulation  |                                                 |
\*---------------------------------------------------------------------------*/
FoamFile
{
    version     2.0;
    format      ascii;
    class       volScalarField;
    location    "0.13";
    object      nut;
}
// * * * * * * * * * * * * * * * * * * * * * * * * * * * * * * * * * * * * * //

dimensions      [0 2 -1 0 0 0 0];

internalField   nonuniform List<scalar> 
1740
(
3.7737662e-05
1.3113864e-05
1.2325851e-06
1.224342e-05
6.7421071e-06
1.8173704e-06
1.7175639e-05
5.3186012e-06
2.2747872e-06
2.1575412e-05
4.6840615e-06
2.7244457e-06
1.8481692e-05
4.2552911e-06
3.1112352e-06
1.5488288e-05
3.973584e-06
3.3653245e-06
1.344048e-05
3.8003784e-06
3.6335741e-06
1.1702879e-05
3.6784368e-06
3.8673726e-06
1.0245441e-05
3.6040178e-06
4.0015257e-06
9.2325896e-06
3.5539833e-06
4.1617823e-06
8.3678505e-06
3.5387581e-06
4.2954979e-06
7.7850037e-06
3.5344906e-06
4.335163e-06
7.3308338e-06
3.5076807e-06
4.4008623e-06
6.8767831e-06
3.4883542e-06
4.4744275e-06
6.4794207e-06
3.4928881e-06
4.5263483e-06
6.1501705e-06
3.5118211e-06
4.5798952e-06
5.8613232e-06
3.5373801e-06
4.592229e-06
5.6195891e-06
3.5345948e-06
4.6014528e-06
5.4099504e-06
3.5276815e-06
4.6296811e-06
5.2212138e-06
3.5260088e-06
4.6555881e-06
5.0478004e-06
3.5355456e-06
4.6560749e-06
4.8867538e-06
3.5285786e-06
4.6522606e-06
4.7377399e-06
3.5253967e-06
4.6767873e-06
4.6280223e-06
3.5411585e-06
4.677353e-06
4.5183906e-06
3.5359917e-06
4.6729062e-06
4.4136191e-06
3.5518453e-06
4.6795366e-06
4.314838e-06
3.5723359e-06
4.6955397e-06
4.2115743e-06
3.5890937e-06
4.6748065e-06
4.1467407e-06
3.5978083e-06
4.6274186e-06
2.8213995e-06
3.4606299e-06
4.3142981e-06
1.9239861e-06
2.2043319e-06
4.419119e-06
7.1444764e-06
7.3388026e-06
6.6949295e-06
6.5233118e-06
6.7281942e-06
6.36331e-06
5.151709e-06
5.0908462e-06
4.8420051e-06
4.2415049e-06
4.1717113e-06
4.0359563e-06
3.5393944e-06
3.4965118e-06
3.428771e-06
2.8633225e-06
2.8399407e-06
2.8045296e-06
2.132486e-06
2.117853e-06
2.0936257e-06
1.3907758e-06
1.3798645e-06
1.3597925e-06
7.7290912e-07
7.6520558e-07
7.5029618e-07
3.7273929e-07
3.6829845e-07
3.5954405e-07
1.666912e-07
1.6457783e-07
1.6041427e-07
7.8142036e-08
7.7320111e-08
7.5688827e-08
4.490268e-08
4.462411e-08
4.4081092e-08
3.4177563e-08
3.4109816e-08
3.3991725e-08
3.1847414e-08
3.1855922e-08
3.1889983e-08
3.2408615e-08
3.2442628e-08
3.2525628e-08
3.3891592e-08
3.3932937e-08
3.4028384e-08
3.5650341e-08
3.5692721e-08
3.5788435e-08
3.7492835e-08
3.7534106e-08
3.7626245e-08
3.9369024e-08
3.9408465e-08
3.9495923e-08
4.1268634e-08
4.1306018e-08
4.1388563e-08
4.3190669e-08
4.3225947e-08
4.3303631e-08
4.5135247e-08
4.5168443e-08
4.5241408e-08
4.7101757e-08
4.7132924e-08
4.7201345e-08
4.9088598e-08
4.9117803e-08
4.9181864e-08
5.1093226e-08
5.1120542e-08
5.1180426e-08
5.3112219e-08
5.3137721e-08
5.3193606e-08
5.5141319e-08
5.5165082e-08
5.5217141e-08
5.7175451e-08
5.7197548e-08
5.7245945e-08
5.9208727e-08
5.9229229e-08
5.9274126e-08
6.1234454e-08
6.1253431e-08
6.1294984e-08
6.3245145e-08
6.3262665e-08
6.3301026e-08
6.5232534e-08
6.5248665e-08
6.5283984e-08
6.718762e-08
6.7202429e-08
6.7234854e-08
6.9100716e-08
6.911427e-08
6.9143949e-08
7.0961529e-08
7.0973896e-08
7.1000975e-08
7.2759272e-08
7.2770519e-08
7.2795149e-08
7.448283e-08
7.4493027e-08
7.4515358e-08
7.6121037e-08
7.6130254e-08
7.6150441e-08
7.7663153e-08
7.7671463e-08
7.7689665e-08
7.909967e-08
7.9107148e-08
7.9123532e-08
8.0423488e-08
8.0430215e-08
8.0444957e-08
8.1631159e-08
8.1637222e-08
8.1650511e-08
8.2723086e-08
8.2728579e-08
8.2740622e-08
8.3700536e-08
8.3705561e-08
8.3716579e-08
8.455658e-08
8.4561243e-08
8.457147e-08
8.5257721e-08
8.526213e-08
8.52718e-08
8.5708256e-08
8.5712504e-08
8.5721826e-08
8.5649261e-08
8.5653412e-08
8.5662533e-08
4.179652e-06
4.5014327e-06
6.678345e-06
8.3919571e-06
5.9836314e-06
6.0258305e-06
4.6973183e-06
4.7997223e-06
3.9822894e-06
4.0779094e-06
3.4101924e-06
3.4783895e-06
2.7933614e-06
2.8286571e-06
2.0777345e-06
2.0835522e-06
1.3397492e-06
1.327748e-06
7.3293648e-07
7.1756024e-07
3.487613e-07
3.3808918e-07
1.5518342e-07
1.497834e-07
7.3614704e-08
7.14354e-08
4.3403912e-08
4.2711364e-08
3.3868007e-08
3.3777568e-08
3.1964081e-08
3.2089471e-08
3.2661285e-08
3.2851691e-08
3.4177571e-08
3.4379664e-08
3.5935545e-08
3.6132327e-08
3.7766688e-08
3.7953487e-08
3.9628608e-08
3.9804568e-08
4.1513444e-08
4.1678775e-08
4.342095e-08
4.3576114e-08
4.5351477e-08
4.5496963e-08
4.7304484e-08
4.744076e-08
4.9278383e-08
4.9405883e-08
5.1270621e-08
5.1389751e-08
5.3277759e-08
5.3388899e-08
5.5295519e-08
5.5399029e-08
5.7318806e-08
5.7415026e-08
5.9341714e-08
5.9430972e-08
6.1357536e-08
6.1440146e-08
6.3358773e-08
6.3435041e-08
6.5337153e-08
6.5407378e-08
6.7283668e-08
6.7348146e-08
6.9188631e-08
6.9247655e-08
7.1041749e-08
7.1095615e-08
7.2832238e-08
7.2881242e-08
7.454899e-08
7.4593435e-08
7.6180849e-08
7.6221042e-08
7.7717091e-08
7.775335e-08
7.9148225e-08
7.9180883e-08
8.0467184e-08
8.0496592e-08
8.1670556e-08
8.1697093e-08
8.2758795e-08
8.2782867e-08
8.3733211e-08
8.3755256e-08
8.4586913e-08
8.4607388e-08
8.5286404e-08
8.5305782e-08
8.5735923e-08
8.5754669e-08
8.5676378e-08
8.5694897e-08
3.2117478e-10
1.2000054e-08
1.7501816e-07
7.480934e-07
1.4943444e-06
2.025416e-06
2.3171226e-06
2.4707081e-06
2.5543581e-06
2.6010691e-06
2.6249531e-06
2.6310025e-06
2.6198692e-06
2.5902884e-06
2.5403995e-06
2.4686702e-06
2.3746079e-06
2.2595623e-06
2.1275702e-06
1.9857756e-06
1.8434153e-06
1.7077761e-06
1.5755916e-06
1.4202608e-06
1.1798042e-06
2.0120502e-10
2.5859122e-08
3.4455255e-07
1.312362e-06
2.4406433e-06
3.1789016e-06
3.5826655e-06
3.8184403e-06
3.9730821e-06
4.0851383e-06
4.1700699e-06
4.2322411e-06
4.2704317e-06
4.281045e-06
4.2597934e-06
4.203061e-06
4.1087307e-06
3.9773402e-06
3.813454e-06
3.626433e-06
3.4289783e-06
3.230465e-06
3.0210958e-06
2.7397015e-06
2.1616496e-06
6.5547145e-10
7.8420201e-08
8.5014973e-07
2.4738224e-06
3.7164299e-06
4.4055815e-06
4.8146227e-06
5.0971941e-06
5.3223362e-06
5.517827e-06
5.6939262e-06
5.8517779e-06
5.9868806e-06
6.0931631e-06
6.1639e-06
6.1930242e-06
6.1753489e-06
6.1077307e-06
5.9906361e-06
5.8291072e-06
5.6313238e-06
5.4001425e-06
5.110512e-06
4.6530641e-06
3.6245175e-06
3.1263044e-09
2.8574803e-07
2.0639799e-06
3.9963599e-06
5.021035e-06
5.5874541e-06
5.9665203e-06
6.2732678e-06
6.5559865e-06
6.8289817e-06
7.0981833e-06
7.3628741e-06
7.614595e-06
7.8455618e-06
8.0464727e-06
8.2092198e-06
8.3247804e-06
8.3843048e-06
8.3808447e-06
8.3107576e-06
8.1732408e-06
7.9642655e-06
7.6540309e-06
7.1136043e-06
5.7827408e-06
2.3290992e-08
1.1374301e-06
3.9920654e-06
5.6037049e-06
6.4564912e-06
6.9757704e-06
7.3534827e-06
7.6883089e-06
8.02242e-06
8.3538665e-06
8.6897964e-06
9.0352119e-06
9.3764709e-06
9.7053571e-06
1.0008576e-05
1.0281711e-05
1.0515167e-05
1.0696808e-05
1.081419e-05
1.0856608e-05
1.0816495e-05
1.0690072e-05
1.0474574e-05
1.0170912e-05
9.8089926e-06
1.9505179e-07
2.7447607e-06
5.898623e-06
7.7117495e-06
8.6353476e-06
9.0603664e-06
9.2625428e-06
9.4037363e-06
9.5442699e-06
9.7009697e-06
9.8800574e-06
1.0085613e-05
1.0316398e-05
1.056658e-05
1.0828721e-05
1.109377e-05
1.1350132e-05
1.158307e-05
1.1775719e-05
1.1910973e-05
1.1973653e-05
1.1953726e-05
1.1848594e-05
1.1677751e-05
1.1480882e-05
4.3409452e-06
4.3140574e-06
4.3600696e-06
4.4730075e-06
4.6499011e-06
4.8801679e-06
5.1544895e-06
5.4708477e-06
5.8312949e-06
6.2367277e-06
6.6849696e-06
7.1705771e-06
7.6847261e-06
8.2159687e-06
8.7512296e-06
9.2766998e-06
9.7778654e-06
1.0238799e-05
1.064216e-05
1.0970311e-05
1.1207152e-05
1.1341268e-05
1.136927e-05
1.1310251e-05
1.1207794e-05
9.0980109e-06
9.3609328e-06
9.7679678e-06
1.0193669e-05
1.0376704e-05
1.0346248e-05
1.0233848e-05
1.0139437e-05
1.0102084e-05
1.0122482e-05
1.0195273e-05
1.0314072e-05
1.0472775e-05
1.0665386e-05
1.0883882e-05
1.111773e-05
1.1353166e-05
1.1573475e-05
1.17601e-05
1.189441e-05
1.1959704e-05
1.1944334e-05
1.1843704e-05
1.1675666e-05
1.1479532e-05
6.3973678e-06
6.8095164e-06
7.2434358e-06
7.6454393e-06
7.9472345e-06
8.1604333e-06
8.3432052e-06
8.5384926e-06
8.7491394e-06
8.9867029e-06
9.2467866e-06
9.517552e-06
9.7878913e-06
1.0054101e-05
1.0310843e-05
1.0548988e-05
1.0756647e-05
1.0920217e-05
1.1025971e-05
1.1061671e-05
1.1017974e-05
1.0888967e-05
1.0669046e-05
1.0355875e-05
9.9772982e-06
5.1070899e-06
5.457226e-06
5.7995347e-06
6.1044427e-06
6.3528078e-06
6.5552202e-06
6.7408624e-06
6.9288681e-06
7.1264813e-06
7.336866e-06
7.5548767e-06
7.7730383e-06
7.9839445e-06
8.1807194e-06
8.3553046e-06
8.4982805e-06
8.5995215e-06
8.6492238e-06
8.6393846e-06
8.5650261e-06
8.4235532e-06
8.2082549e-06
7.8848143e-06
7.3147045e-06
5.9110841e-06
4.3016971e-06
4.568254e-06
4.8308407e-06
5.0665353e-06
5.2659935e-06
5.4343907e-06
5.5844718e-06
5.7266847e-06
5.8662092e-06
6.0037046e-06
6.1353028e-06
6.2551482e-06
6.3570128e-06
6.4344625e-06
6.4806508e-06
6.4892792e-06
6.4547472e-06
6.3733362e-06
6.2448883e-06
6.0735858e-06
5.8660467e-06
5.6226316e-06
5.3138232e-06
4.8221838e-06
3.7305075e-06
3.6238467e-06
3.8037152e-06
3.9850175e-06
4.1485196e-06
4.2860327e-06
4.3987042e-06
4.4923555e-06
4.5724883e-06
4.6420403e-06
4.7009877e-06
4.7465663e-06
4.7743942e-06
4.7794841e-06
4.7567756e-06
4.7015062e-06
4.6100037e-06
4.4805771e-06
4.3145322e-06
4.1174326e-06
3.899637e-06
3.6744553e-06
3.4512272e-06
3.2194076e-06
2.9156814e-06
2.298366e-06
2.9082728e-06
3.0118714e-06
3.1185003e-06
3.2129984e-06
3.2873338e-06
3.3399552e-06
3.3732391e-06
3.3903112e-06
3.3931588e-06
3.381998e-06
3.3553893e-06
3.310781e-06
3.2451631e-06
3.155707e-06
3.0403287e-06
2.898308e-06
2.7310239e-06
2.5426662e-06
2.3407636e-06
2.1359374e-06
1.9398761e-06
1.7603127e-06
1.5918363e-06
1.4011354e-06
1.0804648e-06
2.1126801e-06
2.156382e-06
2.2025239e-06
2.2402889e-06
2.2627954e-06
2.2676244e-06
2.2555581e-06
2.2285735e-06
2.1883757e-06
2.1358133e-06
2.0708485e-06
1.9928479e-06
1.9010326e-06
1.7949641e-06
1.6749984e-06
1.5426557e-06
1.4009103e-06
1.2543073e-06
1.1087877e-06
9.7096395e-07
8.4650984e-07
7.3726585e-07
6.3654705e-07
5.2309022e-07
3.7435747e-07
1.3264186e-06
1.3326697e-06
1.3402889e-06
1.3427496e-06
1.3353758e-06
1.3161888e-06
1.2855138e-06
1.2447906e-06
1.19559e-06
1.1391643e-06
1.0763497e-06
1.0077106e-06
9.3377097e-07
8.5526035e-07
7.7331286e-07
6.8956663e-07
6.0616118e-07
5.2563207e-07
4.5067462e-07
3.8374204e-07
3.2642757e-07
2.7859292e-07
2.3731805e-07
1.9682265e-07
1.5744588e-07
7.0628909e-07
6.9841057e-07
6.912601e-07
6.8165239e-07
6.6716962e-07
6.467557e-07
6.206343e-07
5.8974731e-07
5.5520658e-07
5.1800039e-07
4.7891349e-07
4.385799e-07
3.9756769e-07
3.5646467e-07
3.1593757e-07
2.7675078e-07
2.3974034e-07
2.0575672e-07
1.7558159e-07
1.4980985e-07
1.2870432e-07
1.120448e-07
9.9074319e-08
8.8919069e-08
8.2599838e-08
3.2876003e-07
3.2078584e-07
3.1324506e-07
3.0487331e-07
2.9467493e-07
2.822241e-07
2.6765263e-07
2.5142572e-07
2.340961e-07
2.1616428e-07
1.980317e-07
1.8002481e-07
1.6242266e-07
1.4547414e-07
1.2941867e-07
1.1449358e-07
1.0092666e-07
8.8916699e-08
7.8617732e-08
7.0123294e-08
6.3434843e-08
5.8436471e-08
5.4955093e-08
5.2995186e-08
5.3560799e-08
1.4479034e-07
1.4031537e-07
1.3608569e-07
1.3167779e-07
1.2674434e-07
1.2114382e-07
1.1493683e-07
1.0830948e-07
1.0147568e-07
9.460967e-08
8.785538e-08
8.1320122e-08
7.5107759e-08
6.929947e-08
6.3962125e-08
5.9151842e-08
5.491407e-08
5.1281778e-08
4.8273242e-08
4.5887574e-08
4.4099993e-08
4.2861192e-08
4.2097906e-08
4.1770603e-08
4.1961159e-08
6.9383925e-08
6.7536651e-08
6.5830218e-08
6.4140002e-08
6.2356735e-08
6.0432982e-08
5.8383722e-08
5.6262609e-08
5.4132614e-08
5.2049836e-08
5.0059909e-08
4.8190776e-08
4.6471515e-08
4.4921051e-08
4.3551104e-08
4.2368465e-08
4.1376195e-08
4.0574401e-08
3.9960607e-08
3.9529161e-08
3.9269527e-08
3.9164497e-08
3.9179226e-08
3.9264166e-08
3.9317252e-08
4.2090234e-08
4.1577837e-08
4.1162592e-08
4.080759e-08
4.047618e-08
4.0146955e-08
3.9816426e-08
3.9492931e-08
3.9189053e-08
3.8916373e-08
3.8683472e-08
3.8495052e-08
3.835173e-08
3.8255366e-08
3.8204707e-08
3.8197064e-08
3.8229484e-08
3.8299794e-08
3.8407418e-08
3.8553349e-08
3.8738537e-08
3.8960834e-08
3.9203501e-08
3.94272e-08
3.9547404e-08
3.3750047e-08
3.3800269e-08
3.3925214e-08
3.4111073e-08
3.4341631e-08
3.4603571e-08
3.4888188e-08
3.5190603e-08
3.5507875e-08
3.5837607e-08
3.6177169e-08
3.6523658e-08
3.6871429e-08
3.7217802e-08
3.7559316e-08
3.7892601e-08
3.8215308e-08
3.852711e-08
3.8830534e-08
3.9130893e-08
3.94344e-08
3.9744258e-08
4.0049956e-08
4.0315011e-08
4.0458366e-08
3.2274778e-08
3.252429e-08
3.2834877e-08
3.3198533e-08
3.3605193e-08
3.4044843e-08
3.4508564e-08
3.4988726e-08
3.5478721e-08
3.5972625e-08
3.6464965e-08
3.6950582e-08
3.7424387e-08
3.7881181e-08
3.8317528e-08
3.873056e-08
3.9118836e-08
3.9483322e-08
3.9828187e-08
4.0160611e-08
4.0488595e-08
4.0816397e-08
4.1134275e-08
4.1403696e-08
4.1538362e-08
3.309808e-08
3.3400305e-08
3.3754613e-08
3.4154769e-08
3.459318e-08
3.5061805e-08
3.5552761e-08
3.6058624e-08
3.6572501e-08
3.7088007e-08
3.7599221e-08
3.8100645e-08
3.8587159e-08
3.9054178e-08
3.9497377e-08
3.9914361e-08
4.0304211e-08
4.0668544e-08
4.1012268e-08
4.1343292e-08
4.1670083e-08
4.1996631e-08
4.2312289e-08
4.2575891e-08
4.2694158e-08
3.4633404e-08
3.4936941e-08
3.5286384e-08
3.5676403e-08
3.610076e-08
3.6552767e-08
3.7025613e-08
3.7512624e-08
3.8007382e-08
3.850378e-08
3.8996059e-08
3.947883e-08
3.9947123e-08
4.0396552e-08
4.0822838e-08
4.1223646e-08
4.1598332e-08
4.1948875e-08
4.22806e-08
4.2601794e-08
4.2921088e-08
4.3242091e-08
4.3553184e-08
4.3811344e-08
4.3917238e-08
3.6376742e-08
3.6666356e-08
3.6997419e-08
3.7365236e-08
3.7764445e-08
3.8189295e-08
3.8633823e-08
3.9092053e-08
3.9558111e-08
4.0026296e-08
4.0491145e-08
4.0947485e-08
4.1390509e-08
4.18159e-08
4.2220012e-08
4.2600158e-08
4.2955979e-08
4.3289765e-08
4.3607193e-08
4.3916902e-08
4.4227727e-08
4.4543055e-08
4.4850487e-08
4.5105549e-08
4.5204784e-08
3.8184411e-08
3.8456872e-08
3.8767355e-08
3.9111642e-08
3.9484986e-08
3.9882297e-08
4.0298253e-08
4.072744e-08
4.1164456e-08
4.1603996e-08
4.204091e-08
4.2470276e-08
4.288749e-08
4.3288414e-08
4.3669658e-08
4.402869e-08
4.4365311e-08
4.4682106e-08
4.4985131e-08
4.5283424e-08
4.5586108e-08
4.5896458e-08
4.6201365e-08
4.6454926e-08
4.6550393e-08
4.0021586e-08
4.0277088e-08
4.0567798e-08
4.0889873e-08
4.123903e-08
4.1610661e-08
4.1999935e-08
4.2401895e-08
4.2811544e-08
4.3223927e-08
4.3634198e-08
4.4037696e-08
4.4430038e-08
4.480728e-08
4.5166187e-08
4.5504699e-08
4.5822592e-08
4.612281e-08
4.6411824e-08
4.6699113e-08
4.699412e-08
4.7299982e-08
4.7602646e-08
4.7853841e-08
4.7939886e-08
4.1882426e-08
4.2121912e-08
4.2394173e-08
4.2695676e-08
4.30225e-08
4.3370423e-08
4.3734999e-08
4.411165e-08
4.4495735e-08
4.4882616e-08
4.5267733e-08
4.5646681e-08
4.6015309e-08
4.636988e-08
4.6707373e-08
4.7025994e-08
4.7325757e-08
4.7609927e-08
4.7885396e-08
4.8162091e-08
4.8449762e-08
4.8751353e-08
4.9051755e-08
4.9300548e-08
4.9380026e-08
4.3767101e-08
4.3991545e-08
4.4246589e-08
4.452896e-08
4.4835035e-08
4.5160912e-08
4.5502475e-08
4.5855467e-08
4.6215558e-08
4.6578402e-08
4.6939712e-08
4.729533e-08
4.7641334e-08
4.7974204e-08
4.8291132e-08
4.8590563e-08
4.8872816e-08
4.9141473e-08
4.9403845e-08
4.9670305e-08
4.9950893e-08
5.0248377e-08
5.0546779e-08
5.0794131e-08
5.0868876e-08
4.5675962e-08
4.5886234e-08
4.6125112e-08
4.6389549e-08
4.6676183e-08
4.6981386e-08
4.730133e-08
4.7632043e-08
4.7969474e-08
4.8309547e-08
4.864823e-08
4.8981606e-08
4.9305977e-08
4.9618038e-08
4.991519e-08
5.0196087e-08
5.0461464e-08
5.0715126e-08
5.0964824e-08
5.122137e-08
5.1495077e-08
5.1788534e-08
5.2084919e-08
5.2330476e-08
5.2399687e-08
4.7608384e-08
4.7805248e-08
4.8028858e-08
4.8276376e-08
4.8544666e-08
4.883035e-08
4.9129856e-08
4.9439469e-08
4.9755393e-08
5.0073804e-08
5.039091e-08
5.0703025e-08
5.100667e-08
5.129875e-08
5.1576879e-08
5.1839943e-08
5.208898e-08
5.2328139e-08
5.2565572e-08
5.2812509e-08
5.3079517e-08
5.3368971e-08
5.3663085e-08
5.3905801e-08
5.3964305e-08
4.9562689e-08
4.9746823e-08
4.9955955e-08
5.0187435e-08
5.0438338e-08
5.0705504e-08
5.0985598e-08
5.1275145e-08
5.1570585e-08
5.1868327e-08
5.2164809e-08
5.2456563e-08
5.2740322e-08
5.30132e-08
5.3273017e-08
5.351889e-08
5.3752121e-08
5.3977279e-08
5.4202854e-08
5.4440502e-08
5.4701038e-08
5.4986606e-08
5.5278398e-08
5.5518215e-08
5.556887e-08
5.1536251e-08
5.1708269e-08
5.1903628e-08
5.2119856e-08
5.2354219e-08
5.2603766e-08
5.286537e-08
5.313578e-08
5.3411663e-08
5.3689645e-08
5.3966381e-08
5.4238613e-08
5.4503278e-08
5.475769e-08
5.4999876e-08
5.5229178e-08
5.5447175e-08
5.5658788e-08
5.587291e-08
5.6101612e-08
5.6355962e-08
5.6637892e-08
5.6927565e-08
5.7164648e-08
5.7207593e-08
5.3525568e-08
5.3686035e-08
5.3868268e-08
5.406996e-08
5.4288556e-08
5.4521298e-08
5.4765259e-08
5.5017391e-08
5.5274571e-08
5.5533639e-08
5.5791451e-08
5.6044952e-08
5.6291275e-08
5.6527927e-08
5.6753137e-08
5.6966469e-08
5.7169772e-08
5.7368307e-08
5.7571386e-08
5.7791485e-08
5.8039931e-08
5.8318433e-08
5.860603e-08
5.8839778e-08
5.8871884e-08
5.5526312e-08
5.5675755e-08
5.5845463e-08
5.6033283e-08
5.6236829e-08
5.6453522e-08
5.6680625e-08
5.6915282e-08
5.7154566e-08
5.7395515e-08
5.7635184e-08
5.7870709e-08
5.809941e-08
5.8318982e-08
5.8527851e-08
5.8725798e-08
5.8914934e-08
5.9100848e-08
5.9293294e-08
5.950512e-08
5.9747897e-08
6.0023071e-08
6.0308385e-08
6.0537717e-08
6.0555851e-08
5.7533346e-08
5.7672262e-08
5.7830011e-08
5.8004584e-08
5.8193754e-08
5.8395112e-08
5.8606096e-08
5.8824036e-08
5.904619e-08
5.9269784e-08
5.9492057e-08
5.9710331e-08
5.9922107e-08
6.0125262e-08
6.0318409e-08
6.0501544e-08
6.0677036e-08
6.0850802e-08
6.1032996e-08
6.1236859e-08
6.147418e-08
6.174612e-08
6.2029136e-08
6.2254045e-08
6.2260227e-08
5.9540731e-08
5.9669596e-08
5.9815924e-08
5.9977844e-08
6.0153281e-08
6.0339982e-08
6.0535556e-08
6.0737505e-08
6.0943263e-08
6.1150235e-08
6.1355838e-08
6.1557568e-08
6.1753099e-08
6.1940484e-08
6.2118517e-08
6.2287404e-08
6.2449767e-08
6.2611843e-08
6.2784172e-08
6.2980375e-08
6.321244e-08
6.3481239e-08
6.3762028e-08
6.398277e-08
6.3975172e-08
6.1541733e-08
6.1661001e-08
6.1796427e-08
6.1946267e-08
6.2108588e-08
6.2281288e-08
6.2462135e-08
6.2648795e-08
6.283887e-08
6.3029933e-08
6.3219572e-08
6.3405448e-08
6.3585403e-08
6.3757656e-08
6.3921178e-08
6.4076376e-08
6.4226122e-08
6.4376964e-08
6.4539809e-08
6.4728659e-08
6.4955654e-08
6.5221351e-08
6.5499804e-08
6.5716387e-08
6.5694757e-08
6.3528831e-08
6.3638946e-08
6.3763971e-08
6.3902287e-08
6.4052092e-08
6.4211429e-08
6.4378215e-08
6.4550272e-08
6.4725361e-08
6.4901216e-08
6.5075584e-08
6.5246289e-08
6.5411328e-08
6.556908e-08
6.571869e-08
6.5860758e-08
6.5998399e-08
6.6138466e-08
6.6292228e-08
6.6474036e-08
6.6696176e-08
6.6958869e-08
6.7234964e-08
6.7447151e-08
6.7412317e-08
6.5493741e-08
6.5595134e-08
6.571025e-08
6.5837585e-08
6.5975464e-08
6.6122064e-08
6.6275444e-08
6.6433574e-08
6.6594365e-08
6.6755703e-08
6.691549e-08
6.7071699e-08
6.7222479e-08
6.7366363e-08
6.7502659e-08
6.7632157e-08
6.7758206e-08
6.7887962e-08
6.8033045e-08
6.8208144e-08
6.8425692e-08
6.8685583e-08
6.8959528e-08
6.9167832e-08
6.9122078e-08
6.7427445e-08
6.7520545e-08
6.7626237e-08
6.7743128e-08
6.7869662e-08
6.8004144e-08
6.8144767e-08
6.8289641e-08
6.8436818e-08
6.8584331e-08
6.8730223e-08
6.8872613e-08
6.9009795e-08
6.9140444e-08
6.9264028e-08
6.9381519e-08
6.9496494e-08
6.9616401e-08
6.975321e-08
6.9921938e-08
7.0135162e-08
7.0392449e-08
7.0664349e-08
7.0868754e-08
7.0809793e-08
6.9320252e-08
6.9405484e-08
6.9502235e-08
6.9609217e-08
6.9724986e-08
6.9847968e-08
6.9976483e-08
7.010877e-08
7.024302e-08
7.0377398e-08
7.0510088e-08
7.0639341e-08
7.0763588e-08
7.0881644e-08
7.0993125e-08
7.1099178e-08
7.1203602e-08
7.1314124e-08
7.1443052e-08
7.1605726e-08
7.181486e-08
7.2069665e-08
7.2339413e-08
7.2539034e-08
7.2465855e-08
7.1161872e-08
7.1239661e-08
7.1327956e-08
7.1425565e-08
7.1531151e-08
7.1643254e-08
7.1760312e-08
7.188069e-08
7.2002702e-08
7.2124646e-08
7.224483e-08
7.2361637e-08
7.2473625e-08
7.2579739e-08
7.2679738e-08
7.2774934e-08
7.2869333e-08
7.2970935e-08
7.3092369e-08
7.3249281e-08
7.3454517e-08
7.3706924e-08
7.397452e-08
7.4169584e-08
7.4087442e-08
7.2941526e-08
7.3012303e-08
7.3092629e-08
7.3181407e-08
7.3277399e-08
7.3379251e-08
7.3485513e-08
7.3594666e-08
7.3705143e-08
7.3815362e-08
7.3923753e-08
7.4028818e-08
7.4129235e-08
7.4224075e-08
7.4313226e-08
7.4398158e-08
7.4483074e-08
7.457623e-08
7.4690559e-08
7.4841995e-08
7.5043492e-08
7.5293523e-08
7.55588e-08
7.5748679e-08
7.5652512e-08
7.4648115e-08
7.4712316e-08
7.4785172e-08
7.486567e-08
7.4952668e-08
7.5044909e-08
7.5141048e-08
7.5239675e-08
7.5339336e-08
7.5438557e-08
7.5535884e-08
7.5629929e-08
7.5719485e-08
7.5803735e-08
7.5882694e-08
7.5957976e-08
7.603397e-08
7.6119169e-08
7.6226796e-08
7.637305e-08
7.6570977e-08
7.6818657e-08
7.708148e-08
7.7265993e-08
7.7157331e-08
7.62705e-08
7.6328572e-08
7.6394466e-08
7.646725e-08
7.6545868e-08
7.6629156e-08
7.6715867e-08
7.6804688e-08
7.689427e-08
7.6983245e-08
7.707026e-08
7.7154035e-08
7.7233463e-08
7.7307836e-08
7.7377283e-08
7.7443553e-08
7.7511209e-08
7.7588966e-08
7.7690311e-08
7.7831696e-08
7.8026242e-08
7.8271663e-08
7.8532158e-08
7.8712005e-08
7.8594107e-08
7.7797976e-08
7.7850382e-08
7.7909841e-08
7.7975497e-08
7.8046374e-08
7.8121392e-08
7.8199394e-08
7.827916e-08
7.8359433e-08
7.8438944e-08
7.8516434e-08
7.859072e-08
7.8660789e-08
7.8726031e-08
7.8786679e-08
7.8844609e-08
7.8904537e-08
7.8975385e-08
7.907088e-08
7.9207698e-08
7.9399027e-08
7.9642243e-08
7.9900485e-08
8.007591e-08
7.9947132e-08
7.9221089e-08
7.9268311e-08
7.9321889e-08
7.9381032e-08
7.9444839e-08
7.9512307e-08
7.9582359e-08
7.9653859e-08
7.9725638e-08
7.9796511e-08
7.9865309e-08
7.9930933e-08
7.9992458e-08
8.0049361e-08
8.0101968e-08
8.0152265e-08
8.0205108e-08
8.0269593e-08
8.0359656e-08
8.0492152e-08
8.06803e-08
8.0921127e-08
8.1176672e-08
8.1346664e-08
8.1204643e-08
8.0532812e-08
8.0575365e-08
8.0623649e-08
8.0676937e-08
8.0734391e-08
8.0795078e-08
8.0857993e-08
8.0922075e-08
8.098623e-08
8.1049352e-08
8.1110351e-08
8.1168204e-08
8.1222061e-08
8.1271475e-08
8.1316852e-08
8.1360272e-08
8.1406702e-08
8.1465378e-08
8.1550383e-08
8.1678684e-08
8.1863467e-08
8.2101396e-08
8.2353557e-08
8.25179e-08
8.236477e-08
8.1729794e-08
8.1768231e-08
8.1811854e-08
8.1859994e-08
8.1911871e-08
8.1966611e-08
8.202327e-08
8.2080851e-08
8.2138328e-08
8.2194663e-08
8.2248832e-08
8.229988e-08
8.234702e-08
8.2389866e-08
8.2428891e-08
8.246624e-08
8.2506963e-08
8.2560372e-08
8.2640616e-08
8.276466e-08
8.2945543e-08
8.3179515e-08
8.3426762e-08
8.3583306e-08
8.3413607e-08
8.2812552e-08
8.2847465e-08
8.288711e-08
8.2930869e-08
8.2978009e-08
8.3027705e-08
8.3079063e-08
8.313114e-08
8.3182967e-08
8.323356e-08
8.328195e-08
8.3327239e-08
8.336869e-08
8.3405963e-08
8.3439573e-08
8.3471711e-08
8.3507452e-08
8.3556111e-08
8.3631768e-08
8.3751212e-08
8.392715e-08
8.4155318e-08
8.4395156e-08
8.454154e-08
8.4355769e-08
8.3782459e-08
8.3814478e-08
8.3850866e-08
8.3891054e-08
8.3934349e-08
8.3979963e-08
8.4027037e-08
8.4074674e-08
8.4121949e-08
8.4167916e-08
8.4211646e-08
8.4252283e-08
8.428913e-08
8.4321875e-08
8.4351054e-08
8.4378867e-08
8.4410361e-08
8.4454736e-08
8.4525824e-08
8.463998e-08
8.4809281e-08
8.5028738e-08
8.5257141e-08
8.538877e-08
8.5181424e-08
8.463267e-08
8.4662437e-08
8.4696296e-08
8.4733734e-08
8.4774092e-08
8.4816601e-08
8.4860428e-08
8.4904717e-08
8.4948574e-08
8.499106e-08
8.5031269e-08
8.5068376e-08
8.510171e-08
8.5130972e-08
8.5156701e-08
8.5181069e-08
8.5209024e-08
8.5249523e-08
8.5315922e-08
8.5423791e-08
8.5584141e-08
8.5790901e-08
8.6002326e-08
8.611326e-08
8.5883796e-08
8.5329717e-08
8.5357859e-08
8.538988e-08
8.542534e-08
8.5463615e-08
8.5503942e-08
8.5545509e-08
8.55875e-08
8.5629036e-08
8.5669118e-08
8.5706885e-08
8.5741513e-08
8.5772354e-08
8.5799106e-08
8.5822293e-08
8.5844033e-08
8.5869108e-08
8.5906098e-08
8.596764e-08
8.6068113e-08
8.6216886e-08
8.6406417e-08
8.6594483e-08
8.6678094e-08
8.6427319e-08
8.577783e-08
8.5804922e-08
8.5835693e-08
8.5869822e-08
8.5906726e-08
8.5945649e-08
8.5985797e-08
8.60264e-08
8.6066524e-08
8.6104863e-08
8.6141061e-08
8.6174099e-08
8.6203304e-08
8.6228367e-08
8.6249787e-08
8.626961e-08
8.6292404e-08
8.6326279e-08
8.6382985e-08
8.6475371e-08
8.6610479e-08
8.677892e-08
8.6938095e-08
8.6988519e-08
8.6712349e-08
8.5717798e-08
8.5744269e-08
8.5774156e-08
8.5807328e-08
8.5843277e-08
8.5881259e-08
8.5920506e-08
8.5960274e-08
8.5999195e-08
8.6034604e-08
8.6069442e-08
8.6101433e-08
8.6129566e-08
8.6153496e-08
8.6173697e-08
8.6192137e-08
8.6213165e-08
8.6244417e-08
8.6296789e-08
8.6381476e-08
8.650254e-08
8.6648857e-08
8.6778353e-08
8.6800455e-08
8.653991e-08
)
;

boundaryField
{
    Walls
    {
        type            nutUWallFunction;
        Cmu             0.09;
        kappa           0.41;
        E               9.8;
        value           uniform 0;
    }
    Inlet
    {
        type            calculated;
        value           nonuniform List<scalar> 3(2.8316186e-05 1.9697616e-05 7.9595415e-07);
    }
    Outlet
    {
        type            calculated;
        value           nonuniform List<scalar> 
86
(
0
0
0
0
0
0
0
0
0
0
0
0
0
0
0
0
0
0
0
0
0
0
0
0
0
0
0
0
0
0
1.1207794e-05
1.1479532e-05
9.9772982e-06
0
0
0
0
3.7435747e-07
1.5744588e-07
0
0
0
0
3.9547404e-08
4.0458366e-08
4.1538362e-08
4.2694158e-08
4.3917238e-08
4.5204784e-08
4.6550393e-08
4.7939886e-08
4.9380026e-08
5.0868876e-08
5.2399687e-08
0
0
0
0
0
0
0
0
0
0
0
0
0
0
0
0
0
0
0
0
0
0
0
0
0
0
0
0
0
0
9.8089926e-06
1.1480882e-05
)
;
    }
    Front
    {
        type            wedge;
    }
    Back
    {
        type            wedge;
    }
    defaultFaces
    {
        type            empty;
    }
}


// ************************************************************************* //
