/*--------------------------------*- C++ -*----------------------------------*\
| =========                 |                                                 |
| \\      /  F ield         | OpenFOAM: The Open Source CFD Toolbox           |
|  \\    /   O peration     | Version:  4.0                                   |
|   \\  /    A nd           | Web:      www.OpenFOAM.org                      |
|    \\/     M anipulation  |                                                 |
\*---------------------------------------------------------------------------*/
FoamFile
{
    version     2.0;
    format      ascii;
    class       volVectorField;
    location    "0.13";
    object      U;
}
// * * * * * * * * * * * * * * * * * * * * * * * * * * * * * * * * * * * * * //

dimensions      [0 1 -1 0 0 0 0];

internalField   nonuniform List<vector> 
1740
(
(1.4692817 0.0079745009 3.9885129e-06)
(1.4906331 -0.011667527 7.0639325e-07)
(1.6047078 -0.0089338272 2.8259122e-08)
(1.4719044 -0.0020981942 7.1566772e-06)
(1.6001822 -0.033275985 1.391793e-06)
(1.6141225 -0.02498701 2.9119523e-07)
(1.5667987 -0.011740771 1.0042669e-05)
(1.6013003 -0.017834952 2.308058e-06)
(1.5057078 -0.0057967161 4.3921582e-07)
(1.575406 0.00038001729 1.2935887e-05)
(1.504826 0.019405625 3.135644e-06)
(1.6082433 0.0068978395 5.1360203e-07)
(1.4993518 0.0021762989 1.4464798e-05)
(1.5136018 -0.0032519691 3.9989643e-06)
(1.6020639 -0.007704934 7.9757965e-07)
(1.5385327 -0.0089141088 1.5833216e-05)
(1.611551 -0.019076145 4.7319339e-06)
(1.5071384 -0.012977282 9.73379e-07)
(1.5218845 -0.0072240042 1.6770341e-05)
(1.6078394 -0.0083627048 5.6917301e-06)
(1.5297325 -0.0022790705 1.0978612e-06)
(1.5832376 0.00029599607 1.760137e-05)
(1.615949 0.00077237822 6.3430672e-06)
(1.5431028 -0.0015150367 1.3648809e-06)
(1.582282 0.013572327 1.8586664e-05)
(1.6058709 0.016169904 7.1465725e-06)
(1.5093508 0.0031959345 1.5395956e-06)
(1.474626 0.011710694 1.9218375e-05)
(1.5789105 0.020187144 7.7183086e-06)
(1.5739749 0.0068099231 1.6789718e-06)
(1.4859362 -0.0093659613 1.9525515e-05)
(1.5951419 -0.00097850139 8.4764798e-06)
(1.5936492 -0.00060168324 1.951201e-06)
(1.5344938 0.00032116147 1.9467021e-05)
(1.5017909 -0.0068608535 8.8784964e-06)
(1.5021928 -0.0039449673 2.114179e-06)
(1.4959485 0.0032735896 1.9744856e-05)
(1.5704328 0.014914305 9.4260857e-06)
(1.5759748 0.00077171473 2.2849779e-06)
(1.5473541 -0.016837754 2.0259899e-05)
(1.5576292 0.0026249339 9.9143568e-06)
(1.6299561 0.0047952396 2.5538549e-06)
(1.5893314 -0.011253178 2.0846013e-05)
(1.5011664 0.0029700829 1.0376158e-05)
(1.5521814 0.0043122119 2.7139335e-06)
(1.5500319 0.0032152413 2.1107695e-05)
(1.5011235 -0.0042860478 1.0980527e-05)
(1.5976783 -0.0040642426 2.8956069e-06)
(1.5484705 -9.9708431e-05 2.1179733e-05)
(1.5377523 -0.026925007 1.136702e-05)
(1.5987087 -0.017445818 3.0953581e-06)
(1.6063611 -0.0076292266 2.130406e-05)
(1.5612837 -0.033877425 1.185794e-05)
(1.5266337 -0.016203944 3.2949475e-06)
(1.67193 -0.0074127469 2.1411032e-05)
(1.6125689 -0.007171574 1.2168545e-05)
(1.5256361 -0.0032594567 3.485611e-06)
(1.6022117 0.0023889498 2.1512187e-05)
(1.6162556 0.022421369 1.2665871e-05)
(1.5179379 0.009356365 3.6507425e-06)
(1.5682116 0.014371766 2.1962884e-05)
(1.5425363 0.017743893 1.2995467e-05)
(1.5362283 0.0072527621 3.8213538e-06)
(1.5261346 0.011589986 2.2317499e-05)
(1.5643331 0.020113486 1.3423486e-05)
(1.5281232 0.0080077648 3.998699e-06)
(1.5226453 0.0050464216 2.2485057e-05)
(1.5169035 0.006569767 1.3758251e-05)
(1.5911638 0.0065174382 4.1333451e-06)
(1.5276189 0.0059301385 2.2138338e-05)
(1.5893013 -0.014605115 1.3957965e-05)
(1.5867126 -0.011169238 4.3295008e-06)
(1.5121521 -0.007414177 2.1966274e-05)
(1.6174688 -0.014139214 1.4229966e-05)
(1.519507 -0.004026431 4.5125604e-06)
(1.5544482 -0.0079262889 2.1864057e-05)
(1.5309033 0.0015338629 1.4452648e-05)
(1.5400053 0.0058195116 4.6825711e-06)
(1.5291239 0.0023864623 2.2081517e-05)
(1.5194385 -0.0032964052 1.4777226e-05)
(1.5323646 -0.00018108102 4.7802833e-06)
(1.532143 0.0019930368 2.2724497e-05)
(1.5172725 0.0031022044 1.5093947e-05)
(1.5293326 -0.0052091911 4.9302445e-06)
(1.4392106 0.0051074605 2.2720332e-05)
(1.487115 -0.001365477 1.5274883e-05)
(1.5373993 -0.0028393897 4.8677917e-06)
(1.2397215 0.031071688 2.3785609e-05)
(1.2908862 0.091665241 1.591357e-05)
(1.3743721 0.058681722 5.5692205e-06)
(0.8244393 0.36487869 1.1872656e-05)
(0.7963417 0.9323557 1.0105908e-05)
(0.73499638 1.2500818 5.44797e-06)
(0.21094939 0.1110702 1.5053087e-06)
(0.18383414 0.36536017 3.1411963e-06)
(0.088921154 0.50307038 7.2229997e-07)
(-0.037059177 -0.014459947 1.2491676e-06)
(-0.032396916 -0.02947149 1.7453311e-06)
(-0.020559828 -0.03369289 6.528323e-07)
(-0.011616148 -0.0039223753 4.74621e-07)
(-0.010137122 -0.0092403917 8.0077278e-07)
(-0.0072830242 -0.011856675 4.3347158e-07)
(-0.003915218 -0.00087168259 1.4574487e-07)
(-0.0031444235 -0.0019528657 3.0870534e-07)
(-0.0020790519 -0.0026131007 2.0721656e-07)
(-0.0020537242 -0.00033591977 4.6444005e-08)
(-0.0016648895 -0.00066371727 1.1108176e-07)
(-0.0010495799 -0.00086913015 8.2305267e-08)
(-0.0012401439 -0.0001411201 1.1996831e-08)
(-0.0010547536 -0.00027924535 3.4347602e-08)
(-0.00074272404 -0.00032488163 2.499355e-08)
(-0.00085940412 -7.1522747e-05 2.8398612e-10)
(-0.00075920431 -0.00012299525 6.2458733e-09)
(-0.00057957431 -0.00014190224 2.5489521e-09)
(-0.00067451335 -5.2572937e-05 -1.4967882e-09)
(-0.00061757862 -0.00010873103 -7.8931742e-10)
(-0.00050749068 -0.00013913685 -2.7980264e-09)
(-0.00053687851 -4.7304914e-05 -5.1124043e-10)
(-0.00050615195 -0.00010417962 -6.8841963e-10)
(-0.0004422821 -0.00015112005 -1.9406858e-09)
(-0.00040553517 -3.8593564e-05 2.5708501e-10)
(-0.00038699304 -8.7639095e-05 2.7481393e-10)
(-0.00034866136 -0.00013336442 -4.3574383e-10)
(-0.00030465528 -2.9030236e-05 3.2937879e-10)
(-0.00029316234 -6.1950874e-05 5.1743517e-10)
(-0.000268595 -9.4823825e-05 2.2587726e-10)
(-0.00023543174 -1.8530847e-05 1.2338892e-10)
(-0.00022856352 -4.1412842e-05 3.2490078e-10)
(-0.00021269524 -6.361256e-05 2.6783242e-10)
(-0.00018879607 -1.2541101e-05 -3.9054016e-11)
(-0.00018460658 -2.7831777e-05 7.7431199e-11)
(-0.00017434235 -4.2766941e-05 1.1321439e-10)
(-0.00015733292 -9.1384214e-06 -1.0594508e-10)
(-0.00015428258 -1.9588418e-05 -6.7837901e-11)
(-0.00014680483 -3.0088201e-05 -1.4338398e-11)
(-0.0001341031 -6.6188664e-06 -1.1329746e-10)
(-0.00013194118 -1.4572832e-05 -1.0573683e-10)
(-0.00012636575 -2.2894092e-05 -6.091693e-11)
(-0.00011585118 -5.3528158e-06 -8.5971381e-11)
(-0.00011444077 -1.1959258e-05 -8.5452354e-11)
(-0.00011039996 -1.8608641e-05 -5.3935886e-11)
(-0.00010159438 -4.4500432e-06 -5.8956864e-11)
(-0.00010060651 -9.8079261e-06 -5.838597e-11)
(-9.7657363e-05 -1.5020328e-05 -3.4884479e-11)
(-9.0410267e-05 -3.5028119e-06 -4.9667512e-11)
(-8.9748714e-05 -7.7243942e-06 -4.5424967e-11)
(-8.7577163e-05 -1.1964862e-05 -2.3103484e-11)
(-8.1489296e-05 -2.787239e-06 -4.2072467e-11)
(-8.1041218e-05 -6.1643163e-06 -3.9622663e-11)
(-7.9399719e-05 -9.5971272e-06 -1.9191322e-11)
(-7.4258318e-05 -2.2495986e-06 -3.7496759e-11)
(-7.3956302e-05 -4.9876366e-06 -3.8113398e-11)
(-7.2697925e-05 -7.8738338e-06 -1.9290536e-11)
(-6.8311558e-05 -1.8454792e-06 -3.5654263e-11)
(-6.8110345e-05 -4.1199789e-06 -3.8661317e-11)
(-6.7130578e-05 -6.5171744e-06 -2.1402245e-11)
(-6.3338858e-05 -1.5692964e-06 -3.3820815e-11)
(-6.3211294e-05 -3.4443477e-06 -3.8559471e-11)
(-6.2433722e-05 -5.4266181e-06 -2.3044279e-11)
(-5.9098655e-05 -1.3567569e-06 -3.1650334e-11)
(-5.9025062e-05 -2.9581408e-06 -3.7324263e-11)
(-5.8394607e-05 -4.6838508e-06 -2.3039865e-11)
(-5.5402517e-05 -1.1984961e-06 -2.8851399e-11)
(-5.5366849e-05 -2.6164254e-06 -3.4543086e-11)
(-5.4846586e-05 -4.1557766e-06 -2.2161948e-11)
(-5.2105579e-05 -1.077287e-06 -2.7167686e-11)
(-5.2096936e-05 -2.3582531e-06 -3.2376745e-11)
(-5.1660838e-05 -3.7580448e-06 -2.1527217e-11)
(-4.9094846e-05 -9.8574163e-07 -2.6692414e-11)
(-4.9105005e-05 -2.1650978e-06 -3.1281613e-11)
(-4.873451e-05 -3.4698778e-06 -2.1179382e-11)
(-4.6291205e-05 -9.314604e-07 -2.5955518e-11)
(-4.6313705e-05 -2.0498599e-06 -2.9739214e-11)
(-4.5994528e-05 -3.2880799e-06 -2.042269e-11)
(-4.3650248e-05 -9.0106883e-07 -2.5014886e-11)
(-4.3681215e-05 -1.9863442e-06 -2.8147481e-11)
(-4.3401056e-05 -3.1792746e-06 -1.9710987e-11)
(-4.1144566e-05 -8.4110488e-07 -2.485595e-11)
(-4.118057e-05 -1.859802e-06 -2.7144001e-11)
(-4.0930218e-05 -3.0096785e-06 -1.9219879e-11)
(-3.8746026e-05 -8.1042655e-07 -2.4674637e-11)
(-3.8784573e-05 -1.799818e-06 -2.6208673e-11)
(-3.8557663e-05 -2.9320193e-06 -1.8745742e-11)
(-3.6426851e-05 -7.8918027e-07 -2.4423216e-11)
(-3.6467683e-05 -1.7574908e-06 -2.5269592e-11)
(-3.6262496e-05 -2.8657718e-06 -1.8232972e-11)
(-3.4170763e-05 -7.6920376e-07 -2.428433e-11)
(-3.4212249e-05 -1.7126154e-06 -2.4481709e-11)
(-3.4026594e-05 -2.7963395e-06 -1.7743283e-11)
(-3.1977746e-05 -7.4316979e-07 -2.4363234e-11)
(-3.2018022e-05 -1.6566247e-06 -2.3904158e-11)
(-3.1847886e-05 -2.7127449e-06 -1.7358596e-11)
(-2.9856755e-05 -7.1697722e-07 -2.3955033e-11)
(-2.9895503e-05 -1.6018014e-06 -2.2951264e-11)
(-2.973939e-05 -2.6124732e-06 -1.6951816e-11)
(-2.7817611e-05 -6.8952198e-07 -2.3431078e-11)
(-2.7854673e-05 -1.5464332e-06 -2.1895705e-11)
(-2.7711119e-05 -2.5194881e-06 -1.6346155e-11)
(-2.5869748e-05 -6.546584e-07 -2.3426744e-11)
(-2.5904957e-05 -1.4710378e-06 -2.1417511e-11)
(-2.577285e-05 -2.4032408e-06 -1.60337e-11)
(-2.4022716e-05 -6.1947354e-07 -2.3258358e-11)
(-2.4056022e-05 -1.3947819e-06 -2.0931793e-11)
(-2.3934471e-05 -2.2737609e-06 -1.5796147e-11)
(-2.2285832e-05 -5.8009313e-07 -2.3094537e-11)
(-2.2317297e-05 -1.3083327e-06 -2.0489889e-11)
(-2.2205528e-05 -2.1340507e-06 -1.5590911e-11)
(-2.0667919e-05 -5.3724352e-07 -2.2961619e-11)
(-2.0697628e-05 -1.2134558e-06 -2.0119504e-11)
(-2.0594907e-05 -1.9798625e-06 -1.5433889e-11)
(-1.917696e-05 -4.9190543e-07 -2.2844506e-11)
(-1.9205036e-05 -1.1124509e-06 -1.9807821e-11)
(-1.911062e-05 -1.8150507e-06 -1.5314909e-11)
(-1.7819749e-05 -4.4459749e-07 -2.2738862e-11)
(-1.7846345e-05 -1.0066606e-06 -1.9553159e-11)
(-1.7759513e-05 -1.6424577e-06 -1.523882e-11)
(-1.6601505e-05 -3.9542138e-07 -2.2660322e-11)
(-1.6626794e-05 -8.9647495e-07 -1.9376143e-11)
(-1.654682e-05 -1.4628338e-06 -1.5229468e-11)
(-1.5525954e-05 -3.445654e-07 -2.2637477e-11)
(-1.5550103e-05 -7.8231166e-07 -1.9315608e-11)
(-1.5476215e-05 -1.2767694e-06 -1.5322684e-11)
(-1.4596566e-05 -2.939483e-07 -2.2683181e-11)
(-1.4619725e-05 -6.6613152e-07 -1.9407608e-11)
(-1.4551094e-05 -1.0856241e-06 -1.5546106e-11)
(-1.3818545e-05 -2.4018146e-07 -2.282687e-11)
(-1.3840863e-05 -5.4404544e-07 -1.9644216e-11)
(-1.3776621e-05 -8.8623811e-07 -1.5863196e-11)
(-1.3198381e-05 -1.851127e-07 -2.3015241e-11)
(-1.3220023e-05 -4.1807841e-07 -1.9878663e-11)
(-1.3159282e-05 -6.8017208e-07 -1.6076158e-11)
(-1.2749748e-05 -1.2859706e-07 -2.3121385e-11)
(-1.2770902e-05 -2.8884189e-07 -1.9731767e-11)
(-1.2712707e-05 -4.6976511e-07 -1.5731312e-11)
(-1.2483353e-05 -7.037992e-08 -2.2779207e-11)
(-1.2504237e-05 -1.5794869e-07 -1.8313657e-11)
(-1.2447564e-05 -2.5991803e-07 -1.3973665e-11)
(-1.2383197e-05 -1.6105303e-08 -2.0559483e-11)
(-1.2403994e-05 -3.4966181e-08 -1.3632143e-11)
(-1.2347789e-05 -5.9903404e-08 -9.4580775e-12)
(-0.046086549 1.9588616 -3.5628904e-07)
(-0.032779823 1.7022793 -3.4390677e-06)
(-0.062341949 0.34556348 -2.3783115e-07)
(-0.043293778 0.15477413 -9.8818404e-07)
(-0.016098851 -0.040893254 -1.1421945e-07)
(-0.011884523 -0.043029691 -5.1559782e-07)
(-0.0056233998 -0.013866105 2.1884455e-08)
(-0.0049572537 -0.014914936 -2.5394888e-07)
(-0.0014990749 -0.003258356 2.2840577e-08)
(-0.0014006169 -0.0038786296 -1.3454863e-07)
(-0.00059569389 -0.00098734133 2.6737807e-09)
(-0.00035246789 -0.0010722206 -7.9468168e-08)
(-0.00043770147 -0.00027761136 -9.6641329e-09)
(-0.00022310661 -0.00020786541 -5.0451272e-08)
(-0.00039106667 -0.00010182253 -1.2414197e-08)
(-0.00023571925 -8.0350059e-06 -3.1747835e-08)
(-0.00038490934 -0.00012191451 -9.318404e-09)
(-0.00027357041 -8.2713376e-05 -1.8002183e-08)
(-0.00036399243 -0.0001704635 -4.8662964e-09)
(-0.00028449383 -0.00016952988 -8.6501964e-09)
(-0.00029882321 -0.00016524277 -1.7588464e-09)
(-0.00024621304 -0.00017982129 -3.374163e-09)
(-0.00023635736 -0.00012187007 -3.3712861e-10)
(-0.00020149694 -0.00013944912 -1.0045471e-09)
(-0.00019194742 -8.0839387e-05 6.702503e-11)
(-0.00016877741 -9.352935e-05 -1.87178e-10)
(-0.00016006067 -5.4394804e-05 7.285515e-11)
(-0.00014316233 -6.2984363e-05 -2.4492107e-12)
(-0.00013642622 -3.8868332e-05 4.9708661e-12)
(-0.00012393044 -4.5304565e-05 9.6957171e-13)
(-0.00011861965 -3.0323074e-05 -2.8444762e-11)
(-0.00010929174 -3.5759266e-05 -1.1304115e-11)
(-0.00010467689 -2.4598646e-05 -2.6751479e-11)
(-9.7651968e-05 -2.9374691e-05 -8.8319634e-12)
(-9.3464737e-05 -1.9835089e-05 -1.4088429e-11)
(-8.8162393e-05 -2.3904175e-05 4.91699e-13)
(-8.4371793e-05 -1.5998742e-05 -5.4162341e-12)
(-8.0273193e-05 -1.9532633e-05 6.9235609e-12)
(-7.6924316e-05 -1.2913298e-05 -3.1758928e-12)
(-7.3713176e-05 -1.5979336e-05 8.2248894e-12)
(-7.0773377e-05 -1.05688e-05 -4.8330593e-12)
(-6.8253584e-05 -1.3017862e-05 5.7347939e-12)
(-6.5616317e-05 -8.7354787e-06 -7.6145981e-12)
(-6.3600785e-05 -1.0786924e-05 2.4090454e-12)
(-6.1218293e-05 -7.3396498e-06 -1.0073341e-11)
(-5.9588968e-05 -9.2061529e-06 -2.9602527e-13)
(-5.7399439e-05 -6.3966297e-06 -1.0886216e-11)
(-5.6060696e-05 -8.0702795e-06 -1.8287628e-12)
(-5.4019097e-05 -5.7004506e-06 -1.1165238e-11)
(-5.290168e-05 -7.2006003e-06 -2.9040452e-12)
(-5.0962269e-05 -5.165096e-06 -1.1540752e-11)
(-5.0015761e-05 -6.5373886e-06 -3.8942953e-12)
(-4.8137174e-05 -4.7785158e-06 -1.1847501e-11)
(-4.7324664e-05 -6.0659835e-06 -4.6873018e-12)
(-4.5477307e-05 -4.5171893e-06 -1.1835432e-11)
(-4.4770812e-05 -5.7302656e-06 -5.2008867e-12)
(-4.2944376e-05 -4.3469281e-06 -1.1755337e-11)
(-4.2321782e-05 -5.4930089e-06 -5.5471098e-12)
(-4.0520229e-05 -4.1915753e-06 -1.1676189e-11)
(-3.9964263e-05 -5.3954404e-06 -5.780203e-12)
(-3.8185785e-05 -4.0702785e-06 -1.1604487e-11)
(-3.7685898e-05 -5.2029383e-06 -6.0205643e-12)
(-3.5925562e-05 -3.9624162e-06 -1.1476734e-11)
(-3.5466355e-05 -5.0445125e-06 -6.1847135e-12)
(-3.3720318e-05 -3.851555e-06 -1.131877e-11)
(-3.3296465e-05 -4.9032315e-06 -6.278179e-12)
(-3.1566127e-05 -3.729717e-06 -1.1213059e-11)
(-3.118029e-05 -4.7577491e-06 -6.3673144e-12)
(-2.9480366e-05 -3.5914156e-06 -1.115531e-11)
(-2.912624e-05 -4.5944036e-06 -6.4776402e-12)
(-2.7472713e-05 -3.4720292e-06 -1.092636e-11)
(-2.7147103e-05 -4.4195372e-06 -6.5444666e-12)
(-2.5553308e-05 -3.3238806e-06 -1.0831657e-11)
(-2.5253811e-05 -4.2334484e-06 -6.6018107e-12)
(-2.3732309e-05 -3.1479197e-06 -1.081202e-11)
(-2.3456726e-05 -4.0056845e-06 -6.7311615e-12)
(-2.2019455e-05 -2.9559371e-06 -1.0819994e-11)
(-2.1765885e-05 -3.7534231e-06 -6.8929939e-12)
(-2.042367e-05 -2.7421894e-06 -1.0850141e-11)
(-2.0190365e-05 -3.4867023e-06 -7.0548109e-12)
(-1.8952988e-05 -2.5142504e-06 -1.0899101e-11)
(-1.8738261e-05 -3.2012793e-06 -7.2169706e-12)
(-1.7614301e-05 -2.2756601e-06 -1.0973472e-11)
(-1.7416521e-05 -2.8993309e-06 -7.3886858e-12)
(-1.6412834e-05 -2.0271945e-06 -1.1095367e-11)
(-1.6230351e-05 -2.5836929e-06 -7.5906751e-12)
(-1.5352189e-05 -1.7692889e-06 -1.1296701e-11)
(-1.5183258e-05 -2.2545205e-06 -7.8520426e-12)
(-1.4435666e-05 -1.5038766e-06 -1.1596839e-11)
(-1.4278426e-05 -1.9163625e-06 -8.1883569e-12)
(-1.3668371e-05 -1.2274518e-06 -1.1950014e-11)
(-1.3520889e-05 -1.5641975e-06 -8.5584321e-12)
(-1.3056763e-05 -9.4156069e-07 -1.2162045e-11)
(-1.291707e-05 -1.1992797e-06 -8.7984943e-12)
(-1.2614349e-05 -6.5016255e-07 -1.182244e-11)
(-1.2480309e-05 -8.2817433e-07 -8.5738008e-12)
(-1.2351683e-05 -3.6078334e-07 -1.0260423e-11)
(-1.2221005e-05 -4.6025918e-07 -7.3869548e-12)
(-1.225267e-05 -8.3958966e-08 -6.6440503e-12)
(-1.2123031e-05 -1.0761327e-07 -4.7006232e-12)
(0.0014707125 -3.2832359e-06 -3.6298033e-08)
(0.0014387429 -5.2141476e-05 -8.4415534e-08)
(0.0013599189 -5.0448996e-05 -1.1644032e-07)
(0.0012493937 -6.8690135e-05 -1.3414446e-07)
(0.0011228703 -6.3963891e-05 -1.4048248e-07)
(0.00098823384 -6.5659403e-05 -1.3876016e-07)
(0.00085846916 -6.5841757e-05 -1.3205895e-07)
(0.00074089887 -7.384823e-05 -1.2273523e-07)
(0.00063908876 -8.9100739e-05 -1.1229931e-07)
(0.00055448254 -0.00011359275 -1.0166476e-07)
(0.00048337403 -0.00014761649 -9.1390861e-08)
(0.00042443941 -0.00018790406 -8.1729456e-08)
(0.00037511158 -0.00023265248 -7.2732075e-08)
(0.00033308312 -0.00027843418 -6.4327035e-08)
(0.00029641773 -0.0003230508 -5.6432778e-08)
(0.00026352894 -0.00036541346 -4.9006605e-08)
(0.00023317038 -0.00040431218 -4.2047841e-08)
(0.00020439013 -0.00043817302 -3.5579961e-08)
(0.00017646938 -0.00046664632 -2.9608489e-08)
(0.00014880859 -0.0004891495 -2.4161878e-08)
(0.00012131496 -0.00050571351 -1.9262681e-08)
(9.4005519e-05 -0.00051575336 -1.4845773e-08)
(6.6920271e-05 -0.00051997799 -1.0786444e-08)
(4.0032071e-05 -0.00051319508 -6.9330355e-09)
(1.3028649e-05 -0.00049560597 -3.336114e-09)
(0.00024732221 -0.00012149549 -5.2731271e-08)
(0.00024296261 -0.00051885946 -1.2043617e-07)
(0.00023009005 -0.00073585001 -1.62531e-07)
(0.0002178059 -0.0010462284 -1.825911e-07)
(0.00021565942 -0.0012856265 -1.8672788e-07)
(0.0002305032 -0.0015387742 -1.8147055e-07)
(0.00025697471 -0.0017846363 -1.7130804e-07)
(0.0002879397 -0.0020490275 -1.5900327e-07)
(0.00031346903 -0.002333364 -1.4596329e-07)
(0.00032939427 -0.002617237 -1.3298049e-07)
(0.00033677767 -0.0028942927 -1.2067037e-07)
(0.00033507419 -0.0031595586 -1.092405e-07)
(0.00032571709 -0.0034086248 -9.8688549e-08)
(0.00031032791 -0.0036372861 -8.8821659e-08)
(0.0002902594 -0.0038432001 -7.9480049e-08)
(0.00026655254 -0.004023934 -7.0589097e-08)
(0.00024011837 -0.0041778079 -6.213311e-08)
(0.00021183199 -0.0043033635 -5.4147768e-08)
(0.00018248537 -0.0044011814 -4.6542148e-08)
(0.0001528267 -0.0044732386 -3.934634e-08)
(0.00012321462 -0.0045133882 -3.2643889e-08)
(9.3921879e-05 -0.0045153448 -2.6203574e-08)
(6.5205272e-05 -0.0044821572 -1.9799227e-08)
(3.7212394e-05 -0.0043992128 -1.2884201e-08)
(1.0520985e-05 -0.004204737 -5.408191e-09)
(0.0011437944 -0.00035371432 -9.2174189e-08)
(0.0011246534 -0.0016268414 -2.0212828e-07)
(0.001111123 -0.0021783737 -2.6125848e-07)
(0.0011234964 -0.0030684546 -2.8013815e-07)
(0.001152241 -0.0037844653 -2.7627257e-07)
(0.0011834047 -0.0045307795 -2.6257281e-07)
(0.0012008408 -0.0052760695 -2.4506248e-07)
(0.0011974256 -0.0061742502 -2.2693489e-07)
(0.0011748581 -0.0072073582 -2.0890913e-07)
(0.0011348659 -0.0081850162 -1.9131796e-07)
(0.0010804553 -0.0090452468 -1.751595e-07)
(0.0010151386 -0.0097773176 -1.6046618e-07)
(0.00094265208 -0.010383675 -1.4719197e-07)
(0.00086524721 -0.010866884 -1.3481325e-07)
(0.00078422558 -0.011237474 -1.2301626e-07)
(0.00070116006 -0.011501549 -1.116852e-07)
(0.00061751972 -0.011665904 -1.0077682e-07)
(0.00053450081 -0.011737667 -9.0446684e-08)
(0.00045302959 -0.011724992 -8.0204342e-08)
(0.00037401909 -0.011633703 -7.024083e-08)
(0.00029788386 -0.011477838 -6.0514953e-08)
(0.00022494149 -0.0112753 -5.0795007e-08)
(0.00015540282 -0.011037063 -4.0509436e-08)
(8.9264537e-05 -0.010728262 -2.8353558e-08)
(2.739237e-05 -0.01029267 -1.3787406e-08)
(0.0037772645 -0.001086054 -1.7597531e-07)
(0.0036788214 -0.0048207331 -3.5472145e-07)
(0.0035736649 -0.0061372561 -4.262886e-07)
(0.0033883074 -0.0093197874 -4.3061733e-07)
(0.0031886371 -0.012181412 -4.0887925e-07)
(0.0029572175 -0.014763006 -3.8079736e-07)
(0.0027095974 -0.016640954 -3.5182833e-07)
(0.002453171 -0.017704962 -3.2653807e-07)
(0.0022034404 -0.018081211 -3.0260254e-07)
(0.0019640914 -0.01803497 -2.7822542e-07)
(0.0017392525 -0.01767111 -2.5656213e-07)
(0.0015310126 -0.017101091 -2.3701811e-07)
(0.0013382491 -0.016379739 -2.2001573e-07)
(0.0011563612 -0.015524557 -2.0411061e-07)
(0.00098912231 -0.014598564 -1.8880084e-07)
(0.00083862362 -0.013647656 -1.74023e-07)
(0.00070434817 -0.01270588 -1.5969292e-07)
(0.0005850828 -0.011801104 -1.4567715e-07)
(0.00047927121 -0.010957264 -1.32041e-07)
(0.00038512829 -0.010188098 -1.1866332e-07)
(0.00030096902 -0.0095064195 -1.0541431e-07)
(0.00022513779 -0.0089182702 -9.2033635e-08)
(0.00015612638 -0.0084276536 -7.7874576e-08)
(9.2470561e-05 -0.0079824239 -6.1468274e-08)
(3.3025522e-05 -0.0076080403 -3.8380973e-08)
(0.011707368 -0.0087192501 -3.6490382e-07)
(0.0092464029 -0.02565716 -6.1689631e-07)
(0.0079745605 -0.028005144 -6.7058333e-07)
(0.0062420284 -0.032226147 -6.4804458e-07)
(0.0048368728 -0.029714624 -6.0391584e-07)
(0.0036196038 -0.025995275 -5.5552856e-07)
(0.0026067456 -0.021379244 -5.095573e-07)
(0.0018012798 -0.01651794 -4.6709468e-07)
(0.0011727342 -0.011632771 -4.3087916e-07)
(0.00068803682 -0.007085002 -3.9782663e-07)
(0.00032067055 -0.0029762317 -3.6792402e-07)
(5.1209268e-05 0.00057772331 -3.3983938e-07)
(-0.00013910687 0.0037113538 -3.1758997e-07)
(-0.00026659887 0.0067395044 -2.9637207e-07)
(-0.00034614256 0.0095485432 -2.7562617e-07)
(-0.00038701695 0.011999303 -2.5570678e-07)
(-0.00039770254 0.014043137 -2.3651668e-07)
(-0.00038523747 0.015691 -2.1791587e-07)
(-0.00035531949 0.016968233 -1.9981292e-07)
(-0.00031258811 0.017904236 -1.821108e-07)
(-0.00026084121 0.018526676 -1.6470634e-07)
(-0.00020332051 0.018868381 -1.4740141e-07)
(-0.00014235541 0.018927273 -1.2961417e-07)
(-8.0594873e-05 0.018796039 -1.1370232e-07)
(-1.8094566e-05 0.018100129 -9.8817728e-08)
(0.014331467 0.024227024 -7.5777434e-07)
(0.0033447348 -0.00051713967 -1.0573516e-06)
(0.00070666642 0.048959934 -1.050604e-06)
(-0.001073357 0.051792292 -9.7166701e-07)
(-0.0026424995 0.065932888 -8.928959e-07)
(-0.0038180741 0.076177747 -8.0594578e-07)
(-0.0044705633 0.083276501 -7.2803678e-07)
(-0.0046676173 0.089224201 -6.599279e-07)
(-0.0045827698 0.093605091 -6.0017145e-07)
(-0.0043561332 0.096330209 -5.4828516e-07)
(-0.0040582493 0.097845425 -5.0366845e-07)
(-0.003703704 0.098333266 -4.5651236e-07)
(-0.0033444299 0.098090408 -4.2889354e-07)
(-0.002998945 0.096955746 -3.9869399e-07)
(-0.0026499486 0.094891622 -3.6849062e-07)
(-0.0023105708 0.092496433 -3.4095336e-07)
(-0.0019905664 0.089896543 -3.1510294e-07)
(-0.0016913247 0.087178215 -2.9051972e-07)
(-0.0014128871 0.084413446 -2.6695993e-07)
(-0.0011541674 0.081660644 -2.4426083e-07)
(-0.00091334974 0.078953099 -2.2230529e-07)
(-0.00068832566 0.076340534 -2.0096339e-07)
(-0.00047649935 0.07376327 -1.801229e-07)
(-0.00027627544 0.071508067 -1.6023395e-07)
(-8.1614372e-05 0.067934568 -1.4087135e-07)
(-0.0015863736 1.1773576 -2.5105384e-06)
(-0.00083063237 0.963369 -1.9954885e-06)
(-0.0011034124 0.86722743 -1.6167802e-06)
(-0.00080221874 0.77435717 -1.3246124e-06)
(-0.00068305931 0.67819826 -1.1037886e-06)
(-0.00058446296 0.58692802 -9.4004425e-07)
(-0.00049351189 0.50866584 -8.1764106e-07)
(-0.0004157054 0.44507359 -7.2584221e-07)
(-0.00034719155 0.39263491 -6.5125806e-07)
(-0.00029050322 0.34790383 -5.9306195e-07)
(-0.00023996044 0.30930136 -5.4638636e-07)
(-0.00019775212 0.2760996 -5.041071e-07)
(-0.00016073544 0.2477246 -4.6754859e-07)
(-0.0001330485 0.22346687 -4.3460349e-07)
(-0.00010999547 0.20264686 -4.040652e-07)
(-9.0939839e-05 0.18478339 -3.7532758e-07)
(-7.4866082e-05 0.16945391 -3.4789347e-07)
(-6.0900815e-05 0.15629345 -3.2150051e-07)
(-4.9081587e-05 0.14499418 -2.9602471e-07)
(-3.8922937e-05 0.13530532 -2.7139702e-07)
(-3.0064348e-05 0.12699996 -2.4757889e-07)
(-2.2211449e-05 0.11995003 -2.2447002e-07)
(-1.5116628e-05 0.11384279 -2.0220561e-07)
(-8.6300016e-06 0.10914669 -1.8087794e-07)
(-2.4406863e-06 0.10296975 -1.5788534e-07)
(-0.012733008 0.092974595 -1.1845027e-06)
(-0.0022925292 0.1005776 -1.2166549e-06)
(-1.1842201e-05 0.10602805 -1.1655301e-06)
(0.0015816639 0.1073953 -1.0721434e-06)
(0.0030148047 0.10920192 -9.6840036e-07)
(0.0040884856 0.11065439 -8.6773027e-07)
(0.0046709999 0.11214447 -7.7768574e-07)
(0.0048163863 0.11356531 -6.9971275e-07)
(0.0046715463 0.11426145 -6.1599278e-07)
(0.0044051617 0.114236 -5.7148265e-07)
(0.0041077515 0.1134923 -5.2728469e-07)
(0.0037674667 0.11187246 -4.8091188e-07)
(0.0033928292 0.10946687 -4.4139152e-07)
(0.0030205924 0.10650216 -4.0661788e-07)
(0.0026612298 0.10326921 -3.7529057e-07)
(0.0023198001 0.099905076 -3.4650554e-07)
(0.0019987681 0.096493876 -3.1965701e-07)
(0.0016993338 0.093100983 -2.9432584e-07)
(0.0014196782 0.089777039 -2.7021249e-07)
(0.0011595596 0.086560917 -2.4709565e-07)
(0.00091742502 0.083470726 -2.2478873e-07)
(0.00069133606 0.080543554 -2.0301867e-07)
(0.00047871882 0.077708992 -1.8248436e-07)
(0.00027783373 0.075262619 -1.6224542e-07)
(8.2472867e-05 0.071461367 -1.4225657e-07)
(-0.0092239453 -0.040584218 -7.2906922e-07)
(-0.0077237277 -0.038156102 -7.8763268e-07)
(-0.0063194857 -0.036345172 -7.7247786e-07)
(-0.0049692208 -0.032926079 -7.2712887e-07)
(-0.0037359415 -0.028093275 -6.7088659e-07)
(-0.002670374 -0.022629162 -6.1165494e-07)
(-0.0017922117 -0.017005762 -5.5768242e-07)
(-0.0011003073 -0.011478424 -5.0854561e-07)
(-0.00057189866 -0.006526386 -4.6251795e-07)
(-0.00017160922 -0.0021172783 -4.2802824e-07)
(0.00012056242 0.0016603984 -3.9582654e-07)
(0.00032614103 0.0052496584 -3.6540929e-07)
(0.0004588903 0.0086809954 -3.3763581e-07)
(0.00053912155 0.011781128 -3.1218329e-07)
(0.00057754476 0.014453572 -2.8860906e-07)
(0.00058283017 0.016687485 -2.6647733e-07)
(0.00056233384 0.018502532 -2.4555476e-07)
(0.00052165736 0.019933538 -2.255802e-07)
(0.00046789358 0.021019991 -2.0635254e-07)
(0.0004040392 0.021788928 -1.8769229e-07)
(0.00033311509 0.022261664 -1.693428e-07)
(0.0002574946 0.0224587 -1.506036e-07)
(0.00017990005 0.022398361 -1.3473513e-07)
(0.00010240223 0.022138603 -1.1667375e-07)
(2.4710296e-05 0.021280264 -1.0077743e-07)
(-0.0046439074 -0.016227935 -4.1132044e-07)
(-0.0043407916 -0.018543677 -4.7665642e-07)
(-0.004047656 -0.021145169 -4.86459e-07)
(-0.0037443448 -0.023070559 -4.691277e-07)
(-0.0034139657 -0.024319206 -4.4163222e-07)
(-0.0030772273 -0.024779364 -4.1377269e-07)
(-0.002753493 -0.02461942 -3.7904873e-07)
(-0.0024435315 -0.024022563 -3.4697001e-07)
(-0.0021531156 -0.023164486 -3.1809717e-07)
(-0.0018911687 -0.022102311 -2.9371935e-07)
(-0.0016526013 -0.020922218 -2.7144943e-07)
(-0.0014313262 -0.019618368 -2.5073139e-07)
(-0.0012265406 -0.018245607 -2.315328e-07)
(-0.0010441733 -0.016858157 -2.1366841e-07)
(-0.00088330944 -0.015490621 -1.9693264e-07)
(-0.00074204453 -0.014174073 -1.8083909e-07)
(-0.00061854897 -0.012934245 -1.6560739e-07)
(-0.0005113039 -0.011795065 -1.5093912e-07)
(-0.00041622048 -0.010778629 -1.3668391e-07)
(-0.0003324423 -0.009888803 -1.2272367e-07)
(-0.00025847301 -0.0091233171 -1.0889297e-07)
(-0.0001927329 -0.0084804339 -9.4951414e-08)
(-0.00013371782 -0.0079533604 -8.086988e-08)
(-7.9840954e-05 -0.0074915373 -6.3591262e-08)
(-2.9648157e-05 -0.0071228645 -3.9686026e-08)
(-0.0013781578 -0.0045533357 -2.3924557e-07)
(-0.001389423 -0.0052976516 -2.9374145e-07)
(-0.0014310596 -0.0060959743 -3.114979e-07)
(-0.001478209 -0.0068611311 -3.0781429e-07)
(-0.0015157356 -0.0076750305 -2.933149e-07)
(-0.0015223745 -0.0087002619 -2.7410621e-07)
(-0.0015016709 -0.0098610053 -2.5174711e-07)
(-0.0014545785 -0.010899046 -2.3007815e-07)
(-0.0013865287 -0.011787749 -2.1039453e-07)
(-0.0013051819 -0.012518804 -1.9298672e-07)
(-0.0012153895 -0.013107349 -1.7715674e-07)
(-0.0011211557 -0.013557944 -1.625165e-07)
(-0.0010242977 -0.013884651 -1.4888656e-07)
(-0.00092582783 -0.014094587 -1.3612185e-07)
(-0.0008273696 -0.014174044 -1.2446574e-07)
(-0.0007321191 -0.014141188 -1.1322794e-07)
(-0.0006395041 -0.014027137 -1.0225369e-07)
(-0.00054972846 -0.013855846 -9.1625399e-08)
(-0.00046441496 -0.013639818 -8.1324373e-08)
(-0.00038279662 -0.013387254 -7.1329993e-08)
(-0.00030473625 -0.013104515 -6.1520861e-08)
(-0.00023017579 -0.012798967 -5.1675696e-08)
(-0.00015907027 -0.012475371 -4.1295497e-08)
(-9.1403726e-05 -0.012086722 -2.8742592e-08)
(-2.8232207e-05 -0.011583482 -1.3997538e-08)
(-0.00024966176 -0.0012312141 -1.4159193e-07)
(-0.00020095462 -0.0014578182 -1.7865745e-07)
(-0.00018947936 -0.0017435823 -1.9426558e-07)
(-0.00021353732 -0.0020675601 -1.9537536e-07)
(-0.00026803795 -0.0024021376 -1.8799683e-07)
(-0.0003280784 -0.002760597 -1.7618107e-07)
(-0.00038142917 -0.0031508062 -1.6216153e-07)
(-0.00042083955 -0.0035345695 -1.479607e-07)
(-0.00044414101 -0.0039037465 -1.3461619e-07)
(-0.00045273558 -0.0042476138 -1.2244758e-07)
(-0.00044898493 -0.0045620492 -1.1129386e-07)
(-0.00043598535 -0.0048444264 -1.00969e-07)
(-0.00041639691 -0.0050955939 -9.1349926e-08)
(-0.00039111778 -0.0053209411 -8.2347336e-08)
(-0.00036254392 -0.0055405667 -7.3956613e-08)
(-0.00033023993 -0.0057532158 -6.5980354e-08)
(-0.00029568365 -0.0059322047 -5.8320835e-08)
(-0.00025964965 -0.006067185 -5.0983519e-08)
(-0.00022313031 -0.0061554422 -4.3970625e-08)
(-0.00018654584 -0.0061963226 -3.7422714e-08)
(-0.000150224 -0.0061920419 -3.118229e-08)
(-0.00011444205 -0.0061463257 -2.5093982e-08)
(-7.9454021e-05 -0.0060658412 -1.8960018e-08)
(-4.5370374e-05 -0.0059322484 -1.2169899e-08)
(-1.2915748e-05 -0.0056686134 -5.0024543e-09)
(-9.7091029e-05 -0.00012551171 -8.4288561e-08)
(-1.3443477e-05 -5.7125768e-05 -1.0629434e-07)
(3.962009e-05 -1.6657956e-05 -1.1677918e-07)
(6.7317084e-05 -1.6374617e-05 -1.1850122e-07)
(7.9054633e-05 -5.9054947e-05 -1.1457081e-07)
(7.1987064e-05 -0.00012543231 -1.074256e-07)
(5.3965264e-05 -0.00020745356 -9.8706454e-08)
(3.0035269e-05 -0.00030164472 -8.9627803e-08)
(5.6871637e-06 -0.00040503145 -8.0891367e-08)
(-1.5878002e-05 -0.00051357726 -7.2776637e-08)
(-3.2746332e-05 -0.00062070807 -6.5292049e-08)
(-4.5203154e-05 -0.00072132527 -5.8368289e-08)
(-5.2896071e-05 -0.00081336901 -5.1938623e-08)
(-5.8570297e-05 -0.00089732037 -4.5951583e-08)
(-6.2206661e-05 -0.00097218828 -4.0376289e-08)
(-6.1544431e-05 -0.0010369101 -3.5155022e-08)
(-5.8585144e-05 -0.0010908758 -3.0247997e-08)
(-5.4007837e-05 -0.0011329649 -2.5657754e-08)
(-4.8339365e-05 -0.0011635374 -2.140686e-08)
(-4.1800459e-05 -0.0011829436 -1.7546301e-08)
(-3.4640395e-05 -0.0011916441 -1.4047651e-08)