/*--------------------------------*- C++ -*----------------------------------*\
| =========                 |                                                 |
| \\      /  F ield         | OpenFOAM: The Open Source CFD Toolbox           |
|  \\    /   O peration     | Version:  4.0                                   |
|   \\  /    A nd           | Web:      www.OpenFOAM.org                      |
|    \\/     M anipulation  |                                                 |
\*---------------------------------------------------------------------------*/
FoamFile
{
    version     2.0;
    format      ascii;
    class       volScalarField;
    location    "0.42";
    object      k;
}
// * * * * * * * * * * * * * * * * * * * * * * * * * * * * * * * * * * * * * //

dimensions      [0 2 -2 0 0 0 0];

internalField   nonuniform List<scalar> 
1740
(
0.0085656772
0.0091271068
0.018386764
0.0091219704
0.010032514
0.027326831
0.0095384953
0.010657967
0.034292167
0.0098428589
0.010803926
0.041249645
0.0099976966
0.01096108
0.047018812
0.010080447
0.011191673
0.051734871
0.010111963
0.011779573
0.056017417
0.010180523
0.012166321
0.059095088
0.010186826
0.012541975
0.061669515
0.01015143
0.012986529
0.063702546
0.010077076
0.012921213
0.065412242
0.010001516
0.012908355
0.066899902
0.0098956174
0.013229842
0.068308194
0.0097760319
0.013422113
0.069828466
0.0096691356
0.013917052
0.070388889
0.0096060033
0.013892605
0.07079897
0.0095049767
0.0138399
0.071455609
0.0093449365
0.013959004
0.072057109
0.0091973188
0.01398853
0.072094701
0.009128148
0.013979099
0.072770973
0.009066659
0.014333963
0.073525823
0.0089366192
0.014761659
0.072993262
0.008775458
0.014523297
0.073044194
0.0086929023
0.014576337
0.073311897
0.0086502646
0.015127442
0.073197874
0.0085784697
0.015207053
0.072694808
0.0085088168
0.015183209
0.072202256
0.008431706
0.015112651
0.071827513
0.0083718867
0.014956106
0.071097172
0.0089316442
0.015973012
0.066070263
0.012645877
0.017908451
0.046878742
0.02388344
0.031094187
0.039724944
0.010273905
0.01252564
0.013716331
0.004269619
0.0045990985
0.0046623508
0.0020767676
0.0021184915
0.0020921597
0.0011417579
0.0011425099
0.0011241424
0.00068860178
0.0006859981
0.00067777261
0.00044502463
0.00044361798
0.00044072797
0.00030206048
0.00030164251
0.00030109798
0.00021162095
0.00021166404
0.00021199397
0.00015072066
0.00015091725
0.00015147218
0.00010770844
0.00010791912
0.00010844178
7.6396892e-05
7.6570026e-05
7.6978503e-05
5.3332297e-05
5.3456779e-05
5.3743222e-05
3.6435662e-05
3.6517002e-05
3.6701658e-05
2.43015e-05
2.4350428e-05
2.4460651e-05
1.5847035e-05
1.587423e-05
1.5935207e-05
1.0165715e-05
1.017965e-05
1.0210846e-05
6.492611e-06
6.4991787e-06
6.5139313e-06
4.2123367e-06
4.2152537e-06
4.2218255e-06
2.8545194e-06
2.8558219e-06
2.8587522e-06
2.0807626e-06
2.0814431e-06
2.0829692e-06
1.6630493e-06
1.6635515e-06
1.6646697e-06
1.4551535e-06
1.4556428e-06
1.4567252e-06
1.3670351e-06
1.367552e-06
1.3686916e-06
1.3452309e-06
1.3457694e-06
1.3469545e-06
1.3590321e-06
1.3595749e-06
1.3607679e-06
1.3913323e-06
1.3918635e-06
1.39303e-06
1.4328626e-06
1.4333715e-06
1.4344881e-06
1.4787132e-06
1.4791937e-06
1.4802475e-06
1.5263102e-06
1.5267597e-06
1.5277448e-06
1.5742763e-06
1.5746941e-06
1.5756093e-06
1.6218045e-06
1.6221912e-06
1.623038e-06
1.6683154e-06
1.6686721e-06
1.6694532e-06
1.7132592e-06
1.7135875e-06
1.7143062e-06
1.7559834e-06
1.756285e-06
1.7569449e-06
1.7956182e-06
1.7958946e-06
1.7964994e-06
1.8309521e-06
1.8312051e-06
1.8317585e-06
1.8602824e-06
1.8605136e-06
1.8610193e-06
1.8812334e-06
1.8814446e-06
1.8819064e-06
1.890546e-06
1.8907387e-06
1.8911602e-06
1.883855e-06
1.8840309e-06
1.8844156e-06
1.8554938e-06
1.8556544e-06
1.8560055e-06
1.7983966e-06
1.7985432e-06
1.7988635e-06
1.704219e-06
1.7043524e-06
1.7046437e-06
1.5638477e-06
1.5639673e-06
1.5642287e-06
1.3685069e-06
1.3686075e-06
1.3688297e-06
1.1115831e-06
1.1116485e-06
1.1118023e-06
7.9138232e-07
7.9138535e-07
7.9142186e-07
4.1374547e-07
4.1369443e-07
4.1362321e-07
0.055959888
0.060751898
0.046091218
0.046585736
0.012469788
0.011339506
0.0043531817
0.0041172929
0.001999298
0.001938947
0.0010937829
0.0010778639
0.000668354
0.00066594583
0.00043865217
0.00044029184
0.00030152103
0.00030405677
0.00021310938
0.00021548986
0.00015260657
0.00015452689
0.00010937179
0.00011079949
7.7662035e-05
7.8660418e-05
5.4207539e-05
5.486674e-05
3.6995654e-05
3.7406027e-05
2.4634313e-05
2.4874203e-05
1.6030737e-05
1.6161901e-05
1.0259634e-05
1.0326452e-05
6.5370422e-06
6.5687249e-06
4.2321474e-06
4.2463362e-06
2.863362e-06
2.8697114e-06
2.0853648e-06
2.0886558e-06
1.6664056e-06
1.6687669e-06
1.4583855e-06
1.4606204e-06
1.3704271e-06
1.3727477e-06
1.3487527e-06
1.351148e-06
1.3625739e-06
1.3649742e-06
1.3947933e-06
1.3971331e-06
1.4361743e-06
1.4384088e-06
1.4818373e-06
1.4839419e-06
1.5292299e-06
1.5311943e-06
1.5769883e-06
1.5788111e-06
1.6243132e-06
1.6259978e-06
1.670629e-06
1.6721813e-06
1.7153876e-06
1.7168147e-06
1.7579374e-06
1.7592467e-06
1.7974088e-06
1.7986078e-06
1.8325904e-06
1.8336868e-06
1.8617794e-06
1.8627807e-06
1.8826002e-06
1.8835139e-06
1.8917933e-06
1.8926265e-06
1.8849931e-06
1.8857527e-06
1.8565322e-06
1.8572247e-06
1.7993437e-06
1.7999743e-06
1.7050804e-06
1.7056529e-06
1.5646215e-06
1.5651358e-06
1.3691703e-06
1.3696176e-06
1.1120654e-06
1.1124178e-06
7.9156231e-07
7.9175004e-07
4.1362207e-07
4.1353928e-07
5.2033049e-06
2.7051055e-05
0.000134478
0.00030510914
0.00046242269
0.00057342195
0.00064372182
0.0006873135
0.00071598725
0.00073688268
0.00075404733
0.00077052035
0.00078593083
0.00080004479
0.00081255292
0.00082290681
0.00083012585
0.00083254976
0.00082746978
0.00081061752
0.00077545726
0.00071232411
0.00060776101
0.00044478923
0.00020300099
2.5694559e-06
5.473283e-05
0.00025097905
0.00051585542
0.00072783212
0.00085937199
0.00093530423
0.00097977819
0.0010082396
0.0010287311
0.001045504
0.0010611033
0.0010753803
0.0010880724
0.0010987842
0.0011068936
0.0011112723
0.0011100119
0.0010999236
0.0010758978
0.0010299549
0.00094985975
0.00081738213
0.00060704049
0.00028753566
7.9673732e-06
0.00015978837
0.00061536925
0.0010788407
0.0013617386
0.0015044621
0.0015719281
0.0016035124
0.0016191896
0.0016274254
0.0016325996
0.0016356183
0.0016377082
0.0016382115
0.0016366336
0.0016325
0.0016247556
0.0016116123
0.0015896633
0.0015533278
0.0014936052
0.0013958134
0.0012352974
0.00096919015
0.00052191838
3.7549002e-05
0.0005783419
0.001683137
0.0024333563
0.0027698909
0.0028837667
0.002893262
0.0028632308
0.0028233733
0.0027786672
0.002734183
0.0026918028
0.0026520178
0.0026116462
0.0025701575
0.0025279508
0.002484526
0.0024384627
0.0023870236
0.0023254487
0.0022458526
0.0021349852
0.0019685676
0.0016937231
0.0011536154
0.00028084909
0.0024427016
0.0049063233
0.0060255972
0.0063714832
0.0063102254
0.0060816609
0.0058195495
0.005570567
0.005320476
0.0050809034
0.0048572869
0.0046543904
0.0044576739
0.0042666337
0.0040859356
0.0039164805
0.0037576926
0.0036077694
0.0034632297
0.0033184348
0.003165166
0.0029924403
0.0027919273
0.0025819713
0.00235794
0.010509642
0.016547708
0.018494622
0.018036174
0.016483408
0.014672028
0.012986979
0.011508087
0.010233974
0.0091443245
0.0082166631
0.0074255987
0.0067472993
0.0061640964
0.0056626772
0.0052316636
0.0048607418
0.0045405237
0.0042621995
0.00401695
0.0037958359
0.0035902959
0.0033996604
0.0032393797
0.044935521
0.034089491
0.026582274
0.021406918
0.017743968
0.01503735
0.01295028
0.011296969
0.0099684535
0.0088885718
0.0079994898
0.0072573917
0.0066292708
0.0060906015
0.0056233536
0.0052149098
0.0048565509
0.0045417558
0.00426505
0.0040212283
0.0038047408
0.003609652
0.0034302761
0.0032679947
0.0031379855
0.037238346
0.030941566
0.027734975
0.025102365
0.022231161
0.019260563
0.016547218
0.014252824
0.012375191
0.01083699
0.0095687483
0.0085138838
0.0076290715
0.006884485
0.00625634
0.0057251514
0.0052746027
0.0048910035
0.004562638
0.0042790096
0.0040300872
0.0038061219
0.0035979865
0.0034048468
0.0032425162
0.010202105
0.0095287111
0.0091886941
0.0088689342
0.0084078506
0.0078446392
0.0072893348
0.0067941051
0.0063441456
0.0059468749
0.0055994239
0.0052956821
0.0050104719
0.0047468436
0.0045062098
0.0042878536
0.0040896769
0.0039087747
0.0037412887
0.0035822071
0.0034248336
0.0032602469
0.0030769945
0.0028665086
0.0026472458
0.0039594866
0.0038867637
0.0038645107
0.0038240329
0.0037300515
0.0035955696
0.0034564111
0.0033273942
0.0032110882
0.0031096318
0.003022072
0.0029452773
0.00287368
0.0028067159
0.0027442092
0.0026853373
0.0026284365
0.0025709234
0.0025090424
0.0024373213
0.0023474782
0.002226135
0.0020489873
0.0017624146
0.0012043019
0.0019213568
0.0019347774
0.0019598949
0.0019747114
0.00196829
0.0019441623
0.0019132581
0.0018825415
0.0018550955
0.0018322313
0.001813744
0.0017983875
0.0017845047
0.0017714468
0.001758858
0.0017455388
0.0017296273
0.0017083506
0.0016776688
0.0016316394
0.0015612439
0.0014521459
0.001280222
0.0010027019
0.00054253423
0.0010817703
0.0010999828
0.0011234928
0.0011434376
0.001155273
0.0011597576
0.0011604846
0.001160436
0.0011613456
0.0011639648
0.0011682588
0.0011736694
0.0011794261
0.0011848631
0.0011892402
0.0011913658
0.0011894391
0.0011808539
0.0011619098
0.0011273478
0.0010696036
0.0009776314
0.00083519992
0.00061908743
0.00029899411
0.00067292075
0.00068696645
0.00070402071
0.00072023245
0.00073345926
0.00074365234
0.00075202086
0.00075987122
0.00076809775
0.00077713156
0.00078699046
0.00079738724
0.00080785519
0.00081781999
0.00082651042
0.00083280335
0.0008351034
0.00083119926
0.00081808677
0.00079173811
0.00074682155
0.00067642119
0.00057188743
0.00042271271
0.00021214122
0.00044663373
0.00045671984
0.00046869898
0.00048077281
0.00049185239
0.00050173904
0.00051082657
0.00051967407
0.00052872459
0.00053820835
0.00054813133
0.00055831034
0.00056840922
0.00057794801
0.00058625398
0.00059238012
0.00059502659
0.0005924609
0.00058244469
0.00056219161
0.00052843132
0.00047778471
0.00040802028
0.00032182756
0.00023608114
0.00030911369
0.00031626819
0.00032466034
0.00033341223
0.00034194207
0.00035006419
0.00035788977
0.00036564596
0.00037353795
0.00038167483
0.00039004161
0.0003984995
0.00040679008
0.00041452393
0.00042114982
0.00042590954
0.00042779444
0.00042551203
0.00041748144
0.00040189354
0.00037692037
0.00034126227
0.0002954552
0.00024479442
0.00020471779
0.00021930643
0.00022435962
0.00023023328
0.00023648343
0.00024278959
0.00024901216
0.00025516112
0.00026132011
0.00026757404
0.00027396368
0.00028045881
0.00028694661
0.00029322391
0.0002989836
0.00030379319
0.0003070697
0.00030805878
0.00030582825
0.00029929246
0.00028729548
0.00026880473
0.00024330655
0.0002115603
0.00017691491
0.00014451222
0.00015730382
0.00016083754
0.00016491764
0.00016931113
0.00017383569
0.00017839362
0.00018296307
0.00018756567
0.00019222936
0.00019695923
0.00020171865
0.00020641593
0.00021089416
0.00021491876
0.00021816358
0.00022019663
0.0002204715
0.00021833113
0.00021303393
0.00020381385
0.00018998461
0.0001710746
0.00014687188
0.000116816
7.5353932e-05
0.00011275224
0.00011517692
0.00011796254
0.00012098243
0.00012413
0.00012733811
0.00013057878
0.00013384868
0.00013714991
0.00014047226
0.00014378009
0.00014700149
0.0001500192
0.00015266131
0.00015469184
0.00015580268
0.00015561014
0.0001536598
0.00014944337
0.00014242836
0.00013209049
0.00011790804
9.9193823e-05
7.4443194e-05
3.9565984e-05
7.998276e-05
8.1598891e-05
8.344826e-05
8.5459825e-05
8.7569622e-05
8.973241e-05
9.1922903e-05
9.4129242e-05
9.6343424e-05
9.8550724e-05
0.00010072094
0.00010280061
0.00010470615
0.00010631738
0.00010747119
0.00010795691
0.00010751434
0.00010583648
0.00010257712
9.7360752e-05
8.9784406e-05
7.9387873e-05
6.5550328e-05
4.7275868e-05
2.2994113e-05
5.572346e-05
5.6759387e-05
5.7940426e-05
5.9225992e-05
6.0577209e-05
6.1963864e-05
6.3365806e-05
6.4770355e-05
6.6166971e-05
6.7541639e-05
6.8871177e-05
7.0118142e-05
7.122616e-05
7.2115556e-05
7.2679342e-05
7.2780147e-05
7.2248675e-05
7.0884174e-05
6.8456397e-05
6.4707004e-05
5.9346093e-05
5.2039661e-05
4.2394626e-05
3.0001514e-05
1.4670156e-05
3.7932896e-05
3.8565189e-05
3.9283517e-05
4.0064044e-05
4.0883272e-05
4.172142e-05
4.2563581e-05
4.3398957e-05
4.4218214e-05
4.5010056e-05
4.5758104e-05
4.6437753e-05
4.7013128e-05
4.7434377e-05
4.7635122e-05
4.753035e-05
4.7014974e-05
4.5963008e-05
4.4227063e-05
4.1637467e-05
3.8001344e-05
3.3106211e-05
2.6745635e-05
1.8815108e-05
9.5628335e-06
2.5179622e-05
2.5544176e-05
2.5956518e-05
2.640287e-05
2.6868976e-05
2.7342269e-05
2.7812457e-05
2.8271431e-05
2.8712016e-05
2.9126168e-05
2.9503228e-05
2.9827927e-05
3.0078757e-05
3.0226287e-05
3.0231565e-05
3.0044649e-05
2.9603317e-05
2.883186e-05
2.7639895e-05
2.5921559e-05
2.355691e-05
2.0421336e-05
1.6415722e-05
1.1536817e-05
5.9907934e-06
1.6327908e-05
1.6525118e-05
1.6747059e-05
1.6985744e-05
1.7232785e-05
1.7480339e-05
1.7721756e-05
1.7951471e-05
1.816453e-05
1.835567e-05
1.851833e-05
1.8643639e-05
1.8719411e-05
1.8729109e-05
1.8650965e-05
1.8456906e-05
1.8111507e-05
1.7570889e-05
1.6781661e-05
1.5680545e-05
1.4196523e-05
1.2259543e-05
9.8223691e-06
6.8998944e-06
3.6220136e-06
1.041072e-05
1.0510371e-05
1.0621876e-05
1.0740676e-05
1.0861899e-05
1.0980906e-05
1.1093542e-05
1.1196276e-05
1.1285929e-05
1.1359271e-05
1.1412482e-05
1.1440626e-05
1.1437061e-05
1.1392861e-05
1.1296209e-05
1.1131729e-05
1.0879655e-05
1.0515043e-05
1.0006985e-05
9.318551e-06
8.408729e-06
7.2385924e-06
5.7845814e-06
4.0590816e-06
2.1331871e-06
6.6086132e-06
6.6555925e-06
6.7077618e-06
6.7626126e-06
6.8174121e-06
6.8694804e-06
6.916386e-06
6.956e-06
6.9864018e-06
7.0056987e-06
7.0117457e-06
7.0018509e-06
6.9724475e-06
6.9187352e-06
6.8342573e-06
6.7104128e-06
6.5359768e-06
6.2966383e-06
5.9744079e-06
5.5476067e-06
4.992415e-06
4.2867766e-06
3.4177906e-06
2.3918334e-06
1.2473327e-06
4.2641827e-06
4.2851012e-06
4.3080774e-06
4.3317855e-06
4.354724e-06
4.3754032e-06
4.3924408e-06
4.4046066e-06
4.4107897e-06
4.4098901e-06
4.4006951e-06
4.3817045e-06
4.3509332e-06
4.3056789e-06
4.242253e-06
4.1556204e-06
4.0390528e-06
3.8835808e-06
3.6780904e-06
3.4093438e-06
3.062901e-06
2.625615e-06
2.0898537e-06
1.4590126e-06
7.5918208e-07
2.877693e-06
2.887001e-06
2.8971061e-06
2.907305e-06
2.9168e-06
2.9247686e-06
2.9304352e-06
2.9330918e-06
2.9320808e-06
2.9267461e-06
2.9163485e-06
2.8999629e-06
2.8763492e-06
2.8437889e-06
2.7998939e-06
2.7413674e-06
2.6637129e-06
2.5608867e-06
2.4251669e-06
2.2476353e-06
2.0187244e-06
1.7298576e-06
1.3760963e-06
9.5953868e-07
4.9755616e-07
2.0927894e-06
2.0976044e-06
2.102824e-06
2.1080746e-06
2.1129233e-06
2.1169188e-06
2.1196136e-06
2.1205843e-06
2.1194163e-06
2.1156714e-06
2.1088334e-06
2.0982312e-06
2.0829408e-06
2.0616584e-06
2.0325464e-06
1.9930516e-06
1.9396973e-06
1.8679094e-06
1.7718067e-06
1.644504e-06
1.4788284e-06
1.2684601e-06
1.0098434e-06
7.0462156e-07
3.6525529e-07
1.6717225e-06
1.675183e-06
1.6789968e-06
1.6829573e-06
1.6868192e-06
1.6903187e-06
1.6931828e-06
1.6951329e-06
1.695876e-06
1.6950749e-06
1.6923064e-06
1.6869981e-06
1.6783442e-06
1.6651979e-06
1.6459365e-06
1.6183071e-06
1.5792577e-06
1.5248057e-06
1.4499712e-06
1.3488585e-06
1.2154011e-06
1.0443266e-06
8.3271889e-07
5.8199537e-07
3.0239156e-07
1.4634055e-06
1.4666844e-06
1.4703649e-06
1.4743214e-06
1.4784012e-06
1.4824328e-06
1.4862297e-06
1.4895852e-06
1.4922619e-06
1.4939666e-06
1.4943099e-06
1.4927499e-06
1.4885142e-06
1.4804989e-06
1.4671443e-06
1.4462927e-06
1.4150409e-06
1.3696249e-06
1.3053939e-06
1.2169089e-06
1.0985657e-06
9.4552831e-07
7.5512482e-07
5.2859838e-07
2.7520192e-07
1.3756302e-06
1.3790319e-06
1.3828874e-06
1.3871089e-06
1.3915881e-06
1.3961983e-06
1.4007937e-06
1.4052023e-06
1.4092121e-06
1.4125465e-06
1.4148258e-06
1.4155114e-06
1.4138304e-06
1.408676e-06
1.3984873e-06
1.3811109e-06
1.3536632e-06
1.3124227e-06
1.2528176e-06
1.1695568e-06
1.0571828e-06
9.1100189e-07
7.2844102e-07
5.1079003e-07
2.6800468e-07
1.3541164e-06
1.3576204e-06
1.3616064e-06
1.3660041e-06
1.3707262e-06
1.3756678e-06
1.3807028e-06
1.3856758e-06
1.3903862e-06
1.3945637e-06
1.3978287e-06
1.3996368e-06
1.3992023e-06
1.3953991e-06
1.3866388e-06
1.3707345e-06
1.3447643e-06
1.3049686e-06
1.2467413e-06
1.1647815e-06
1.0536187e-06
9.0854675e-07
7.2699517e-07
5.1033305e-07
2.6854629e-07
1.3679436e-06
1.3714465e-06
1.3754347e-06
1.3798461e-06
1.3846042e-06
1.3896151e-06
1.3947635e-06
1.3999023e-06
1.4048369e-06
1.409299e-06
1.4129061e-06
1.4151054e-06
1.4150953e-06
1.4117241e-06
1.4033674e-06
1.3877888e-06
1.3620037e-06
1.3221777e-06
1.2636188e-06
1.1809415e-06
1.0685822e-06
9.2174026e-07
7.3778434e-07
5.1817207e-07
2.7320592e-07
1.4000234e-06
1.4034296e-06
1.4073064e-06
1.4115966e-06
1.4162296e-06
1.4211183e-06
1.4261538e-06
1.4311944e-06
1.4360492e-06
1.4404501e-06
1.4440114e-06
1.4461711e-06
1.4461109e-06
1.4426524e-06
1.4341315e-06
1.4182569e-06
1.3919712e-06
1.3513487e-06
1.2915893e-06
1.2071885e-06
1.0924515e-06
9.4243971e-07
7.5441368e-07
5.2994025e-07
2.8021928e-07
1.4411657e-06
1.4444112e-06
1.4481023e-06
1.452185e-06
1.4565931e-06
1.4612444e-06
1.4660344e-06
1.4708256e-06
1.4754296e-06
1.4795784e-06
1.4828825e-06
1.4847709e-06
1.4844083e-06
1.4805895e-06
1.4716098e-06
1.4551208e-06
1.4279883e-06
1.3861885e-06
1.3248035e-06
1.238195e-06
1.1205197e-06
9.6667943e-07
7.7376131e-07
5.4309321e-07
2.8591179e-07
1.4865357e-06
1.4895862e-06
1.4930522e-06
1.4968829e-06
1.5010153e-06
1.5053712e-06
1.5098502e-06
1.514318e-06
1.5185881e-06
1.5223921e-06
1.5253368e-06
1.5268418e-06
1.5260554e-06
1.5217451e-06
1.5121657e-06
1.4949106e-06
1.4667675e-06
1.4236121e-06
1.360404e-06
1.2713643e-06
1.150495e-06
9.9253801e-07
7.9443866e-07
5.5741264e-07
2.9286793e-07
1.5336131e-06
1.5364551e-06
1.5396812e-06
1.5432431e-06
1.5470813e-06
1.5511208e-06
1.5552647e-06
1.5593814e-06
1.5632861e-06
1.5667096e-06
1.5692546e-06
1.5703314e-06
1.5690715e-06
1.5642154e-06
1.5539772e-06
1.5358923e-06
1.5066697e-06
1.4620836e-06
1.3969692e-06
1.3054045e-06
1.1812338e-06
1.0190398e-06
8.1562501e-07
5.7204707e-07
2.9983661e-07
1.5810537e-06
1.5836864e-06
1.5866722e-06
1.5899653e-06
1.5935092e-06
1.597232e-06
1.6010398e-06
1.6048034e-06
1.6083389e-06
1.6113764e-06
1.6135141e-06
1.6141528e-06
1.612407e-06
1.6069903e-06
1.5960762e-06
1.5771423e-06
1.5468192e-06
1.5007796e-06
1.4337337e-06
1.3396152e-06
1.2121086e-06
1.0456344e-06
8.3686028e-07
5.8681132e-07
3.0850598e-07
1.628069e-06
1.6304985e-06
1.6332514e-06
1.6362843e-06
1.6395434e-06
1.6429598e-06
1.646442e-06
1.6498629e-06
1.6530395e-06
1.6557004e-06
1.6574391e-06
1.6576467e-06
1.6554207e-06
1.6494479e-06
1.6378614e-06
1.6180814e-06
1.5866609e-06
1.539172e-06
1.4702008e-06
1.3735371e-06
1.242707e-06
1.0719703e-06
8.5786201e-07
6.0138612e-07
3.1470333e-07
1.6740886e-06
1.6763243e-06
1.6788553e-06
1.6816406e-06
1.6846289e-06
1.6877538e-06
1.6909262e-06
1.6940207e-06
1.6968545e-06
1.6991547e-06
1.7005099e-06
1.7003011e-06
1.697609e-06
1.6910935e-06
1.6788478e-06
1.6582359e-06
1.625734e-06
1.5768157e-06
1.505945e-06
1.4067707e-06
1.2726649e-06
1.0977338e-06
8.7838954e-07
6.1568454e-07
3.2275083e-07
1.7185671e-06
1.7206198e-06
1.7229415e-06
1.7254933e-06
1.7282264e-06
1.7310766e-06
1.7339568e-06
1.736743e-06
1.7392525e-06
1.7412105e-06
1.7422003e-06
1.741593e-06
1.7384523e-06
1.7314116e-06
1.718525e-06
1.6971013e-06
1.6635424e-06
1.6132258e-06
1.540498e-06
1.4388721e-06
1.301574e-06
1.1225707e-06
8.9817448e-07
6.2944689e-07
3.2992374e-07
1.7608536e-06
1.7627344e-06
1.7648598e-06
1.7671928e-06
1.7696866e-06
1.7722793e-06
1.7748854e-06
1.777382e-06
1.7795864e-06
1.7812213e-06
1.7818648e-06
1.7808779e-06
1.7773075e-06
1.7697612e-06
1.756255e-06
1.7340445e-06
1.6994602e-06
1.6477884e-06
1.5732645e-06
1.4692749e-06
1.3289116e-06
1.1460191e-06
9.1683172e-07
6.4243282e-07
3.3664911e-07
1.8000786e-06
1.801799e-06
1.803741e-06
1.8058698e-06
1.8081403e-06
1.8104925e-06
1.8128424e-06
1.8150681e-06
1.8169862e-06
1.8183172e-06
1.8186336e-06
1.8172864e-06
1.8133064e-06
1.8052757e-06
1.7911742e-06
1.7682072e-06
1.7326384e-06
1.6796699e-06
1.603436e-06
1.4972102e-06
1.3539675e-06
1.1674479e-06
9.3382656e-07
6.5426814e-07
3.4302038e-07
1.8350309e-06
1.836602e-06
1.8383735e-06
1.8403124e-06
1.8423753e-06
1.8445038e-06
1.8466153e-06
1.8485882e-06
1.8502388e-06
1.8512849e-06
1.8512934e-06
1.8496058e-06
1.8452369e-06
1.8367454e-06
1.8220773e-06
1.7983918e-06
1.7618931e-06
1.7077091e-06
1.6298883e-06
1.5216112e-06
1.3757623e-06
1.1860045e-06
9.4847504e-07
6.6446675e-07
3.488488e-07
1.8640076e-06
1.8654404e-06
1.8670541e-06
1.8688172e-06
1.8706879e-06
1.8726091e-06
1.8744994e-06
1.8762376e-06
1.8776391e-06
1.8784192e-06
1.8781394e-06
1.8761318e-06
1.8713969e-06
1.862472e-06
1.8472731e-06
1.8229199e-06
1.7855667e-06
1.7302827e-06
1.6510519e-06
1.5409917e-06
1.3929336e-06
1.2005082e-06
9.5984658e-07
6.7227752e-07
3.5148053e-07
1.8846326e-06
1.885938e-06
1.8874063e-06
1.8890073e-06
1.8907007e-06
1.8924306e-06
1.8941165e-06
1.8956376e-06
1.8968082e-06
1.8973413e-06
1.8967933e-06
1.8944883e-06
1.8894139e-06
1.8800897e-06
1.8644077e-06
1.8394575e-06
1.8013581e-06
1.7451412e-06
1.6647567e-06
1.5532991e-06
1.403598e-06
1.2093072e-06
9.665992e-07
6.7683632e-07
3.5234223e-07
1.8936461e-06
1.8948344e-06
1.8961692e-06
1.8976213e-06
1.8991516e-06
1.9007055e-06
1.9022032e-06
1.9035241e-06
1.904482e-06
1.9047874e-06
1.9039932e-06
1.9014166e-06
1.8960361e-06
1.8863585e-06
1.8702609e-06
1.8448164e-06
1.8061295e-06
1.7492245e-06
1.6680582e-06
1.5557561e-06
1.4052097e-06
1.2101615e-06
9.668722e-07
6.7681087e-07
3.5309291e-07
1.8866815e-06
1.8877627e-06
1.888975e-06
1.8902904e-06
1.8916709e-06
1.8930631e-06
1.8943878e-06
1.8955248e-06
1.8962879e-06
1.8963863e-06
1.8953706e-06
1.8925546e-06
1.8869125e-06
1.876947e-06
1.8605331e-06
1.8347473e-06
1.7957088e-06
1.7384756e-06
1.657067e-06
1.5447098e-06
1.394438e-06
1.2001603e-06
9.5827845e-07
6.7031322e-07
3.4794551e-07
1.8580703e-06
1.8590533e-06
1.8601531e-06
1.8613427e-06
1.8625853e-06
1.8638284e-06
1.864994e-06
1.8659629e-06
1.8665492e-06
1.8664632e-06
1.865256e-06
1.8622432e-06
1.8564027e-06
1.8462456e-06
1.8296639e-06
1.803766e-06
1.764726e-06
1.7076915e-06
1.626818e-06
1.5155248e-06
1.367092e-06
1.1757008e-06
9.3799395e-07
6.5557188e-07
3.3925127e-07
1.8007433e-06
1.8016355e-06
1.8026312e-06
1.8037042e-06
1.8048187e-06
1.8059236e-06
1.8069425e-06
1.8077579e-06
1.8081867e-06
1.8079425e-06
1.8065823e-06
1.8034313e-06
1.7974836e-06
1.7872776e-06
1.77075e-06
1.7450803e-06
1.7065526e-06
1.6504775e-06
1.5712418e-06
1.4625734e-06
1.318127e-06
1.132483e-06
9.0262766e-07
6.3032871e-07
3.2603814e-07
1.7063496e-06
1.707156e-06
1.7080531e-06
1.7090156e-06
1.7100088e-06
1.7109834e-06
1.7118658e-06
1.7125421e-06
1.7128341e-06
1.7124637e-06
1.7110016e-06
1.7077945e-06
1.7018714e-06
1.6918251e-06
1.6756758e-06
1.6507277e-06
1.6134471e-06
1.5594031e-06
1.4833331e-06
1.3794126e-06
1.2418217e-06
1.0656822e-06
8.484193e-07
5.9192811e-07
3.0606713e-07
1.5657599e-06
1.5664799e-06
1.5672784e-06
1.5681303e-06
1.5690019e-06
1.5698479e-06
1.5706001e-06
1.5711503e-06
1.5713293e-06
1.570874e-06
1.5693785e-06
1.5662292e-06
1.5605157e-06
1.5509236e-06
1.5356098e-06
1.5120742e-06
1.4770574e-06
1.4265049e-06
1.3556467e-06
1.2592654e-06
1.1322287e-06
9.7034603e-07
7.7157372e-07
5.378801e-07
2.7814329e-07
1.3701569e-06
1.3707791e-06
1.3714661e-06
1.3721929e-06
1.3729271e-06
1.3736323e-06
1.374251e-06
1.3746851e-06
1.3747794e-06
1.3742951e-06
1.3728584e-06
1.3699192e-06
1.364664e-06
1.3559222e-06
1.3420572e-06
1.3208539e-06
1.2894407e-06
1.2442788e-06
1.1812528e-06
1.0959216e-06
9.8399544e-07
8.4209835e-07
6.6877477e-07
4.6597357e-07
2.412136e-07
1.1128292e-06
1.1133342e-06
1.1138787e-06
1.1144433e-06
1.1150005e-06
1.1155315e-06
1.1159992e-06
1.1163222e-06
1.1163721e-06
1.1159499e-06
1.1146977e-06
1.1121644e-06
1.1076838e-06
1.1002928e-06
1.0886455e-06
1.0709188e-06
1.0447601e-06
1.0073075e-06
9.5527351e-07
8.8515587e-07
7.936261e-07
6.7820772e-07
5.3804671e-07
3.7499528e-07
1.9519279e-07
7.9188832e-07
7.9234919e-07
7.9273141e-07
7.9309032e-07
7.9342573e-07
7.9374546e-07
7.9404078e-07
7.9426091e-07
7.9433829e-07
7.9414841e-07
7.932557e-07
7.9136617e-07
7.8803277e-07
7.8257291e-07
7.7402117e-07
7.6106083e-07
7.4199696e-07
7.1482467e-07
6.772536e-07
6.2685371e-07
5.6131585e-07
4.7907965e-07
3.7983642e-07
2.6518049e-07
1.3915998e-07
4.1312729e-07
4.1398664e-07
4.1428786e-07
4.1444992e-07
4.1457732e-07
4.1470055e-07
4.1483156e-07
4.1496366e-07
4.1512582e-07
4.1530432e-07
4.1493511e-07
4.1393277e-07
4.1213123e-07
4.0919101e-07
4.046063e-07
3.9767196e-07
3.87452e-07
3.7301208e-07
3.5317284e-07
3.2666667e-07
2.9225561e-07
2.4922299e-07
1.9760337e-07
1.3850968e-07
7.4672452e-08
)
;

boundaryField
{
    Walls
    {
        type            kqRWallFunction;
        value           nonuniform List<scalar> 
38
(
5.2033049e-06
2.5694559e-06
7.9673732e-06
3.7549002e-05
0.00028084909
0.00235794
0.055959888
0.060751898
0.018386764
0.027326831
0.034292167
0.041249645
0.047018812
0.051734871
0.056017417
0.059095088
0.061669515
0.063702546
0.065412242
0.066899902
0.068308194
0.069828466
0.070388889
0.07079897
0.071455609
0.072057109
0.072094701
0.072770973
0.073525823
0.072993262
0.073044194
0.073311897
0.073197874
0.072694808
0.072202256
0.071827513
0.071097172
0.066070263
)
;
    }
    Inlet
    {
        type            turbulentIntensityKineticEnergyInlet;
        intensity       0.05;
        value           nonuniform List<scalar> 3(0.0077565423 0.0092119738 0.0093015575);
    }
    Outlet
    {
        type            inletOutlet;
        inletValue      uniform 0;
        value           nonuniform List<scalar> 
86
(
0
0
0
0
0
0
0
0
0
0
0
0
0
0
0
0
0
0
0
0
0
0
0
0
0
0
0
0
0
0
0.0031379855
0.0032425162
0.0026472458
0
0
0
0
0.00023608114
0.00020471779
0.00014451222
0
0
0
0
9.5628335e-06
5.9907934e-06
3.6220136e-06
2.1331871e-06
1.2473327e-06
7.5918208e-07
4.9755616e-07
3.6525529e-07
3.0239156e-07
2.7520192e-07
2.6800468e-07
2.6854629e-07
2.7320592e-07
2.8021928e-07
2.8591179e-07
2.9286793e-07
2.9983661e-07
3.0850598e-07
0
0
0
0
0
0
0
0
0
0
0
0
0
0
0
0
0
0
0
0
0
0
0.0025819713
0.0032393797
)
;
    }
    Front
    {
        type            wedge;
    }
    Back
    {
        type            wedge;
    }
    defaultFaces
    {
        type            empty;
    }
}


// ************************************************************************* //
