/*--------------------------------*- C++ -*----------------------------------*\
| =========                 |                                                 |
| \\      /  F ield         | OpenFOAM: The Open Source CFD Toolbox           |
|  \\    /   O peration     | Version:  4.0                                   |
|   \\  /    A nd           | Web:      www.OpenFOAM.org                      |
|    \\/     M anipulation  |                                                 |
\*---------------------------------------------------------------------------*/
FoamFile
{
    version     2.0;
    format      ascii;
    class       volScalarField;
    location    "0.42";
    object      nut;
}
// * * * * * * * * * * * * * * * * * * * * * * * * * * * * * * * * * * * * * //

dimensions      [0 2 -1 0 0 0 0];

internalField   nonuniform List<scalar> 
1740
(
1.1975298e-05
1.2819989e-05
1.2322662e-06
1.1667682e-05
6.5306028e-06
1.8181841e-06
1.6003065e-05
5.2168994e-06
2.2688946e-06
1.366808e-05
4.7284866e-06
2.7142156e-06
1.8729567e-05
4.3558394e-06
3.0797957e-06
1.5908053e-05
4.0661767e-06
3.3765565e-06
1.3594001e-05
3.8477236e-06
3.6439348e-06
1.1545452e-05
3.7189255e-06
3.8345719e-06
1.0350924e-05
3.6346535e-06
3.9939786e-06
9.4809325e-06
3.5835833e-06
4.1193917e-06
8.7205014e-06
3.5285526e-06
4.2242582e-06
8.0295207e-06
3.4841447e-06
4.3148197e-06
7.4497402e-06
3.4755373e-06
4.4013779e-06
7.0194137e-06
3.4699256e-06
4.4951878e-06
6.6041216e-06
3.4974421e-06
4.5284568e-06
6.2179483e-06
3.4878285e-06
4.553694e-06
5.899345e-06
3.4827341e-06
4.5935547e-06
5.6838416e-06
3.4929842e-06
4.6295736e-06
5.4591705e-06
3.4918469e-06
4.6320591e-06
5.2098941e-06
3.4874815e-06
4.6734349e-06
5.0088329e-06
3.5155368e-06
4.7192924e-06
4.8581003e-06
3.5490906e-06
4.6867318e-06
4.7339831e-06
3.5312914e-06
4.6897907e-06
4.6004385e-06
3.5376972e-06
4.7059272e-06
4.4817289e-06
3.5807174e-06
4.6989966e-06
4.3800404e-06
3.5855754e-06
4.6684959e-06
4.2809549e-06
3.5825164e-06
4.6380354e-06
4.2079075e-06
3.5739739e-06
4.6157545e-06
4.1656434e-06
3.5645259e-06
4.5723318e-06
2.9414424e-06
3.4287929e-06
4.2648483e-06
1.9045839e-06
2.1349209e-06
4.379737e-06
7.1797173e-06
7.3609741e-06
6.7099557e-06
6.5395947e-06
6.7421171e-06
6.3710105e-06
5.1811922e-06
5.1176915e-06
4.8705269e-06
4.3391088e-06
4.2663138e-06
4.1303207e-06
3.7925103e-06
3.7494099e-06
3.6887544e-06
3.4145752e-06
3.3968773e-06
3.3810728e-06
3.1269307e-06
3.1246375e-06
3.1326198e-06
2.8756471e-06
2.8810521e-06
2.8996989e-06
2.6232059e-06
2.6315054e-06
2.6531347e-06
2.3461609e-06
2.3547001e-06
2.3751453e-06
2.0353803e-06
2.0428563e-06
2.0601229e-06
1.6963979e-06
1.7023014e-06
1.7157007e-06
1.3478803e-06
1.3521572e-06
1.3617785e-06
1.0163631e-06
1.0192132e-06
1.0255969e-06
7.2741498e-07
7.2915818e-07
7.3305692e-07
4.9699482e-07
4.9797036e-07
5.0015508e-07
3.2793689e-07
3.2843374e-07
3.2955499e-07
2.1275594e-07
2.1298883e-07
2.135222e-07
1.394325e-07
1.3954126e-07
1.3978807e-07
9.5224699e-08
9.5275558e-08
9.5390529e-08
6.9868289e-08
6.9895633e-08
6.9957492e-08
5.6175629e-08
5.6195333e-08
5.6240021e-08
4.9434905e-08
4.9453056e-08
4.9494451e-08
4.670225e-08
4.6720518e-08
4.6762487e-08
4.6207318e-08
4.6225774e-08
4.6268405e-08
4.6918542e-08
4.693687e-08
4.6979254e-08
4.8251876e-08
4.826976e-08
4.8310993e-08
4.9886349e-08
4.990355e-08
4.9942989e-08
5.1651141e-08
5.1667499e-08
5.1704764e-08
5.3458156e-08
5.3473577e-08
5.3508487e-08
5.5262893e-08
5.5277335e-08
5.5309846e-08
5.7042557e-08
5.7056014e-08
5.7086164e-08
5.8784333e-08
5.8796823e-08
5.8824695e-08
6.0479431e-08
6.0490988e-08
6.0516692e-08
6.2120267e-08
6.2130932e-08
6.215459e-08
6.3699284e-08
6.3709107e-08
6.3730852e-08
6.5208625e-08
6.5217661e-08
6.5237629e-08
6.6640209e-08
6.6648518e-08
6.6666852e-08
6.7986008e-08
6.7993652e-08
6.8010502e-08
6.9238358e-08
6.9245405e-08
6.9260922e-08
7.0390197e-08
7.0396715e-08
7.0411057e-08
7.1435113e-08
7.1441173e-08
7.1454497e-08
7.2367115e-08
7.237279e-08
7.2385257e-08
7.3180002e-08
7.3185379e-08
7.3197153e-08
7.3854709e-08
7.3859829e-08
7.3871029e-08
7.4374748e-08
7.4379655e-08
7.4390387e-08
7.4710343e-08
7.4715063e-08
7.4725398e-08
7.4800545e-08
7.4805065e-08
7.4815001e-08
7.4466501e-08
7.4470738e-08
7.4480132e-08
4.1522069e-06
4.4890105e-06
6.6971409e-06
8.4201324e-06
5.9884093e-06
6.030454e-06
4.7232297e-06
4.8259306e-06
4.0813177e-06
4.1888495e-06
3.6899684e-06
3.790016e-06
3.408643e-06
3.4999207e-06
3.1720026e-06
3.2538161e-06
2.9419366e-06
3.0135701e-06
2.6929301e-06
2.7538228e-06
2.4096339e-06
2.4595856e-06
2.0880619e-06
2.1273453e-06
1.7369297e-06
1.766311e-06
1.3768601e-06
1.397559e-06
1.0355524e-06
1.0491599e-06
7.3912709e-07
7.4741195e-07
5.0356193e-07
5.0821633e-07
3.3131412e-07
3.3372663e-07
2.1436613e-07
2.1552991e-07
1.4017793e-07
1.4071685e-07
9.5572427e-08
9.5824828e-08
7.0055601e-08
7.019208e-08
5.6310744e-08
5.6408862e-08
4.9559734e-08
4.9649819e-08
4.6828598e-08
4.691945e-08
4.6335533e-08
4.6427518e-08
4.7045884e-08
4.7136927e-08
4.8375596e-08
4.8463567e-08
5.0004499e-08
5.0087933e-08
5.176259e-08
5.184072e-08
5.3562397e-08
5.3634965e-08
5.5359833e-08
5.5426897e-08
5.7132347e-08
5.7194132e-08
5.8867258e-08
5.8924061e-08
6.0555843e-08
6.0607989e-08
6.219055e-08
6.2238366e-08
6.3763844e-08
6.3807655e-08
6.5267882e-08
6.5308009e-08
6.6694598e-08
6.6731362e-08
6.8035975e-08
6.80697e-08
6.9284362e-08
6.9315373e-08
7.0432706e-08
7.0461328e-08
7.1474596e-08
7.1501152e-08
7.2404044e-08
7.2428847e-08
7.3214862e-08
7.3238212e-08
7.388786e-08
7.3910036e-08
7.4406519e-08
7.4427764e-08
7.4740963e-08
7.4761466e-08
7.4830055e-08
7.4849877e-08
7.4494542e-08
7.4513291e-08
4.315163e-10
1.3237861e-08
1.9303633e-07
8.2648563e-07
1.643752e-06
2.2305002e-06
2.5755233e-06
2.7838337e-06
2.9277936e-06
3.0430294e-06
3.146689e-06
3.2527746e-06
3.3580556e-06
3.4614553e-06
3.5621881e-06
3.6589044e-06
3.7491547e-06
3.8288115e-06
3.8911936e-06
3.9257432e-06
3.9158805e-06
3.8354169e-06
3.6419688e-06
3.2591149e-06
2.4517932e-06
2.1308904e-10
2.6863792e-08
3.5968256e-07
1.3766887e-06
2.569791e-06
3.3784046e-06
3.851664e-06
4.1582853e-06
4.3928113e-06
4.5980332e-06
4.7945377e-06
4.9948347e-06
5.196624e-06
5.3989008e-06
5.5999953e-06
5.7971659e-06
5.9856715e-06
6.1577469e-06
6.3007087e-06
6.394305e-06
6.4062661e-06
6.2843387e-06
5.940913e-06
5.2153902e-06
3.6797232e-06
6.6074431e-10
7.8692464e-08
8.5635063e-07
2.5052347e-06
3.7907462e-06
4.5274605e-06
4.9912218e-06
5.3369293e-06
5.6371702e-06
5.9243451e-06
6.2137711e-06
6.5121865e-06
6.8181198e-06
7.1304038e-06
7.4475951e-06
7.766611e-06
8.0812226e-06
8.3814742e-06
8.649714e-06
8.8572761e-06
8.9576063e-06
8.8732396e-06
8.4689784e-06
7.4867498e-06
5.2839729e-06
3.1138966e-09
2.846328e-07
2.0589481e-06
3.9983802e-06
5.0389772e-06
5.626859e-06
6.0338341e-06
6.3765688e-06
6.7052177e-06
7.0383943e-06
7.3869134e-06
7.7538076e-06
8.1356077e-06
8.5310106e-06
8.9398568e-06
9.360752e-06
9.7886974e-06
1.021415e-05
1.0620446e-05
1.0979712e-05
1.1245793e-05
1.1340384e-05
1.1120055e-05
1.0276254e-05
7.8809862e-06
2.328471e-08
1.1356056e-06
3.981953e-06
5.5892349e-06
6.4405037e-06
6.9614812e-06
7.345228e-06
7.6918022e-06
8.0415995e-06
8.396585e-06
8.7701502e-06
9.168958e-06
9.5828294e-06
1.0007106e-05
1.0444515e-05
1.089968e-05
1.1371882e-05
1.1856485e-05
1.2343537e-05
1.281479e-05
1.3239155e-05
1.3566534e-05
1.3720458e-05
1.3605412e-05
1.3193291e-05
1.9507687e-07
2.749639e-06
5.8930612e-06
7.6952447e-06
8.6094045e-06
9.0266815e-06
9.2233651e-06
9.3606056e-06
9.4997254e-06
9.6589027e-06
9.8461926e-06
1.0067882e-05
1.0324414e-05
1.0615828e-05
1.0943259e-05
1.1307721e-05
1.1709377e-05
1.2146264e-05
1.2613332e-05
1.3100717e-05
1.3590723e-05
1.4054546e-05
1.444918e-05
1.4726201e-05
1.4828507e-05
4.3364675e-06
4.3142356e-06
4.3607854e-06
4.4727248e-06
4.6490608e-06
4.8791683e-06
5.1528237e-06
5.4671443e-06
5.8239209e-06
6.2246742e-06
6.6689573e-06
7.1540598e-06
7.6744784e-06
8.2229052e-06
8.7921002e-06
9.3768265e-06
9.974364e-06
1.0583289e-05
1.12017e-05
1.1825032e-05
1.2443054e-05
1.3036794e-05
1.3575773e-05
1.4023495e-05
1.4312679e-05
9.1077073e-06
9.3611817e-06
9.7598002e-06
1.0177264e-05
1.0352668e-05
1.0316503e-05
1.0199953e-05
1.0103522e-05
1.006714e-05
1.0092589e-05
1.0175673e-05
1.0311742e-05
1.0498762e-05
1.0736322e-05
1.1024194e-05
1.136178e-05
1.1747175e-05
1.21765e-05
1.2642763e-05
1.3133809e-05
1.3629232e-05
1.4097234e-05
1.4491807e-05
1.4763166e-05
1.4857441e-05
6.4013065e-06
6.8101683e-06
7.2410887e-06
7.640725e-06
7.9427654e-06
8.1603717e-06
8.3531133e-06
8.5607919e-06
8.791599e-06
9.0601265e-06
9.3630077e-06
9.6911532e-06
1.0039723e-05
1.0414896e-05
1.0820537e-05
1.1257273e-05
1.1722206e-05
1.2208176e-05
1.2701837e-05
1.3180668e-05
1.3608428e-05
1.3929273e-05
1.4061238e-05
1.390589e-05
1.3441626e-05
5.1382376e-06
5.4947243e-06
5.8451962e-06
6.161992e-06
6.4283291e-06
6.6567105e-06
6.8772372e-06
7.1102729e-06
7.3668992e-06
7.6536905e-06
7.9685705e-06
8.3088655e-06
8.6744105e-06
9.0663227e-06
9.4842035e-06
9.9244763e-06
1.0379154e-05
1.083417e-05
1.1266776e-05
1.1641405e-05
1.1902742e-05
1.1962529e-05
1.1667825e-05
1.0700216e-05
8.106875e-06
4.4311896e-06
4.7206667e-06
5.0109899e-06
5.2816729e-06
5.52686e-06
5.7545892e-06
5.9792426e-06
6.2135481e-06
6.4660229e-06
6.740797e-06
7.0375578e-06
7.3551206e-06
7.6931777e-06
8.0507971e-06
8.4252641e-06
8.809845e-06
9.1927206e-06
9.5550894e-06
9.8684365e-06
1.0090422e-05
1.0158329e-05
9.9775684e-06
9.3983063e-06
8.1560944e-06
5.6169772e-06
3.9772807e-06
4.2060073e-06
4.4433802e-06
4.6734663e-06
4.8924429e-06
5.1049244e-06
5.3189805e-06
5.5423104e-06
5.7805744e-06
6.0366185e-06
6.3107065e-06
6.6020365e-06
6.909476e-06
7.2305235e-06
7.560141e-06
7.8896328e-06
8.2052547e-06
8.4865696e-06
8.7043216e-06
8.8175589e-06
8.7695487e-06
8.4813069e-06
7.8388681e-06
6.65626e-06
4.4550119e-06
3.648823e-06
3.8311143e-06
4.025639e-06
4.2206738e-06
4.4127419e-06
4.6038892e-06
4.7986291e-06
5.0017249e-06
5.2168943e-06
5.4461386e-06
5.6898037e-06
5.9471117e-06
6.2163608e-06
6.4942374e-06
6.7748836e-06
7.0489823e-06
7.3027623e-06
7.5168241e-06
7.6648471e-06
7.7121742e-06
7.6142532e-06
7.3145178e-06
6.7391072e-06
5.7717326e-06
4.0504128e-06
3.3748843e-06
3.5221189e-06
3.6823762e-06
3.847291e-06
4.0136536e-06
4.1819951e-06
4.3547185e-06
4.5346825e-06
4.7242323e-06
4.9246601e-06
5.1360907e-06
5.3575906e-06
5.5870919e-06
5.8209139e-06
6.0531015e-06
6.2747288e-06
6.473211e-06
6.6316329e-06
6.728226e-06
6.7361969e-06
6.6243024e-06
6.3590817e-06
5.911597e-06
5.2807739e-06
4.5767496e-06
3.1128771e-06
3.2325677e-06
3.3645463e-06
3.5029601e-06
3.6450056e-06
3.790374e-06
3.9401969e-06
4.0960759e-06
4.2593941e-06
4.4308713e-06
4.6103643e-06
4.7967846e-06
4.9879318e-06
5.1801317e-06
5.3677794e-06
5.5428655e-06
5.6945618e-06
5.8089465e-06
5.8690252e-06
5.8553189e-06
5.7475652e-06
5.5288177e-06
5.1955695e-06
4.7846031e-06
4.4367786e-06
2.834802e-06
2.9316705e-06
3.0393772e-06
3.1538453e-06
3.2727379e-06
3.3953387e-06
3.5219987e-06
3.6535129e-06
3.7906029e-06
3.933571e-06
4.0820682e-06
4.2349454e-06
4.3900716e-06
4.5440717e-06
4.6920158e-06
4.8271292e-06
4.9405901e-06
5.0214999e-06
5.0571707e-06
5.0339373e-06
4.9388807e-06
4.76324e-06
4.5093661e-06
4.2054769e-06
3.90575e-06
2.5243587e-06
2.6014568e-06
2.6876642e-06
2.7801298e-06
2.8769582e-06
2.9772851e-06
3.0810107e-06
3.1884166e-06
3.2997982e-06
3.4151776e-06
3.5341019e-06
3.655479e-06
3.7774231e-06
3.8970637e-06
4.0103571e-06
4.1119252e-06
4.1949902e-06
4.2514601e-06
4.2722528e-06
4.247938e-06
4.1697464e-06
4.0307411e-06
3.8257617e-06
3.5427976e-06
3.0847043e-06
2.1775464e-06
2.2371427e-06
2.3040537e-06
2.376282e-06
2.4523291e-06
2.5313296e-06
2.6129523e-06
2.6971745e-06
2.7840288e-06
2.8733819e-06
2.9647686e-06
3.0572521e-06
3.1493009e-06
3.2386695e-06
3.3222899e-06
3.3962027e-06
3.4555623e-06
3.4947486e-06
3.5076029e-06
3.4877551e-06
3.4288397e-06
3.3238811e-06
3.161364e-06
2.9083968e-06
2.421156e-06
1.803561e-06
1.8477384e-06
1.8974932e-06
1.9514369e-06
2.0084179e-06
2.0676625e-06
2.1287536e-06
2.1915048e-06
2.2558043e-06
2.3214536e-06
2.3880418e-06
2.4548399e-06
2.5207161e-06
2.5840694e-06
2.6427787e-06
2.694192e-06
2.7351596e-06
2.7621246e-06
2.771239e-06
2.7584118e-06
2.7190154e-06
2.6465578e-06
2.5284293e-06
2.332324e-06
1.9399206e-06
1.4237058e-06
1.4547119e-06
1.489709e-06
1.5277558e-06
1.5680016e-06
1.6098083e-06
1.6527634e-06
1.696623e-06
1.7412113e-06
1.7863228e-06
1.8316325e-06
1.876626e-06
1.9205493e-06
1.9623778e-06
2.0008056e-06
2.0342599e-06
2.0609414e-06
2.0788779e-06
2.0859439e-06
2.0797437e-06
2.0571277e-06
2.0128864e-06
1.936624e-06
1.8049343e-06
1.548282e-06
1.0663231e-06
1.0866827e-06
1.1096965e-06
1.134739e-06
1.1612156e-06
1.188639e-06
1.2166536e-06
1.2450194e-06
1.2735587e-06
1.3020905e-06
1.3303814e-06
1.3581038e-06
1.3848097e-06
1.4099231e-06
1.4327481e-06
1.4524912e-06
1.4682938e-06
1.4792529e-06
1.4843902e-06
1.4824851e-06
1.4716269e-06
1.4482513e-06
1.405268e-06
1.3282835e-06
1.1826819e-06
7.5785772e-07
7.7025842e-07
7.8427924e-07
7.9952642e-07
8.1560142e-07
8.3215955e-07
8.4892727e-07
8.6570441e-07
8.8233918e-07
8.9869374e-07
9.1461763e-07
9.2992234e-07
9.4437534e-07
9.5770166e-07
9.6959586e-07
9.7974131e-07
9.8782856e-07
9.9355554e-07
9.9658408e-07
9.9640337e-07
9.9202037e-07
9.8138634e-07
9.6046005e-07
9.2163254e-07
8.4852915e-07
5.1408825e-07
5.2106469e-07
5.2894921e-07
5.3750143e-07
5.464711e-07
5.5562745e-07
5.6478066e-07
5.7378307e-07
5.8252219e-07
5.909042e-07
5.9883996e-07
6.0623604e-07
6.129925e-07
6.190057e-07
6.2418021e-07
6.2843886e-07
6.3172926e-07
6.3401223e-07
6.3522769e-07
6.3521591e-07
6.3354981e-07
6.2925426e-07
6.2042058e-07
6.0363799e-07
5.7182995e-07
3.3677724e-07
3.4040552e-07
3.4450345e-07
3.4892991e-07
3.5353405e-07
3.581736e-07
3.6272496e-07
3.6709061e-07
3.7119581e-07
3.7498291e-07
3.7840505e-07
3.8142351e-07
3.8400725e-07
3.8613677e-07
3.8780759e-07
3.890365e-07
3.8986074e-07
3.9031703e-07
3.9042207e-07
3.9014746e-07
3.8934802e-07
3.8764043e-07
3.842712e-07
3.7795304e-07
3.6591353e-07
2.1700526e-07
2.1876089e-07
2.2073859e-07
2.2286011e-07
2.2504003e-07
2.2719557e-07
2.2925413e-07
2.3115712e-07
2.3286006e-07
2.343313e-07
2.3554958e-07
2.3650328e-07
2.3719128e-07
2.376251e-07
2.3783155e-07
2.3784769e-07
2.3772783e-07
2.375047e-07
2.3718798e-07
2.3677832e-07
2.3624439e-07
2.3546235e-07
2.3417163e-07
2.3194323e-07
2.2780701e-07
1.414004e-07
1.4221191e-07
1.4312035e-07
1.4408428e-07
1.4505661e-07
1.4599124e-07
1.4684701e-07
1.4759048e-07
1.4819687e-07
1.4864939e-07
1.4893928e-07
1.4906565e-07
1.4903646e-07
1.4887079e-07
1.4860563e-07
1.4829754e-07
1.4800618e-07
1.477241e-07
1.474137e-07
1.4706992e-07
1.4670217e-07
1.4628073e-07
1.4571517e-07
1.4483915e-07
1.4323746e-07
9.6145898e-08
9.6527204e-08
9.6952797e-08
9.7400866e-08
9.784657e-08
9.8264667e-08
9.8632447e-08
9.8931285e-08
9.9147394e-08
9.927208e-08
9.9301572e-08
9.9237187e-08
9.9085826e-08
9.8860867e-08
9.8584475e-08
9.8290775e-08
9.8022588e-08
9.7846427e-08
9.7698658e-08
9.7516571e-08
9.7317585e-08
9.7099722e-08
9.6825231e-08
9.6408193e-08
9.5624265e-08
7.0366505e-08
7.0574815e-08
7.080899e-08
7.1057728e-08
7.1307815e-08
7.1545747e-08
7.1758878e-08
7.1936703e-08
7.2071257e-08
7.2157363e-08
7.2192671e-08
7.217772e-08
7.2116252e-08
7.201583e-08
7.1889037e-08
7.1755368e-08
7.16375e-08
7.1576807e-08
7.1597249e-08
7.1579809e-08
7.1535431e-08
7.1466598e-08
7.135162e-08
7.1133848e-08
7.0656299e-08
5.653449e-08
5.6685774e-08
5.6858664e-08
5.7047196e-08
5.7244158e-08
5.7441972e-08
5.7633312e-08
5.7811708e-08
5.7971938e-08
5.8110118e-08
5.8223836e-08
5.8312272e-08
5.8376498e-08
5.8419997e-08
5.8449456e-08
5.8476028e-08
5.8511894e-08
5.8581765e-08
5.8720168e-08
5.8828832e-08
5.8903262e-08
5.8943151e-08
5.8932421e-08
5.8830949e-08
5.852836e-08
4.9764956e-08
4.9904343e-08
5.0065803e-08
5.0245925e-08
5.0440409e-08
5.0644509e-08
5.0853421e-08
5.1062547e-08
5.1267761e-08
5.1465552e-08
5.1653152e-08
5.1828741e-08
5.1991734e-08
5.214316e-08
5.228617e-08
5.2426669e-08
5.257402e-08
5.2741676e-08
5.2956833e-08
5.314838e-08
5.330128e-08
5.3412284e-08
5.3466945e-08
5.343185e-08
5.321614e-08
4.7035277e-08
4.7175725e-08
4.7339414e-08
4.7524053e-08
4.7726634e-08
4.7943672e-08
4.817144e-08
4.8406146e-08
4.8644118e-08
4.888196e-08
4.9116731e-08
4.9346152e-08
4.9568856e-08
4.9784667e-08
4.9994927e-08
5.0202988e-08
5.0415287e-08
5.0640435e-08
5.0898711e-08
5.1136528e-08
5.1333949e-08
5.1485455e-08
5.1576405e-08
5.1575093e-08
5.1398352e-08
4.6544499e-08
4.6686259e-08
4.6851701e-08
4.7038963e-08
4.724556e-08
4.7468543e-08
4.7704656e-08
4.7950496e-08
4.8202669e-08
4.8457959e-08
4.871351e-08
4.8967018e-08
4.9216926e-08
4.9462612e-08
4.9704589e-08
4.994482e-08
5.0187458e-08
5.044037e-08
5.0717137e-08
5.0975291e-08
5.1193429e-08
5.1364159e-08
5.1471816e-08
5.1484421e-08
5.1320022e-08
4.7252386e-08
4.7392026e-08
4.7554808e-08
4.7739017e-08
4.7942395e-08
4.8162258e-08
4.8395635e-08
4.8639415e-08
4.8890499e-08
4.9145963e-08
4.9403229e-08
4.9660226e-08
4.9915538e-08
5.0168516e-08
5.0419388e-08
5.0669476e-08
5.0921808e-08
5.1182707e-08
5.1462267e-08
5.1724831e-08
5.1949145e-08
5.212615e-08
5.2238708e-08
5.2253317e-08
5.2086193e-08
4.857477e-08
4.8708876e-08
4.8864835e-08
4.9041003e-08
4.9235264e-08
4.9445142e-08
4.9667927e-08
4.990081e-08
5.0141034e-08
5.0386041e-08
5.0633627e-08
5.0882076e-08
5.1130259e-08
5.1377699e-08
5.1624613e-08
5.187204e-08
5.2122315e-08
5.2380432e-08
5.2654303e-08
5.2912772e-08
5.3135409e-08
5.3311676e-08
5.3422794e-08
5.3432987e-08
5.3254146e-08
5.0193029e-08
5.0319347e-08
5.0465826e-08
5.0630889e-08
5.0812561e-08
5.1008581e-08
5.1216508e-08
5.1433855e-08
5.1658228e-08
5.1887459e-08
5.2119744e-08
5.235375e-08
5.2588688e-08
5.2824329e-08
5.3060998e-08
5.3299614e-08
5.3541997e-08
5.379184e-08
5.4056476e-08
5.4307025e-08
5.4524258e-08
5.4696349e-08
5.4802906e-08
5.4805571e-08
5.4609061e-08
5.1938782e-08
5.2056246e-08
5.2192052e-08
5.234471e-08
5.2512401e-08
5.2693079e-08
5.2884581e-08
5.3084739e-08
5.3291511e-08
5.3503106e-08
5.3718104e-08
5.3935547e-08
5.4154981e-08
5.437645e-08
5.4600437e-08
5.4827835e-08
5.5060136e-08
5.5300196e-08
5.5553868e-08
5.5795069e-08
5.6005407e-08
5.6171827e-08
5.6272432e-08
5.6266663e-08
5.6053871e-08
5.3725743e-08
5.3834132e-08
5.3959094e-08
5.4099237e-08
5.4252904e-08
5.4418263e-08
5.4593409e-08
5.4776475e-08
5.4965745e-08
5.5159772e-08
5.535749e-08
5.5558281e-08
5.5762012e-08
5.596899e-08
5.6179874e-08
5.6395581e-08
5.6617369e-08
5.6847402e-08
5.7090067e-08
5.7321842e-08
5.7524947e-08
5.7685161e-08
5.7779067e-08
5.7763689e-08
5.7532498e-08
5.551054e-08
5.5610124e-08
5.5724646e-08
5.5852816e-08
5.5993133e-08
5.6143966e-08
5.6303646e-08
5.6470575e-08
5.6643328e-08
5.6820768e-08
5.700214e-08
5.7187139e-08
5.7375922e-08
5.7569045e-08
5.7767342e-08
5.7971777e-08
5.8183422e-08
5.8403839e-08
5.8636065e-08
5.8858982e-08
5.9055048e-08
5.9208977e-08
5.9295883e-08
5.9270509e-08
5.902355e-08
5.7270992e-08
5.7362272e-08
5.7467018e-08
5.7584038e-08
5.7711976e-08
5.784938e-08
5.7994797e-08
5.8146861e-08
5.8304407e-08
5.8466567e-08
5.8632865e-08
5.8803276e-08
5.8978218e-08
5.9158481e-08
5.9345066e-08
5.9538991e-08
5.9741182e-08
5.9952693e-08
6.0175429e-08
6.0390072e-08
6.0579432e-08
6.0727196e-08
6.0807073e-08
6.0771547e-08
6.0505873e-08
5.8994571e-08
5.9078132e-08
5.9173843e-08
5.9280607e-08
5.9397199e-08
5.9522329e-08
5.9654729e-08
5.9793243e-08
5.9936928e-08
6.0085155e-08
6.0237697e-08
6.0394775e-08
6.0557047e-08
6.0725513e-08
6.0901332e-08
6.1085582e-08
6.127907e-08
6.1482413e-08
6.1696528e-08
6.1903545e-08
6.2086562e-08
6.2228314e-08
6.2301199e-08
6.2255614e-08
6.1972636e-08
6.0672599e-08
6.0749032e-08
6.0836441e-08
6.093382e-08
6.1040058e-08
6.1154011e-08
6.1274575e-08
6.1400774e-08
6.1531865e-08
6.1667428e-08
6.1807454e-08
6.1952385e-08
6.2103094e-08
6.2260775e-08
6.242673e-08
6.2602096e-08
6.278758e-08
6.2983419e-08
6.3189671e-08
6.338964e-08
6.356663e-08
6.37025e-08
6.3768423e-08
6.3712761e-08
6.341129e-08
6.2297521e-08
6.2367395e-08
6.2447197e-08
6.2536001e-08
6.2632806e-08
6.2736593e-08
6.2846401e-08
6.2961416e-08
6.3081067e-08
6.3205121e-08
6.3333762e-08
6.346763e-08
6.3607788e-08
6.3755604e-08
6.3912511e-08
6.4079698e-08
6.4257789e-08
6.4446689e-08
6.4645703e-08
6.4839093e-08
6.5010293e-08
6.5140353e-08
6.5199262e-08
6.5133365e-08
6.4813522e-08
6.3861785e-08
6.3925643e-08
6.3998488e-08
6.4079475e-08
6.4167694e-08
6.4262241e-08
6.4362282e-08
6.4467143e-08
6.4576408e-08
6.4690005e-08
6.480829e-08
6.4932078e-08
6.5062602e-08
6.5201381e-08
6.5349965e-08
6.550959e-08
6.5680804e-08
6.5863223e-08
6.6055501e-08
6.6242652e-08
6.6408208e-08
6.6532469e-08
6.6584301e-08
6.6508094e-08
6.6170426e-08
6.5357534e-08
6.5415894e-08
6.5482402e-08
6.555628e-08
6.5636707e-08
6.5722876e-08
6.5814065e-08
6.5909726e-08
6.6009575e-08
6.6113686e-08
6.6222563e-08
6.6337173e-08
6.6458899e-08
6.658939e-08
6.6730296e-08
6.6882891e-08
6.7047656e-08
6.7223954e-08
6.7409876e-08
6.7590999e-08
6.7750949e-08
6.7869372e-08
6.7914114e-08
6.7827728e-08
6.7472566e-08
6.6776695e-08
6.6830063e-08
6.6890829e-08
6.6958278e-08
6.7031664e-08
6.7110269e-08
6.7193471e-08
6.728083e-08
6.7372178e-08
6.7467712e-08
6.7568068e-08
6.7674343e-08
6.7788044e-08
6.7910932e-08
6.8044737e-08
6.8190759e-08
6.8349419e-08
6.8519863e-08
6.8699696e-08
6.8874846e-08
6.9029096e-08
6.9141536e-08
6.9179121e-08
6.9082656e-08
6.8705709e-08
6.8111251e-08
6.8160126e-08
6.821573e-08
6.8277407e-08
6.8344479e-08
6.8416305e-08
6.8492348e-08
6.8572263e-08
6.8655982e-08
6.8743808e-08
6.8836487e-08
6.8935223e-08
6.9041626e-08
6.9157543e-08
6.9284765e-08
6.9424608e-08
6.9577433e-08
6.9742197e-08
6.9916092e-08
7.0085149e-08
7.0233436e-08
7.0339583e-08
7.0369764e-08
7.0263195e-08
6.98658e-08
6.9353552e-08
6.9398425e-08
6.944944e-08
6.9505988e-08
6.9567452e-08
6.9633258e-08
6.9702945e-08
6.9776244e-08
6.9853175e-08
6.993413e-08
7.001994e-08
7.0111897e-08
7.0211688e-08
7.0321224e-08
7.0442332e-08
7.0576333e-08
7.0723525e-08
7.0882686e-08
7.1050648e-08
7.1213304e-08
7.135519e-08
7.1454575e-08
7.147698e-08
7.1360313e-08
7.0948391e-08
7.0496541e-08
7.05379e-08
7.0584884e-08
7.0636931e-08
7.0693475e-08
7.0753998e-08
7.0818101e-08
7.0885585e-08
7.0956538e-08
7.1031422e-08
7.1111138e-08
7.119704e-08
7.1290869e-08
7.1394571e-08
7.1509997e-08
7.1638459e-08
7.1780175e-08
7.1933733e-08
7.2095476e-08
7.2251222e-08
7.2386109e-08
7.2478159e-08
7.2492512e-08
7.2366453e-08
7.1938963e-08
7.1533799e-08
7.1572116e-08
7.1615613e-08
7.1663764e-08
7.1716046e-08
7.177199e-08
7.183125e-08
7.1893679e-08
7.1959421e-08
7.2028993e-08
7.2103346e-08
7.2183874e-08
7.2272345e-08
7.2370723e-08
7.2480875e-08
7.2604137e-08
7.2740585e-08
7.2888738e-08
7.3043087e-08
7.3191174e-08
7.3318311e-08
7.3402354e-08
7.3408486e-08
7.3275057e-08
7.2849925e-08
7.2459315e-08
7.2495043e-08
7.2535566e-08
7.2580389e-08
7.2629025e-08
7.2681045e-08
7.2736143e-08
7.2794217e-08
7.2855454e-08
7.2920409e-08
7.2990064e-08
7.3065834e-08
7.3149492e-08
7.3243001e-08
7.3348355e-08
7.3466984e-08
7.3598396e-08
7.3739869e-08
7.3885613e-08
7.4025229e-08
7.4143758e-08
7.4218903e-08
7.4215955e-08
7.4073902e-08
7.3643461e-08
7.3266864e-08
7.3300419e-08
7.3338435e-08
7.3380439e-08
7.3425974e-08
7.3474642e-08
7.3526173e-08
7.3580499e-08
7.3637836e-08
7.3698766e-08
7.3764288e-08
7.383582e-08
7.3915117e-08
7.4004076e-08
7.4104427e-08
7.4217245e-08
7.4342072e-08
7.4476108e-08
7.4613477e-08
7.4744214e-08
7.4853353e-08
7.4918626e-08
7.4905517e-08
7.4753259e-08
7.4312028e-08
7.3937222e-08
7.3969034e-08
7.4005043e-08
7.4044794e-08
7.4087851e-08
7.4133842e-08
7.4182522e-08
7.4233844e-08
7.4288039e-08
7.4345698e-08
7.4407814e-08
7.4475787e-08
7.4551326e-08
7.4636247e-08
7.4732128e-08
7.4839792e-08
7.4958586e-08
7.5085568e-08
7.5214772e-08
7.5336349e-08
7.5435428e-08
7.5489947e-08
7.5465774e-08
7.5302622e-08
7.4850303e-08
7.4453791e-08
7.4484231e-08
7.4518663e-08
7.4556645e-08
7.4597752e-08
7.4641638e-08
7.468808e-08
7.473704e-08
7.4788752e-08
7.48438e-08
7.4903148e-08
7.496816e-08
7.5040492e-08
7.5121883e-08
7.5213797e-08
7.5316889e-08
7.5430276e-08
7.5550701e-08
7.5671991e-08
7.5784297e-08
7.5872893e-08
7.5916073e-08
7.5880352e-08
7.5706422e-08
7.5245053e-08
7.4786559e-08
7.4815936e-08
7.4849134e-08
7.4885724e-08
7.4925294e-08
7.4967528e-08
7.5012226e-08
7.5059357e-08
7.5109151e-08
7.5162178e-08
7.5219311e-08
7.5281881e-08
7.53515e-08
7.5429863e-08
7.5518406e-08
7.5617768e-08
7.5726926e-08
7.5841814e-08
7.5955849e-08
7.6059206e-08
7.6137391e-08
7.6169243e-08
7.6122297e-08
7.5939155e-08
7.547596e-08
7.4874025e-08
7.4902696e-08
7.4934918e-08
7.4970363e-08
7.5008662e-08
7.5049547e-08
7.5092855e-08
7.5138565e-08
7.5186939e-08
7.5238546e-08
7.5293955e-08
7.5354506e-08
7.542183e-08
7.5497656e-08
7.5583613e-08
7.5680897e-08
7.5789307e-08
7.5901288e-08
7.6009629e-08
7.6105108e-08
7.6173758e-08
7.6195262e-08
7.6138691e-08
7.5949838e-08
7.5491961e-08
7.453548e-08
7.4564854e-08
7.459641e-08
7.4630755e-08
7.4667804e-08
7.4707384e-08
7.4749393e-08
7.4793872e-08
7.4841265e-08
7.4892218e-08
7.4946308e-08
7.5005035e-08
7.5070217e-08
7.5143761e-08
7.5227981e-08
7.5327017e-08
7.5452908e-08
7.557091e-08
7.5676684e-08
7.5766202e-08
7.5827185e-08
7.5840648e-08
7.5777925e-08
7.5590371e-08
7.5165169e-08
)
;

boundaryField
{
    Walls
    {
        type            nutUWallFunction;
        Cmu             0.09;
        kappa           0.41;
        E               9.8;
        value           uniform 0;
    }
    Inlet
    {
        type            calculated;
        value           nonuniform List<scalar> 3(1.2019285e-05 3.2974525e-05 7.6149243e-07);
    }
    Outlet
    {
        type            calculated;
        value           nonuniform List<scalar> 
86
(
0
0
0
0
0
0
0
0
0
0
0
0
0
0
0
0
0
0
0
0
0
0
0
0
0
0
0
0
0
0
1.4312679e-05
1.4857441e-05
1.3441626e-05
0
0
0
0
4.5767496e-06
4.4367786e-06
3.90575e-06
0
0
0
0
1.1826819e-06
8.4852915e-07
5.7182995e-07
3.6591353e-07
2.2780701e-07
1.4323746e-07
9.5624265e-08
7.0656299e-08
5.852836e-08
5.321614e-08
5.1398352e-08
5.1320022e-08
5.2086193e-08
5.3254146e-08
5.4609061e-08
5.6053871e-08
5.7532498e-08
5.902355e-08
0
0
0
0
0
0
0
0
0
0
0
0
0
0
0
0
0
0
0
0
0
0
1.3193291e-05
1.4828507e-05
)
;
    }
    Front
    {
        type            wedge;
    }
    Back
    {
        type            wedge;
    }
    defaultFaces
    {
        type            empty;
    }
}


// ************************************************************************* //
