/*--------------------------------*- C++ -*----------------------------------*\
| =========                 |                                                 |
| \\      /  F ield         | OpenFOAM: The Open Source CFD Toolbox           |
|  \\    /   O peration     | Version:  4.0                                   |
|   \\  /    A nd           | Web:      www.OpenFOAM.org                      |
|    \\/     M anipulation  |                                                 |
\*---------------------------------------------------------------------------*/
FoamFile
{
    version     2.0;
    format      ascii;
    class       volScalarField;
    location    "0.42";
    object      omega;
}
// * * * * * * * * * * * * * * * * * * * * * * * * * * * * * * * * * * * * * //

dimensions      [0 0 -1 0 0 0 0];

internalField   nonuniform List<scalar> 
1740
(
65.588556
711.9434
14921.097
184.89142
1536.2309
15029.738
307.22359
2042.9696
15114.042
420.80376
2284.8591
15197.63
521.65466
2516.4105
15266.86
633.66943
2752.3823
15321.784
743.85486
3061.4394
15372.782
881.77779
3271.4615
15411.131
984.14654
3450.6659
15440.622
1070.7207
3623.8947
15464.066
1155.5616
3661.9017
15484.906
1245.5931
3704.885
15504.681
1328.3171
3806.5603
15519.729
1392.7135
3868.1272
15534.049
1464.1062
3979.2086
15543.681
1544.8831
3983.1674
15547.591
1611.1919
3973.8605
15555.624
1644.1233
3996.2975
15564.524
1684.7466
4006.0549
15564.288
1752.0794
4008.365
15571.197
1810.134
4077.3185
15579.841
1839.5296
4159.2794
15574.448
1853.7155
4112.7438
15575.15
1889.5812
4120.2897
15578.63
1930.1178
4224.6959
15577.341
1958.5367
4241.1752
15571.355
1987.5979
4238.1407
15567.422
2003.7765
4228.5286
15561.381
2009.7464
4195.819
15549.434
2123.2143
4265.4983
15491.82
3193.3058
4540.7639
10703.552
3326.5154
4224.1947
5920.2991
1571.0309
1857.82
2152.9287
824.0611
898.6666
957.25798
478.61615
496.56252
506.53687
301.05597
304.71725
304.74852
201.66543
201.94962
200.46081
142.31995
141.97422
140.6899
105.04087
104.69874
103.83767
80.672641
80.434583
79.903204
64.2414
64.091919
63.773861
52.91809
52.827562
52.638501
45.034771
44.9803
44.867093
39.567533
39.534441
39.465465
35.849059
35.828619
35.785657
33.408028
33.395262
33.36801
31.885715
31.877862
31.860532
30.998997
30.994531
30.98374
30.516709
30.514176
30.507045
30.210581
30.207939
30.201616
29.97667
29.974339
29.968931
29.781216
29.779301
29.774783
29.604463
29.603019
29.599379
29.43575
29.43484
29.432091
29.27129
29.270909
29.269007
29.11294
29.112967
29.111757
28.965779
28.966032
28.965293
28.834781
28.835103
28.834637
28.722538
28.722836
28.722512
28.628859
28.629095
28.628842
28.551494
28.551666
28.551448
28.487041
28.487156
28.486959
28.431483
28.431554
28.431373
28.380272
28.380311
28.380142
28.327964
28.32798
28.327824
28.267481
28.267482
28.267339
28.188986
28.188978
28.18885
28.078373
28.078361
28.07825
27.915314
27.915303
27.915213
27.670891
27.670885
27.670821
27.304894
27.304898
27.304867
26.76303
26.763052
26.763063
25.974534
25.974579
25.974649
24.85102
24.851096
24.851241
23.288042
23.288154
23.288388
21.174651
21.174802
21.175131
18.400155
18.400294
18.400627
14.878571
14.878506
14.878507
10.5799
10.579302
10.578385
5.5561288
5.5551273
5.5534705
13477.143
13533.472
5988.482
5328.5499
2082.3205
1880.3736
921.65359
853.16041
489.86581
462.88295
296.42067
284.39559
196.07627
190.27455
138.28871
135.31553
102.49066
100.89587
79.136617
78.251174
63.331848
62.826393
52.379571
52.083453
44.712251
44.533731
39.370404
39.258981
35.725525
35.653314
33.328927
33.280446
31.834687
31.801224
30.966487
30.942846
30.494753
30.477091
30.191254
30.176459
29.960127
29.947472
29.767282
29.756289
29.593032
29.583417
29.426822
29.418443
29.264748
29.257541
29.108388
29.102309
28.962659
28.957642
28.832582
28.828523
28.720902
28.717671
28.627572
28.625024
28.550438
28.548434
28.486147
28.484565
28.430711
28.429451
28.379596
28.378581
28.327368
28.326541
28.266954
28.266273
28.188526
28.187963
28.077981
28.077517
27.914996
27.914621
27.670658
27.670371
27.304766
27.30457
26.763036
26.762946
25.974715
25.974752
24.851426
24.851622
23.288719
23.289111
21.175623
21.176229
18.401214
18.401972
14.878928
14.879561
10.578134
10.57784
5.5523809
5.5498727
12058.189
2043.4612
696.64609
369.16448
281.32145
257.08223
249.93826
246.8946
244.5484
242.1543
239.63198
236.88096
234.04342
231.1296
228.105
224.90525
221.4168
217.44339
212.65192
206.48766
198.02883
185.72274
166.87705
136.47547
82.796949
12058.133
2037.4201
697.7793
374.70737
283.2262
254.37213
242.83121
235.62072
229.52035
223.73285
218.06148
212.44013
206.93826
201.53591
196.21164
190.93702
185.65541
180.26268
174.5714
168.25876
160.77304
151.14713
137.58527
116.39407
78.140568
12058.179
2030.5422
718.59496
430.63458
359.22706
332.29712
314.93854
300.45598
287.23447
274.70132
262.73894
251.16269
240.19939
229.75017
219.75331
210.19464
201.0532
192.28267
183.78218
175.37309
166.74155
157.30596
145.86144
129.45406
98.773855
12058.526
2031.8878
817.47425
608.58553
549.69308
512.50025
479.50639
449.02375
421.07108
394.78709
370.13876
347.15883
325.9766
306.13562
287.49425
270.05852
253.81579
238.7338
224.75737
211.79506
199.70603
188.26392
177.02859
164.81911
146.37957
12061.524
2151.0122
1232.1399
1078.0719
989.28337
906.44867
827.97442
756.59115
692.71878
633.6476
579.34052
529.75342
485.70106
445.45084
408.50473
374.86748
344.40038
316.93141
292.28004
270.25255
250.65307
233.30691
218.10061
205.2071
195.70336
12087.235
3822.1897
2807.9986
2403.3833
2094.9386
1826.0761
1590.7456
1387.4079
1211.4126
1059.5379
928.7168
816.12627
719.22717
635.5886
563.27793
500.7797
446.79266
400.18412
359.97813
325.34095
295.56559
270.07887
248.47749
230.85794
218.45622
10362.241
7901.6295
6095.7536
4786.1023
3816.678
3081.9494
2513.2395
2066.3382
1711.6396
1427.9578
1199.5113
1014.4438
863.80734
740.68731
639.59162
556.14869
486.90331
429.1441
380.75025
340.06068
305.77227
276.88187
252.6763
233.03711
219.24516
4088.6631
3305.3056
2841.7564
2466.514
2147.3847
1866.9663
1622.2838
1410.6787
1229.2659
1073.7572
940.35532
825.6494
726.66392
641.23308
567.50996
503.89564
449.01032
401.67563
360.8893
325.8011
295.69438
269.9907
248.27729
230.6312
218.24191
1593.7535
1399.1888
1268.9658
1160.7451
1058.5546
961.30905
872.64886
793.63044
721.61453
656.37879
598.03688
546.44499
499.06478
455.77444
416.44972
380.89629
348.88287
320.17681
294.54705
271.77736
251.67005
234.05721
218.82814
206.13629
196.94386
770.59235
707.36283
661.14302
620.58387
580.2521
540.1421
502.58716
467.96997
435.88056
406.29182
379.24895
354.47406
331.28245
309.576
289.34525
270.57723
253.24188
237.29768
222.6939
209.36658
197.22163
186.09234
175.61004
164.70832
148.55316
433.59843
409.85256
391.11932
373.87992
356.1317
337.84554
319.98335
302.97368
286.89899
271.81227
257.72349
244.50822
231.95938
220.03372
208.75999
198.13502
188.15184
178.78959
170.0035
161.7018
153.69101
145.54106
136.21838
122.93898
96.588291
271.98741
261.5266
252.84643
244.66584
236.13418
227.18408
218.17801
209.37766
200.90488
192.81734
185.1233
177.77385
170.69689
163.86961
157.30397
151.00396
144.96066
139.14385
133.48655
127.8526
121.96792
115.26896
106.54598
93.008302
67.114098
184.42132
179.31244
174.88422
170.64395
166.21395
161.52699
156.71577
151.92183
147.23276
142.69405
138.31592
134.07975
129.95629
125.9301
121.99625
118.14519
114.35445
110.57852
106.7323
102.66082
98.082049
92.476524
84.861008
73.238443
52.375209
132.34046
129.6719
127.28167
124.96398
122.5448
119.976
117.30416
114.59988
111.91757
109.28843
106.72151
104.20922
101.73615
99.288191
96.851834
94.407288
91.921395
89.338616
86.567349
83.45831
79.771618
75.13423
69.020314
60.943257
51.582709
99.301603
97.838073
96.494538
95.180139
93.811123
92.356108
90.830426
89.267379
87.697439
86.139903
84.601039
83.076379
81.554859
80.02189
78.458853
76.839234
75.123328
73.251153
71.133012
68.637344
65.579138
61.724276
56.866759
51.162953
46.141086
77.362171
76.529617
75.75015
74.982573
74.185466
73.339418
72.447816
71.525712
70.588783
69.647576
68.705076
67.756861
66.792512
65.79641
64.74684
63.613317
62.35263
60.903765
59.181798
57.071724
54.426245
51.080052
46.915752
42.067741
36.999863
62.314372
61.825951
61.360952
60.900443
60.423433
59.918219
59.384108
58.827218
58.254884
57.67174
57.077768
56.467545
55.830168
55.148896
54.40004
53.550739
52.555904
51.354387
49.864543
47.979479
45.562629
42.442468
38.390233
32.972812
24.428251
51.77949
51.48394
51.197825
50.912487
50.617186
50.304834
49.973657
49.625518
49.263108
48.887432
48.496228
48.082883
47.635714
47.137044
46.561813
45.875556
45.031787
43.968771
42.605556
40.836686
38.523379
35.473002
31.376906
25.595956
16.341774
44.347132
44.161495
43.978161
43.793281
43.601295
43.397997
43.181561
42.951875
42.709123
42.452161
42.177208
41.876707
41.538256
41.143391
40.66598
40.070236
39.308251
38.317054
37.014893
35.295946
33.020925
29.996652
25.925316
20.269854
11.853121
39.139729
39.017615
38.893789
38.766662
38.633385
38.491455
38.339309
38.176044
38.000542
37.810433
37.600979
37.36394
37.086349
36.749067
36.325039
35.777212
35.056151
34.097324
32.817947
31.11297
28.849007
25.853253
21.890995
16.621942
9.4751188
35.57355
35.488915
35.400236
35.306837
35.207304
35.100159
34.984141
34.858057
34.720202
34.567532
34.394727
34.193081
33.949162
33.643236
33.247381
32.723331
32.020141
31.071772
29.794768
28.086263
25.822676
22.859437
19.032409
14.164979
8.0857193
33.224735
33.163125
33.096016
33.023137
32.943758
32.857003
32.761884
32.657142
32.540793
32.409448
32.257446
32.075718
31.850426
31.561276
31.179552
30.665899
29.968072
29.018871
27.734634
26.015125
23.746397
20.808661
17.09152
12.517805
7.0602094
31.760905
31.714138
31.660996
31.601301
31.534669
31.460539
31.378121
31.286164
31.182555
31.063699
30.923672
30.753102
30.537749
30.256763
29.880737
29.369454
28.66973
27.713802
26.41834
24.685379
22.407903
19.482654
15.831791
11.430517
6.3340747
30.912777
30.876028
30.832421
30.781757
30.723772
30.658056
30.583896
30.500032
30.404247
30.292769
30.159432
29.99455
29.783451
29.504728
29.128386
28.613586
27.906517
26.93975
25.631198
23.88469
21.596948
18.673471
15.053383
10.739645
5.8297575
30.4537
30.424052
30.387808
30.344653
30.29422
30.235979
30.169079
30.092086
30.002577
29.896555
29.7676
29.605724
29.395884
29.11618
28.735706
28.213067
27.493529
26.511636
25.188493
23.429538
21.132417
18.205783
14.595238
10.31215
5.4753919
30.156794
30.131803
30.101083
30.064248
30.020858
29.970313
29.911681
29.843434
29.763042
29.666385
29.546908
29.394462
29.193751
28.922255
28.547054
28.022181
27.289759
26.289418
24.950805
23.181789
20.878362
17.949151
14.342047
10.07333
5.3001642
29.930481
29.908677
29.881615
29.848862
29.809935
29.764193
29.710661
29.647768
29.572949
29.482067
29.368604
29.222542
29.028866
28.765567
28.400961
27.890384
27.174481
26.172511
24.82293
23.048752
20.743675
17.815268
14.212166
9.9528749
5.2032417
29.741273
29.721714
29.697133
29.667071
29.631021
29.588324
29.537997
29.478475
29.407233
29.320243
29.211184
29.070345
28.883098
28.62785
28.273385
27.775645
27.076563
26.096574
24.746855
22.974411
20.67267
17.748993
14.153055
9.9055734
5.1694653
29.569958
29.552088
29.529304
29.501139
29.467097
29.426543
29.378543
29.32162
29.253395
29.170047
29.065525
28.930412
28.750341
28.503902
28.159996
27.674709
26.990371
26.028675
24.692899
22.928527
20.63385
17.717522
14.130064
9.8926735
5.1665818
29.406346
29.389915
29.368647
29.342108
29.309857
29.271344
29.225756
29.171775
29.107218
29.028477
28.929694
28.801585
28.629825
28.392965
28.059893
27.586965
26.915212
25.96855
24.650151
22.896444
20.610493
17.70245
14.123209
9.8929455
5.1713995
29.246776
29.231812
29.212178
29.187512
29.157474
29.121639
29.079341
29.029419
28.969836
28.897092
28.805373
28.685345
28.522554
28.29538
27.972585
27.510532
26.850252
25.916496
24.613935
22.871259
20.594223
17.694354
14.123532
9.903812
5.2142659
29.092942
29.079657
29.062049
29.039843
29.012805
28.98062
28.942727
28.898049
28.84459
28.778837
28.694888
28.583255
28.429291
28.211188
27.897602
27.444979
26.794827
25.871512
24.582249
22.849923
20.581131
17.688341
14.124141
9.9123782
5.2327783
28.949726
28.938339
28.923146
28.903948
28.88058
28.852783
28.820026
28.781231
28.734354
28.675783
28.599469
28.495751
28.349795
28.139643
27.833884
27.389049
26.746963
25.832508
24.554278
22.831229
20.569775
17.682876
14.123327
9.9165392
5.2452657
28.822028
28.812604
28.799983
28.784007
28.764537
28.741314
28.713777
28.680785
28.640198
28.588277
28.518822
28.422015
28.282877
28.079349
27.779994
27.341452
26.705859
25.798732
24.529606
22.81469
20.559764
17.677923
14.121569
9.9178482
5.2619242
28.712467
28.704887
28.694711
28.6818
28.666005
28.64703
28.624255
28.596449
28.561367
28.515145
28.451455
28.360354
28.22676
28.028552
27.734304
27.300776
26.670433
25.769494
24.507767
22.799905
20.550848
17.673564
14.118983
9.9094527
5.2356107
28.620919
28.614936
28.606889
28.596641
28.584016
28.568671
28.549913
28.526429
28.495872
28.454275
28.395209
28.308637
28.179409
27.98537
27.695121
27.265542
26.639372
25.743346
24.488015
22.78632
20.54257
17.669676
14.117724
9.9066235
5.2247583
28.545219
28.540538
28.53423
28.526153
28.5161
28.503681
28.48814
28.468087
28.441097
28.403119
28.347647
28.264579
28.138717
27.947894
27.660745
27.234267
26.611439
25.719445
24.469566
22.773248
20.534287
17.665545
14.116272
9.9032295
5.2116043
28.482045
28.478384
28.473437
28.467057
28.45901
28.448864
28.43581
28.4184
28.394145
28.358935
28.306203
28.225801
28.102503
27.914139
27.629386
27.205347
26.585221
25.696591
24.451396
22.759741
20.525063
17.660065
14.113295
9.9005614
5.2268286
28.427462
28.42458
28.420674
28.415587
28.409067
28.400646
28.389477
28.374067
28.351879
28.318756
28.26809
28.189699
28.068341
27.881851
27.598948
27.176837
26.558914
25.673109
24.431913
22.744419
20.513678
17.652228
14.107931
9.8958502
5.201203
28.376995
28.374701
28.371579
28.367466
28.362093
28.354969
28.345216
28.331307
28.310669
28.279111
28.229994
28.153115
28.03322
27.848155
27.566684
27.146109
26.530005
25.646613
24.408909
22.725205
20.498235
17.640424
14.099079
9.8896227
5.2079571
28.32526
28.32341
28.320878
28.317498
28.312987
28.306836
28.298144
28.28536
28.265884
28.235498
28.187544
28.111799
27.993006
27.809027
27.528672
27.109336
26.494769
25.6135
24.378952
22.698853
20.475744
17.622083
14.084941
9.8794478
5.2029179
28.265227
28.263717
28.261633
28.258807
28.254947
28.24953
28.241639
28.229702
28.211101
28.181598
28.134516
28.059624
27.941665
27.758521
27.479049
27.060747
26.447536
25.56824
24.336721
22.660325
20.441557
17.593075
14.061995
9.8633446
5.1941184
28.187102
28.185856
28.184119
28.181719
28.178358
28.173503
28.166224
28.154932
28.136997
28.108163
28.061743
27.987499
27.870179
27.687692
27.408955
26.991577
26.379677
25.502394
24.274073
22.601906
20.388557
17.54704
14.024726
9.8374212
5.1838925
28.076808
28.075775
28.074314
28.072251
28.069283
28.064867
28.058064
28.047275
28.029854
28.001538
27.95563
27.881891
27.765083
27.583154
27.305098
26.888668
26.278221
25.403283
24.178776
22.51204
20.30617
17.474812
13.965802
9.7963882
5.1702317
27.914044
27.913192
27.91196
27.910174
27.907526
27.903466
27.897047
27.88666
27.869652
27.84175
27.796257
27.722941
27.606593
27.425215
27.14792
26.732653
26.124095
25.252279
24.032885
22.373795
20.178935
17.363053
13.874802
9.731495
5.1157397
27.669917
27.669227
27.668198
27.666653
27.664278
27.660521
27.654425
27.644378
27.62772
27.600177
27.555057
27.482152
27.366301
27.185606
26.909346
26.495757
25.889976
25.022746
23.81078
22.163027
19.984754
17.192414
13.736002
9.6328714
5.0431288
27.304241
27.303709
27.302873
27.301551
27.299427
27.295944
27.290142
27.280404
27.264071
27.236879
27.192157
27.119743
27.004564
26.824882
26.550241
26.139306
25.537889
24.67774
23.47703
21.846425
19.693167
16.936095
13.527043
9.4844155
4.976757
26.762752
26.762389
26.76175
26.760653
26.758777
26.755563
26.75005
26.740625
26.724639
26.697851
26.653639
26.581928
26.467801
26.289772
26.017804
25.611205
25.01678
24.167738
22.98434
21.379705
19.263889
16.558924
13.218999
9.2627619
4.8366767
25.974718
25.974547
25.974128
25.973276
25.971668
25.968743
25.963547
25.954477
25.938914
25.912666
25.869202
25.798605
25.68621
25.510945
25.243402
24.843846
24.260542
23.428743
22.272033
20.706387
18.645984
16.017208
12.777732
8.9467262
4.6568513
24.851785
24.851844
24.851687
24.851123
24.849827
24.847243
24.842429
24.833813
24.818824
24.793367
24.751071
24.682279
24.572742
24.402026
24.141646
23.75326
23.187361
22.38243
21.26587
19.757769
17.777991
15.258687
12.162178
8.5094573
4.4272517
23.289513
23.289853
23.290013
23.289798
23.288881
23.286719
23.2824
23.274402
23.260244
23.235989
23.195527
23.129621
23.024674
22.861242
22.612357
22.241835
21.703015
20.9383
19.88023
18.455109
16.590062
14.224529
11.326526
7.9184255
4.1186755
21.176882
21.17751
21.177995
21.17813
21.177587
21.175861
21.172104
21.164879
21.151847
21.129319
21.091582
21.030046
20.932099
20.779764
20.548188
20.204147
19.70498
18.99839
18.023676
16.715244
15.009243
12.853977
10.224154
7.1429133
3.7159942
18.402782
18.403615
18.404331
18.404703
18.404404
18.40303
18.399871
18.393625
18.382168
18.362177
18.328448
18.273347
18.185702
18.049631
17.843231
17.537287
17.094471
16.469454
15.610172
14.461064
12.968999
11.092491
8.8135433
6.1550071
3.2057072
14.880069
14.880977
14.881651
14.881919
14.881497
14.880196
14.877565
14.872526
14.863329
14.847227
14.819302
14.773335
14.700222
14.586966
14.415632
14.162264
13.796415
13.28169
12.576695
11.637722
10.423605
8.9039577
7.0681881
4.9381019
2.5861584
10.576276
10.57838
10.578932
10.578718
10.577788
10.576286
10.574119
10.570616
10.564844
10.555074
10.53545
10.501909
10.448338
10.365526
10.240595
10.056181
9.7902591
9.41782
8.9101026
8.2366838
7.3688875
6.2875255
4.9887437
3.4915215
1.8433748
5.542693
5.5520345
5.5537239
5.5533395
5.5522903
5.5509981
5.5496311
5.5480971
5.5467505
5.5453602
5.5364316
5.5187332
5.4899432
5.4454423
5.3784017
5.2792741
5.1350175
4.9359216
4.6668646
4.3115091
3.8542326
3.28614
2.607664
1.832372
0.99344488
)
;

boundaryField
{
    Walls
    {
        Cmu             0.09;
        kappa           0.41;
        E               9.8;
        beta1           0.075;
        type            omegaWallFunction;
        value           nonuniform List<scalar> 
38
(
12058.189
12058.133
12058.179
12058.526
12061.524
12087.235
13477.143
13533.472
14921.097
15029.738
15114.042
15197.63
15266.86
15321.784
15372.782
15411.131
15440.622
15464.066
15484.906
15504.681
15519.729
15534.049
15543.681
15547.591
15555.624
15564.524
15564.288
15571.197
15579.841
15574.448
15575.15
15578.63
15577.341
15571.355
15567.422
15561.381
15549.434
15491.82
)
;
    }
    Inlet
    {
        type            turbulentMixingLengthDissipationRateInlet;
        mixingLength    0.03;
        phi             phi;
        k               k;
        value           nonuniform List<scalar> 3(0.0041807439 0.0041791561 0.0053031494);
    }
    Outlet
    {
        type            inletOutlet;
        inletValue      uniform 1e-05;
        value           nonuniform List<scalar> 
86
(
1e-05
1e-05
1e-05
1e-05
1e-05
1e-05
1e-05
1e-05
1e-05
1e-05
1e-05
1e-05
1e-05
1e-05
1e-05
1e-05
1e-05
1e-05
1e-05
1e-05
1e-05
1e-05
1e-05
1e-05
1e-05
1e-05
1e-05
1e-05
1e-05
1e-05
219.24516
218.24191
196.94386
1e-05
1e-05
1e-05
1e-05
51.582709
46.141086
36.999863
1e-05
1e-05
1e-05
1e-05
8.0857193
7.0602094
6.3340747
5.8297575
5.4753919
5.3001642
5.2032417
5.1694653
5.1665818
5.1713995
5.2142659
5.2327783
5.2452657
5.2619242
5.2356107
5.2247583
5.2116043
5.2268286
1e-05
1e-05
1e-05
1e-05
1e-05
1e-05
1e-05
1e-05
1e-05
1e-05
1e-05
1e-05
1e-05
1e-05
1e-05
1e-05
1e-05
1e-05
1e-05
1e-05
1e-05
1e-05
195.70336
218.45622
)
;
    }
    Front
    {
        type            wedge;
    }
    Back
    {
        type            wedge;
    }
    defaultFaces
    {
        type            empty;
    }
}


// ************************************************************************* //
