/*--------------------------------*- C++ -*----------------------------------*\
| =========                 |                                                 |
| \\      /  F ield         | OpenFOAM: The Open Source CFD Toolbox           |
|  \\    /   O peration     | Version:  4.0                                   |
|   \\  /    A nd           | Web:      www.OpenFOAM.org                      |
|    \\/     M anipulation  |                                                 |
\*---------------------------------------------------------------------------*/
FoamFile
{
    version     2.0;
    format      ascii;
    class       volScalarField;
    location    "0.42";
    object      p;
}
// * * * * * * * * * * * * * * * * * * * * * * * * * * * * * * * * * * * * * //

dimensions      [0 2 -2 0 0 0 0];

internalField   nonuniform List<scalar> 
1740
(
491.79837
491.80827
491.83268
475.73998
475.60861
475.48742
459.65505
459.44926
459.01975
443.00733
442.92288
442.63978
426.20672
426.32295
426.51034
409.92848
410.12424
410.3372
393.97009
393.9655
393.99634
377.50515
377.47102
377.46588
360.55335
360.65563
360.57984
343.52939
343.45435
343.42697
326.49543
326.43053
326.5038
309.5788
309.79101
309.58497
292.94136
293.02055
292.69022
276.67923
276.51388
276.65629
260.41771
260.35132
260.71453
244.38603
244.50448
244.57699
228.51128
228.63375
228.61611
211.83519
211.92199
212.0386
194.9144
195.04109
195.02617
178.37852
178.55442
178.43257
162.1983
162.08432
162.09799
145.63174
145.39721
145.44896
128.3382
128.49696
128.5983
111.41209
111.5127
111.72134
95.078093
94.737635
94.871426
78.660088
78.538481
78.407577
62.392997
62.50247
61.984955
46.35289
46.068018
45.535693
30.478901
30.161097
30.093273
15.702762
15.629522
15.508597
3.8389105
3.420471
1.6534107
-0.72781287
-0.62116709
-0.39197813
-0.20237941
-0.17427135
-0.12769062
-0.066756568
-0.054622256
-0.034469945
-0.038352077
-0.031340322
-0.019405073
-0.025755567
-0.021735375
-0.014818983
-0.019473252
-0.017129841
-0.012937137
-0.015773488
-0.014374148
-0.011789661
-0.013288604
-0.012408132
-0.010731991
-0.011272055
-0.010691224
-0.0095588695
-0.0096591543
-0.0092608573
-0.0084706028
-0.008475432
-0.0081959333
-0.007630895
-0.0076442023
-0.0074437607
-0.0070308443
-0.0070649949
-0.0069169672
-0.0066078508
-0.0066588681
-0.0065468646
-0.0063103968
-0.0063591597
-0.0062725334
-0.0060879452
-0.0061213312
-0.0060528831
-0.0059060226
-0.0059194094
-0.0058642499
-0.0057452927
-0.0057379414
-0.0056926729
-0.0055946375
-0.0055666717
-0.0055288698
-0.0054467136
-0.0053981194
-0.0053660377
-0.005296114
-0.0052267907
-0.0051991598
-0.0051388027
-0.005048917
-0.0050248005
-0.0049720261
-0.0048622485
-0.0048409489
-0.004794272
-0.0046658332
-0.0046468286
-0.0046051327
-0.0044597426
-0.0044426409
-0.0044050842
-0.0042448192
-0.0042293241
-0.0041952704
-0.0040224644
-0.0040083518
-0.0039773195
-0.0037944417
-0.0037815414
-0.0037531628
-0.0035627168
-0.0035508976
-0.0035248902
-0.0033293254
-0.0033184895
-0.003294641
-0.0030962924
-0.0030863618
-0.0030645022
-0.0028655377
-0.0028564489
-0.0028364397
-0.0026388123
-0.0026305133
-0.0026122414
-0.0024176583
-0.0024101046
-0.0023934722
-0.0022033724
-0.0021965239
-0.0021814427
-0.0019969869
-0.0019908064
-0.0019771939
-0.0017992621
-0.0017937144
-0.0017814918
-0.0016106897
-0.0016057413
-0.0015948325
-0.0014315043
-0.0014271229
-0.0014174537
-0.0012617013
-0.0012578493
-0.0012493497
-0.0011010458
-0.0010976893
-0.0010902917
-0.00094910169
-0.00094621333
-0.00093985217
-0.00080526115
-0.00080281483
-0.00079742966
-0.00066875302
-0.00066672472
-0.00066226096
-0.00053864776
-0.00053701663
-0.00053342722
-0.00041387157
-0.00041262058
-0.0004098673
-0.00029325019
-0.00029236616
-0.00029041957
-0.00017539184
-0.00017486448
-0.00017370265
-5.8604289e-05
-5.8429103e-05
-5.8041677e-05
-1.2841851
-0.90326654
-0.30714922
-0.23469266
-0.098407194
-0.087783658
-0.02258808
-0.019567902
-0.0096552184
-0.0036233164
-0.0084104779
-0.0033623563
-0.0085340675
-0.004788984
-0.0088569387
-0.0061137633
-0.0087397291
-0.0067533586
-0.0081665163
-0.0067135712
-0.0074612891
-0.0063714132
-0.0068875695
-0.0060495628
-0.0064698645
-0.0058217981
-0.0061789595
-0.0056702177
-0.0059765094
-0.0055713069
-0.0058235261
-0.0054966992
-0.005693265
-0.005426494
-0.0055714385
-0.0053508583
-0.0054503098
-0.0052654184
-0.0053250379
-0.0051679635
-0.0051920602
-0.0050569002
-0.0050486392
-0.004930913
-0.0048929466
-0.0047892442
-0.0047241571
-0.0046318857
-0.0045423759
-0.0044595535
-0.0043484652
-0.0042735746
-0.0041438661
-0.0040757488
-0.0039304289
-0.0038681986
-0.003710248
-0.0036532303
-0.003485541
-0.0034332166
-0.0032585402
-0.003210505
-0.0030314009
-0.0029873348
-0.0028061335
-0.0027657726
-0.0025845624
-0.0025476924
-0.0023682741
-0.0023347033
-0.0021585931
-0.0021281484
-0.0019565689
-0.0019290875
-0.0017629731
-0.0017382972
-0.0015783049
-0.0015562824
-0.0014028059
-0.001383288
-0.0012364737
-0.0012193166
-0.0010790837
-0.0010641497
-0.00093021444
-0.00091737271
-0.00078927069
-0.00077839962
-0.00065549805
-0.00064648733
-0.00052798909
-0.00052074353
-0.00040569587
-0.0004001379
-0.00028746928
-0.00028353807
-0.00017194169
-0.00016959475
-5.7454213e-05
-5.6671022e-05
0.005849334
0.0059361553
0.0061432446
0.0064534548
0.0067722816
0.0070173178
0.0071222698
0.0070670002
0.0068550552
0.0065020915
0.0060407362
0.0055093948
0.0049440392
0.0043740702
0.0038203265
0.0032962138
0.0028089667
0.0023604037
0.0019493351
0.0015734175
0.0012301239
0.00091536457
0.00062484411
0.00035584665
0.00010928571
0.0056047821
0.0057053964
0.0059273937
0.006232173
0.0064930956
0.0066277731
0.0065940059
0.00638146
0.0060080169
0.0055262814
0.004985524
0.0044233362
0.0038664076
0.0033317558
0.0028308347
0.0023713694
0.0019600807
0.0015996375
0.0012844724
0.0010104928
0.00077342105
0.00056529777
0.00038020831
0.00021638511
7.2999638e-05
0.0013744755
0.0015260843
0.0017583232
0.001884394
0.0017075496
0.0012128814
0.00048359143
-0.00034221985
-0.0010765838
-0.0016827003
-0.0021507715
-0.00248784
-0.0027079665
-0.0028270252
-0.0028510664
-0.0027877812
-0.0026489671
-0.002446789
-0.0021874084
-0.0018803539
-0.0015383636
-0.0011793804
-0.00081424797
-0.00045294624
-0.00011324439
-0.014380825
-0.014266761
-0.014585656
-0.015567891
-0.016812508
-0.017890117
-0.01855571
-0.018765814
-0.018630555
-0.018205283
-0.017537287
-0.016689578
-0.015706358
-0.014604629
-0.013412423
-0.01215426
-0.010849511
-0.0095138357
-0.0081620017
-0.0068086486
-0.0054684233
-0.0041637599
-0.0028915855
-0.0016624799
-0.00050380771
-0.065232166
-0.064939542
-0.06469411
-0.062593766
-0.059855906
-0.056321295
-0.05239384
-0.04826943
-0.044074779
-0.039926971
-0.035981302
-0.032267379
-0.028757318
-0.02522747
-0.021960338
-0.01897146
-0.016247868
-0.01376877
-0.011506749
-0.0094308355
-0.0075092254
-0.0057024158
-0.0039995776
-0.0023773217
-0.00082158882
-0.22864665
-0.18608049
-0.16554167
-0.13463654
-0.10928897
-0.087094038
-0.068251387
-0.052874999
-0.040510934
-0.030626631
-0.022733648
-0.016514114
-0.011673819
-0.0080948521
-0.005333968
-0.0032766083
-0.0017844102
-0.00074432391
-6.6643416e-05
0.00032287259
0.0004877706
0.00048905942
0.00037140538
0.00017965401
-8.7142947e-05
-0.32984149
-0.1283525
-0.0791274
-0.042495643
-0.009165729
0.017184843
0.033829255
0.041881411
0.044583916
0.044535266
0.042962647
0.040452246
0.037375364
0.03400203
0.03052552
0.02706696
0.023698136
0.020455825
0.017351871
0.014382463
0.01153473
0.0087938097
0.0061354504
0.0035495781
0.00094999039
-0.1919444
-0.16798697
-0.14398636
-0.11967922
-0.096678153
-0.076356602
-0.059205257
-0.045272651
-0.034149848
-0.025319347
-0.018416899
-0.013065233
-0.0089572891
-0.0058112295
-0.0034451835
-0.0017134962
-0.00049006059
0.00032495585
0.00081120496
0.0010346661
0.0010515854
0.00091272946
0.00066185887
0.0003443822
-4.1824247e-05
-0.083010924
-0.079387
-0.075905826
-0.072000035
-0.067467972
-0.062430504
-0.057322519
-0.052254983
-0.047302861
-0.042635126
-0.03822472
-0.033949771
-0.029921381
-0.026212582
-0.022820141
-0.019724368
-0.016875682
-0.014271838
-0.01189275
-0.009713361
-0.0077070965
-0.0058462152
-0.0041043842
-0.0024503209
-0.00085682626
-0.019013759
-0.019992148
-0.0217077
-0.023447168
-0.024859758
-0.025728351
-0.026034429
-0.025799563
-0.025122798
-0.024128177
-0.022908132
-0.021528023
-0.020017033
-0.018409251
-0.016739549
-0.01503615
-0.013346008
-0.011662122
-0.0099889772
-0.0083329536
-0.0067008557
-0.0051003254
-0.0035408699
-0.0020352642
-0.00061935091
-0.00048199236
0.0012297868
0.001551304
0.00070861271
-0.00087623173
-0.0026393998
-0.004144854
-0.0053158149
-0.0061560796
-0.0067053055
-0.0070196025
-0.0071291684
-0.0070591784
-0.0068369291
-0.0064921528
-0.0060451643
-0.0055184372
-0.0049297048
-0.0042934371
-0.0036227838
-0.0029308534
-0.0022311637
-0.0015376842
-0.0008639062
-0.00023599478
0.00016176811
0.0027043574
0.004323858
0.0051731519
0.005539925
0.0053218387
0.0047142782
0.0038997891
0.0030604877
0.0022809541
0.001556972
0.0009521352
0.00047128963
0.00010435476
-0.00015967838
-0.00033826996
-0.00044586119
-0.00049585103
-0.00049976758
-0.00046773355
-0.00040899198
-0.00033167753
-0.0002421924
-0.00014313835
-3.6002764e-05
-0.001824961
0.00052948286
0.0023013213
0.0035127474
0.0042198051
0.0046131091
0.0046709978
0.0044850404
0.0041524937
0.0037593058
0.0033403685
0.0029067963
0.002491543
0.002109712
0.0017667644
0.0014652326
0.0012018121
0.00097423355
0.00077888373
0.00060924587
0.00046045285
0.00032922168
0.0002134473
0.00011316698
3.1893867e-05
-0.0037627481
-0.0017777719
-0.00014058752
0.001151271
0.0021113539
0.0027867487
0.0031882345
0.0033555077
0.0033159522
0.0031251317
0.0028946499
0.0026318316
0.0023447147
0.0020513489
0.0017675116
0.0015013491
0.0012556695
0.0010346234
0.0008394268
0.00066629191
0.00051251011
0.00037528566
0.00025190319
0.0001403462
3.9941548e-05
-0.0049279054
-0.0032902068
-0.0018530521
-0.0006454271
0.00034021536
0.0011199782
0.0016927125
0.0020705619
0.0022708588
0.0023267816
0.0022928379
0.0021893069
0.0020352499
0.0018460632
0.0016345694
0.0014228602
0.0012230423
0.001039401
0.00086411848
0.0007006554
0.000549338
0.0004096375
0.00028069876
0.00016063573
4.7652001e-05
-0.0053092684
-0.0039957404
-0.0028022558
-0.0017499365
-0.000838658
-6.9521872e-05
0.00055537387
0.0010360556
0.0013755545
0.0015891488
0.0017037344
0.0017385719
0.0017094261
0.0016324255
0.0015231133
0.0013821434
0.0012271339
0.0010648013
0.00090316611
0.00074699562
0.00059592349
0.00045064077
0.00031192396
0.00018010227
5.4329691e-05
-0.0052815278
-0.0042366031
-0.003261101
-0.0023645068
-0.0015644973
-0.00085979877
-0.00025506685
0.00024678016
0.00064414441
0.00094195124
0.0011501718
0.0012830922
0.0013496815
0.0013610027
0.0013281271
0.0012622924
0.001166044
0.0010459159
0.00091157078
0.00076748264
0.00062060224
0.00047498389
0.00033293251
0.00019523022
6.0703954e-05
-0.0051881805
-0.0043424827
-0.0035338698
-0.0027747571
-0.0020766439
-0.0014458852
-0.00088641809
-0.00040166778
6.7077025e-06
0.00033847948
0.00059752756
0.00079036368
0.00092096347
0.0009987171
0.0010288477
0.0010186141
0.0009734516
0.00089910636
0.00080305866
0.00069185757
0.00057094669
0.00044410319
0.00031366433
0.00018280065
5.5993648e-05
-0.0051338923
-0.0044400795
-0.0037615227
-0.0031130545
-0.0025046821
-0.0019439239
-0.001434697
-0.00098031687
-0.00058274464
-0.00024260996
4.059453e-05
0.00026871025
0.00043998072
0.00056576527
0.0006467564
0.00068791353
0.00069285134
0.00066610691
0.00061384828
0.00054180699
0.00045532877
0.00035863821
0.0002553779
0.00014975526
4.59137e-05
-0.0051161403
-0.0045435982
-0.0039718404
-0.0034161279
-0.0028862883
-0.0023884969
-0.0019272638
-0.0015064345
-0.0011279868
-0.00079334948
-0.00050291441
-0.00025689639
-5.528276e-05
0.00010496286
0.00022572127
0.00030951846
0.00035916468
0.00037845268
0.00037189445
0.00034371567
0.00029841041
0.00024022588
0.00017237211
0.00010193457
3.3437624e-05
-0.0051204472
-0.0046444853
-0.0041614627
-0.0036833358
-0.0032196446
-0.0027768235
-0.0023597201
-0.0019715689
-0.0016154689
-0.0012927257
-0.0010038313
-0.00074981309
-0.00053080988
-0.00034622798
-0.0001951473
-7.6226822e-05
1.2404761e-05
7.3382544e-05
0.0001096724
0.00012474362
0.00012216706
0.00010567
7.8980716e-05
4.827633e-05
1.6916951e-05
-0.0051260002
-0.0047278072
-0.0043163433
-0.0039031647
-0.0034957944
-0.0031009644
-0.0027234259
-0.0023665502
-0.0020330847
-0.0017245724
-0.0014425861
-0.0011874307
-0.00095950932
-0.00075918936
-0.00058620459
-0.00043998478
-0.00031945177
-0.00022297714
-0.0001485382
-9.3608465e-05
-5.5350821e-05
-3.0613449e-05
-1.603552e-05
-7.5680399e-06
-2.6133874e-06
-0.0051187741
-0.004782993
-0.0044302215
-0.0040703227
-0.0037110383
-0.003358037
-0.0030158223
-0.0026879709
-0.0023767882
-0.0020840874
-0.0018113271
-0.001559071
-0.001328135
-0.0011185816
-0.00093059434
-0.00076408912
-0.00061855829
-0.0004930785
-0.00038632458
-0.00029655959
-0.00022166104
-0.0001591845
-0.00010655012
-6.1188939e-05
-2.0756852e-05
-0.0050927677
-0.0048070532
-0.0045025456
-0.0041873234
-0.0038684645
-0.003551598
-0.0032408055
-0.0029391857
-0.0026491365
-0.0023724227
-0.0021102708
-0.0018635443
-0.0016329189
-0.0014186395
-0.0012209875
-0.0010400257
-0.00087560359
-0.00072727304
-0.00059424625
-0.00047540481
-0.00036929615
-0.00027422025
-0.00018840158
-0.00010986575
-3.66508e-05
-0.0050465801
-0.0048012423
-0.0045364134
-0.004258756
-0.0039743658
-0.0036884431
-0.003405028
-0.0031268035
-0.0028561053
-0.0025946176
-0.0023434865
-0.0021035649
-0.0018754393
-0.0016595044
-0.001456048
-0.0012652234
-0.001087053
-0.00092137186
-0.000767794
-0.00062567872
-0.00049414059
-0.00037209739
-0.00025841914
-0.00015150927
-5.0011533e-05
-0.0049803384
-0.0047676672
-0.004535525
-0.0042894309
-0.0040344957
-0.003775268
-0.0035155167
-0.0032579636
-0.0030045802
-0.0027570486
-0.0025165759
-0.0022839465
-0.0020596937
-0.0018442284
-0.0016378472
-0.0014407568
-0.0012530753
-0.0010748142
-0.00090585489
-0.00074591893
-0.00059456342
-0.0004512072
-0.00031517792
-0.00018537315
-6.0958657e-05
-0.0048942001
-0.004708086
-0.004502974
-0.004283347
-0.0040535133
-0.0038173428
-0.0035781849
-0.0033387373
-0.0031008339
-0.0028660527
-0.0026356058
-0.0024103495
-0.0021907968
-0.0019773414
-0.0017702625
-0.001569794
-0.0013761199
-0.0011893696
-0.0010096065
-0.00083681085
-0.00067086672
-0.00051157191
-0.00035864714
-0.00021133728
-6.9292729e-05
-0.0047882784
-0.0046238719
-0.0044411889
-0.0042438341
-0.0040353575
-0.0038191065
-0.003597998
-0.0033745222
-0.0031505963
-0.0029275958
-0.0027066792
-0.0024887451
-0.0022744385
-0.0020641397
-0.0018581271
-0.00165666
-0.0014599542
-0.0012682191
-0.0010816497
-0.00090039949
-0.0007245806
-0.00055425493
-0.00038945395
-0.00022973416
-7.5131707e-05
-0.0046629301
-0.0045164004
-0.004352431
-0.0041739005
-0.0039837469
-0.0037847972
-0.0035796322
-0.0033704944
-0.0031592679
-0.0029473035
-0.0027356402
-0.0025251548
-0.0023165499
-0.0021103131
-0.0019068072
-0.0017063055
-0.0015090572
-0.0013153291
-0.0011253976
-0.00093952232
-0.00075796302
-0.00058096776
-0.0004087687
-0.00024123942
-7.8683672e-05
-0.0045189934
-0.00438734
-0.0042391112
-0.0040766293
-0.0039023184
-0.0037185693
-0.0035276322
-0.0033315323
-0.0031320127
-0.0029304573
-0.0027279098
-0.0025251561
-0.0023228584
-0.0021215998
-0.0019218487
-0.0017239587
-0.001528257
-0.0013350538
-0.0011446583
-0.00095740943
-0.00077366171
-0.00059377819
-0.00041813325
-0.00024679848
-8.0257639e-05
-0.0043578507
-0.0042387212
-0.004103888
-0.0039552438
-0.0037947872
-0.003624542
-0.0034464527
-0.0032623384
-0.0030738018
-0.0028821855
-0.0026885875
-0.0024938254
-0.0022985264
-0.0021032667
-0.0019085383
-0.0017147902
-0.001522441
-0.001331849
-0.0011433855
-0.00095746079
-0.00077449617
-0.00059490758
-0.00041915939
-0.00024743523
-8.0366762e-05
-0.0041813404
-0.0040729083
-0.0039496382
-0.0038130879
-0.003664911
-0.0035068138
-0.0033404939
-0.0031675639
-0.0029894776
-0.0028075454
-0.0026228353
-0.0024362416
-0.0022484774
-0.0020600949
-0.0018715886
-0.0016834331
-0.0014960604
-0.0013099139
-0.0011254366
-0.00094308442
-0.00076331739
-0.00058660463
-0.00041346421
-0.00024408376
-7.9194554e-05
-0.0039916561
-0.0038925003
-0.0037793777
-0.0036535577
-0.0035164209
-0.0033694109
-0.0032140233
-0.0030516769
-0.0028837069
-0.0027113306
-0.0025356084
-0.0023574507
-0.0021776291
-0.0019967613
-0.0018153912
-0.0016339854
-0.0014529945
-0.0012728958
-0.0010941561
-0.00091723871
-0.00074262663
-0.00057083959
-0.00040242112
-0.00023753409
-7.6963787e-05
-0.0037912259
-0.0037002482
-0.0035961598
-0.0034800093
-0.0033529469
-0.0032162233
-0.0030711212
-0.0029189103
-0.0027608148
-0.0025979697
-0.0024313958
-0.0022620021
-0.0020905755
-0.0019177953
-0.0017442526
-0.0015704571
-0.001396908
-0.0012240678
-0.0010524006
-0.00088237475
-0.00071448272
-0.00054924915
-0.00038721388
-0.00022850942
-7.393068e-05
-0.0035825961
-0.0034989512
-0.0034030347
-0.0032957196
-0.0031779796
-0.0030509001
-0.002915587
-0.0027731777
-0.0026247848
-0.0024714655
-0.0023142028
-0.0021538829
-0.0019912957
-0.0018271464
-0.001662055
-0.0014965875
-0.0013312594
-0.0011665467
-0.0010029177
-0.00084084955
-0.00068082973
-0.0005233485
-0.00036892657
-0.00021767251
-7.0328793e-05
-0.0033683217
-0.0032913583
-0.0032029405
-0.0031038021
-0.0029947966
-0.002876843
-0.0027509154
-0.0026180308
-0.002479203
-0.0023354145
-0.0021875942
-0.0020365986
-0.0018832058
-0.0017281336
-0.0015720251
-0.0014154644
-0.0012589804
-0.0011030687
-0.00094820494
-0.00079484868
-0.00064347113
-0.00049453026
-0.00034852468
-0.00020561647
-6.6397151e-05
-0.0031508795
-0.0030800884
-0.0029986472
-0.0029071601
-0.0028064007
-0.0026971488
-0.0025802696
-0.0024566678
-0.0023272718
-0.0021929888
-0.002054693
-0.0019132001
-0.0017692507
-0.0016235799
-0.0014768361
-0.0013296057
-0.0011824278
-0.0010358069
-0.00089022256
-0.00074607667
-0.00060384938
-0.00046394367
-0.00032677943
-0.00019280289
-6.2215676e-05
-0.0029326006
-0.0028675761
-0.0027927134
-0.0027084327
-0.0026154949
-0.0025145863
-0.0024064596
-0.0022919074
-0.0021717946
-0.0020469505
-0.0019182011
-0.0017863233
-0.0016519358
-0.0015158602
-0.0013787216
-0.0012410931
-0.0011035022
-0.00096644359
-0.00083037813
-0.00069579342
-0.00056306893
-0.00043263405
-0.00030500029
-0.00017966517
-5.7636771e-05
-0.0027156105
-0.0026559471
-0.002587165
-0.0025098502
-0.0024244124
-0.002331517
-0.0022318548
-0.0021261538
-0.002015132
-0.0018995681
-0.0017802114
-0.0016578169
-0.0015331955
-0.0014068796
-0.0012794918
-0.0011516099
-0.0010237599
-0.00089642543
-0.00077005744
-0.00064509236
-0.00052191638
-0.000400898
-0.00028243553
-0.00016654385
-5.3647347e-05
-0.0025018521
-0.0024473155
-0.0023844275
-0.0023136244
-0.0022353488
-0.002150157
-0.0020586628
-0.0019615185
-0.0018594007
-0.0017529995
-0.0016430194
-0.0015301489
-0.0014150807
-0.0012984152
-0.0011807317
-0.0010625781
-0.0009444588
-0.00082683851
-0.00071014775
-0.00059478948
-0.00048113635
-0.00036954477
-0.00026040818
-0.00015348524
-4.9232238e-05
-0.0022929571
-0.00224328
-0.0021859746
-0.0021214056
-0.0020499917
-0.0019722075
-0.0018885917
-0.0017997416
-0.0017062695
-0.001608807
-0.0015079935
-0.0014044642
-0.0012988409
-0.0011917057
-0.0010836122
-0.00097507434
-0.00086657201
-0.000758546
-0.00065140175
-0.00054551435
-0.00044123292
-0.00033888925
-0.00023885898
-0.00014072826
-4.4981998e-05
-0.0020902859
-0.0020452212
-0.0019932199
-0.0019346013
-0.0018697395
-0.0017990522
-0.0017230232
-0.0016421771
-0.0015570691
-0.0014682705
-0.0013763637
-0.0012819311
-0.001185543
-0.001087737
-0.00098903235
-0.00088991174
-0.00079082477
-0.00069218399
-0.00059436702
-0.00049771916
-0.00040255855
-0.00030918477
-0.00021797947
-0.00012840296
-4.0894693e-05
-0.0018949072
-0.0018542196
-0.001807258
-0.0017543037
-0.0016956866
-0.0016317856
-0.0015630262
-0.0014898689
-0.001412809
-0.001332365
-0.0012490637
-0.0011634338
-0.0010759931
-0.00098723947
-0.00089764928
-0.00080767301
-0.00071772484
-0.00062818649
-0.0005394056
-0.00045169577
-0.00036534166
-0.00028060347
-0.00019790981
-0.00011655565
-3.6924293e-05
-0.0017076049
-0.0016710657
-0.001628886
-0.0015813132
-0.0015286397
-0.0014712021
-0.0014093747
-0.0013435661
-0.0012742156
-0.0012017853
-0.0011267516
-0.001049584
-0.00097075607
-0.00089072137
-0.00080991462
-0.00072874823
-0.00064760079
-0.00056682247
-0.00048672865
-0.00040760214
-0.00032969076
-0.0002531932
-0.00017864509
-0.00010518692
-3.3145228e-05
-0.0015288895
-0.001496276
-0.0014586238
-0.0014161516
-0.0013691166
-0.0013178144
-0.0012625749
-0.0012037598
-0.0011417577
-0.001076978
-0.0010098388
-0.00094076532
-0.00087018081
-0.00079849404
-0.00072609913
-0.00065336476
-0.00058063832
-0.00050823597
-0.00043644336
-0.00036551358
-0.00029566594
-0.00022704068
-0.00016055778
-9.4566787e-05
-2.9423712e-05
-0.0013590104
-0.0013301045
-0.0012967305
-0.0012590799
-0.0012173784
-0.0011718845
-0.0011228871
-0.001070704
-0.0010156759
-0.00095816301
-0.00089853428
-0.00083716622
-0.00077443228
-0.00071069862
-0.00064631666
-0.00058161702
-0.00051691102
-0.00045248282
-0.00038858964
-0.00032546242
-0.0002633118
-0.00020222655
-0.00014356922
-8.4381703e-05
-2.584062e-05
-0.0011979754
-0.0011725654
-0.0011432259
-0.0011101244
-0.0010734568
-0.0010334479
-0.00099034931
-0.00094443673
-0.00089600705
-0.00084537543
-0.00079286448
-0.00073880309
-0.00068351929
-0.00062733568
-0.00057056098
-0.00051349048
-0.00045640021
-0.00039954231
-0.00034314787
-0.00028742579
-0.00023256219
-0.0001786918
-0.00012636086
-7.4262212e-05
-2.3010001e-05
-0.0010455736
-0.0010234555
-0.00099791627
-0.00096910024
-0.00093717654
-0.00090233879
-0.00086480381
-0.00082480966
-0.00078261178
-0.00073848248
-0.00069270086
-0.00064555186
-0.00059732046
-0.0005482868
-0.00049872095
-0.00044888166
-0.00039900878
-0.00034932682
-0.0003000395
-0.00025133304
-0.0002033705
-0.00015626941
-0.00011033254
-6.4810408e-05
-2.0128744e-05
-0.00090139942
-0.00088238026
-0.00086041866
-0.00083563796
-0.00080818241
-0.00077821705
-0.00074592666
-0.00071151386
-0.00067519569
-0.00063720553
-0.00059778132
-0.00055716652
-0.00051560524
-0.00047333793
-0.00043059756
-0.00038760643
-0.0003445725
-0.00030169018
-0.0002591366
-0.00021707072
-0.00017563285
-0.00013492706
-9.5153469e-05
-5.5913404e-05
-1.7439054e-05
-0.00076487774
-0.00074877751
-0.00073018618
-0.00070920761
-0.00068596303
-0.00066059107
-0.00063324677
-0.00060410018
-0.00057333436
-0.00054114349
-0.00050772853
-0.00047329406
-0.00043804564
-0.00040218624
-0.000365913
-0.00032941398
-0.00029286639
-0.00025643507
-0.00022027049
-0.00018450724
-0.00014926421
-0.00011464147
-8.0770477e-05
-4.7495957e-05
-1.4887259e-05
-0.00063527967
-0.00062193516
-0.00060652596
-0.00058913783
-0.0005698707
-0.00054883859
-0.00052616911
-0.00050200216
-0.00047648843
-0.00044978731
-0.00042206388
-0.00039348691
-0.00036422572
-0.00033444799
-0.00030431695
-0.00027398827
-0.00024360922
-0.00021331696
-0.00018323631
-0.0001534796
-0.00012414687
-9.5326631e-05
-6.7146095e-05
-3.9493411e-05
-1.2414168e-05
-0.00051173153
-0.00050100141
-0.0004886111
-0.0004746293
-0.00045913595
-0.00044222219
-0.0004239899
-0.00040455079
-0.00038402512
-0.00036253997
-0.00034022767
-0.00031722328
-0.00029366233
-0.00026967921
-0.00024540544
-0.0002209659
-0.00019647917
-0.00017205599
-0.00014779692
-0.00012379327
-0.00010012777
-7.6877039e-05
-5.4153886e-05
-3.1853914e-05
-1.0020978e-05
-0.0003932248
-0.00038499348
-0.00037548813
-0.00036476115
-0.00035287349
-0.0003398946
-0.00032590215
-0.00031098133
-0.00029522387
-0.0002787269
-0.00026159183
-0.00024392206
-0.00022582206
-0.00020739465
-0.00018873961
-0.00016995405
-0.00015112899
-0.00013234877
-0.00011369177
-9.5229071e-05
-7.702567e-05
-5.9142456e-05
-4.1667969e-05
-2.4509617e-05
-7.7066277e-06
-0.00027864807
-0.00027282517
-0.00026610021
-0.00025850994
-0.00025009714
-0.00024091058
-0.00023100495
-0.00022044038
-0.00020928169
-0.00019759764
-0.00018545969
-0.0001729416
-0.0001601171
-0.00014705895
-0.00013383785
-0.00012052247
-0.00010717743
-9.3862697e-05
-8.063425e-05
-6.7543358e-05
-5.4637182e-05
-4.195916e-05
-2.9573483e-05
-1.7392411e-05
-5.4522496e-06
-0.00016667475
-0.00016319721
-0.00015918019
-0.00015464546
-0.00014961838
-0.00014412803
-0.00013820699
-0.00013189118
-0.00012521937
-0.00011823276
-0.00011097419
-0.00010348762
-9.5817126e-05
-8.8006113e-05
-8.0096886e-05
-7.2130344e-05
-6.4145263e-05
-5.6177913e-05
-4.8262103e-05
-4.0429154e-05
-3.2707761e-05
-2.5122372e-05
-1.7717349e-05
-1.0412641e-05
-3.2449616e-06
-5.5696433e-05
-5.4535301e-05
-5.3193786e-05
-5.1679099e-05
-4.9999673e-05
-4.8165209e-05
-4.6186622e-05
-4.4075947e-05
-4.184621e-05
-3.9511184e-05
-3.7085368e-05
-3.458346e-05
-3.202014e-05
-2.9409805e-05
-2.6766489e-05
-2.4103866e-05
-2.1434983e-05
-1.8772119e-05
-1.6126777e-05
-1.3509653e-05
-1.0930424e-05
-8.3964283e-06
-5.9262441e-06
-3.4841239e-06
-1.0796696e-06
)
;

boundaryField
{
    Walls
    {
        type            zeroGradient;
    }
    Inlet
    {
        type            fixedValue;
        value           uniform 500;
    }
    Outlet
    {
        type            fixedValue;
        value           uniform 0;
    }
    Front
    {
        type            wedge;
    }
    Back
    {
        type            wedge;
    }
    defaultFaces
    {
        type            empty;
    }
}


// ************************************************************************* //
