/*--------------------------------*- C++ -*----------------------------------*\
| =========                 |                                                 |
| \\      /  F ield         | OpenFOAM: The Open Source CFD Toolbox           |
|  \\    /   O peration     | Version:  4.0                                   |
|   \\  /    A nd           | Web:      www.OpenFOAM.org                      |
|    \\/     M anipulation  |                                                 |
\*---------------------------------------------------------------------------*/
FoamFile
{
    version     2.0;
    format      ascii;
    class       volScalarField;
    location    "0.39";
    object      k;
}
// * * * * * * * * * * * * * * * * * * * * * * * * * * * * * * * * * * * * * //

dimensions      [0 2 -2 0 0 0 0];

internalField   nonuniform List<scalar> 
1740
(
0.0090698728
0.0091273128
0.018426479
0.0092787762
0.0097709972
0.027329688
0.0096041907
0.010435858
0.034563533
0.0098646035
0.01077374
0.041268363
0.009980098
0.010947071
0.047283473
0.010077716
0.011296661
0.052177793
0.010196375
0.01183158
0.055981726
0.010287954
0.012130005
0.059275085
0.010334436
0.012417132
0.061879071
0.01025813
0.012670983
0.064262851
0.010181379
0.01311577
0.066232085
0.010059429
0.013205355
0.06726707
0.0099418071
0.013338721
0.068511941
0.0098351335
0.013606469
0.069728186
0.0097802689
0.013860213
0.06996657
0.0096668556
0.013854601
0.070566323
0.0095033197
0.013857399
0.071372145
0.0093645761
0.014085825
0.071805904
0.009266447
0.014182025
0.072011559
0.0091562928
0.014383647
0.072471113
0.0090703706
0.01473477
0.073285915
0.0089966502
0.015207542
0.073376962
0.0089393528
0.015224773
0.072773408
0.0088036076
0.014897878
0.072942567
0.0086579801
0.014690779
0.073110687
0.008584188
0.014756585
0.072517095
0.0084580049
0.014639734
0.072570568
0.0083859573
0.014973156
0.072353676
0.008375713
0.015088173
0.071564566
0.0089858305
0.016126224
0.066603248
0.012791777
0.018037092
0.047247234
0.023983094
0.031168212
0.039769155
0.010281117
0.012525254
0.013710773
0.0042776536
0.0046051228
0.0046593168
0.0020780449
0.0021197286
0.0020917641
0.0011407429
0.0011414912
0.0011228709
0.00068656359
0.00068402516
0.00067582902
0.0004423419
0.00044098712
0.0004381674
0.00029885325
0.00029844446
0.00029790953
0.00020785069
0.00020787723
0.00020816805
0.00014644025
0.00014660866
0.00014710092
0.00010310801
0.0001032869
0.00010373988
7.1756112e-05
7.1898643e-05
7.2240175e-05
4.8953684e-05
4.9051476e-05
4.927946e-05
3.2578953e-05
3.2638864e-05
3.2776567e-05
2.1131283e-05
2.1164388e-05
2.1239954e-05
1.3411294e-05
1.342774e-05
1.3465222e-05
8.4112707e-06
8.4184594e-06
8.4349851e-06
5.3076205e-06
5.3103588e-06
5.3167702e-06
3.4639712e-06
3.4649166e-06
3.4671782e-06
2.4173663e-06
2.4177497e-06
2.418679e-06
1.8534851e-06
1.8538091e-06
1.8545636e-06
1.5713039e-06
1.5717219e-06
1.5726618e-06
1.4479622e-06
1.4484831e-06
1.4496386e-06
1.4113126e-06
1.4119007e-06
1.4131981e-06
1.420497e-06
1.4211132e-06
1.4224691e-06
1.4531395e-06
1.4537543e-06
1.4551053e-06
1.4973594e-06
1.4979544e-06
1.4992604e-06
1.5470172e-06
1.5475822e-06
1.5488214e-06
1.5989983e-06
1.5995287e-06
1.6006913e-06
1.6517177e-06
1.652212e-06
1.6532951e-06
1.7043223e-06
1.7047809e-06
1.7057853e-06
1.7562747e-06
1.7566987e-06
1.7576271e-06
1.8071328e-06
1.8075238e-06
1.8083798e-06
1.8564211e-06
1.8567808e-06
1.8575682e-06
1.9035334e-06
1.9038637e-06
1.9045865e-06
1.9476333e-06
1.947936e-06
1.9485982e-06
1.9875295e-06
1.9878064e-06
1.988412e-06
2.0215117e-06
2.0217646e-06
2.0223178e-06
2.0471397e-06
2.0473705e-06
2.0478752e-06
2.0609859e-06
2.0611963e-06
2.0616566e-06
2.0583494e-06
2.0585414e-06
2.0589611e-06
2.0329832e-06
2.0331583e-06
2.0335411e-06
1.9769136e-06
1.9770735e-06
1.9774228e-06
1.880485e-06
1.8806312e-06
1.8809504e-06
1.7328255e-06
1.7329595e-06
1.7332511e-06
1.5230603e-06
1.5231824e-06
1.5234471e-06
1.2428081e-06
1.2429161e-06
1.243149e-06
8.9092777e-07
8.9101416e-07
8.9119989e-07
4.8051986e-07
4.8057145e-07
4.8068255e-07
0.056037142
0.060693607
0.046070485
0.046566902
0.012472494
0.011345598
0.0043546319
0.0041223506
0.0019996171
0.0019400117
0.0010927349
0.0010770262
0.00066649609
0.00066416955
0.00043613852
0.00043778973
0.00029831826
0.00030079686
0.00020921462
0.00021148877
0.00014813854
0.00014992642
0.00010456495
0.00010585304
7.2823245e-05
7.3688672e-05
4.9655821e-05
5.0199096e-05
3.2999846e-05
3.331707e-05
2.1361411e-05
2.1532558e-05
1.3525377e-05
1.3609987e-05
8.4617333e-06
8.4995901e-06
5.3273614e-06
5.3425956e-06
3.4710368e-06
3.476743e-06
2.4203013e-06
2.4227501e-06
1.8558141e-06
1.8576262e-06
1.5741394e-06
1.5761806e-06
1.451415e-06
1.4538151e-06
1.4151747e-06
1.4178199e-06
1.4245259e-06
1.4272654e-06
1.4571496e-06
1.4598652e-06
1.5012335e-06
1.5038501e-06
1.5506917e-06
1.5531686e-06
1.6024445e-06
1.6047641e-06
1.6549273e-06
1.6570853e-06
1.7072982e-06
1.7092971e-06
1.759025e-06
1.760871e-06
1.8096681e-06
1.8113687e-06
1.8587529e-06
1.8603161e-06
1.9056736e-06
1.9071077e-06
1.9495939e-06
1.950907e-06
1.9893226e-06
1.9905229e-06
2.0231493e-06
2.0242451e-06
2.0486337e-06
2.0496331e-06
2.0623482e-06
2.0632591e-06
2.0595915e-06
2.0604215e-06
2.0341159e-06
2.0348722e-06
1.977947e-06
1.9786362e-06
1.8814285e-06
1.8820559e-06
1.7336863e-06
1.7342559e-06
1.5238401e-06
1.5243534e-06
1.2434937e-06
1.2439463e-06
8.9147601e-07
8.9184168e-07
4.8084829e-07
4.8105278e-07
4.318141e-06
2.7007644e-05
0.00013447382
0.0003050969
0.00046240244
0.00057340566
0.00064371173
0.00068731125
0.00071598832
0.00073687866
0.00075402624
0.00077045596
0.00078581343
0.00079985985
0.00081228548
0.00082254372
0.00082965724
0.00083197138
0.00082678641
0.00080984592
0.00077462935
0.00071148772
0.00060698085
0.00044416925
0.0002021798
2.5308155e-06
5.4756797e-05
0.00025107839
0.00051597917
0.00072793451
0.00085946458
0.00093539125
0.000979865
0.0010083278
0.0010288131
0.0010455677
0.0010611272
0.0010753527
0.001087976
0.0010986006
0.0011066054
0.0011108645
0.0011094748
0.0010992574
0.0010751166
0.0010290898
0.00094896199
0.0008165254
0.00060633872
0.00028717117
7.9304795e-06
0.00015993051
0.00061598418
0.0010798033
0.0013628068
0.0015055058
0.0015728973
0.0016043871
0.0016199702
0.0016281145
0.0016331959
0.0016361301
0.0016381225
0.0016385197
0.0016368214
0.001632552
0.0016246559
0.0016113445
0.001589222
0.0015527195
0.0014928529
0.0013949619
0.0012344179
0.00096839769
0.00052142487
3.7491313e-05
0.00057902299
0.0016853027
0.0024362578
0.0027729525
0.0028867506
0.0028960267
0.002865698
0.002825576
0.0027806291
0.0027359133
0.0026933102
0.0026533163
0.0026127598
0.0025710852
0.0025286881
0.002485066
0.0024387928
0.002387131
0.0023253283
0.0022455114
0.0021344494
0.0019678867
0.0016929799
0.0011529915
0.00028015046
0.0024441133
0.0049105754
0.0060310777
0.0063773519
0.0063160403
0.0060872447
0.0058245109
0.005575292
0.0053248399
0.0050848773
0.0048607312
0.0046573903
0.0044603652
0.0042689869
0.0040879586
0.0039181957
0.0037591081
0.003608881
0.0034640353
0.0033189326
0.0031653682
0.0029923785
0.0027916644
0.0025816097
0.0023532337
0.010504822
0.016546378
0.018496471
0.018041041
0.016489128
0.014678206
0.012993671
0.011514516
0.010240191
0.0091503635
0.0082224721
0.0074310643
0.0067522843
0.0061684908
0.0056664593
0.005234866
0.0048634204
0.0045427302
0.0042639705
0.0040183071
0.0037967957
0.003590883
0.0033999255
0.0032394229
0.044862088
0.033995826
0.02650891
0.02136279
0.017722245
0.01503039
0.01295152
0.011301149
0.0099726055
0.0088921767
0.008003311
0.0072620503
0.0066346603
0.0060961482
0.0056284972
0.0052193405
0.0048601915
0.0045446563
0.004267302
0.0040229208
0.0038059437
0.0036104183
0.0034306523
0.0032680373
0.0031377922
0.037230423
0.030938139
0.027729971
0.025102899
0.022237636
0.019267944
0.016554865
0.014260124
0.012381972
0.010843276
0.0095747339
0.0085195809
0.0076343022
0.0068890889
0.0062602408
0.005728344
0.0052771265
0.0048929225
0.0045640248
0.0042799308
0.0040306007
0.0038062822
0.0035978509
0.0034044843
0.0032420141
0.010207274
0.0095347742
0.0091954915
0.0088758767
0.0084143168
0.007850382
0.0072940346
0.0067986791
0.0063483432
0.005950671
0.005602639
0.0052984261
0.0050127187
0.0047485777
0.0045074227
0.0042885618
0.0040899163
0.0039086076
0.0037407679
0.003581387
0.0034237753
0.0032590222
0.0030756868
0.0028652112
0.002646038
0.0039639758
0.0038909192
0.0038684846
0.0038276789
0.0037332522
0.0035982617
0.00345862
0.0033291418
0.0032123905
0.003110497
0.0030225019
0.0029452971
0.0028733054
0.0028059543
0.0027430679
0.0026838363
0.0026266067
0.0025688089
0.0025066994
0.0024348212
0.0023449091
0.0022236011
0.0020466074
0.0017603362
0.0012028082
0.0019224952
0.001935742
0.0019607039
0.0019753922
0.0019687841
0.0019443841
0.0019131635
0.0018821234
0.0018543413
0.0018311217
0.001812269
0.001796546
0.0017822963
0.001768866
0.0017559215
0.0017422772
0.0017260875
0.0017045973
0.0016737863
0.0016277317
0.0015574338
0.0014485753
0.0012770582
0.0010001736
0.00054105438
0.0010810948
0.0010993201
0.0011227371
0.0011425379
0.0011541864
0.0011584578
0.0011589213
0.0011585742
0.0011591527
0.0011614113
0.0011653214
0.0011703312
0.0011756777
0.0011807059
0.0011846974
0.0011864828
0.0011842848
0.0011755218
0.0011565161
0.0011220292
0.001064514
0.00097294067
0.00083109919
0.00061583066
0.00029708511
0.00067118744
0.0006852064
0.00070216947
0.00071823522
0.00073126048
0.00074120555
0.00074928926
0.00075680664
0.00076466367
0.00077329258
0.00078271423
0.00079265016
0.00080264683
0.00081214978
0.00082041405
0.00082634257
0.00082836749
0.00082430552
0.0008111767
0.00078497218
0.00074037128
0.00067045725
0.00056655753
0.00041814425
0.00020886858
0.00044409689
0.00045409096
0.00046592053
0.00047780077
0.00048864393
0.00049824671
0.00050700677
0.00051547742
0.00052410366
0.00053312091
0.00054254389
0.0005522016
0.0005617757
0.00057080906
0.0005786559
0.00058439911
0.00058676955
0.00058406438
0.00057407005
0.00055401699
0.00052063806
0.00047052645
0.00040133395
0.00031547981
0.00023142575
0.00030574829
0.00031275483
0.0003209509
0.0003294642
0.0003377126
0.00034550936
0.00035296207
0.00036029886
0.00036772594
0.0003753563
0.00038318467
0.00039108657
0.00039882218
0.00040602665
0.00041217759
0.00041654911
0.00041816573
0.00041576685
0.00040779825
0.00039246876
0.00036795327
0.00033292249
0.00028779481
0.00023756566
0.00019744029
0.00021515666
0.00022002218
0.00022566678
0.00023164781
0.00023764335
0.00024351146
0.00024925991
0.00025497269
0.00026073767
0.00026660028
0.00027253963
0.00027845737
0.0002841697
0.0002893945
0.00029372959
0.00029662589
0.00029736448
0.00029504775
0.00028862063
0.00027695025
0.00025901403
0.00023427913
0.0002034025
0.00016946211
0.0001387235
0.00015253311
0.00015585958
0.00015969526
0.00016380605
0.00016800852
0.00017220307
0.00017636635
0.00018052031
0.00018469527
0.00018890196
0.00019311308
0.00019725075
0.00020117696
0.00020468227
0.00020747079
0.00020914527
0.00020919649
0.00020700499
0.00020186475
0.00019304099
0.00017987169
0.00016189616
0.00013887382
0.00011007518
6.9729733e-05
0.0001076313
0.00010984695
0.00011238937
0.00011513087
0.00011796383
0.00012082027
0.00012367154
0.00012651464
0.00012935389
0.00013218424
0.00013497851
0.0001376777
0.00014018247
0.00014234462
0.00014395729
0.00014474642
0.00014436589
0.00014240083
0.00013838268
0.00013181744
0.00012221751
0.00010909745
9.1809378e-05
6.8875686e-05
3.6129428e-05
7.4846386e-05
7.6267113e-05
7.7890495e-05
7.9645159e-05
8.1466952e-05
8.3310265e-05
8.5149536e-05
8.6973821e-05
8.8777197e-05
9.0549305e-05
9.2267171e-05
9.3888718e-05
9.5346273e-05
9.6540761e-05
9.7335501e-05
9.7551255e-05
9.6963573e-05
9.5304309e-05
9.2267896e-05
8.7520048e-05
8.069881e-05
7.1385501e-05
5.900621e-05
4.2620268e-05
2.0737278e-05
5.0912328e-05
5.1778566e-05
5.2764695e-05
5.3829782e-05
5.4935436e-05
5.6051667e-05
5.7158607e-05
5.8244491e-05
5.9300862e-05
6.0317302e-05
6.127666e-05
6.2150768e-05
6.2896362e-05
6.3451326e-05
6.3730913e-05
6.3624686e-05
6.2994653e-05
6.1674928e-05
5.9472684e-05
5.6168217e-05
5.1509541e-05
4.519666e-05
3.6860325e-05
2.6080887e-05
1.2674835e-05
3.372886e-05
3.4225505e-05
3.4788347e-05
3.5394313e-05
3.6020282e-05
3.6647135e-05
3.7260644e-05
3.7851017e-05
3.8410758e-05
3.8931548e-05
3.9401752e-05
3.9803818e-05
4.0111902e-05
4.0289605e-05
4.0287746e-05
4.0042414e-05
3.9473384e-05
3.8482874e-05
3.6954297e-05
3.4750119e-05
3.1708377e-05
2.7641065e-05
2.2349325e-05
1.5703726e-05
7.9818578e-06
2.175331e-05
2.2018227e-05
2.2316932e-05
2.2636334e-05
2.296299e-05
2.3285028e-05
2.3592988e-05
2.3879816e-05
2.4139867e-05
2.4367452e-05
2.4555358e-05
2.4693388e-05
2.476711e-05
2.4756565e-05
2.4634944e-05
2.4367307e-05
2.3909287e-05
2.3205703e-05
2.2188907e-05
2.0776925e-05
1.8872551e-05
1.6367816e-05
1.316491e-05
9.2406451e-06
4.8328661e-06
1.3718861e-05
1.3849047e-05
1.3994923e-05
1.4149209e-05
1.4304253e-05
1.4453024e-05
1.4589616e-05
1.4709404e-05
1.4808661e-05
1.488381e-05
1.4930698e-05
1.494381e-05
1.4915563e-05
1.4835564e-05
1.4689885e-05
1.4460165e-05
1.4122644e-05
1.3646998e-05
1.2994992e-05
1.211937e-05
1.0964281e-05
9.4703479e-06
7.5900718e-06
5.3245859e-06
2.8090873e-06
8.5484428e-06
8.6067557e-06
8.671587e-06
8.7390244e-06
8.8048323e-06
8.8650125e-06
8.9161048e-06
8.9553017e-06
8.9803183e-06
8.9890699e-06
8.9792746e-06
8.9480633e-06
8.8915787e-06
8.8045398e-06
8.6797477e-06
8.507613e-06
8.275375e-06
7.9662986e-06
7.5587282e-06
7.0255094e-06
6.33483e-06
5.4540768e-06
4.3591194e-06
3.0526284e-06
1.6042577e-06
5.3624312e-06
5.3861055e-06
5.4121188e-06
5.4384358e-06
5.4627988e-06
5.4830209e-06
5.4971687e-06
5.5036415e-06
5.5011238e-06
5.4884388e-06
5.4643607e-06
5.4273941e-06
5.3755509e-06
5.3060779e-06
5.2151304e-06
5.0973974e-06
4.9455481e-06
4.7495828e-06
4.4966331e-06
4.1705466e-06
3.7525626e-06
3.2239794e-06
2.5715369e-06
1.7967559e-06
9.3659276e-07
3.4842905e-06
3.493307e-06
3.5030495e-06
3.5124771e-06
3.5204236e-06
3.5257229e-06
3.5273279e-06
3.5243485e-06
3.5160412e-06
3.5017362e-06
3.4807337e-06
3.4521811e-06
3.4149272e-06
3.367336e-06
3.3070682e-06
3.2307513e-06
3.1336505e-06
3.0092679e-06
2.8489198e-06
2.6420245e-06
2.3765366e-06
2.0407236e-06
1.6265262e-06
1.135012e-06
5.8955223e-07
2.4260309e-06
2.4299655e-06
2.4341871e-06
2.4381701e-06
2.4413113e-06
2.4429937e-06
2.4426439e-06
2.439759e-06
2.4338945e-06
2.4246278e-06
2.4114923e-06
2.3938947e-06
2.3710052e-06
2.3416163e-06
2.3039668e-06
2.2555097e-06
2.1926645e-06
2.1105624e-06
2.0026972e-06
1.8610701e-06
1.6768884e-06
1.4417845e-06
1.150204e-06
8.0330076e-07
4.166088e-07
1.8600035e-06
1.8628564e-06
1.8659968e-06
1.8691526e-06
1.8720012e-06
1.8742035e-06
1.8754288e-06
1.8753671e-06
1.873721e-06
1.8701756e-06
1.8643541e-06
1.8557489e-06
1.8436327e-06
1.8269366e-06
1.8040982e-06
1.7728715e-06
1.730113e-06
1.6715848e-06
1.5918081e-06
1.4840267e-06
1.3409157e-06
1.1556526e-06
9.2381334e-07
6.4621602e-07
3.3425761e-07
1.5787807e-06
1.5818863e-06
1.5853903e-06
1.5891384e-06
1.5929425e-06
1.5965974e-06
1.5998903e-06
1.6026034e-06
1.6045041e-06
1.6053211e-06
1.6047038e-06
1.6021624e-06
1.5969863e-06
1.5881307e-06
1.5740747e-06
1.5526485e-06
1.5208411e-06
1.474634e-06
1.4088997e-06
1.3174417e-06
1.1935401e-06
1.0310283e-06
8.2598765e-07
5.7911259e-07
2.9970007e-07
1.4568254e-06
1.4604045e-06
1.46448e-06
1.4689498e-06
1.4736883e-06
1.478552e-06
1.4833833e-06
1.4880067e-06
1.4922181e-06
1.4957607e-06
1.4982876e-06
1.4993043e-06
1.4980878e-06
1.4935774e-06
1.4842348e-06
1.4678774e-06
1.4414975e-06
1.4011037e-06
1.341643e-06
1.2570884e-06
1.1409151e-06
9.8718512e-07
7.9221543e-07
5.5687691e-07
2.9034431e-07
1.4211129e-06
1.4250155e-06
1.4294689e-06
1.4343939e-06
1.4396929e-06
1.4452513e-06
1.450937e-06
1.4565946e-06
1.4620323e-06
1.4669983e-06
1.4711428e-06
1.4739608e-06
1.4747108e-06
1.4723047e-06
1.4651678e-06
1.4510719e-06
1.426958e-06
1.3887804e-06
1.3314373e-06
1.2488821e-06
1.1345849e-06
9.8262035e-07
7.8936298e-07
5.5584028e-07
2.9221066e-07
1.4306623e-06
1.4346784e-06
1.4392603e-06
1.4443392e-06
1.4498306e-06
1.4556344e-06
1.4616314e-06
1.4676767e-06
1.4735849e-06
1.4791062e-06
1.4838871e-06
1.4874124e-06
1.4889222e-06
1.4872996e-06
1.4809282e-06
1.4675233e-06
1.4439532e-06
1.4060832e-06
1.3487082e-06
1.2656764e-06
1.1503565e-06
9.9672729e-07
8.0110551e-07
5.645822e-07
2.9757753e-07
1.463224e-06
1.4671876e-06
1.4717056e-06
1.4767143e-06
1.4821369e-06
1.4878812e-06
1.4938362e-06
1.4998634e-06
1.5057822e-06
1.5113437e-06
1.5161916e-06
1.5198015e-06
1.5213965e-06
1.5198317e-06
1.5134487e-06
1.4999029e-06
1.4759812e-06
1.4374453e-06
1.3789636e-06
1.2942428e-06
1.1765054e-06
1.0195768e-06
8.1960986e-07
5.7749664e-07
3.037378e-07
1.5070807e-06
1.5108875e-06
1.5152219e-06
1.5200243e-06
1.5252228e-06
1.5307312e-06
1.5364443e-06
1.5422288e-06
1.5479076e-06
1.5532333e-06
1.5578466e-06
1.5612153e-06
1.5625462e-06
1.5606675e-06
1.5538788e-06
1.5397746e-06
1.5150577e-06
1.4753798e-06
1.4152737e-06
1.3282909e-06
1.2074922e-06
1.0465405e-06
8.4143906e-07
5.9298633e-07
3.1190859e-07
1.5562229e-06
1.5598176e-06
1.5639063e-06
1.5684326e-06
1.5733291e-06
1.5785142e-06
1.5838878e-06
1.5893209e-06
1.5946397e-06
1.5995977e-06
1.6038332e-06
1.6068062e-06
1.6077078e-06
1.6053398e-06
1.5979599e-06
1.5831014e-06
1.5573822e-06
1.5163413e-06
1.4543726e-06
1.3648673e-06
1.2407201e-06
1.0754319e-06
8.6486851e-07
6.0983635e-07
3.215799e-07
1.6076216e-06
1.6109813e-06
1.6147991e-06
1.619022e-06
1.6235861e-06
1.6284144e-06
1.6334109e-06
1.6384509e-06
1.643363e-06
1.6479016e-06
1.6517023e-06
1.6542172e-06
1.6546221e-06
1.6516921e-06
1.6436434e-06
1.6279483e-06
1.601139e-06
1.5586413e-06
1.4947084e-06
1.4025686e-06
1.2749472e-06
1.1051742e-06
8.8891883e-07
6.2665391e-07
3.2905384e-07
1.6597415e-06
1.6628619e-06
1.666405e-06
1.6703205e-06
1.6745484e-06
1.6790154e-06
1.6836297e-06
1.6882697e-06
1.6927667e-06
1.6968751e-06
1.7002279e-06
1.7022689e-06
1.7021583e-06
1.6986447e-06
1.689903e-06
1.6733444e-06
1.6454158e-06
1.6014297e-06
1.5354975e-06
1.4406827e-06
1.3095364e-06
1.1352135e-06
9.131857e-07
6.4368514e-07
3.3877686e-07
1.711756e-06
1.7146426e-06
1.7179177e-06
1.721534e-06
1.7254348e-06
1.7295505e-06
1.7337927e-06
1.738043e-06
1.7421343e-06
1.7458213e-06
1.7487336e-06
1.7503066e-06
1.7496847e-06
1.7455901e-06
1.7361563e-06
1.7187338e-06
1.6896848e-06
1.6442091e-06
1.5762759e-06
1.4787824e-06
1.3441005e-06
1.1652047e-06
9.3737824e-07
6.60644e-07
3.475328e-07
1.7631405e-06
1.7658031e-06
1.7688218e-06
1.7721524e-06
1.775741e-06
1.7795216e-06
1.7834086e-06
1.7872863e-06
1.7909894e-06
1.7942719e-06
1.7967599e-06
1.7978803e-06
1.7967615e-06
1.792099e-06
1.7819854e-06
1.7637111e-06
1.7335542e-06
1.686603e-06
1.616686e-06
1.5165334e-06
1.3783355e-06
1.1948879e-06
9.6134546e-07
6.7784974e-07
3.5636671e-07
1.8134584e-06
1.8159086e-06
1.8186847e-06
1.8217448e-06
1.8250383e-06
1.8285019e-06
1.8320529e-06
1.8355779e-06
1.8389128e-06
1.8418109e-06
1.8438942e-06
1.844581e-06
1.8429835e-06
1.8377708e-06
1.826995e-06
1.8078867e-06
1.7766417e-06
1.7282383e-06
1.6563667e-06
1.5535931e-06
1.4119274e-06
1.223982e-06
9.8475846e-07
6.94388e-07
3.6525484e-07
1.8622361e-06
1.8644861e-06
1.8670336e-06
1.8698393e-06
1.8728551e-06
1.8760203e-06
1.879255e-06
1.8824477e-06
1.8854351e-06
1.8879694e-06
1.8896686e-06
1.889942e-06
1.8878856e-06
1.8821424e-06
1.8707242e-06
1.8508034e-06
1.8184948e-06
1.7686698e-06
1.6948841e-06
1.5895455e-06
1.4444901e-06
1.2521531e-06
1.0073842e-06
7.1027034e-07
3.719854e-07
1.9088682e-06
1.9109303e-06
1.9132633e-06
1.9158303e-06
1.9185856e-06
1.9214711e-06
1.924409e-06
1.9272896e-06
1.92995e-06
1.9321413e-06
1.933477e-06
1.9333573e-06
1.9308623e-06
1.9246091e-06
1.9125701e-06
1.8918612e-06
1.8585187e-06
1.8073111e-06
1.7316657e-06
1.6238403e-06
1.4755067e-06
1.2789334e-06
1.0288316e-06
7.2529483e-07
3.7991251e-07
1.9525184e-06
1.9544047e-06
1.9565372e-06
1.9588811e-06
1.961393e-06
1.964017e-06
1.9666773e-06
1.9692655e-06
1.9716193e-06
1.973488e-06
1.9744807e-06
1.9739883e-06
1.9710753e-06
1.9643335e-06
1.9516975e-06
1.9302287e-06
1.895889e-06
1.8433501e-06
1.7659202e-06
1.6557191e-06
1.5042705e-06
1.3036934e-06
1.048588e-06
7.3919983e-07
3.880555e-07
1.9919953e-06
1.9937178e-06
1.9956637e-06
1.9977999e-06
2.0000852e-06
2.0024657e-06
2.0048674e-06
2.007183e-06
2.0092502e-06
2.0108166e-06
2.0114865e-06
2.0106421e-06
2.0073323e-06
2.0001248e-06
1.9869184e-06
1.9647239e-06
1.9294347e-06
1.8756348e-06
1.796527e-06
1.6841125e-06
1.5297928e-06
1.3255692e-06
1.065958e-06
7.5134725e-07
3.9384248e-07
2.0255886e-06
2.0271594e-06
2.0289323e-06
2.0308762e-06
2.0329516e-06
2.0351064e-06
2.0372682e-06
2.0393305e-06
2.041131e-06
2.0424152e-06
2.042783e-06
2.0416075e-06
2.0379234e-06
2.0302759e-06
2.0165312e-06
1.9936549e-06
1.9574811e-06
1.90252e-06
1.8218891e-06
1.7074998e-06
1.550671e-06
1.3433408e-06
1.0800004e-06
7.6112771e-07
3.9916996e-07
2.0508577e-06
2.0522887e-06
2.0539022e-06
2.0556688e-06
2.0575506e-06
2.0594973e-06
2.0614376e-06
2.0632658e-06
2.0648192e-06
2.0658416e-06
2.0659281e-06
2.064444e-06
2.0604107e-06
2.0523539e-06
2.0381121e-06
2.0146144e-06
1.9776488e-06
1.9216722e-06
1.839746e-06
1.7237324e-06
1.5649222e-06
1.3552615e-06
1.0893112e-06
7.6775792e-07
4.0329909e-07
2.0643748e-06
2.0656774e-06
2.0671447e-06
2.0687485e-06
2.0704527e-06
2.072208e-06
2.0739446e-06
2.0755574e-06
2.0768833e-06
2.0776642e-06
2.0774915e-06
2.0757235e-06
2.071371e-06
2.0629447e-06
2.0482632e-06
2.0242314e-06
1.9866114e-06
1.9298359e-06
1.8469524e-06
1.7298299e-06
1.5698023e-06
1.3589075e-06
1.0918547e-06
7.6953537e-07
4.0473316e-07
2.0614377e-06
2.062623e-06
2.0639565e-06
2.0654113e-06
2.0669525e-06
2.0685323e-06
2.0700819e-06
2.071497e-06
2.0726142e-06
2.0731746e-06
2.0727665e-06
2.0707439e-06
2.0661112e-06
2.057371e-06
2.042334e-06
2.0178998e-06
1.9798328e-06
1.922584e-06
1.8392451e-06
1.7217684e-06
1.5616245e-06
1.3510428e-06
1.0849565e-06
7.6449315e-07
4.0300445e-07
2.0357975e-06
2.0368757e-06
2.0380865e-06
2.0394044e-06
2.0407958e-06
2.042214e-06
2.0435915e-06
2.044825e-06
2.0457519e-06
2.0461133e-06
2.0454972e-06
2.0432572e-06
2.0383981e-06
2.0294258e-06
2.0141609e-06
1.9895253e-06
1.9513267e-06
1.8940927e-06
1.8110392e-06
1.694305e-06
1.5356188e-06
1.3275272e-06
1.0652608e-06
7.49869e-07
3.9339903e-07
1.9794783e-06
1.9804579e-06
1.9815555e-06
1.9827466e-06
1.9839988e-06
1.9852668e-06
1.9864847e-06
1.9875509e-06
1.9883049e-06
1.9884903e-06
1.9876991e-06
1.9852915e-06
1.9802837e-06
1.9712021e-06
1.955904e-06
1.9313729e-06
1.8935173e-06
1.8370212e-06
1.7553311e-06
1.6409065e-06
1.4858881e-06
1.2832959e-06
1.0287977e-06
7.2359017e-07
3.7912935e-07
1.8828211e-06
1.883709e-06
1.8847006e-06
1.8857723e-06
1.8868934e-06
1.88802e-06
1.889088e-06
1.8899993e-06
1.8905977e-06
1.8906331e-06
1.8897085e-06
1.8872022e-06
1.8821587e-06
1.8731512e-06
1.8581119e-06
1.8341419e-06
1.7973275e-06
1.7426148e-06
1.663819e-06
1.5538876e-06
1.405558e-06
1.2125004e-06
9.7095158e-07
6.8230093e-07
3.5732142e-07
1.7349491e-06
1.7357508e-06
1.7366416e-06
1.7376e-06
1.7385972e-06
1.73959e-06
1.740517e-06
1.7412854e-06
1.7417467e-06
1.7416632e-06
1.7406597e-06
1.7381501e-06
1.7332329e-06
1.7245643e-06
1.7102084e-06
1.6874582e-06
1.6526777e-06
1.6012098e-06
1.5274088e-06
1.4249094e-06
1.2872543e-06
1.1089523e-06
8.8693541e-07
6.227802e-07
3.2624028e-07
1.5249783e-06
1.5256983e-06
1.5264938e-06
1.5273466e-06
1.528231e-06
1.5290992e-06
1.5298952e-06
1.5305345e-06
1.5308813e-06
1.5307177e-06
1.5297065e-06
1.5273224e-06
1.522751e-06
1.5147826e-06
1.5016952e-06
1.4810696e-06
1.4496672e-06
1.4033889e-06
1.3373295e-06
1.2460339e-06
1.1240648e-06
9.6694346e-07
7.7239856e-07
5.4219772e-07
2.8479919e-07
1.2444993e-06
1.2451221e-06
1.2458247e-06
1.2465818e-06
1.2473558e-06
1.2480902e-06
1.2487596e-06
1.249283e-06
1.249541e-06
1.2493458e-06
1.2484177e-06
1.2463216e-06
1.2423664e-06
1.2355395e-06
1.2244641e-06
1.2071193e-06
1.1807911e-06
1.1421199e-06
1.0871632e-06
1.0116041e-06
9.1121641e-07
7.8264882e-07
6.2443188e-07
4.3846553e-07
2.3217496e-07
8.9226202e-07
8.9260722e-07
8.9316448e-07
8.9378565e-07
8.9424811e-07
8.9465351e-07
8.9514179e-07
8.955409e-07
8.9572807e-07
8.9555511e-07
8.9481859e-07
8.9319617e-07
8.901469e-07
8.8492093e-07
8.7668553e-07
8.6393205e-07
8.4459412e-07
8.1624347e-07
7.761195e-07
7.2123716e-07
6.4871862e-07
5.5637945e-07
4.4348131e-07
3.1191432e-07
1.6802049e-07
4.811335e-07
4.8061265e-07
4.8080588e-07
4.810158e-07
4.8000303e-07
4.7938629e-07
4.7949892e-07
4.7971385e-07
4.7982143e-07
4.797177e-07
4.7928794e-07
4.7833991e-07
4.7652e-07
4.7340144e-07
4.6879745e-07
4.6183354e-07
4.5124361e-07
4.3574924e-07
4.1394039e-07
3.8425073e-07
3.4520175e-07
2.9572854e-07
2.3564348e-07
1.6644839e-07
9.2919172e-08
)
;

boundaryField
{
    Walls
    {
        type            kqRWallFunction;
        value           nonuniform List<scalar> 
38
(
4.318141e-06
2.5308155e-06
7.9304795e-06
3.7491313e-05
0.00028015046
0.0023532337
0.056037142
0.060693607
0.018426479
0.027329688
0.034563533
0.041268363
0.047283473
0.052177793
0.055981726
0.059275085
0.061879071
0.064262851
0.066232085
0.06726707
0.068511941
0.069728186
0.06996657
0.070566323
0.071372145
0.071805904
0.072011559
0.072471113
0.073285915
0.073376962
0.072773408
0.072942567
0.073110687
0.072517095
0.072570568
0.072353676
0.071564566
0.066603248
)
;
    }
    Inlet
    {
        type            turbulentIntensityKineticEnergyInlet;
        intensity       0.05;
        value           nonuniform List<scalar> 3(0.009559232 0.0081580556 0.0099255428);
    }
    Outlet
    {
        type            inletOutlet;
        inletValue      uniform 0;
        value           nonuniform List<scalar> 
86
(
4.8051986e-07
4.8057145e-07
4.8068255e-07
4.8084829e-07
4.8105278e-07
4.811335e-07
4.8061265e-07
4.8080588e-07
4.810158e-07
4.8000303e-07
4.7938629e-07
4.7949892e-07
4.7971385e-07
4.7982143e-07
4.797177e-07
4.7928794e-07
4.7833991e-07
4.7652e-07
4.7340144e-07
4.6879745e-07
4.6183354e-07
4.5124361e-07
4.3574924e-07
4.1394039e-07
3.8425073e-07
3.4520175e-07
2.9572854e-07
2.3564348e-07
1.6644839e-07
9.2919172e-08
0.0031377922
0.0032420141
0.002646038
0
0
0
0
0.00023142575
0.00019744029
0.0001387235
0
0
0
1.2674835e-05
7.9818578e-06
4.8328661e-06
2.8090873e-06
1.6042577e-06
9.3659276e-07
5.8955223e-07
4.166088e-07
3.3425761e-07
2.9970007e-07
2.9034431e-07
2.9221066e-07
2.9757753e-07
3.037378e-07
3.1190859e-07
3.215799e-07
3.2905384e-07
3.3877686e-07
3.475328e-07
0
0
0
0
0
0
0
0
0
0
0
0
0
0
0
0
0
9.2919172e-08
0
0
0
0
0.0025816097
0.0032394229
)
;
    }
    Front
    {
        type            wedge;
    }
    Back
    {
        type            wedge;
    }
    defaultFaces
    {
        type            empty;
    }
}


// ************************************************************************* //
