/*--------------------------------*- C++ -*----------------------------------*\
| =========                 |                                                 |
| \\      /  F ield         | OpenFOAM: The Open Source CFD Toolbox           |
|  \\    /   O peration     | Version:  4.0                                   |
|   \\  /    A nd           | Web:      www.OpenFOAM.org                      |
|    \\/     M anipulation  |                                                 |
\*---------------------------------------------------------------------------*/
FoamFile
{
    version     2.0;
    format      ascii;
    class       surfaceScalarField;
    location    "0.39";
    object      phi;
}
// * * * * * * * * * * * * * * * * * * * * * * * * * * * * * * * * * * * * * //

dimensions      [0 3 -1 0 0 0 0];

internalField   nonuniform List<scalar> 
3364
(
7.456851e-11
1.7338824e-08
-2.5360182e-10
4.8588117e-08
8.846599e-08
5.3757548e-10
1.6801206e-08
-1.047351e-09
5.0173042e-08
8.7418645e-08
6.0859995e-10
1.6192541e-08
-2.0017424e-09
5.2783401e-08
8.5416892e-08
-2.3677355e-10
1.6429267e-08
-1.0413915e-09
5.3588001e-08
8.4375466e-08
-2.9585504e-10
1.6725096e-08
2.6112085e-10
5.3030962e-08
8.4636542e-08
-1.3637347e-10
1.6861454e-08
-1.0294208e-10
5.299747e-08
8.4533552e-08
-2.3074354e-10
1.7092203e-08
-8.9668909e-10
5.3663384e-08
8.3636831e-08
-4.0584506e-10
1.7498029e-08
-3.8271905e-10
5.3640234e-08
8.3254086e-08
-7.1117683e-10
1.8209152e-08
5.8622541e-10
5.2342787e-08
8.3840281e-08
2.9497644e-11
1.8179608e-08
6.1727268e-10
5.1754955e-08
8.4457503e-08
7.0264552e-10
1.7476935e-08
2.0238315e-10
5.2255171e-08
8.465985e-08
2.3921607e-10
1.7237694e-08
7.3623361e-10
5.1758129e-08
8.5396058e-08
2.4779172e-11
1.721288e-08
6.8418785e-10
5.1098683e-08
8.6080214e-08
1.275888e-12
1.7211566e-08
1.6341729e-10
5.0936483e-08
8.6243598e-08
-6.498059e-10
1.7861328e-08
2.5295416e-10
5.0033703e-08
8.6496522e-08
-3.6518521e-10
1.8226481e-08
-6.0304778e-10
5.0271549e-08
8.5893446e-08
6.2360114e-10
1.7602831e-08
-4.9426567e-10
5.1389348e-08
8.5399139e-08
6.9951015e-10
1.6903271e-08
-2.1640068e-10
5.2305194e-08
8.5182693e-08
3.540053e-10
1.654922e-08
4.2781788e-10
5.2231361e-08
8.5610478e-08
-7.1470942e-11
1.6620635e-08
2.1075699e-09
5.0052272e-08
8.7718028e-08
-1.3720655e-10
1.675778e-08
6.2910622e-10
4.92859e-08
8.8347091e-08
-3.0785005e-11
1.6788529e-08
-1.3904362e-09
5.0645498e-08
8.6956602e-08
2.557618e-10
1.6532743e-08
-1.0535178e-09
5.1954752e-08
8.5903036e-08
1.2598223e-10
1.6406728e-08
-3.2320585e-10
5.2403927e-08
8.5579783e-08
-1.2966678e-10
1.6536356e-08
-6.8949469e-10
5.2963715e-08
8.489024e-08
-3.1602989e-10
1.6852357e-08
-1.0007478e-09
5.364841e-08
8.3889458e-08
-8.9470392e-11
1.69418e-08
9.6158134e-11
5.3462754e-08
8.3985574e-08
-3.0439177e-10
1.7246156e-08
5.8939249e-10
5.2568929e-08
8.4574924e-08
-2.6221359e-10
1.7508404e-08
1.053471e-09
5.1253306e-08
8.5628418e-08
1.6236897e-09
1.5884931e-08
5.0276501e-09
4.7849479e-08
9.0656084e-08
1.1480027e-08
4.4042499e-09
4.8399781e-08
1.0927864e-08
1.1127225e-08
1.2792607e-07
4.8792644e-09
-4.7549146e-10
1.7129165e-08
-1.3235307e-09
-1.3759567e-09
2.9630453e-08
-3.8467837e-10
-9.0780632e-11
-1.438461e-09
-2.6968242e-10
-3.7482712e-10
-2.4395003e-09
-9.8270069e-11
7.5035224e-12
-3.7806708e-10
1.0148493e-11
-4.8511827e-12
-7.4800498e-10
-9.0977053e-12
1.660271e-11
-4.1372726e-11
4.2427538e-11
5.4697462e-11
-1.0091614e-10
4.3096516e-13
1.6171982e-11
8.1202799e-13
4.2047042e-11
5.8032364e-11
-2.5207065e-12
3.0813924e-12
1.3090671e-11
9.4814558e-12
3.5647162e-11
5.0969634e-11
1.6544585e-11
3.43282e-12
9.6579049e-12
1.180782e-11
2.727219e-11
4.0156917e-11
2.2620465e-11
2.5060287e-12
7.1519165e-12
9.3991061e-12
2.0379133e-11
3.0312741e-11
1.9243245e-11
1.4791323e-12
5.6728499e-12
5.5874383e-12
1.6270942e-11
2.4385129e-11
1.1515199e-11
7.8313581e-13
4.8897926e-12
2.9487219e-12
1.410552e-11
2.1383582e-11
5.9505109e-12
5.181642e-13
4.3716965e-12
1.9517425e-12
1.2672091e-11
1.9456558e-11
3.8789952e-12
4.8049631e-13
3.891249e-12
1.7974955e-12
1.13552e-11
1.7616263e-11
3.6379572e-12
4.8013009e-13
3.4111507e-12
1.8354972e-12
9.9999027e-12
1.5653889e-11
3.7979777e-12
4.5801828e-13
2.9531526e-12
1.7761067e-12
8.6818576e-12
1.3683971e-11
3.746091e-12
4.0448521e-13
2.5486812e-12
1.5784702e-12
7.5079019e-12
1.1910617e-11
3.3518697e-12
3.3546384e-13
2.213228e-12
1.3150893e-12
6.528299e-12
1.0410961e-11
2.81478e-12
2.7338049e-13
1.939856e-12
1.0718909e-12
5.7298066e-12
9.1784203e-12
2.3044607e-12
2.2600685e-13
1.7138558e-12
8.852405e-13
5.0705871e-12
8.1536653e-12
1.9100183e-12
1.9071795e-13
1.523143e-12
7.4757568e-13
4.5137402e-12
7.2783687e-12
1.6228897e-12
1.6373625e-13
1.3594106e-12
6.4352272e-13
4.0339611e-12
6.5259317e-12
1.3959708e-12
1.415046e-13
1.2179087e-12
5.5665021e-13
3.6188204e-12
5.8678953e-12
1.2146935e-12
1.227314e-13
1.0951793e-12
4.8431968e-13
3.2572353e-12
5.2914015e-12
1.0608176e-12
1.0656405e-13
9.8861676e-13
4.2097066e-13
2.9428308e-12
4.7874161e-12
9.249585e-13
9.2478888e-14
8.9613898e-13
3.6483559e-13
2.6704755e-12
4.3500545e-12
8.0219859e-13
8.0125688e-14
8.1601414e-13
3.1638245e-13
2.4342196e-12
3.9725695e-12
6.9386833e-13
6.8959868e-14
7.4705497e-13
2.7351144e-13
2.2296687e-12
3.6466578e-12
5.9942371e-13
5.891003e-14
6.8814559e-13
2.3395916e-13
2.0546203e-12
3.3642912e-12
5.1632657e-13
5.0149225e-14
6.3799701e-13
1.9891636e-13
1.905854e-12
3.1235712e-12
4.3963738e-13
4.2543929e-14
5.9545375e-13
1.6868203e-13
1.779717e-12
2.9198761e-12
3.723786e-13
3.58133e-14
5.5964118e-13
1.4206941e-13
1.6734623e-12
2.7482985e-12
3.1364908e-13
2.9843643e-14
5.2979834e-13
1.1819166e-13
1.585116e-12
2.6057792e-12
2.6071361e-13
2.4872686e-14
5.0492654e-13
9.8461638e-14
1.511529e-12
2.4873101e-12
2.1693383e-13
2.0500197e-14
4.844273e-13
8.1473683e-14
1.4505578e-12
2.3895699e-12
1.7921759e-13
1.6737137e-14
4.676912e-13
6.6475512e-14
1.400822e-12
2.3093718e-12
1.4667777e-13
1.3575842e-14
4.5411646e-13
5.384354e-14
1.3605571e-12
2.2444972e-12
1.1872275e-13
1.0935157e-14
4.4318247e-13
4.3335416e-14
1.3281598e-12
2.1924219e-12
9.54157e-14
8.7303958e-15
4.3445328e-13
3.4588678e-14
1.3023048e-12
2.1509015e-12
7.6114555e-14
6.9199474e-15
4.2753458e-13
2.7399029e-14
1.2818291e-12
2.1180844e-12
6.0221817e-14
5.4364064e-15
4.2209945e-13
2.150166e-14
1.2657673e-12
2.092404e-12
4.7187875e-14
4.2305203e-15
4.1787024e-13
1.6700002e-14
1.2533015e-12
2.0725018e-12
3.6608344e-14
3.2673997e-15
4.1460416e-13
1.287418e-14
1.2436984e-12
2.0572079e-12
2.8174243e-14
2.5016857e-15
4.1210381e-13
9.8300053e-15
1.2363739e-12
2.0455845e-12
2.1459701e-14
1.9016718e-15
4.1020347e-13
7.4388173e-15
1.2308405e-12
2.0368307e-12
1.6198948e-14
1.4325274e-15
4.0877228e-13
5.6256364e-15
1.2266512e-12
2.0302109e-12
1.2251822e-14
1.0960808e-15
4.0767753e-13
4.3723245e-15
1.2233788e-12
2.0250149e-12
9.5747544e-15
8.7119677e-16
4.0680766e-13
3.53923e-15
1.2207146e-12
2.0207436e-12
7.816889e-15
7.371934e-16
4.0607178e-13
3.0176138e-15
1.2184379e-12
2.0170742e-12
6.6933884e-15
6.8658038e-16
4.0538649e-13
2.6271369e-15
1.2165011e-12
2.0139653e-12
5.7421822e-15
5.0125433e-16
1.887832e-15
4.1160672e-15
1.3738168e-07
-9.4609129e-09
-8.6768503e-09
1.4605222e-07
2.1581824e-08
-1.4134959e-09
-1.3479954e-09
1.4252419e-08
-3.4086261e-09
-4.4424974e-10
-5.5551051e-10
-4.2009702e-09
-1.1361688e-09
-5.6036255e-11
-1.2978478e-10
-1.5618348e-09
-2.0341984e-10
4.6476875e-11
2.3254367e-11
-3.5644446e-10
-2.0235465e-11
6.4193751e-11
5.9520263e-11
-5.6498503e-11
2.2338126e-11
5.8400375e-11
5.5521298e-11
2.6336983e-11
3.5592538e-11
4.5427956e-11
4.3609375e-11
4.7503801e-11
2.8674945e-11
3.5996084e-11
3.4818569e-11
3.7465403e-11
1.7504227e-11
3.0007191e-11
3.0335188e-11
2.198769e-11
9.7596782e-12
2.619831e-11
2.8168968e-11
1.1926197e-11
6.0136422e-12
2.4063948e-11
2.6304471e-11
7.8784571e-12
5.6729979e-12
2.2029119e-11
2.4544779e-11
7.4329268e-12
6.1058428e-12
1.9721387e-11
2.2482202e-11
8.1685708e-12
5.9686176e-12
1.7498945e-11
2.012637e-11
8.3245428e-12
5.3961426e-12
1.5454729e-11
1.7927724e-11
7.5948513e-12
4.6320807e-12
1.3637472e-11
1.6029782e-11
6.5300712e-12
3.8411986e-12
1.2100769e-11
1.4359175e-11
5.5118451e-12
3.2043653e-12
1.0806452e-11
1.2925558e-11
4.6380149e-12
2.7322376e-12
9.6971263e-12
1.167039e-11
3.9874309e-12
2.3658324e-12
8.7272785e-12
1.0559712e-11
3.476526e-12
2.0668057e-12
7.8751745e-12
9.5704648e-12
3.0560616e-12
1.8116971e-12
7.1242995e-12
8.6904077e-12
2.6917585e-12
1.5860323e-12
6.4632279e-12
7.9137042e-12
2.3627376e-12
1.3796741e-12
5.8857535e-12
7.230559e-12
2.0628197e-12
1.1946714e-12
5.384951e-12
6.6343938e-12
1.7908364e-12
1.0306302e-12
4.9537449e-12
6.1180587e-12
1.5469653e-12
8.8668974e-13
4.5833823e-12
5.6746093e-12
1.3301395e-12
7.5982683e-13
4.263194e-12
5.2954521e-12
1.1389852e-12
6.4469025e-13
3.9908841e-12
4.9697696e-12
9.703748e-13
5.4251185e-13
3.762024e-12
4.6948876e-12
8.1739707e-13
4.5079213e-13
3.571949e-12
4.4657276e-12
6.7995638e-13
3.7421184e-13
3.4146753e-12
4.276816e-12
5.6312891e-13
3.0885202e-13
3.2850459e-12
4.1210892e-12
4.645852e-13
2.5274127e-13
3.1789882e-12
3.9948197e-12
3.7901826e-13
2.0467665e-13
3.0930409e-12
3.8929268e-12
3.0657789e-13
1.6434843e-13
3.0241152e-12
3.811191e-12
2.4609339e-13
1.3100005e-13
2.9692373e-12
3.7461043e-12
1.960965e-13
1.0345566e-13
2.9260115e-12
3.6950188e-12
1.5455129e-13
8.0906928e-14
2.8923007e-12
3.6553578e-12
1.2057852e-13
6.2684603e-14
2.8662329e-12
3.6247517e-12
9.3301566e-14
4.8148805e-14
2.846267e-12
3.6015736e-12
7.1338022e-14
3.6562696e-14
2.8311728e-12
3.5841416e-12
5.4005919e-14
2.7534136e-14
2.8198465e-12
3.5711226e-12
4.0564548e-14
2.0811187e-14
2.8112961e-12
3.561326e-12
3.0619179e-14
1.6303292e-14
2.8045765e-12
3.5536142e-12
2.4026399e-14
1.3397569e-14
2.7990047e-12
3.5471461e-12
1.98771e-14
1.1544313e-14
2.7941626e-12
3.5414222e-12
1.7279473e-14
9.893259e-15
2.7900203e-12
3.5364393e-12
1.4887252e-14
7.1261097e-15
1.083011e-14
2.1606231e-12
-2.1566291e-12
2.9613758e-12
-8.0136596e-13
1.3719932e-12
1.5863096e-12
-2.2805327e-12
3.6490111e-12
-7.2790716e-12
4.9952906e-12
-1.349891e-11
6.2171196e-12
-2.1413864e-11
7.9128691e-12
-3.2078867e-11
1.0663562e-11
-4.6672357e-11
1.4592664e-11
-6.6006361e-11
1.9333739e-11
-9.027221e-11
2.4266043e-11
-1.1905439e-10
2.8782729e-11
-1.5157302e-10
3.2519391e-11
-1.8691174e-10
3.5339584e-11
-2.2414347e-10
3.7232588e-11
-2.6233107e-10
3.8188383e-11
-3.0036399e-10
3.8033533e-11
-3.3697772e-10
3.6614178e-11
-3.7108919e-10
3.411172e-11
-4.0170606e-10
3.0616958e-11
-4.2792366e-10
2.6217531e-11
-4.4898607e-10
2.1062258e-11
-4.6431257e-10
1.5326286e-11
-4.7334476e-10
9.031969e-12
2.4105237e-12
-3.5905359e-11
3.3752745e-11
-8.1693e-11
4.4992459e-11
-1.3871893e-10
5.8619421e-11
-2.0663604e-10
7.1573681e-11
-2.8577188e-10
8.413881e-11
-3.7734568e-10
9.7798578e-11
-4.8264261e-10
1.1321732e-10
-6.031556e-10
1.311838e-10
-7.3872025e-10
1.5016416e-10
-8.8804757e-10
1.686674e-10
-1.0491634e-09
1.8538766e-10
-1.2195378e-09
1.9916226e-10
-1.3965274e-09
2.0951352e-10
-1.577964e-09
2.167801e-10
-1.7618621e-09
2.2113395e-10
-1.9474853e-09
2.2381424e-10
-2.1437638e-09
2.3431399e-10
-2.3310206e-09
2.2387249e-10
-2.5018992e-09
2.0499116e-10
-2.6514301e-09
1.8014813e-10
-2.7758367e-09
1.5062404e-10
-2.8722032e-09
1.1742811e-10
-2.9381778e-09
8.1299939e-11
-2.9696612e-09
4.0514126e-11
1.0333014e-11
-1.1303761e-10
1.4679907e-10
-2.5154288e-10
1.8351095e-10
-4.1627545e-10
2.2336722e-10
-6.08004e-10
2.6331794e-10
-8.2986146e-10
3.0601179e-10
-1.0857672e-09
3.5371913e-10
-1.3845033e-09
4.1196731e-10
-1.7937527e-09
5.4044565e-10
-2.2443116e-09
6.007342e-10
-2.7074175e-09
6.3178281e-10
-3.1672819e-09
6.4526006e-10
-3.6139843e-09
6.4587123e-10
-4.0407349e-09
6.3626941e-10
-4.4421043e-09
6.1815355e-10
-4.8119786e-09
5.910112e-10
-5.1442485e-09
5.5608594e-10
-5.4242799e-09
5.143462e-10
-5.666782e-09
4.6637456e-10
-5.8751372e-09
4.1334541e-10
-6.0514038e-09
3.5641313e-10
-6.1977766e-09
2.9699457e-10
-6.3150554e-09
2.3470402e-10
-6.403357e-09
1.6959814e-10
-6.4648559e-09
1.0200935e-10
3.3826526e-11
-3.6312384e-10
5.099399e-10
-7.7240151e-10
5.9281352e-10
-1.2387067e-09
6.8969949e-10
-1.9897125e-09
1.0143484e-09
-2.8173198e-09
1.1336405e-09
-3.6197333e-09
1.1561505e-09
-4.3412445e-09
1.1334929e-09
-4.8817773e-09
1.0809901e-09
-5.2895826e-09
1.0085488e-09
-5.5812753e-09
9.2348283e-10
-5.7682179e-09
8.3220837e-10
-5.8613245e-09
7.3898224e-10
-5.8709197e-09
6.4586775e-10
-5.7997995e-09
5.4703564e-10
-5.663703e-09
4.5491611e-10
-5.4797427e-09
3.7212638e-10
-5.2650019e-09
2.9960561e-10
-5.0364471e-09
2.3781949e-10
-4.8098241e-09
1.8672174e-10
-4.598821e-09
1.45409e-10
-4.41809e-09
1.1626226e-10
-4.2743543e-09
9.0966667e-11
-4.1729449e-09
6.8186859e-11
-4.117228e-09
4.6290335e-11
2.5118164e-11
-2.1993238e-09
2.7092909e-09
-3.8960904e-09
2.2896102e-09
-5.3381991e-09
2.1318371e-09
-5.9936485e-09
1.6698183e-09
-6.0464422e-09
1.1864509e-09
-5.5877937e-09
6.9751554e-10
-4.8352114e-09
3.8092171e-10
-3.8534485e-09
9.923658e-11
-2.7048398e-09
-1.4005188e-10
-1.4649986e-09
-3.1635169e-10
-2.2867344e-10
-4.0411222e-10
1.005917e-09
-4.9560891e-10
2.2968699e-09
-6.4508602e-10
3.7093431e-09
-8.6543726e-10
5.0915307e-09
-9.2726955e-10
6.4026439e-09
-9.3898312e-10
7.6195076e-09
-9.1725254e-10
8.7271363e-09
-8.6980197e-10
9.7149334e-09
-8.0106647e-10
1.0574085e-08
-7.1373243e-10
1.129967e-08
-6.0931064e-10
1.1881296e-08
-4.9064605e-10
1.230897e-08
-3.5947196e-10
1.2573521e-08
-2.182452e-10
-6.5353857e-11
1.1481217e-09
1.5612564e-09
4.4099867e-09
-9.7220442e-10
8.155965e-09
-1.6140718e-09
1.1837119e-08
-2.0113069e-09
1.5527401e-08
-2.5038061e-09
1.9163468e-08
-2.9385239e-09
2.2738209e-08
-3.1937867e-09
2.6095514e-08
-3.2580318e-09
2.914445e-08
-3.188945e-09
3.1876648e-08
-3.048504e-09
3.4341617e-08
-2.8690319e-09
3.6503835e-08
-2.657774e-09
3.8299073e-08
-2.4402703e-09
3.966622e-08
-2.2325291e-09
4.0755242e-08
-2.0162365e-09
4.1616759e-08
-1.8004443e-09
4.2290569e-08
-1.5910075e-09
4.2809954e-08
-1.3891317e-09
4.3203811e-08
-1.1948674e-09
4.3497441e-08
-1.0073075e-09
4.3712853e-08
-8.2466891e-10
4.3866999e-08
-6.4473772e-10
4.3972118e-08
-4.6453642e-10
4.4035363e-08
-2.8143726e-10
-8.9425089e-11
1.498548e-07
-2.2400927e-09
1.4825817e-07
6.2534272e-10
1.455053e-07
1.1395812e-09
1.4192037e-07
1.5743202e-09
1.3731213e-07
2.1050444e-09
1.3180494e-07
2.5691947e-09
1.2575176e-07
2.8598401e-09
1.1953683e-07
2.9572832e-09
1.1343337e-07
2.9148459e-09
1.0758685e-07
2.7983007e-09
1.0206218e-07
2.6558819e-09
9.6916085e-08
2.4885475e-09
9.2177545e-08
2.2984669e-09
8.7847412e-08
2.0977821e-09
8.3936357e-08
1.894979e-09
8.0441401e-08
1.6946573e-09
7.7351184e-08
1.4993429e-09
7.4652154e-08
1.3100211e-09
7.2330219e-08
1.1271812e-09
7.0372694e-08
9.5032268e-10
6.8770012e-08
7.7811196e-10
6.7516799e-08
6.0856805e-10
6.6613511e-08
4.3884006e-10
6.6065887e-08
2.662715e-10
8.505342e-11
1.3563863e-08
-1.5514111e-09
1.5862347e-08
-1.6730264e-09
1.8441396e-08
-1.4393528e-09
2.1108868e-08
-1.0930413e-09
2.3863639e-08
-6.4962006e-10
2.6745799e-08
-3.1286381e-10
2.9641762e-08
-3.6030976e-11
3.2392315e-08
2.0681937e-10
3.4950912e-08
3.5633651e-10
3.7290027e-08
4.5927359e-10
3.9367033e-08
5.7896234e-10
4.099047e-08
8.6519491e-10
4.2277031e-08
1.0119892e-09
4.3299074e-08
1.0758204e-09
4.4099344e-08
1.0947883e-09
4.4713768e-08
1.0803096e-09
4.5175174e-08
1.0380113e-09
4.5513951e-08
9.7131679e-10
4.575626e-08
8.8494243e-10
4.5924921e-08
7.8172888e-10
4.6039335e-08
6.637629e-10
4.6115441e-08
5.3252625e-10
4.6164494e-08
3.8984834e-10
4.6193638e-08
2.3718675e-10
7.1907721e-11
-4.9672946e-09
-7.8509655e-10
-5.6286073e-09
-1.0117226e-09
-5.9670935e-09
-1.1008759e-09
-5.9155398e-09
-1.1446041e-09
-5.4187884e-09
-1.146379e-09
-4.6190192e-09
-1.1126385e-09
-3.6023978e-09
-1.0526552e-09
-2.4233734e-09
-9.7220507e-10
-1.1889943e-09
-8.780402e-10
5.0735453e-11
-7.8045125e-10
1.3115966e-09
-6.8189172e-10
2.7537405e-09
-5.7693959e-10
4.2401568e-09
-4.7441548e-10
5.6953883e-09
-3.7939734e-10
7.0841472e-09
-2.9395504e-10
8.3850443e-09
-2.2057023e-10
9.5943264e-09
-1.7125233e-10
1.0699485e-08
-1.3382195e-10
1.1687031e-08
-1.0258363e-10
1.2546663e-08
-7.7881383e-11
1.3269703e-08
-5.9255879e-11
1.3847948e-08
-4.5697629e-11
1.4273621e-08
-3.5802732e-11
1.4538091e-08
-2.7262157e-11
-1.6920489e-11
-2.1440865e-09
-2.0284555e-10
-2.8969072e-09
-2.589038e-10
-3.6889931e-09
-3.0879458e-10
-4.4702956e-09
-3.6330847e-10
-5.1822972e-09
-4.3438616e-10
-5.7219347e-09
-5.7301087e-10
-6.1413147e-09
-6.3328598e-10
-6.4451057e-09
-6.6842494e-10
-6.6363221e-09
-6.8683482e-10
-6.7242846e-09
-6.9249947e-10
-6.7183131e-09
-6.8787356e-10
-6.6210313e-09
-6.7423114e-10
-6.4432277e-09
-6.5222808e-10
-6.200249e-09
-6.2238439e-10
-5.908218e-09
-5.8599351e-10
-5.5850401e-09
-5.4375484e-10
-5.2586669e-09
-4.9763151e-10
-4.9430564e-09
-4.4943772e-10
-4.6473967e-09
-3.9824802e-10
-4.3811923e-09
-3.440899e-10
-4.1533707e-09
-2.8708122e-10
-3.9717764e-09
-2.2729529e-10
-3.8427656e-09
-1.6481672e-10
-3.7701414e-09
-9.9889342e-11
-3.3799965e-11
-5.5160134e-10
-7.6861088e-12
-7.7397043e-10
-3.6532337e-11
-1.0225823e-09
-6.0180897e-11
-1.3055229e-09
-8.0366865e-11
-1.6377989e-09
-1.0211006e-10
-2.0850267e-09
-1.2578397e-10
-2.5665469e-09
-1.5176792e-10
-3.0570711e-09
-1.77904e-10
-3.5419836e-09
-2.0192667e-10
-4.0116999e-09
-2.2278846e-10
-4.4596028e-09
-2.399767e-10
-4.8798293e-09
-2.5401134e-10
-5.261045e-09
-2.7101965e-10
-5.584659e-09
-2.9877795e-10
-5.8711245e-09
-2.9953594e-10
-6.1234824e-09
-2.9140504e-10
-6.3448326e-09
-2.7628955e-10
-6.538447e-09
-2.5583163e-10
-6.7062123e-09
-2.3049098e-10
-6.849604e-09
-2.0070653e-10
-6.9697353e-09
-1.6695825e-10
-7.067198e-09
-1.2984079e-10
-7.1418492e-09
-9.0173686e-11
-7.1935116e-09
-4.8235069e-11
-1.0916683e-11
-1.1537937e-10
5.1196041e-11
-1.8947168e-10
3.756131e-11
-2.8370282e-10
3.4051484e-11
-3.9622198e-10
3.215335e-11
-5.2595662e-10
2.7625387e-11
-6.7183393e-10
2.0093809e-11
-8.3668116e-10
1.3079386e-11
-1.0180391e-09
3.4535784e-12
-1.2118384e-09
-8.1281295e-12
-1.4143343e-09
-2.0293671e-11
-1.623232e-09
-3.1080549e-11
-1.8402806e-09
-3.6964728e-11
-2.0675251e-09
-4.3777528e-11
-2.3180155e-09
-4.8290316e-11
-2.5665046e-09
-5.1049875e-11
-2.8057773e-09
-5.2135856e-11
-3.0306481e-09
-5.1422544e-11
-3.2372993e-09
-4.9184423e-11
-3.4222478e-09
-4.5546778e-11
-3.5823394e-09
-4.061931e-11
-3.7147543e-09
-3.4547925e-11
-3.8170704e-09
-2.7529333e-11
-3.8874608e-09
-1.9787949e-11
-3.9242014e-09
-1.149907e-11
-3.0620545e-12
2.5693786e-11
5.1839364e-11
1.5900075e-11
4.7355046e-11
6.0187715e-12
4.3932727e-11
-8.171239e-12
4.634323e-11
-2.8683661e-11
4.8137613e-11
-6.0793567e-11
5.2203449e-11
-9.9992217e-11
5.2277701e-11
-1.4617917e-10
4.9640124e-11
-1.9870236e-10
4.4394583e-11
-2.5764475e-10
3.8648166e-11
-3.2245276e-10
3.372683e-11
-3.8879239e-10
2.9374186e-11
-4.5716319e-10
2.4592482e-11
-5.2592627e-10
2.0471875e-11
-5.939605e-10
1.6983374e-11
-6.603403e-10
1.4242875e-11
-7.2364238e-10
1.1878379e-11
-7.8265792e-10
9.8298865e-12
-8.3617105e-10
7.9650656e-12
-8.8303215e-10
6.2404593e-12
-9.2221715e-10
4.6357235e-12
-9.5290051e-10
3.1526605e-12
-9.7450961e-10
1.8198154e-12
-9.8681579e-10
8.0582826e-13
3.0511749e-13
5.9393709e-11
3.9949462e-11
7.1829025e-11
3.491964e-11
8.341989e-11
3.2341717e-11
9.6305725e-11
3.3457229e-11
1.1018515e-10
3.4258028e-11
1.2457402e-10
3.781443e-11
1.3628516e-10
4.056644e-11
1.4469842e-10
4.1226755e-11
1.4853618e-10
4.055673e-11
1.4890323e-10
3.8281047e-11
1.4729575e-10
3.5334242e-11
1.4475062e-10
3.1919264e-11
1.4133343e-10
2.8009638e-11
1.3749126e-10
2.4314007e-11
1.3367471e-10
2.0799901e-11
1.303188e-10
1.7598772e-11
1.2762136e-10
1.4575829e-11
1.252767e-10
1.2174554e-11
1.232452e-10
9.9965951e-12
1.2145497e-10
8.0307328e-12
1.1986168e-10
6.2290646e-12
1.1846367e-10
4.550734e-12
1.1731129e-10
2.9722682e-12
1.1646361e-10
1.6535968e-12
4.2570691e-13
4.7499689e-11
2.991529e-11
5.7057089e-11
2.5362293e-11
6.7995026e-11
2.1403795e-11
8.2370119e-11
1.9082137e-11
9.7554999e-11
1.9073155e-11
1.1448434e-10
2.0885112e-11
1.3171613e-10
2.3334703e-11
1.4777774e-10
2.5165219e-11
1.631152e-10
2.5219367e-11
1.7645887e-10
2.4937505e-11
1.8772738e-10
2.4065886e-11
1.9685456e-10
2.2792259e-11
2.0447884e-10
2.0385539e-11
2.107933e-10
1.7999755e-11
2.1635934e-10
1.5234087e-11
2.2145614e-10
1.2502215e-11
2.2620972e-10
9.8225068e-12
2.3063169e-10
7.752846e-12
2.3461445e-10
6.0141122e-12
2.3806682e-10
4.5786552e-12
2.4088078e-10
3.4153972e-12
2.4301604e-10
2.4157658e-12
2.443686e-10
1.6200077e-12
2.4506498e-10
9.5750725e-13
3.6038935e-13
2.5847207e-11
2.6055916e-11
2.9862028e-11
2.1347581e-11
3.3679661e-11
1.7586246e-11
3.8046087e-11
1.4715782e-11
4.46814e-11
1.243791e-11
5.3036178e-11
1.2530408e-11
6.2303507e-11
1.4067458e-11
7.1534449e-11
1.5934373e-11
8.0004587e-11
1.6749336e-11
8.7487119e-11
1.7455093e-11
9.3572605e-11
1.798053e-11
9.8651973e-11
1.7713028e-11
1.0225284e-10
1.6784814e-11
1.046833e-10
1.556944e-11
1.0602569e-10
1.3891855e-11
1.067243e-10
1.1803753e-11
1.0674479e-10
9.8021693e-12
1.0646304e-10
8.0347464e-12
1.0601838e-10
6.4589298e-12
1.0553198e-10
5.0651998e-12
1.0508079e-10
3.8667351e-12
1.0464667e-10
2.8500285e-12
1.0427107e-10
1.9957375e-12
1.0415725e-10
1.0714502e-12
-3.3757296e-14
1.2378257e-11
2.5603972e-11
1.1690128e-11
2.20358e-11
1.0774595e-11
1.8501849e-11
9.5982763e-12
1.5892158e-11
8.8620372e-12
1.3174198e-11
9.5358013e-12
1.1856689e-11
1.1553597e-11
1.2049706e-11
1.4379889e-11
1.3108127e-11
1.6213877e-11
1.4915394e-11
1.7664109e-11
1.6004907e-11
1.9229781e-11
1.6414903e-11
2.0251834e-11
1.6691018e-11
2.0539488e-11
1.64972e-11
2.0053163e-11
1.6055801e-11
1.8780942e-11
1.5164107e-11
1.659823e-11
1.398649e-11
1.3875485e-11
1.2524934e-11
1.1047194e-11
1.0863051e-11
8.1477042e-12
9.3584289e-12
5.2162822e-12
7.9966254e-12
2.5996731e-12
6.4833422e-12
3.8903696e-13
5.0606582e-12
-1.2482956e-12
3.633059e-12
-2.4346863e-12
2.2578255e-12
9.571166e-13
7.7799719e-12
2.5702526e-11
6.2841706e-12
2.3531651e-11
4.1062073e-12
2.0679845e-11
1.7832997e-12
1.8215085e-11
-8.6694906e-13
1.5824456e-11
-3.2049941e-12
1.4194735e-11
-4.8366923e-12
1.36814e-11
-5.63266e-12
1.3904086e-11
-5.585523e-12
1.4868247e-11
-5.5306395e-12
1.5950011e-11
-5.7607402e-12
1.6644988e-11
-6.2784001e-12
1.7208658e-11
-6.6429497e-12
1.6861726e-11
-7.323463e-12
1.6736287e-11
-8.5572618e-12
1.6397874e-11
-1.0297227e-11
1.572642e-11
-1.2429694e-11
1.465736e-11
-1.4891407e-11
1.332472e-11
-1.7359649e-11
1.1826623e-11
-1.9583009e-11
1.0219934e-11
-2.1610909e-11
8.5111875e-12
-2.3283361e-11
6.7330534e-12
-2.4543401e-11
4.89304e-12
-2.5229404e-11
2.9437683e-12
8.346437e-13
8.0324313e-12
2.5103059e-11
7.6952421e-12
2.3868866e-11
6.2603685e-12
2.2114732e-11
4.5759103e-12
1.9899546e-11
2.7544102e-12
1.7645949e-11
7.3085178e-13
1.621828e-11
-9.824624e-13
1.5394696e-11
-2.0784411e-12
1.5000042e-11
-2.4284038e-12
1.5218184e-11
-2.2365182e-12
1.5758098e-11
-1.9157678e-12
1.6324208e-11
-1.4124646e-12
1.6705324e-11
-9.7659182e-13
1.642582e-11
-7.0242412e-13
1.6462084e-11
-4.9032254e-13
1.6185735e-11
-6.2821983e-13
1.5864278e-11
-1.1007974e-12
1.5129897e-11
-1.8191731e-12
1.4043053e-11
-2.6602829e-12
1.2667689e-11
-3.517563e-12
1.1077169e-11
-4.3277421e-12
9.3213194e-12
-5.0071207e-12
7.4123843e-12
-5.4811379e-12
5.3670084e-12
-5.7629218e-12
3.225503e-12
1.1776527e-12
9.6356257e-12
2.3636027e-11
1.0208968e-11
2.329554e-11
1.0473094e-11
2.1850614e-11
9.9577052e-12
2.0414937e-11
9.4468782e-12
1.8156773e-11
8.5664936e-12
1.7098657e-11
7.9425029e-12
1.6018674e-11
7.9134239e-12
1.5029106e-11
8.1650535e-12
1.4966537e-11
9.0004118e-12
1.4922721e-11
1.0182123e-11
1.5142478e-11
1.1556029e-11
1.5331398e-11
1.2622382e-11
1.5359447e-11
1.4038888e-11
1.5045558e-11
1.533866e-11
1.4885942e-11
1.670881e-11
1.4494107e-11
1.7834687e-11
1.4003997e-11
1.8667658e-11
1.321006e-11
1.9301936e-11
1.2033388e-11
1.9757048e-11
1.0622034e-11
2.0049873e-11
9.0284709e-12
2.0185959e-11
7.2762741e-12
2.019945e-11
5.3534935e-12
2.0102417e-11
3.3225112e-12
1.1435774e-12
1.0344356e-11
2.1616227e-11
1.1782834e-11
2.1857073e-11
1.2576939e-11
2.1056517e-11
1.3425118e-11
1.9566762e-11
1.3444424e-11
1.8137468e-11
1.3821202e-11
1.6721877e-11
1.4131504e-11
1.5708368e-11
1.4414404e-11
1.4746201e-11
1.530795e-11
1.4072984e-11
1.6703968e-11
1.3526695e-11
1.8241574e-11
1.3604865e-11
2.0066822e-11
1.3506142e-11
2.1995328e-11
1.3430933e-11
2.3750159e-11
1.329072e-11
2.5539639e-11
1.3096455e-11
2.7482338e-11
1.2551401e-11
2.9344061e-11
1.2142267e-11
3.1093463e-11
1.1460651e-11
3.2573773e-11
1.0553072e-11
3.3752702e-11
9.4430984e-12
3.4718336e-11
8.0628298e-12
3.5495021e-11
6.4995827e-12
3.6062622e-11
4.7858845e-12
3.6420076e-11
2.9650502e-12
1.0439611e-12
9.7073105e-12
1.9503772e-11
1.1520351e-11
2.0044037e-11
1.2854651e-11
1.972222e-11
1.36793e-11
1.8742115e-11
1.4407358e-11
1.740941e-11
1.5156299e-11
1.5972934e-11
1.5833966e-11
1.5030699e-11
1.6566886e-11
1.4013278e-11
1.7506586e-11
1.313328e-11
1.8586679e-11
1.2446597e-11
2.0159799e-11
1.2031742e-11
2.2035679e-11
1.1630259e-11
2.393944e-11
1.1527169e-11
2.5947989e-11
1.1282168e-11
2.8030462e-11
1.101398e-11
2.9940273e-11
1.0641589e-11
3.186118e-11
1.0221359e-11
3.3684557e-11
9.637274e-12
3.5439291e-11
8.7983378e-12
3.6987494e-11
7.8948948e-12
3.8252813e-11
6.7975109e-12
3.9245433e-11
5.5069621e-12
3.9974648e-11
4.0566689e-12
4.0435107e-11
2.5045913e-12
8.2139795e-13
8.4459813e-12
1.7587858e-11
1.0185829e-11
1.8304187e-11
1.1637658e-11
1.8270388e-11
1.273224e-11
1.764753e-11
1.3493548e-11
1.6648098e-11
1.4078372e-11
1.5388105e-11
1.4911363e-11
1.4197703e-11
1.5651631e-11
1.3273006e-11
1.649792e-11
1.2286986e-11
1.7481813e-11
1.1462699e-11
1.8731529e-11
1.0782021e-11
2.0116235e-11
1.0245549e-11
2.1778789e-11
9.8646121e-12
2.3547764e-11
9.5131907e-12
2.5373076e-11
9.1886661e-12
2.7199582e-11
8.8150821e-12
2.9031732e-11
8.3892092e-12
3.0786264e-11
7.8827417e-12
3.2355493e-11
7.2291095e-12
3.378391e-11
6.4664777e-12
3.5014432e-11
5.5669897e-12
3.5999853e-11
4.5215421e-12
3.6706236e-11
3.3502858e-12
3.7141793e-11
2.0690356e-12
6.843062e-13
7.1665374e-12
1.5933157e-11
8.7291615e-12
1.6741555e-11
1.0084355e-11
1.6915187e-11
1.1187627e-11
1.654425e-11
1.2040499e-11
1.5795219e-11
1.2644894e-11
1.4783703e-11
1.3180985e-11
1.3661604e-11
1.3860288e-11
1.2593695e-11
1.4553403e-11
1.1593864e-11
1.5337642e-11
1.0678454e-11
1.6246749e-11
9.872909e-12
1.7296004e-11
9.1962879e-12
1.8522702e-11
8.6379106e-12
1.9884207e-11
8.1516819e-12
2.1358705e-11
7.7141652e-12
2.2890139e-11
7.2836459e-12
2.4425921e-11
6.8534256e-12
2.5926694e-11
6.3819686e-12
2.7341369e-11
5.8144337e-12
2.8625257e-11
5.1825901e-12
2.9729276e-11
4.4629698e-12
3.0601159e-11
3.64966e-12
3.1147162e-11
2.8042825e-12
3.1528397e-11
1.6878008e-12
4.0736604e-13
6.1240509e-12
1.444711e-11
7.5112049e-12
1.535439e-11
8.7319956e-12
1.5694386e-11
9.7844001e-12
1.5491836e-11
1.063939e-11
1.494022e-11
1.1287605e-11
1.413548e-11
1.1806649e-11
1.3142551e-11
1.2325437e-11
1.20749e-11
1.2873571e-11
1.1045723e-11
1.3471418e-11
1.00806e-11
1.4125044e-11
9.2192775e-12
1.4901465e-11
8.4198619e-12
1.5791653e-11
7.7477178e-12
1.6796857e-11
7.1464744e-12
1.7903832e-11
6.6071876e-12
1.9068131e-11
6.1193447e-12
2.027796e-11
5.643596e-12
2.149858e-11
5.1613475e-12
2.2664e-11
4.6490136e-12
2.3748963e-11
4.0976263e-12
2.4724977e-11
3.4869552e-12
2.5570299e-11
2.8043383e-12
2.6353738e-11
2.0208426e-12
2.6762596e-11
1.2789434e-12
4.6644187e-13
5.2989009e-12
1.3135628e-11
6.5757345e-12
1.4077545e-11
7.7233708e-12
1.4546739e-11
8.7175846e-12
1.4497612e-11
9.5510555e-12
1.4106739e-11
1.0241865e-11
1.3444662e-11
1.0783195e-11
1.2601213e-11
1.1231644e-11
1.1626443e-11
1.1685906e-11
1.0591454e-11
1.2151565e-11
9.6149347e-12
1.2673501e-11
8.6973366e-12
1.3243593e-11
7.8497657e-12
1.3904963e-11
7.0863448e-12
1.4636856e-11
6.4145785e-12
1.5441992e-11
5.8020505e-12
1.6315152e-11
5.2461832e-12
1.7239179e-11
4.7195689e-12
1.8174456e-11
4.2260705e-12
1.9082606e-11
3.7408639e-12
1.9936111e-11
3.2441223e-12
2.0703229e-11
2.719837e-12
2.1323651e-11
2.1839163e-12
2.1726138e-11
1.6183558e-12
2.2022376e-11
9.8270693e-13
2.2890733e-13
4.6494325e-12
1.1962711e-11
5.811228e-12
1.2915739e-11
6.9165946e-12
1.3441363e-11
7.8760709e-12
1.3538127e-11
8.7087563e-12
1.3274045e-11
9.4056495e-12
1.274776e-11
9.9889032e-12
1.2017952e-11
1.0464627e-11
1.1150713e-11
1.0848609e-11
1.0207466e-11
1.1244609e-11
9.2189299e-12
1.1647172e-11
8.2947705e-12
1.2097795e-11
7.399139e-12
1.2577016e-11
6.6071222e-12
1.3119367e-11
5.8722264e-12
1.3711224e-11
5.2101925e-12
1.4349545e-11
4.6078626e-12
1.5017084e-11
4.0520308e-12
1.5697308e-11
3.5458473e-12
1.6366077e-11
3.0720957e-12
1.7004726e-11
2.6054746e-12
1.7574082e-11
2.1504822e-12
1.8085736e-11
1.672263e-12
1.8564184e-11
1.1399091e-12
1.8866473e-11
6.8041953e-13
3.1555704e-13
4.1153422e-12
1.0903422e-11
5.183663e-12
1.184741e-11
6.2195732e-12
1.2405444e-11
7.1457228e-12
1.2611969e-11
7.9684434e-12
1.2451317e-11
8.6649943e-12
1.2051202e-11
9.2494247e-12
1.1433516e-11
9.733738e-12
1.0666395e-11
1.0134672e-11
9.8065281e-12
1.0456382e-11
8.8972156e-12
1.0769513e-11
7.9816364e-12
1.1146324e-11
7.0223267e-12
1.1494297e-11
6.2591474e-12
1.187691e-11
5.4896135e-12
1.228925e-11
4.7978526e-12
1.2727441e-11
4.1696726e-12
1.3210279e-11
3.5691933e-12
1.3678338e-11
3.0777898e-12
1.4148926e-11
2.6015099e-12
1.4585432e-11
2.1689706e-12
1.4980897e-11
1.7550187e-12
1.5314534e-11
1.3386275e-12
1.5535399e-11
9.1904553e-13
1.5651894e-11
5.6392684e-13
2.2897885e-13
3.6449511e-12
9.9502236e-12
4.6201023e-12
1.0872253e-11
5.5692935e-12
1.1456246e-11
6.4613121e-12
1.1719944e-11
7.2403111e-12
1.1672311e-11
7.924374e-12
1.1367134e-11
8.5054628e-12
1.0852421e-11
8.9767064e-12
1.0195146e-11
9.3652593e-12
9.4179712e-12
9.6860039e-12
8.5764677e-12
9.9487536e-12
7.7188842e-12
1.0129042e-11
6.842037e-12
1.0408065e-11
5.9801234e-12
1.067278e-11
5.2248979e-12
1.0941177e-11
4.5294565e-12
1.1243879e-11
3.8669709e-12
1.1522932e-11
3.290142e-12
1.1827117e-11
2.7736063e-12
1.2125082e-11
2.3035474e-12
1.2421026e-11
1.8730289e-12
1.2695686e-11
1.4803598e-12
1.2891876e-11
1.1424397e-12
1.2992759e-11
8.181646e-13
1.3068611e-11
4.880772e-13
1.0193031e-13
3.2134171e-12