/*--------------------------------*- C++ -*----------------------------------*\
| =========                 |                                                 |
| \\      /  F ield         | OpenFOAM: The Open Source CFD Toolbox           |
|  \\    /   O peration     | Version:  4.0                                   |
|   \\  /    A nd           | Web:      www.OpenFOAM.org                      |
|    \\/     M anipulation  |                                                 |
\*---------------------------------------------------------------------------*/
FoamFile
{
    version     2.0;
    format      ascii;
    class       volVectorField;
    location    "0.39";
    object      U;
}
// * * * * * * * * * * * * * * * * * * * * * * * * * * * * * * * * * * * * * //

dimensions      [0 1 -1 0 0 0 0];

internalField   nonuniform List<vector> 
1740
(
(1.5935646 0.0063844519 3.7201485e-06)
(1.4826986 -0.0038959592 7.3926665e-07)
(1.6253099 -0.0051165564 3.7823431e-08)
(1.6087307 0.02567585 7.8573322e-06)
(1.5010444 -0.008902861 1.398831e-06)
(1.6177083 -0.017507462 2.9023057e-07)
(1.4623199 0.018758155 1.0877294e-05)
(1.567262 -0.016754641 2.4384373e-06)
(1.5765472 -0.021089339 4.5248308e-07)
(1.5044435 -0.014972205 1.2885161e-05)
(1.6790284 -0.013849504 3.3616277e-06)
(1.5808565 -0.0087647122 5.9928171e-07)
(1.5416116 -0.017346219 1.5245618e-05)
(1.6133307 0.0040299382 4.2712087e-06)
(1.532068 0.0024923927 7.8967011e-07)
(1.5166684 -0.008452856 1.6532411e-05)
(1.6128023 -0.0020991778 5.0846841e-06)
(1.5629191 -0.0016835849 9.8453815e-07)
(1.5705674 -0.011849335 1.7547631e-05)
(1.6204444 -0.016234836 5.9322307e-06)
(1.5426408 -0.01097792 1.1571558e-06)
(1.5703065 -0.012908421 1.8112914e-05)
(1.6579808 -0.011807448 6.3964297e-06)
(1.5186597 -0.0058241447 1.3331788e-06)
(1.6143124 -0.021775763 1.837272e-05)
(1.6386232 -0.0005151019 7.2311362e-06)
(1.5278234 0.0039220358 1.5487297e-06)
(1.7283201 0.0052017849 1.8859647e-05)
(1.5412811 0.0088371922 7.8599163e-06)
(1.5472406 0.0070263871 1.7080647e-06)
(1.6323512 0.026648404 1.9705077e-05)
(1.6046738 0.015709059 8.3641408e-06)
(1.5580065 -0.0032401257 1.9253139e-06)
(1.5412776 0.006981515 2.0327163e-05)
(1.6034909 0.015091778 9.0952071e-06)
(1.5219332 0.0042279719 2.1440974e-06)
(1.6089084 0.0018694648 2.0416351e-05)
(1.5505894 0.012059528 9.6526319e-06)
(1.5991419 0.0071064461 2.2919603e-06)
(1.5784085 -0.0030251107 2.0384741e-05)
(1.589813 0.0076733639 1.0059786e-05)
(1.5939203 0.0011305085 2.5351656e-06)
(1.5660213 -0.018750127 2.0641756e-05)
(1.543674 -0.011414427 1.0645015e-05)
(1.5740874 -0.00068042945 2.7088568e-06)
(1.7144405 -0.01325641 2.0856972e-05)
(1.5049357 -0.015413834 1.1010316e-05)
(1.5986257 -0.0070042245 2.8870298e-06)
(1.6199014 0.023030569 2.0812998e-05)
(1.5315204 0.0018543255 1.1347782e-05)
(1.5264996 -0.0070706907 3.1060904e-06)
(1.5831189 0.025981728 2.1155685e-05)
(1.5893588 0.007091308 1.1727199e-05)
(1.5953622 -0.0082157854 3.3042065e-06)
(1.5533608 0.013997906 2.1491619e-05)
(1.6493555 0.0091091735 1.2163938e-05)
(1.5538759 0.0010738398 3.4670599e-06)
(1.4745773 -0.0010391941 2.1325886e-05)
(1.5452649 0.030539298 1.2483922e-05)
(1.5484864 0.01842179 3.6238671e-06)
(1.5598399 -0.0077835232 2.1347787e-05)
(1.5143673 0.0060953259 1.2895914e-05)
(1.6954083 0.01258596 3.7789946e-06)
(1.5577248 -0.0062009499 2.1867734e-05)
(1.5329324 -0.014507047 1.3259944e-05)
(1.6151761 -0.0094744355 3.9489505e-06)
(1.5058612 0.0069052571 2.2313526e-05)
(1.5304767 -0.010971358 1.3557922e-05)
(1.5219283 -0.008343094 4.1094702e-06)
(1.5167028 0.00456093 2.2718521e-05)
(1.6328324 -0.0042116047 1.3829935e-05)
(1.6024891 -0.0016987313 4.2577298e-06)
(1.4972643 -0.0050050688 2.2824591e-05)
(1.6015978 -0.011863404 1.41924e-05)
(1.5871853 -0.0056026619 4.4550039e-06)
(1.5075314 -0.014520051 2.2861692e-05)
(1.6016634 -0.0162946 1.4411602e-05)
(1.4898791 -0.0055876044 4.5635573e-06)
(1.5193099 -0.0068432415 2.2491809e-05)
(1.6102834 0.00037918539 1.4673574e-05)
(1.5137767 0.0038228253 4.6908215e-06)
(1.4876506 -0.0047613256 2.2471698e-05)
(1.5750358 0.0010851327 1.4879519e-05)
(1.5064291 0.0021019403 4.8462253e-06)
(1.4965335 -0.0029473713 2.2003329e-05)
(1.5051267 0.010475662 1.5084625e-05)
(1.5324823 -0.00028492476 4.8273947e-06)
(1.3335575 0.044525742 2.3313442e-05)
(1.2796768 0.096942885 1.5679034e-05)
(1.414065 0.054230246 5.5392137e-06)
(0.83127114 0.37518015 1.1620472e-05)
(0.81061798 0.93107347 9.9114656e-06)
(0.74612469 1.2536282 5.389068e-06)
(0.22754875 0.11368526 1.4638217e-06)
(0.1910354 0.36800093 3.0821364e-06)
(0.093764483 0.50642891 7.1136877e-07)
(-0.02800501 -0.013402941 1.2276747e-06)
(-0.026302302 -0.027732578 1.6902721e-06)
(-0.017646933 -0.03174447 5.8217278e-07)
(-0.0061509544 -0.0028551965 4.4714483e-07)
(-0.0061374569 -0.0074246181 7.3429921e-07)
(-0.0052634951 -0.010160098 3.3751133e-07)
(0.00050273253 -0.00024395465 1.2127327e-07)
(0.00020321726 -0.00068631923 2.4527166e-07)
(-0.00015376483 -0.0011405208 1.129667e-07)
(0.0012304655 1.5412633e-05 2.779324e-08)
(0.0010960409 2.2220086e-05 5.8262461e-08)
(0.00086155874 1.2262962e-05 -1.1959103e-09)
(0.0011982485 8.9943491e-05 -2.5010734e-09)
(0.0011080086 0.00018244268 -8.9965235e-09)
(0.00093464151 0.00022512305 -4.6356649e-08)
(0.00099431464 9.7204885e-05 -1.2057929e-08)
(0.0009326442 0.00021417363 -3.0028335e-08)
(0.00080747068 0.00030238561 -5.779588e-08)
(0.00078323278 7.1027387e-05 -1.2587815e-08)
(0.00074161655 0.0001679065 -3.1629121e-08)
(0.00065322038 0.00025331519 -5.327873e-08)
(0.00061969974 4.32823e-05 -9.8018184e-09)
(0.0005908084 0.00010061116 -2.5856404e-08)
(0.00052581854 0.00014960015 -4.2690928e-08)
(0.0005076369 2.3461849e-05 -6.7380283e-09)
(0.00048697328 5.373345e-05 -1.8862274e-08)
(0.00043900649 8.032633e-05 -3.1554839e-08)
(0.00043184806 1.6166392e-05 -4.4996729e-09)
(0.00041682294 3.5941497e-05 -1.3102951e-08)
(0.00038143158 5.2633776e-05 -2.2258058e-08)
(0.00037458372 1.4896449e-05 -3.0986326e-09)
(0.00036345898 3.3244322e-05 -9.0020704e-09)
(0.00033681356 4.8982892e-05 -1.5303395e-08)
(0.00032665103 1.4406015e-05 -2.2020763e-09)
(0.0003182521 3.3205859e-05 -6.1603005e-09)
(0.00029780798 5.0594336e-05 -1.0323677e-08)
(0.00028472426 1.3642395e-05 -1.5758483e-09)
(0.00027832185 3.202547e-05 -4.1665293e-09)
(0.0002624885 4.9422681e-05 -6.8106871e-09)
(0.00024787403 1.2009567e-05 -1.0884495e-09)
(0.00024294904 2.8373966e-05 -2.7370549e-09)
(0.00023059207 4.3994541e-05 -4.3608765e-09)
(0.00021619385 9.9572472e-06 -7.106701e-10)
(0.00021239318 2.3591479e-05 -1.7214062e-09)
(0.00020270201 3.6686714e-05 -2.6873578e-09)
(0.00018948943 8.1271014e-06 -4.4155467e-10)
(0.00018655903 1.9233404e-05 -1.0322419e-09)
(0.00017892423 3.0054408e-05 -1.5874336e-09)
(0.00016701796 6.7322366e-06 -2.7042702e-10)
(0.00016474598 1.589693e-05 -5.9787162e-10)
(0.00015866783 2.4896445e-05 -9.0201891e-10)
(0.00014796401 5.6857205e-06 -1.6986599e-10)
(0.00014618238 1.3417777e-05 -3.42874e-10)
(0.00014128068 2.104157e-05 -4.987313e-10)
(0.0001316708 4.8803149e-06 -1.1470088e-10)
(0.00013025681 1.1492887e-05 -2.0229364e-10)
(0.00012626163 1.8133881e-05 -2.737444e-10)
(0.0001176531 4.2141842e-06 -8.4431096e-11)
(0.00011652026 9.9793261e-06 -1.2685875e-10)
(0.00011323252 1.5816749e-05 -1.531796e-10)
(0.00010554732 3.6504406e-06 -6.6784556e-11)
(0.00010463232 8.6809207e-06 -8.6137286e-11)
(0.00010189584 1.3809469e-05 -9.0175262e-11)
(9.5069606e-05 3.1675602e-06 -5.7044993e-11)
(9.4324485e-05 7.545645e-06 -6.442863e-11)
(9.2026439e-05 1.20185e-05 -5.7761696e-11)
(8.6000163e-05 2.747487e-06 -5.1933137e-11)
(8.5389861e-05 6.5522166e-06 -5.2933164e-11)
(8.3448756e-05 1.0416015e-05 -4.1151416e-11)
(7.8164977e-05 2.3764113e-06 -4.8665583e-11)
(7.7663613e-05 5.6916659e-06 -4.6689016e-11)
(7.6014853e-05 9.0236497e-06 -3.2840871e-11)
(7.1417213e-05 2.0399643e-06 -4.5372008e-11)
(7.1004733e-05 4.9147483e-06 -4.2407027e-11)
(6.9596568e-05 7.8082458e-06 -2.871595e-11)
(6.5629009e-05 1.7380799e-06 -4.2602975e-11)
(6.5289333e-05 4.1924264e-06 -3.8930717e-11)
(6.4080132e-05 6.7112868e-06 -2.6462902e-11)
(6.0686822e-05 1.477558e-06 -4.0983003e-11)
(6.0407053e-05 3.5655551e-06 -3.6678396e-11)
(5.9363033e-05 5.7002009e-06 -2.4996019e-11)
(5.6488355e-05 1.2515171e-06 -3.9970879e-11)
(5.6258202e-05 3.0270626e-06 -3.5265382e-11)
(5.5351835e-05 4.8270017e-06 -2.4266893e-11)
(5.2941448e-05 1.0504967e-06 -3.8965645e-11)
(5.275253e-05 2.549718e-06 -3.4079958e-11)
(5.1961217e-05 4.0622041e-06 -2.3864161e-11)
(4.9963535e-05 8.7144261e-07 -3.8017781e-11)
(4.9809174e-05 2.1252642e-06 -3.3030665e-11)
(4.9114011e-05 3.3846823e-06 -2.3516741e-11)
(4.7479771e-05 7.2286178e-07 -3.7722184e-11)
(4.7354562e-05 1.7730717e-06 -3.2603269e-11)
(4.6739709e-05 2.819215e-06 -2.3534558e-11)
(4.5421745e-05 5.9225737e-07 -3.6984211e-11)
(4.5321032e-05 1.4659299e-06 -3.1933123e-11)
(4.47733e-05 2.3314158e-06 -2.3450243e-11)
(4.3727961e-05 4.8025752e-07 -3.6159086e-11)
(4.3647783e-05 1.196256e-06 -3.1006872e-11)
(4.3156126e-05 1.9060812e-06 -2.3156703e-11)
(4.2343737e-05 3.8679677e-07 -3.5459443e-11)
(4.2280809e-05 9.7003476e-07 -3.0193433e-11)
(4.1835897e-05 1.5428172e-06 -2.2840289e-11)
(4.1220521e-05 3.0895669e-07 -3.4811904e-11)
(4.1172101e-05 7.8175902e-07 -2.9472496e-11)
(4.0766036e-05 1.2404458e-06 -2.2561407e-11)
(4.0315584e-05 2.4418863e-07 -3.4145283e-11)
(4.027935e-05 6.2454551e-07 -2.8751406e-11)
(3.9905473e-05 9.8962353e-07 -2.227807e-11)
(3.9591714e-05 1.9129407e-07 -3.3570798e-11)
(3.9565686e-05 4.9540709e-07 -2.817223e-11)
(3.9218393e-05 7.8348293e-07 -2.206337e-11)
(3.9016805e-05 1.482584e-07 -3.3045209e-11)
(3.8999301e-05 3.894577e-07 -2.7676258e-11)
(3.8673878e-05 6.1433503e-07 -2.1893114e-11)
(3.8563362e-05 1.1357817e-07 -3.2562181e-11)
(3.8552944e-05 3.0314811e-07 -2.7240484e-11)
(3.8245428e-05 4.7669174e-07 -2.1761608e-11)
(3.8208049e-05 8.6148846e-08 -3.2156553e-11)
(3.8203489e-05 2.3421699e-07 -2.6913917e-11)
(3.7910546e-05 3.6712331e-07 -2.1716008e-11)
(3.7931711e-05 6.4637104e-08 -3.1833781e-11)
(3.7931955e-05 1.793197e-07 -2.6700034e-11)
(3.765079e-05 2.7990953e-07 -2.1749493e-11)
(3.7719531e-05 4.8071118e-08 -3.1612e-11)
(3.7723685e-05 1.3614943e-07 -2.6610584e-11)
(3.7451963e-05 2.1149482e-07 -2.1863217e-11)
(3.7559732e-05 3.5342415e-08 -3.1509556e-11)
(3.7567041e-05 1.0302018e-07 -2.6657028e-11)
(3.7302808e-05 1.5997696e-07 -2.2047954e-11)
(3.7440791e-05 2.649182e-08 -3.15242e-11)
(3.7450602e-05 7.9677415e-08 -2.6793675e-11)
(3.7192213e-05 1.2480651e-07 -2.2216682e-11)
(3.7348516e-05 2.0943084e-08 -3.1595583e-11)
(3.7360238e-05 6.4032843e-08 -2.6832906e-11)
(3.7106296e-05 1.015754e-07 -2.2103616e-11)
(3.7264105e-05 1.813068e-08 -3.1582999e-11)
(3.7277157e-05 5.4527383e-08 -2.63508e-11)
(3.7026508e-05 8.6832973e-08 -2.1212584e-11)
(3.7217828e-05 1.7833261e-08 -3.1054428e-11)
(3.7231747e-05 4.8777777e-08 -2.4331593e-11)
(3.6983205e-05 7.4896551e-08 -1.8617338e-11)
(3.708844e-05 1.3714447e-08 -2.813885e-11)
(3.7102244e-05 3.5267943e-08 -1.8269062e-11)
(3.6855449e-05 5.3802615e-08 -1.2712298e-11)
(-0.045244982 1.9649121 -3.676183e-07)
(-0.032582829 1.7065884 -3.4355839e-06)
(-0.060789886 0.348722 -2.4203495e-07)
(-0.043000637 0.15717566 -1.0077069e-06)
(-0.014862997 -0.039047114 -2.0405905e-07)
(-0.011452753 -0.041542822 -6.191192e-07)
(-0.0046454662 -0.012594956 -9.8156212e-08)
(-0.0044321502 -0.013911172 -3.9266284e-07)
(-0.00057384776 -0.0019165453 -9.7864465e-08)
(-0.00096644576 -0.0028041979 -2.7746763e-07)
(0.00054031831 -0.00011525422 -1.0804525e-07)
(0.00024919683 -0.00035383493 -2.1386108e-07)
(0.00070951578 0.00025050159 -1.0676039e-07)
(0.00050336531 0.0002532695 -1.7077293e-07)
(0.00064709051 0.00037165564 -9.5629891e-08)
(0.0004882333 0.00041817421 -1.3615772e-07)
(0.00053733368 0.00030788057 -7.8932746e-08)
(0.00041677334 0.00033188943 -1.0580492e-07)
(0.00043818682 0.00018629285 -6.0917597e-08)
(0.00034538586 0.00019997801 -7.9379266e-08)
(0.00037319931 0.0001021373 -4.466028e-08)
(0.00030044843 0.00011125778 -5.757358e-08)
(0.00033224897 6.4114228e-05 -3.1523525e-08)
(0.0002754577 7.0748802e-05 -4.0503953e-08)
(0.00029937174 6.0378001e-05 -2.1637786e-08)
(0.00025539304 6.6886536e-05 -2.7730595e-08)
(0.00026886873 6.4479374e-05 -1.4488409e-08)
(0.00023441391 7.2461808e-05 -1.8482862e-08)
(0.0002399577 6.2845789e-05 -9.443864e-09)
(0.00021283709 7.1890047e-05 -1.1967755e-08)
(0.00021295534 5.6433744e-05 -5.9661433e-09)
(0.00019170165 6.5547456e-05 -7.5028849e-09)
(0.00018883768 4.7991771e-05 -3.634533e-09)
(0.00017202016 5.6471981e-05 -4.5392421e-09)
(0.00016793605 3.9625946e-05 -2.1290149e-09)
(0.00015438126 4.7289168e-05 -2.6448274e-09)
(0.00014984671 3.2983832e-05 -1.2000468e-09)
(0.00013884475 3.9629998e-05 -1.48414e-09)
(0.00013412809 2.8068895e-05 -6.5399569e-10)
(0.00012514387 3.3960332e-05 -8.0341174e-10)
(0.00012040389 2.4296156e-05 -3.4744228e-10)
(0.00011298704 2.9529461e-05 -4.2072286e-10)
(0.0001083809 2.1207083e-05 -1.8238888e-10)
(0.00010220343 2.5885665e-05 -2.1414002e-10)
(9.784192e-05 1.8568363e-05 -9.6813111e-11)
(9.2660737e-05 2.2756288e-05 -1.0692941e-10)
(8.8616887e-05 1.6241745e-05 -5.3816543e-11)
(8.4242876e-05 1.9959472e-05 -5.3238061e-11)
(8.0563197e-05 1.4106345e-05 -3.2418895e-11)
(7.6848484e-05 1.7401851e-05 -2.7049681e-11)
(7.3558486e-05 1.2200342e-05 -2.2068443e-11)
(7.0386352e-05 1.5087387e-05 -1.4723559e-11)
(6.7494196e-05 1.0530533e-05 -1.7400023e-11)
(6.4771408e-05 1.3019384e-05 -9.3513698e-12)
(6.2271237e-05 9.0685356e-06 -1.5573897e-11)
(5.9922458e-05 1.1192717e-05 -7.4649738e-12)
(5.779822e-05 7.7579163e-06 -1.4975458e-11)
(5.5761826e-05 9.599447e-06 -7.2628557e-12)
(5.3990767e-05 6.5720526e-06 -1.4886286e-11)
(5.2215928e-05 8.166468e-06 -7.6802982e-12)
(5.0770911e-05 5.5251565e-06 -1.5049468e-11)
(4.9215353e-05 6.8709269e-06 -8.2564671e-12)
(4.8066495e-05 4.5931078e-06 -1.5197453e-11)
(4.6694648e-05 5.7085818e-06 -8.7916792e-12)
(4.5811184e-05 3.8186006e-06 -1.5600078e-11)
(4.4593102e-05 4.7344274e-06 -9.4544319e-12)
(4.394425e-05 3.1536938e-06 -1.5930133e-11)
(4.2854847e-05 3.9073964e-06 -1.007188e-11)
(4.2410253e-05 2.5814348e-06 -1.6118473e-11)
(4.142837e-05 3.1914686e-06 -1.0567998e-11)
(4.1159272e-05 2.0899664e-06 -1.6240288e-11)
(4.0266968e-05 2.5824749e-06 -1.0996401e-11)
(4.0146879e-05 1.6783843e-06 -1.6347263e-11)
(3.9328968e-05 2.0732757e-06 -1.1383338e-11)
(3.9333856e-05 1.3380846e-06 -1.6430626e-11)
(3.8577513e-05 1.6523949e-06 -1.1724516e-11)
(3.8685963e-05 1.0573942e-06 -1.6515243e-11)
(3.7980379e-05 1.3031143e-06 -1.2024123e-11)
(3.8173615e-05 8.2745128e-07 -1.6613704e-11)
(3.7509697e-05 1.0175234e-06 -1.2315665e-11)
(3.7771438e-05 6.4131971e-07 -1.6740149e-11)
(3.7141548e-05 7.8782709e-07 -1.2624315e-11)
(3.7457885e-05 4.9304031e-07 -1.6919711e-11)
(3.6855619e-05 6.0352993e-07 -1.2955193e-11)
(3.7215323e-05 3.7483927e-07 -1.7140143e-11)
(3.6635318e-05 4.5744188e-07 -1.3301047e-11)
(3.703024e-05 2.8242411e-07 -1.7396401e-11)
(3.6468027e-05 3.4387186e-07 -1.3651238e-11)
(3.6891956e-05 2.1342953e-07 -1.7661479e-11)
(3.6343814e-05 2.5955802e-07 -1.396891e-11)
(3.678982e-05 1.6705663e-07 -1.7828916e-11)
(3.6252624e-05 2.0354153e-07 -1.414592e-11)
(3.6710337e-05 1.3697973e-07 -1.7628621e-11)
(3.6181469e-05 1.68019e-07 -1.3943194e-11)
(3.6635336e-05 1.178242e-07 -1.6614711e-11)
(3.6112678e-05 1.4565793e-07 -1.2995531e-11)
(3.6595098e-05 1.0108101e-07 -1.4091024e-11)
(3.6076408e-05 1.2527971e-07 -1.080006e-11)
(3.647001e-05 7.2800068e-08 -9.1247483e-12)
(3.5954831e-05 9.0921338e-08 -6.7932601e-12)
(-0.0033770882 2.3610293e-05 -9.9831456e-08)
(-0.0032812973 5.9119474e-06 -2.3620496e-07)
(-0.0030889857 2.2170903e-05 -3.3313174e-07)
(-0.00286741 -4.8729068e-06 -3.9332394e-07)
(-0.0026438755 -2.0015102e-05 -4.2465911e-07)
(-0.0024311397 -4.5145592e-05 -4.360527e-07)
(-0.0022349436 -6.7194848e-05 -4.3433225e-07)
(-0.0020539076 -9.6128875e-05 -4.2434626e-07)
(-0.0018839903 -0.00013300823 -4.0946437e-07)
(-0.0017219074 -0.00017733823 -3.9200204e-07)
(-0.0015658767 -0.00023018979 -3.7354973e-07)
(-0.001415532 -0.00028989991 -3.5504329e-07)
(-0.0012710794 -0.00035366858 -3.3690594e-07)
(-0.0011329183 -0.00041908186 -3.191845e-07)
(-0.0010013941 -0.0004831149 -3.017209e-07)
(-0.00087676657 -0.00054353706 -2.8424363e-07)
(-0.00075928222 -0.00060016473 -2.6638505e-07)
(-0.00064890496 -0.00065105497 -2.4763054e-07)
(-0.00054512454 -0.00069322361 -2.2741144e-07)
(-0.00044750328 -0.00072628366 -2.0506582e-07)
(-0.00035561596 -0.00074963296 -1.7986842e-07)
(-0.00026899938 -0.00076305761 -1.5076036e-07)
(-0.00018709568 -0.00076682877 -1.1681245e-07)
(-0.00010953381 -0.00076500225 -7.7485424e-08)
(-3.5683635e-05 -0.0007253902 -3.2245808e-08)
(0.00019763556 -9.3301691e-05 -1.1606408e-07)
(0.00021955139 -0.00043968977 -2.7077115e-07)
(0.00024196867 -0.0006306326 -3.7463307e-07)
(0.00025496003 -0.00093770923 -4.3319428e-07)
(0.00026276949 -0.001181633 -4.5916231e-07)
(0.00027220947 -0.0014444052 -4.649272e-07)
(0.00029091243 -0.0017016221 -4.5842805e-07)
(0.00031794069 -0.0019788423 -4.4476045e-07)
(0.00034339427 -0.0022767332 -4.2708092e-07)
(0.00036204502 -0.0025738106 -4.0744674e-07)
(0.00037166293 -0.0028681492 -3.8741386e-07)
(0.00037181668 -0.0031561315 -3.6779411e-07)
(0.00036361166 -0.0034315935 -3.4889912e-07)
(0.00034866465 -0.003690811 -3.3062597e-07)
(0.00032816519 -0.0039312397 -3.127318e-07)
(0.00030320106 -0.0041537743 -2.9491969e-07)
(0.00027490479 -0.0043683169 -2.7686741e-07)
(0.00024423433 -0.0045657601 -2.5794049e-07)
(0.00021169349 -0.0047221274 -2.3760975e-07)
(0.00017785354 -0.0048303172 -2.1515636e-07)
(0.00014339064 -0.0048877115 -1.9011037e-07)
(0.00010886386 -0.004896664 -1.6080802e-07)
(7.4892294e-05 -0.0048605926 -1.2602076e-07)
(4.2040574e-05 -0.0047649604 -8.4201296e-08)
(1.152795e-05 -0.0045495139 -3.6527738e-08)
(0.0010187861 -0.00028134082 -1.5490785e-07)
(0.0010652986 -0.0014345787 -3.4804789e-07)
(0.0011063828 -0.0019287132 -4.6198057e-07)
(0.0011391871 -0.0027832896 -5.1228261e-07)
(0.0011709787 -0.0034729063 -5.2542513e-07)
(0.0011959048 -0.0041953585 -5.1945645e-07)
(0.0012111587 -0.0049213366 -5.0343946e-07)
(0.0012095595 -0.0058229925 -4.8284295e-07)
(0.0011914055 -0.0068701794 -4.6001543e-07)
(0.0011572333 -0.007849599 -4.3621581e-07)
(0.0011085361 -0.0087109459 -4.1324071e-07)
(0.001047997 -0.0094452519 -3.9158012e-07)
(0.00097886912 -0.010048584 -3.7139007e-07)
(0.00090337542 -0.010529359 -3.5219783e-07)
(0.00082325499 -0.010894832 -3.3359976e-07)
(0.000740135 -0.011146332 -3.1524618e-07)
(0.00065570208 -0.011276383 -2.9717377e-07)
(0.00057107489 -0.011304643 -2.7815134e-07)
(0.00048693491 -0.011260059 -2.5802765e-07)
(0.00040416019 -0.011157255 -2.3611409e-07)
(0.00032384706 -0.011006284 -2.1156483e-07)
(0.0002457338 -0.010816151 -1.8301214e-07)
(0.00017016181 -0.010593537 -1.485519e-07)
(9.7601279e-05 -0.010309416 -1.0493866e-07)
(2.9976804e-05 -0.0099192411 -5.1776799e-08)
(0.003512016 -0.0010012264 -2.3794931e-07)
(0.0034871837 -0.00458704 -4.9103253e-07)
(0.0034400215 -0.0058217838 -6.0560901e-07)
(0.0032801704 -0.0089034033 -6.3214808e-07)
(0.0030947064 -0.01166397 -6.2179532e-07)
(0.0028770759 -0.014179262 -5.9732824e-07)
(0.0026464804 -0.016005847 -5.6715547e-07)
(0.00240397 -0.016997863 -5.3794267e-07)
(0.0021652178 -0.017315303 -5.0929876e-07)
(0.0019352945 -0.017214737 -4.7955669e-07)
(0.001717459 -0.016799269 -4.5267663e-07)
(0.0015143695 -0.016183959 -4.2816497e-07)
(0.0013261051 -0.015387169 -4.0644952e-07)
(0.0011434397 -0.014463738 -3.8610245e-07)
(0.00097844006 -0.01346773 -3.6656695e-07)
(0.0008312592 -0.012444953 -3.4759068e-07)
(0.0007005479 -0.011434521 -3.2885886e-07)
(0.00058466358 -0.010470311 -3.0995845e-07)
(0.0004821085 -0.0095756801 -2.9041556e-07)
(0.0003908318 -0.0087704246 -2.6962479e-07)
(0.00030838789 -0.0080691915 -2.4680629e-07)
(0.0002336576 -0.007477649 -2.2081536e-07)
(0.00016481938 -0.0069953991 -1.8991294e-07)
(0.00010004826 -0.0065808003 -1.5116217e-07)
(3.7041654e-05 -0.0062848429 -9.5355652e-08)
(0.01115226 -0.0086239357 -4.2633645e-07)
(0.0087843249 -0.025352697 -7.3318941e-07)
(0.0076553788 -0.027575521 -8.1328422e-07)
(0.005997339 -0.031720375 -7.9910955e-07)
(0.0046407021 -0.029148825 -7.583745e-07)
(0.0034619059 -0.025416376 -7.0977712e-07)
(0.0024697127 -0.020812538 -6.6201872e-07)
(0.0016764097 -0.015932888 -6.1763616e-07)
(0.0010552148 -0.011037038 -5.7840669e-07)
(0.00057381842 -0.0065108114 -5.4246282e-07)
(0.00020869525 -0.0024150216 -5.1014938e-07)
(-5.7645717e-05 0.0011119665 -4.8017835e-07)
(-0.00024542454 0.0043864317 -4.5633441e-07)
(-0.00036586209 0.0075160127 -4.3382131e-07)
(-0.00044076638 0.010403728 -4.1216633e-07)
(-0.00047694346 0.012911841 -3.9156207e-07)
(-0.00048242945 0.015007074 -3.7171118e-07)
(-0.00046384857 0.016706152 -3.522474e-07)
(-0.00042651608 0.018036529 -3.3275303e-07)
(-0.00037501165 0.01902662 -3.1275603e-07)
(-0.00031360716 0.019703136 -2.9166581e-07)
(-0.0002447931 0.020092865 -2.6864214e-07)
(-0.00017123656 0.020192873 -2.4230849e-07)
(-9.6230317e-05 0.020060648 -2.1669034e-07)
(-2.1782111e-05 0.019354609 -1.9117565e-07)
(0.013200257 0.024428796 -7.9160568e-07)
(0.0026966292 2.7548991e-05 -1.1177458e-06)
(0.00026949752 0.049405951 -1.1191749e-06)
(-0.0013605821 0.052194815 -1.0454388e-06)
(-0.0028439575 0.066225376 -9.6825195e-07)
(-0.0039675075 0.07633419 -8.8186201e-07)
(-0.0045959094 0.083378771 -8.0435637e-07)
(-0.0047812496 0.089261603 -7.3689512e-07)
(-0.0046901939 0.093582609 -6.7818749e-07)
(-0.0044630605 0.096266092 -6.2785939e-07)
(-0.0041671893 0.097789833 -5.8521963e-07)
(-0.003811541 0.098232097 -5.4068345e-07)
(-0.003452395 0.097941282 -5.1530677e-07)
(-0.0031042871 0.096628336 -4.8785338e-07)
(-0.0027541509 0.094455212 -4.6069506e-07)
(-0.002413492 0.092017617 -4.3639933e-07)
(-0.0020920028 0.089378828 -4.1388371e-07)
(-0.0017906205 0.086622922 -3.9255116e-07)
(-0.0015084945 0.083826496 -3.719343e-07)
(-0.0012436276 0.081047232 -3.515968e-07)
(-0.00099320316 0.078322074 -3.3107721e-07)
(-0.00075552352 0.075693352 -3.0981163e-07)
(-0.00052801026 0.073132924 -2.8721004e-07)
(-0.00030884799 0.070828542 -2.6406511e-07)
(-9.2457372e-05 0.067341264 -2.4148925e-07)
(-0.0025147068 1.1801395 -2.5070935e-06)
(-0.0012134471 0.96482107 -1.9953023e-06)
(-0.0013313934 0.86793534 -1.6189566e-06)
(-0.00093735095 0.77464238 -1.3301046e-06)
(-0.00075499369 0.67824891 -1.1150072e-06)
(-0.00062073097 0.58675126 -9.5793005e-07)
(-0.0005066125 0.50829817 -8.4159453e-07)
(-0.00041570016 0.44456096 -7.5471498e-07)
(-0.00034054262 0.39199284 -6.8419866e-07)
(-0.00027882142 0.34712513 -6.3021224e-07)
(-0.00022450682 0.30839659 -5.8838264e-07)
(-0.00018144598 0.27506358 -5.5144528e-07)
(-0.0001465539 0.24656005 -5.2037102e-07)
(-0.0001245301 0.22215797 -4.9298953e-07)
(-0.00010387753 0.20120101 -4.6809121e-07)
(-8.6214394e-05 0.1832076 -4.4509973e-07)
(-7.105227e-05 0.1677469 -4.2346678e-07)
(-5.8458071e-05 0.15445607 -4.0279116e-07)
(-4.776979e-05 0.14303267 -3.8275541e-07)
(-3.8466244e-05 0.13322732 -3.630579e-07)
(-3.0110891e-05 0.12482376 -3.4337089e-07)
(-2.2490588e-05 0.11767996 -3.2324656e-07)
(-1.54086e-05 0.1115539 -3.0243027e-07)
(-8.8040841e-06 0.1067289 -2.8071289e-07)
(-2.4575213e-06 0.10071078 -2.5743779e-07)
(-0.01286049 0.094534882 -1.2258694e-06)
(-0.0023003841 0.10149962 -1.2655014e-06)
(5.5401594e-05 0.10656955 -1.2196107e-06)
(0.0016557888 0.10770302 -1.1287093e-06)
(0.0030988864 0.1092871 -1.0258756e-06)
(0.0041817108 0.11060469 -9.2580816e-07)
(0.0047733308 0.11201711 -8.3626537e-07)
(0.004924316 0.11336674 -7.5904387e-07)
(0.0047896634 0.11403678 -6.7687552e-07)
(0.0045229076 0.11399655 -6.3333087e-07)
(0.0042224216 0.11323247 -5.9173735e-07)
(0.003882714 0.11151941 -5.4807171e-07)
(0.0035104282 0.10896731 -5.1139679e-07)
(0.0031382553 0.10591873 -4.7987078e-07)
(0.0027777952 0.10262181 -4.5211651e-07)
(0.002435187 0.099200601 -4.271799e-07)
(0.0021121212 0.095737208 -4.0435181e-07)
(0.0018071169 0.092299493 -3.8305887e-07)
(0.0015210792 0.088939026 -3.628034e-07)
(0.0012527604 0.085693239 -3.4311468e-07)
(0.0010000902 0.082583381 -3.2347752e-07)
(0.00076070308 0.079638919 -3.0321836e-07)
(0.00053192619 0.076822103 -2.8267937e-07)
(0.00031157653 0.074324903 -2.6072366e-07)
(9.3821764e-05 0.070623563 -2.3881819e-07)
(-0.0090144152 -0.039421122 -8.4294429e-07)
(-0.0075720617 -0.037226001 -9.0683973e-07)
(-0.0061633855 -0.035540741 -8.9330394e-07)
(-0.0048036226 -0.032196164 -8.4696441e-07)
(-0.003575716 -0.027423811 -7.8857054e-07)
(-0.002519125 -0.022021311 -7.271973e-07)
(-0.0016479008 -0.016447953 -6.7031831e-07)
(-0.00096088762 -0.010979655 -6.1835828e-07)
(-0.00043587917 -0.0060716082 -5.700612e-07)
(-3.8100812e-05 -0.0017212877 -5.3385813e-07)
(0.00025233028 0.0020293472 -5.0060681e-07)
(0.00045559069 0.0057071097 -4.6958124e-07)
(0.00058818057 0.0092214122 -4.416723e-07)
(0.00066636944 0.01236967 -4.1656118e-07)
(0.00070076159 0.015079131 -3.9369207e-07)
(0.00069910355 0.0173506 -3.7256764e-07)
(0.00067013627 0.019217972 -3.5279711e-07)
(0.000622957 0.020719838 -3.339332e-07)
(0.00056037667 0.021877663 -3.1552229e-07)
(0.00048562401 0.022711405 -2.970527e-07)
(0.00040171647 0.023242017 -2.7781117e-07)
(0.00031132813 0.02349008 -2.5650463e-07)
(0.00021740834 0.023465562 -2.359355e-07)
(0.00012307599 0.023212381 -2.1121653e-07)
(3.0024661e-05 0.022355164 -1.8712764e-07)
(-0.0044298819 -0.015315977 -5.6371714e-07)
(-0.0042053888 -0.017639681 -6.3794824e-07)
(-0.0039058494 -0.020253707 -6.518909e-07)
(-0.0035928426 -0.0221762 -6.3472713e-07)
(-0.0032731926 -0.023420744 -6.0495018e-07)
(-0.0029540725 -0.023879187 -5.7296859e-07)
(-0.0026474765 -0.023704885 -5.3373102e-07)
(-0.0023504401 -0.023101439 -4.9717445e-07)
(-0.002068769 -0.02222201 -4.640378e-07)
(-0.0018139806 -0.021130538 -4.3580449e-07)
(-0.0015834949 -0.019910866 -4.1021747e-07)
(-0.0013643677 -0.0185472 -3.8668487e-07)
(-0.0011653796 -0.017109725 -3.6515302e-07)
(-0.00098883955 -0.01565221 -3.4543892e-07)
(-0.00083415363 -0.014211998 -3.2704236e-07)
(-0.0007008027 -0.012826425 -3.0955863e-07)
(-0.00058558991 -0.011533344 -2.9292055e-07)
(-0.00048334321 -0.010362479 -2.7658663e-07)
(-0.00039398681 -0.0093212866 -2.6007572e-07)
(-0.00031617253 -0.0084107458 -2.428167e-07)
(-0.00024814877 -0.0076316706 -2.2402318e-07)
(-0.00018795241 -0.0069839962 -2.026086e-07)
(-0.00013357325 -0.0064645719 -1.7745908e-07)
(-8.2678886e-05 -0.006033233 -1.4351338e-07)
(-3.2365321e-05 -0.0057427414 -9.2323723e-08)
(-0.0012445738 -0.0037554801 -3.9982681e-07)
(-0.0013589421 -0.0046508756 -4.6719264e-07)
(-0.001410355 -0.0055128591 -4.9296429e-07)
(-0.0014515107 -0.0062887221 -4.9286e-07)
(-0.0014755082 -0.0070938431 -4.7849852e-07)
(-0.0014732855 -0.0081166036 -4.5693902e-07)
(-0.0014554782 -0.009283956 -4.3078119e-07)
(-0.0014161396 -0.010330665 -4.044655e-07)
(-0.0013572078 -0.011228147 -3.7981919e-07)
(-0.0012853214 -0.0119641 -3.5751263e-07)
(-0.0012041612 -0.012553496 -3.37086e-07)
(-0.0011151136 -0.01299749 -3.1822262e-07)
(-0.0010239768 -0.013301449 -3.0073739e-07)
(-0.00093192115 -0.013450749 -2.848192e-07)
(-0.0008400001 -0.013476536 -2.6956491e-07)
(-0.00074779384 -0.01341721 -2.5510074e-07)
(-0.00065699481 -0.01329497 -2.4074834e-07)
(-0.00057005184 -0.013124343 -2.2626214e-07)
(-0.00048552393 -0.012915674 -2.1119828e-07)
(-0.00040316655 -0.012676304 -1.9498827e-07)
(-0.00032298533 -0.012412099 -1.7677023e-07)
(-0.00024508411 -0.012128775 -1.5527311e-07)
(-0.00016972605 -0.011829937 -1.2861963e-07)
(-9.7436375e-05 -0.011477982 -9.287316e-08)
(-3.0199615e-05 -0.011033456 -4.7203089e-08)
(3.7301716e-05 -0.00069955502 -2.9593586e-07)
(-6.9056664e-05 -0.0010684726 -3.4865517e-07)
(-0.00013584338 -0.0014488163 -3.75251e-07)
(-0.00019274174 -0.0018329353 -3.8279053e-07)
(-0.00025225376 -0.002211253 -3.7790349e-07)
(-0.00030888377 -0.0026017396 -3.6549345e-07)
(-0.00035909013 -0.0030059223 -3.4872548e-07)
(-0.00040057613 -0.0034031471 -3.3038428e-07)
(-0.0004297097 -0.003789583 -3.1214344e-07)
(-0.00044620671 -0.0041552292 -2.9480221e-07)
(-0.00045215691 -0.0044960657 -2.7851496e-07)
(-0.00044988789 -0.0048148381 -2.6325356e-07)
(-0.00043683047 -0.0051227937 -2.4894955e-07)
(-0.00041660887 -0.0054383329 -2.3554178e-07)
(-0.00039046001 -0.005747888 -2.2272167e-07)
(-0.00035936347 -0.0060147035 -2.1028635e-07)
(-0.00032448522 -0.0062306621 -1.9786859e-07)
(-0.00028736993 -0.0063937984 -1.8513337e-07)
(-0.00024851715 -0.0065041381 -1.7164644e-07)
(-0.00020846494 -0.0065614334 -1.5702931e-07)
(-0.00016776866 -0.0065671296 -1.4047894e-07)
(-0.00012704858 -0.0065242997 -1.2081632e-07)
(-8.7041804e-05 -0.0064378648 -9.6839055e-08)
(-4.8524781e-05 -0.0062902676 -6.6523599e-08)
(-1.324669e-05 -0.0060093167 -3.0432031e-08)
(0.00035540473 0.00022416034 -2.2491148e-07)
(0.00027940095 0.00015889447 -2.6357259e-07)
(0.00023831732 7.639467e-05 -2.8644788e-07)
(0.00021165813 -1.2214665e-06 -2.9623624e-07)
(0.00018277943 -8.5248204e-05 -2.9639215e-07)
(0.00014847126 -0.0001933871 -2.9002741e-07)
(0.00011954346 -0.00032085843 -2.7959791e-07)
(8.9140215e-05 -0.00045115872 -2.6708716e-07)
(5.8313127e-05 -0.00058520894 -2.5385724e-07)
(2.89923e-05 -0.00072079979 -2.4070145e-07)
(1.0694444e-06 -0.00085709927 -2.2798252e-07)
(-2.405402e-05 -0.00098670754 -2.1583617e-07)
(-4.1158181e-05 -0.0011058845 -2.0428272e-07)
(-5.2042591e-05 -0.0012171884 -1.9326626e-07)
(-5.7752377e-05 -0.0013180148 -1.8262683e-07)
(-5.9352953e-05 -0.0014051975 -1.7216983e-07)
(-5.8020104e-05 -0.0014789822 -1.6163618e-07)
(-5.4489988e-05 -0.0015387363 -1.5073704e-07)
(-4.9332198e-05 -0.0015839633 -1.3913095e-07)
(-4.2933469e-05 -0.0016141161 -1.2643692e-07)
(-3.5641306e-05 -0.0016289636 -1.1219516e-07)
(-2.7777033e-05 -0.0016289313 -9.5735893e-08)
(-1.961245e-05 -0.0016165032 -7.6371862e-08)
(-1.1221866e-05 -0.0015908775 -5.3429435e-08)
(-2.8432781e-06 -0.0015118761 -2.6041423e-08)
(0.00035739335 0.00044228235 -1.7212186e-07)
(0.00026804249 0.00045913908 -1.9959801e-07)
(0.00022689709 0.00047437553 -2.176823e-07)
(0.00020823267 0.00048576035 -2.2709447e-07)
(0.00019879209 0.00049788061 -2.2948667e-07)
(0.0001844486 0.00051254646 -2.267132e-07)