/*--------------------------------*- C++ -*----------------------------------*\
| =========                 |                                                 |
| \\      /  F ield         | OpenFOAM: The Open Source CFD Toolbox           |
|  \\    /   O peration     | Version:  4.0                                   |
|   \\  /    A nd           | Web:      www.OpenFOAM.org                      |
|    \\/     M anipulation  |                                                 |
\*---------------------------------------------------------------------------*/
FoamFile
{
    version     2.0;
    format      ascii;
    class       volScalarField;
    location    "0.17";
    object      k;
}
// * * * * * * * * * * * * * * * * * * * * * * * * * * * * * * * * * * * * * //

dimensions      [0 2 -2 0 0 0 0];

internalField   nonuniform List<scalar> 
1740
(
0.0084914944
0.0089678774
0.018287616
0.0091036514
0.0099978593
0.027257838
0.0094949532
0.010506167
0.034265756
0.009701258
0.010702226
0.041141348
0.0098764215
0.0110207
0.047107208
0.0099436383
0.011278429
0.051201974
0.0099940051
0.011409934
0.055470967
0.01005667
0.011806104
0.0593061
0.010071034
0.01229832
0.061465259
0.010034075
0.012417489
0.063911801
0.010006138
0.012678803
0.066235905
0.009999851
0.013005892
0.067440532
0.0098977936
0.01329145
0.068258537
0.0097849346
0.013274174
0.069215207
0.0097132677
0.013486843
0.070341229
0.0096111207
0.014010187
0.07124891
0.0095326652
0.014458538
0.071401043
0.0094188159
0.014576794
0.071467881
0.0092824874
0.014547305
0.071861259
0.0091313951
0.01453934
0.07181482
0.0090151976
0.014386024
0.072082871
0.0088731418
0.01440299
0.072120958
0.0087069076
0.014446434
0.072253105
0.0086010907
0.014545981
0.072347586
0.0085231423
0.014715167
0.072187942
0.00839959
0.014645762
0.072300049
0.0083469111
0.014552802
0.07213516
0.0083258343
0.014797504
0.071720352
0.0083135011
0.014845232
0.070978935
0.0089312464
0.016045808
0.066166136
0.012708133
0.018073512
0.047072518
0.023882152
0.031091924
0.039686915
0.010262707
0.012512177
0.0136965
0.0042806353
0.0046134308
0.0046691833
0.0020743997
0.0021167976
0.0020872789
0.0011187642
0.001118965
0.0010983288
0.00064357182
0.00064010775
0.0006296837
0.00037944888
0.00037709075
0.00037203904
0.00022130933
0.00021995982
0.0002173662
0.00012412794
0.00012335418
0.00012189715
6.5843792e-05
6.5399475e-05
6.4549825e-05
3.3035349e-05
3.2791386e-05
3.2314897e-05
1.6028654e-05
1.5904582e-05
1.5658348e-05
7.9404254e-06
7.8832912e-06
7.7687378e-06
4.4097798e-06
4.3865432e-06
4.339796e-06
3.0091014e-06
3.0014639e-06
2.9863231e-06
2.5321906e-06
2.5311679e-06
2.5295292e-06
2.4310917e-06
2.4326307e-06
2.4362294e-06
2.4744072e-06
2.4768098e-06
2.4821596e-06
2.5706483e-06
2.5732512e-06
2.578986e-06
2.6858173e-06
2.6883795e-06
2.6940041e-06
2.8080103e-06
2.8104524e-06
2.8158051e-06
2.9332788e-06
2.9355795e-06
2.9406183e-06
3.0603474e-06
3.0625047e-06
3.0672278e-06
3.1887618e-06
3.19078e-06
3.1951976e-06
3.3182795e-06
3.3201646e-06
3.3242901e-06
3.448682e-06
3.4504401e-06
3.4542872e-06
3.579721e-06
3.5813579e-06
3.5849398e-06
3.7111038e-06
3.7126253e-06
3.7159547e-06
3.842491e-06
3.8439026e-06
3.8469914e-06
3.9734956e-06
3.9748025e-06
3.9776624e-06
4.1036836e-06
4.104891e-06
4.107533e-06
4.2325747e-06
4.2336875e-06
4.2361225e-06
4.3596431e-06
4.360666e-06
4.3629045e-06
4.484316e-06
4.4852538e-06
4.487306e-06
4.6059686e-06
4.606826e-06
4.6087022e-06
4.7239045e-06
4.724686e-06
4.7263964e-06
4.8373022e-06
4.8380126e-06
4.8395673e-06
4.9450869e-06
4.9457308e-06
4.94714e-06
5.0456426e-06
5.0462247e-06
5.0474986e-06
5.1362208e-06
5.1367458e-06
5.1378951e-06
5.2118087e-06
5.2122816e-06
5.2133169e-06
5.2631343e-06
5.2635601e-06
5.2644924e-06
5.2734588e-06
5.2738427e-06
5.2746837e-06
5.2140103e-06
5.214358e-06
5.2151198e-06
5.0386297e-06
5.0389466e-06
5.0396414e-06
4.6799381e-06
4.6802277e-06
4.6808634e-06
4.0526359e-06
4.0528946e-06
4.053464e-06
3.0737733e-06
3.0739828e-06
3.0744464e-06
1.6991221e-06
1.6992462e-06
1.6995225e-06
0.056217011
0.060910183
0.046103204
0.046592711
0.012464136
0.011341702
0.0043527895
0.0041136124
0.0019892742
0.0019241444
0.0010642782
0.0010441675
0.00061695305
0.0006104674
0.0003667322
0.00036427633
0.00021472867
0.00021332319
0.00012034153
0.00011924546
6.3575372e-05
6.2731232e-05
3.1736202e-05
3.1172075e-05
1.534809e-05
1.5025677e-05
7.6213865e-06
7.4632873e-06
4.2793492e-06
4.2141421e-06
2.9673273e-06
2.9478968e-06
2.5284826e-06
2.5292253e-06
2.4421725e-06
2.4508024e-06
2.490408e-06
2.5015846e-06
2.5876921e-06
2.5992914e-06
2.7024984e-06
2.7137517e-06
2.8238722e-06
2.8345364e-06
2.9482054e-06
2.9582262e-06
3.0743362e-06
3.0837212e-06
3.2018448e-06
3.2106191e-06
3.3304971e-06
3.3386895e-06
3.4600749e-06
3.4677138e-06
3.5903284e-06
3.5974405e-06
3.7209633e-06
3.7275739e-06
3.8516382e-06
3.8577713e-06
3.9819648e-06
3.9876434e-06
4.1115077e-06
4.116754e-06
4.2397858e-06
4.2446211e-06
4.3662721e-06
4.3707173e-06
4.4903936e-06
4.4944692e-06
4.6115251e-06
4.6152513e-06
4.7289698e-06
4.7323668e-06
4.8419066e-06
4.8449945e-06
4.9492604e-06
4.9520597e-06
5.0494159e-06
5.0519471e-06
5.1396249e-06
5.141909e-06
5.2148755e-06
5.216934e-06
5.2658964e-06
5.2677515e-06
5.2759504e-06
5.2776251e-06
5.2162675e-06
5.2177859e-06
5.0406885e-06
5.0420751e-06
4.6818229e-06
4.6830971e-06
4.0543275e-06
4.0554845e-06
3.0751562e-06
3.0761246e-06
1.6999509e-06
1.7005487e-06
6.0440326e-06
2.646718e-05
0.00013107179
0.00029678627
0.00044864387
0.00055401522
0.00061773736
0.00065392928
0.00067414984
0.00068521602
0.0006906395
0.00069196374
0.00068965457
0.00068384074
0.00067416108
0.00066031245
0.00064208427
0.00061927049
0.00059148168
0.00055773856
0.00051577094
0.00046104834
0.00038591494
0.00027971338
0.00012924905
2.588885e-06
5.4311395e-05
0.00024854428
0.0005096488
0.00071705474
0.00084321058
0.00091269854
0.00094981556
0.00096966581
0.00097991822
0.00098430706
0.00098437381
0.00098043969
0.00097232135
0.00095951938
0.00094170179
0.0009185833
0.00088978011
0.00085458895
0.00081140079
0.00075673232
0.00068370935
0.00058010865
0.00042684547
0.00019951099
8.0189239e-06
0.00016009411
0.00061551387
0.0010771159
0.0013567087
0.0014949109
0.0015571564
0.0015823081
0.0015901031
0.0015885376
0.0015815668
0.001570776
0.0015562788
0.0015369283
0.0015122401
0.0014820144
0.0014459524
0.0014034836
0.0013536349
0.0012941111
0.0012202069
0.0011224665
0.00098237137
0.00076477556
0.00040660267
3.7829976e-05
0.00058041206
0.0016876358
0.0024381907
0.0027736117
0.0028852485
0.0028913634
0.0028566723
0.0028111894
0.0027593305
0.0027055485
0.0026516163
0.0025977091
0.0025406042
0.0024788202
0.0024126351
0.0023419047
0.0022660281
0.0021839341
0.0020935232
0.0019905779
0.0018664739
0.0017024585
0.0014530143
0.00097868605
0.00028217366
0.0024484681
0.0049180763
0.0060409649
0.0063890239
0.0063285503
0.0060989584
0.0058336539
0.0055820344
0.0053288747
0.0050836563
0.0048518825
0.0046382325
0.0044308393
0.0042246927
0.004024551
0.0038313519
0.0036446919
0.003463568
0.0032861953
0.0031095981
0.0029291675
0.0027380608
0.002531756
0.0023281662
0.0023606145
0.010508249
0.016570101
0.018531852
0.018082289
0.016533374
0.014721984
0.013036353
0.011555649
0.010278199
0.009184038
0.0082506033
0.0074531312
0.0067671376
0.0061732944
0.0056576899
0.0052084058
0.0048147279
0.0044671838
0.0041574736
0.0038781354
0.0036226091
0.0033854457
0.0031696691
0.0029938648
0.044974901
0.034114533
0.026602725
0.021427007
0.017764037
0.015056733
0.01296929
0.011316596
0.0099894068
0.00891093
0.0080226854
0.007280277
0.0066502892
0.0061078533
0.0056344738
0.0052168743
0.0048455572
0.0045132632
0.0042140293
0.0039426705
0.0036944261
0.0034651403
0.0032517777
0.0030591933
0.0029074154
0.037219685
0.030958425
0.027769794
0.02514978
0.022285277
0.019314946
0.01659971
0.014301912
0.012419409
0.010875858
0.0096019049
0.0085409516
0.0076490401
0.0068954255
0.0062556133
0.0057094728
0.0052401183
0.0048334488
0.0044777108
0.0041630068
0.0038807183
0.0036234549
0.0033850651
0.0031681675
0.0029913102
0.010207713
0.0095386996
0.009202113
0.008884473
0.0084238903
0.0078589037
0.007299121
0.0068013159
0.0063475094
0.0059444476
0.0055893541
0.0052766375
0.0049811944
0.004704155
0.0044464412
0.0042069933
0.0039837369
0.0037741643
0.0035754767
0.0033844264
0.0031969294
0.0030075007
0.0028085062
0.0025947581
0.0023836667
0.0039553885
0.0038823798
0.0038591745
0.0038169392
0.0037200606
0.0035813199
0.0034366602
0.0033015314
0.0031775638
0.0030666518
0.0029676567
0.0028773575
0.0027898311
0.0027039272
0.0026191886
0.0025348903
0.0024499455
0.0023629186
0.0022718971
0.0021740394
0.002064502
0.0019340848
0.0017634098
0.0015056895
0.0010166297
0.0019029012
0.0019133858
0.0019354863
0.0019464428
0.0019349975
0.0019044521
0.0018657061
0.0018257432
0.0017873276
0.0017515551
0.0017180391
0.0016853773
0.0016517108
0.0016161306
0.0015783993
0.0015379871
0.0014940902
0.0014456277
0.0013909641
0.0013272935
0.0012494059
0.0011473695
0.0010022605
0.000778638
0.00041379622
0.0010439075
0.0010578703
0.0010766382
0.0010910109
0.0010961025
0.0010924459
0.001083524
0.0010721991
0.001060032
0.0010476161
0.0010347787
0.0010208468
0.0010049813
0.00098656712
0.0009652321
0.00094063784
0.00091235169
0.00087975952
0.00084182917
0.00079660712
0.00074031892
0.00066599355
0.00056176521
0.00040987906
0.000189734
0.00061279351
0.000621712
0.00063300522
0.00064256401
0.00064798577
0.0006490195
0.00064675237
0.00064239004
0.0006367272
0.00063009607
0.00062243453
0.00061341613
0.00060261668
0.00058967353
0.00057432305
0.00055636355
0.00053561106
0.00051183637
0.000484606
0.00045295801
0.00041487378
0.00036661555
0.00030228022
0.00021431993
9.5117705e-05
0.00036575817
0.00037030217
0.00037600843
0.00038093148
0.00038381512
0.0003843194
0.0003827489
0.00037958986
0.00037522878
0.00036985386
0.00036346077
0.00035590624
0.00034699057
0.00033653353
0.000324414
0.00031057822
0.00029502946
0.00027779452
0.00025883332
0.00023785961
0.00021407455
0.00018593869
0.00015141929
0.000109881
6.8718304e-05
0.00021364288
0.00021533932
0.00021755313
0.00021934821
0.0002200595
0.00021942452
0.00021750256
0.00021448808
0.00021057162
0.00020586762
0.00020040448
0.00019414376
0.00018701903
0.00017897566
0.00016999877
0.00016012629
0.00014944813
0.00013808804
0.00012615404
0.00011364631
0.00010033688
8.5714508e-05
6.925935e-05
5.1589932e-05
3.7163751e-05
0.00011885656
0.00011904489
0.00011942936
0.00011956872
0.00011912494
0.00011793727
0.00011600304
0.00011340544
0.00011024363
0.00010659461
0.00010249963
9.797106e-05
9.300929e-05
8.762245e-05
8.1841323e-05
7.5726716e-05
6.9368392e-05
6.2873743e-05
5.6341325e-05
4.9817452e-05
4.3247157e-05
3.6464854e-05
2.9327221e-05
2.2119226e-05
1.5510419e-05
6.214352e-05
6.1774079e-05
6.1464866e-05
6.1019538e-05
6.0279341e-05
5.9161786e-05
5.7658932e-05
5.5809843e-05
5.3669351e-05
5.1287161e-05
4.8699502e-05
4.5930576e-05
4.2999393e-05
3.9927902e-05
3.6747248e-05
3.3500564e-05
3.0241361e-05
2.7027001e-05
2.3905943e-05
2.0899154e-05
1.7980849e-05
1.5073398e-05
1.2076234e-05
8.8979259e-06
5.1474524e-06
3.0686915e-05
3.0275224e-05
2.987786e-05
2.9414713e-05
2.8818125e-05
2.8051698e-05
2.7111765e-05
2.6017574e-05
2.4797818e-05
2.3480867e-05
2.2089951e-05
2.0643117e-05
1.9155568e-05
1.7642753e-05
1.6122611e-05
1.4616259e-05
1.314667e-05
1.1735359e-05
1.0396558e-05
9.1291712e-06
7.9084044e-06
6.6810463e-06
5.3667812e-06
3.8485641e-06
1.8959984e-06
1.4722858e-05
1.4442897e-05
1.4166094e-05
1.3862823e-05
1.3506744e-05
1.3083522e-05
1.259221e-05
1.2041748e-05
1.1445697e-05
1.0817864e-05
1.0170112e-05
9.5119054e-06
8.8513149e-06
8.1958563e-06
7.5531269e-06
6.9308736e-06
6.3361998e-06
5.7736677e-06
5.2422459e-06
4.7311703e-06
4.2153523e-06
3.6518559e-06
2.9794731e-06
2.1217823e-06
1.0039129e-06
7.309021e-06
7.1623224e-06
7.0175114e-06
6.8644899e-06
6.6937972e-06
6.5001627e-06
6.2834654e-06
6.0474093e-06
5.7975995e-06
5.5398293e-06
5.2791268e-06
5.0194831e-06
4.7641692e-06
4.515999e-06
4.2773822e-06
4.0501515e-06
3.8349334e-06
3.6298315e-06
3.4283713e-06
3.21667e-06
2.9702284e-06
2.6515815e-06
2.2115664e-06
1.5999274e-06
7.9381684e-07
4.1504201e-06
4.0904629e-06
4.0329044e-06
3.9744629e-06
3.9118669e-06
3.8431835e-06
3.768259e-06
3.688339e-06
3.6053739e-06
3.5213837e-06
3.4381105e-06
3.3568875e-06
3.2786755e-06
3.2041517e-06
3.1336016e-06
3.0666537e-06
3.0016694e-06
2.9346414e-06
2.8574431e-06
2.7554125e-06
2.6046519e-06
2.3702933e-06
2.0086869e-06
1.4801652e-06
7.7735634e-07
2.9305121e-06
2.916224e-06
2.9047321e-06
2.8949178e-06
2.8855531e-06
2.875795e-06
2.8653562e-06
2.8544255e-06
2.843437e-06
2.8328596e-06
2.8230609e-06
2.8142567e-06
2.8064925e-06
2.7996177e-06
2.7931609e-06
2.7860226e-06
2.7758713e-06
2.7580825e-06
2.7240601e-06
2.6589259e-06
2.5389592e-06
2.3300247e-06
1.9898828e-06
1.4811744e-06
8.0195538e-07
2.5326286e-06
2.539049e-06
2.548333e-06
2.5599858e-06
2.5734108e-06
2.5880947e-06
2.6036823e-06
2.6199646e-06
2.636816e-06
2.6541264e-06
2.6717573e-06
2.6895128e-06
2.707114e-06
2.7241398e-06
2.7398783e-06
2.7530162e-06
2.7610215e-06
2.7590728e-06
2.7383735e-06
2.6838316e-06
2.5714855e-06
2.3668836e-06
2.0271539e-06
1.513044e-06
8.2073218e-07
2.4623407e-06
2.4768134e-06
2.4940398e-06
2.5136884e-06
2.535357e-06
2.5586417e-06
2.5831729e-06
2.6086206e-06
2.634681e-06
2.6610585e-06
2.6874515e-06
2.7135355e-06
2.7389344e-06
2.7631513e-06
2.7854091e-06
2.80433e-06
2.8173056e-06
2.8194025e-06
2.8016389e-06
2.7486127e-06
2.6358635e-06
2.4281812e-06
2.0815518e-06
1.5546905e-06
8.4353532e-07
2.5156646e-06
2.5325361e-06
2.5519917e-06
2.5737458e-06
2.5974654e-06
2.6227973e-06
2.6493856e-06
2.676881e-06
2.7049405e-06
2.7332256e-06
2.7613962e-06
2.7890996e-06
2.81594e-06
2.8414057e-06
2.8647048e-06
2.8844298e-06
2.8979171e-06
2.9001224e-06
2.8818505e-06
2.8273176e-06
2.7114414e-06
2.4981218e-06
2.1422686e-06
1.6012982e-06
8.6869235e-07
2.6136734e-06
2.6306782e-06
2.6500911e-06
2.6716494e-06
2.6950548e-06
2.7199877e-06
2.7461161e-06
2.7731038e-06
2.800614e-06
2.8283109e-06
2.8558576e-06
2.8829048e-06
2.9090609e-06
2.9338163e-06
2.9563749e-06
2.9753068e-06
2.9878915e-06
2.9889631e-06
2.9690903e-06
2.9120694e-06
2.7921473e-06
2.572302e-06
2.2064273e-06
1.6509759e-06
9.0143971e-07
2.7276288e-06
2.7439589e-06
2.7625331e-06
2.7831067e-06
2.8054073e-06
2.8291411e-06
2.8540015e-06
2.8796733e-06
2.905838e-06
2.9321757e-06
2.9583638e-06
2.9840661e-06
3.0089014e-06
3.0323661e-06
3.0536614e-06
3.0713357e-06
3.0826073e-06
3.0821807e-06
3.0603747e-06
3.0005451e-06
2.8762431e-06
2.6495123e-06
2.2732501e-06
1.7028561e-06
9.3193334e-07
2.8476603e-06
2.8630765e-06
2.8805868e-06
2.8999636e-06
2.9209556e-06
2.9432919e-06
2.966688e-06
2.9908507e-06
3.0154816e-06
3.0402792e-06
3.0649376e-06
3.0891357e-06
3.1125042e-06
3.1345463e-06
3.1544598e-06
3.1707699e-06
3.180632e-06
3.1786151e-06
3.1547784e-06
3.0920208e-06
2.9631702e-06
2.7292901e-06
2.3422856e-06
1.7572007e-06
9.6856823e-07
2.9705483e-06
2.9850127e-06
3.0014334e-06
3.0195989e-06
3.0392758e-06
3.0602135e-06
3.0821477e-06
3.1048048e-06
3.1279057e-06
3.1511673e-06
3.1743003e-06
3.1969983e-06
3.218904e-06
3.2395272e-06
3.2580619e-06
3.2730087e-06
3.2814579e-06
3.2778391e-06
3.2519431e-06
3.1861975e-06
3.0526731e-06
2.8113529e-06
2.4127916e-06
1.8105586e-06
9.9855977e-07
3.0952574e-06
3.1087958e-06
3.1241624e-06
3.1411604e-06
3.1595729e-06
3.1791668e-06
3.1996961e-06
3.2209054e-06
3.2425332e-06
3.2643134e-06
3.2859731e-06
3.3072201e-06
3.3277084e-06
3.346954e-06
3.3641463e-06
3.3777601e-06
3.384819e-06
3.3796079e-06
3.3516421e-06
3.2828621e-06
3.1445496e-06
2.8955293e-06
2.4848808e-06
1.8646999e-06
1.0284078e-06
3.2214031e-06
3.2340575e-06
3.2484199e-06
3.2643072e-06
3.2815172e-06
3.2998327e-06
3.3190242e-06
3.3388532e-06
3.3590746e-06
3.3794385e-06
3.3996866e-06
3.4195407e-06
3.4386659e-06
3.4565837e-06
3.4724779e-06
3.4847963e-06
3.4904928e-06
3.4837039e-06
3.453661e-06
3.3818057e-06
3.2386095e-06
2.9817022e-06
2.5586227e-06
1.9197761e-06
1.0572771e-06
3.3487578e-06
3.3605719e-06
3.3739806e-06
3.388813e-06
3.4048809e-06
3.4219815e-06
3.4399005e-06
3.4584147e-06
3.4772948e-06
3.4963056e-06
3.5152036e-06
3.533723e-06
3.5515395e-06
3.5681795e-06
3.5828206e-06
3.5938819e-06
3.5982447e-06
3.5898931e-06
3.5577668e-06
3.4827983e-06
3.3346369e-06
3.0697e-06
2.6339359e-06
1.9758985e-06
1.0861098e-06
3.4771016e-06
3.4881171e-06
3.5006194e-06
3.5144493e-06
3.5294313e-06
3.5453762e-06
3.5620835e-06
3.5793447e-06
3.5969447e-06
3.6146626e-06
3.6322685e-06
3.6495091e-06
3.6660695e-06
3.6814804e-06
3.6949123e-06
3.7047541e-06
3.7078121e-06
3.6979126e-06
3.6636973e-06
3.5855793e-06
3.4323747e-06
3.1592769e-06
2.7106676e-06
2.0337325e-06
1.1231198e-06
3.6061809e-06
3.6164368e-06
3.628077e-06
3.6409532e-06
3.6549016e-06
3.6697456e-06
3.6852981e-06
3.7013639e-06
3.7177414e-06
3.7342235e-06
3.7505928e-06
3.7666078e-06
3.7819626e-06
3.7961916e-06
3.808457e-06
3.8171162e-06
3.8188975e-06
3.8074654e-06
3.7711557e-06
3.6898508e-06
3.5315172e-06
3.2501048e-06
2.7883947e-06
2.0920841e-06
1.1559289e-06
3.7356981e-06
3.745231e-06
3.7560505e-06
3.7680184e-06
3.7809822e-06
3.7947771e-06
3.8092282e-06
3.824153e-06
3.839363e-06
3.8546633e-06
3.8698492e-06
3.8846899e-06
3.898888e-06
3.9119806e-06
3.9231211e-06
3.9306335e-06
3.931166e-06
3.9182167e-06
3.8798082e-06
3.7952783e-06
3.6317243e-06
3.3418331e-06
2.8668122e-06
2.1510476e-06
1.1894979e-06
3.8653089e-06
3.8741534e-06
3.8841914e-06
3.8952942e-06
3.9073198e-06
3.9201144e-06
3.9335149e-06
3.9473508e-06
3.9614454e-06
3.9756162e-06
3.9896698e-06
4.0033859e-06
4.0164748e-06
4.0284757e-06
4.0385319e-06
4.0449327e-06
4.0442441e-06
4.0297937e-06
3.9892839e-06
3.9014966e-06
3.7326408e-06
3.4341173e-06
2.9455249e-06
2.2098132e-06
1.2222509e-06
3.9946225e-06
4.0028116e-06
4.0121054e-06
4.0223843e-06
4.0335159e-06
4.0453572e-06
4.0577558e-06
4.0705526e-06
4.0835825e-06
4.0966742e-06
4.1096452e-06
4.122285e-06
4.1343112e-06
4.145264e-06
4.1542759e-06
4.1596002e-06
4.1577182e-06
4.141784e-06
4.0991746e-06
4.0081078e-06
3.8338918e-06
3.5266336e-06
3.02435e-06
2.2687791e-06
1.2560794e-06
4.1232017e-06
4.1307672e-06
4.1393527e-06
4.1488472e-06
4.1591277e-06
4.1700607e-06
4.1815046e-06
4.1933107e-06
4.2053249e-06
4.2173866e-06
4.2293237e-06
4.2409348e-06
4.2519438e-06
4.2618918e-06
4.2698991e-06
4.2741818e-06
4.2711346e-06
4.2537359e-06
4.2090344e-06
4.1146816e-06
3.9350871e-06
3.6190907e-06
3.1032553e-06
2.3282627e-06
1.2904724e-06
4.2505637e-06
4.2575363e-06
4.2654483e-06
4.2741969e-06
4.2836676e-06
4.2937365e-06
4.3042716e-06
4.3151343e-06
4.3261808e-06
4.3372607e-06
4.3482116e-06
4.3588407e-06
4.3688779e-06
4.3778638e-06
4.3849063e-06
4.3881828e-06
4.3840001e-06
4.3651593e-06
4.3183811e-06
4.2207536e-06
4.0357965e-06
3.7110878e-06
3.1816763e-06
2.3868443e-06
1.3227053e-06
4.3761805e-06
4.3825902e-06
4.3898628e-06
4.397903e-06
4.4066046e-06
4.4158524e-06
4.4255237e-06
4.4354896e-06
4.4456156e-06
4.4557613e-06
4.4657732e-06
4.4754668e-06
4.484577e-06
4.4926439e-06
4.4987616e-06
4.5010683e-06
4.4957819e-06
4.4755262e-06
4.4266965e-06
4.3258276e-06
4.1355725e-06
3.802285e-06
3.2595372e-06
2.4452383e-06
1.3551751e-06
4.499478e-06
4.5053544e-06
4.5120211e-06
4.5193898e-06
4.5273623e-06
4.5358317e-06
4.5446837e-06
4.5537986e-06
4.5630511e-06
4.5723098e-06
4.5814299e-06
4.5902341e-06
4.5984624e-06
4.6056534e-06
4.6108872e-06
4.612262e-06
4.6059066e-06
4.5842685e-06
4.5334219e-06
4.4293614e-06
4.2338988e-06
3.8921955e-06
3.3363496e-06
2.5028588e-06
1.3872198e-06
4.6198307e-06
4.625203e-06
4.6312968e-06
4.6380308e-06
4.6453139e-06
4.653047e-06
4.6611241e-06
4.6694338e-06
4.6778596e-06
4.6862784e-06
4.6945536e-06
4.702515e-06
4.7099067e-06
4.7162655e-06
4.7206571e-06
4.7211395e-06
4.7137531e-06
4.6907706e-06
4.6379506e-06
4.5307593e-06
4.3301873e-06
3.9802201e-06
3.4114479e-06
2.5588048e-06
1.4172851e-06
4.7365416e-06
4.7414388e-06
4.7469929e-06
4.7531287e-06
4.759762e-06
4.766801e-06
4.7741475e-06
4.781698e-06
4.7893439e-06
4.7969702e-06
4.804448e-06
4.8116134e-06
4.8182142e-06
4.8237853e-06
4.8273776e-06
4.8270092e-06
4.818633e-06
4.7943498e-06
4.7396088e-06
4.6293585e-06
4.423782e-06
4.0656803e-06
3.4840021e-06
2.611403e-06
1.4392502e-06
4.8487895e-06
4.8532408e-06
4.8582883e-06
4.8638626e-06
4.869886e-06
4.8762735e-06
4.8829341e-06
4.8897716e-06
4.896685e-06
4.9035668e-06
4.910295e-06
4.9167118e-06
4.9225684e-06
4.927397e-06
4.9302341e-06
4.9290584e-06
4.9197369e-06
4.8942029e-06
4.837604e-06
4.724385e-06
4.5139431e-06
4.1479217e-06
3.5536704e-06
2.6619787e-06
1.4640048e-06
4.9554999e-06
4.9595348e-06
4.9641091e-06
4.9691592e-06
4.9746131e-06
4.9803923e-06
4.9864123e-06
4.9925838e-06
4.998813e-06
5.0049991e-06
5.0110267e-06
5.0167433e-06
5.0219031e-06
5.0260358e-06
5.0281631e-06
5.0262255e-06
5.0160068e-06
4.9892782e-06
4.9308967e-06
4.8148248e-06
4.5997131e-06
4.2261263e-06
3.6199858e-06
2.7105384e-06
1.4888413e-06
5.0550579e-06
5.0587063e-06
5.0628418e-06
5.0674056e-06
5.0723315e-06
5.0775467e-06
5.0829728e-06
5.0885269e-06
5.0941215e-06
5.0996621e-06
5.1050393e-06
5.1101055e-06
5.1146174e-06
5.1181018e-06
5.1195661e-06
5.1169139e-06
5.1058491e-06
5.0779884e-06
5.0179134e-06
4.8991333e-06
4.6796065e-06
4.2989217e-06
3.6817843e-06
2.7563696e-06
1.5139183e-06
5.1447165e-06
5.1480093e-06
5.1517412e-06
5.1558583e-06
5.1602994e-06
5.1649968e-06
5.1698779e-06
5.1748654e-06
5.1798773e-06
5.1848249e-06
5.1896042e-06
5.1940717e-06
5.1979862e-06
5.2008713e-06
5.2017206e-06
5.1984023e-06
5.1865449e-06
5.1576205e-06
5.0959562e-06
4.9746486e-06
4.7510433e-06
4.3639118e-06
3.7370779e-06
2.7982862e-06
1.5390579e-06
5.2194649e-06
5.2224339e-06
5.2257993e-06
5.2295114e-06
5.2335136e-06
5.237743e-06
5.2421315e-06
5.2466068e-06
5.2510919e-06
5.2555029e-06
5.2597399e-06
5.2636632e-06
5.2670328e-06
5.2693692e-06
5.2696523e-06
5.265717e-06
5.2531223e-06
5.2232094e-06
5.1600804e-06
5.0364776e-06
4.8092422e-06
4.4165132e-06
3.7815174e-06
2.8320017e-06
1.5602695e-06
5.2700335e-06
5.2727121e-06
5.2757499e-06
5.2791018e-06
5.282715e-06
5.2865307e-06
5.2904847e-06
5.2945084e-06
5.2985285e-06
5.3024645e-06
5.3062199e-06
5.3096574e-06
5.3125378e-06
5.3143777e-06
5.3141444e-06
5.3096426e-06
5.2963702e-06
5.2655586e-06
5.2011314e-06
5.0755723e-06
4.8453959e-06
4.4484048e-06
3.8076028e-06
2.8508201e-06
1.564327e-06
5.279687e-06
5.2821102e-06
5.2848621e-06
5.2879017e-06
5.2911805e-06
5.2946429e-06
5.2982273e-06
5.3018676e-06
5.3054922e-06
5.3090222e-06
5.3123627e-06
5.3153779e-06
5.3178283e-06
5.319227e-06
5.3185304e-06
5.3135183e-06
5.2996435e-06
5.2680645e-06
5.202608e-06
5.0756653e-06
4.8437383e-06
4.4448307e-06
3.8025095e-06
2.8454688e-06
1.5603407e-06
5.2196579e-06
5.2218625e-06
5.2243722e-06
5.2271501e-06
5.2301518e-06
5.2333247e-06
5.2366095e-06
5.2399401e-06
5.243244e-06
5.2464414e-06
5.2494379e-06
5.2520979e-06
5.2541819e-06
5.2552009e-06
5.2541043e-06
5.2486592e-06
5.2343041e-06
5.2021965e-06
5.1362179e-06
5.0089634e-06
4.7774645e-06
4.3808361e-06
3.7445201e-06
2.7991985e-06
1.5305522e-06
5.0437885e-06
5.0458136e-06
5.0481264e-06
5.0506909e-06
5.0534667e-06
5.0564069e-06
5.0594541e-06
5.0625404e-06
5.0655893e-06
5.0685188e-06
5.0712339e-06
5.0736017e-06
5.0753851e-06
5.0760978e-06
5.0746921e-06
5.0689451e-06
5.054344e-06
5.0221872e-06
4.9566955e-06
4.8311968e-06
4.6041695e-06
4.2173281e-06
3.6001535e-06
2.6882112e-06
1.4696601e-06
4.6846805e-06
4.6865648e-06
4.6887237e-06
4.6911091e-06
4.6936841e-06
4.696414e-06
4.6992459e-06
4.7021126e-06
4.7049291e-06
4.7076201e-06
4.7100814e-06
4.712195e-06
4.7137369e-06
4.7142368e-06
4.7126678e-06
4.7068606e-06
4.6924708e-06
4.661205e-06
4.598142e-06
4.4782535e-06
4.2629369e-06
3.8987789e-06
3.3225104e-06
2.4786867e-06
1.3617759e-06
4.0569426e-06
4.0587033e-06
4.0607239e-06
4.0629196e-06
4.0652558e-06
4.0677444e-06
4.0703005e-06
4.0729238e-06
4.0754644e-06
4.0779416e-06
4.0801204e-06
4.0819609e-06
4.0832917e-06
4.0836868e-06
4.0821782e-06
4.0767321e-06
4.0633858e-06
4.0347128e-06
3.9775217e-06
3.8698901e-06
3.6782999e-06
3.357287e-06
2.8547656e-06
2.1269262e-06
1.1712106e-06
3.0773778e-06
3.0789287e-06
3.0807092e-06
3.0825849e-06
3.084574e-06
3.0871425e-06
3.0893638e-06
3.0921408e-06
3.0944609e-06
3.0971249e-06
3.0990251e-06
3.1005006e-06
3.101579e-06
3.1019419e-06
3.1007647e-06
3.0963201e-06
3.0853819e-06
3.0620829e-06
3.0162214e-06
2.9310203e-06
2.7808523e-06
2.531842e-06
2.1477958e-06
1.600223e-06
8.9014705e-07
1.7013471e-06
1.7023621e-06
1.7035289e-06
1.7047464e-06
1.7065119e-06
1.7128956e-06
1.715367e-06
1.7210642e-06
1.7236961e-06
1.7275498e-06
1.7292869e-06
1.7302419e-06
1.7309109e-06
1.7311842e-06
1.7305495e-06
1.7279202e-06
1.7213534e-06
1.7074386e-06
1.6804134e-06
1.6308875e-06
1.5442669e-06
1.4018448e-06
1.1867887e-06
8.8698113e-07
5.1090067e-07
)
;

boundaryField
{
    Walls
    {
        type            kqRWallFunction;
        value           nonuniform List<scalar> 
38
(
6.0440326e-06
2.588885e-06
8.0189239e-06
3.7829976e-05
0.00028217366
0.0023606145
0.056217011
0.060910183
0.018287616
0.027257838
0.034265756
0.041141348
0.047107208
0.051201974
0.055470967
0.0593061
0.061465259
0.063911801
0.066235905
0.067440532
0.068258537
0.069215207
0.070341229
0.07124891
0.071401043
0.071467881
0.071861259
0.07181482
0.072082871
0.072120958
0.072253105
0.072347586
0.072187942
0.072300049
0.07213516
0.071720352
0.070978935
0.066166136
)
;
    }
    Inlet
    {
        type            turbulentIntensityKineticEnergyInlet;
        intensity       0.05;
        value           nonuniform List<scalar> 3(0.0079784699 0.0081642581 0.0093399419);
    }
    Outlet
    {
        type            inletOutlet;
        inletValue      uniform 0;
        value           nonuniform List<scalar> 
86
(
0
0
0
0
0
0
0
0
0
0
0
0
0
0
0
0
0
0
0
0
0
0
0
0
0
0
0
0
0
0
0.0029074154
0.0029913102
0.0023836667
0
0
0
0
6.8718304e-05
3.7163751e-05
0
0
0
0
0
0
8.0195538e-07
8.2073218e-07
8.4353532e-07
8.6869235e-07
9.0143971e-07
9.3193334e-07
9.6856823e-07
9.9855977e-07
1.0284078e-06
1.0572771e-06
1.0861098e-06
1.1231198e-06
1.1559289e-06
1.1894979e-06
1.2222509e-06
0
0
0
0
0
0
0
0
0
0
0
0
0
0
0
0
0
0
0
0
0
0
0
0
0.0023281662
0.0029938648
)
;
    }
    Front
    {
        type            wedge;
    }
    Back
    {
        type            wedge;
    }
    defaultFaces
    {
        type            empty;
    }
}


// ************************************************************************* //
