/*--------------------------------*- C++ -*----------------------------------*\
| =========                 |                                                 |
| \\      /  F ield         | OpenFOAM: The Open Source CFD Toolbox           |
|  \\    /   O peration     | Version:  4.0                                   |
|   \\  /    A nd           | Web:      www.OpenFOAM.org                      |
|    \\/     M anipulation  |                                                 |
\*---------------------------------------------------------------------------*/
FoamFile
{
    version     2.0;
    format      ascii;
    class       volScalarField;
    location    "0.17";
    object      omega;
}
// * * * * * * * * * * * * * * * * * * * * * * * * * * * * * * * * * * * * * //

dimensions      [0 0 -1 0 0 0 0];

internalField   nonuniform List<scalar> 
1740
(
65.071864
739.6167
14919.668
176.0295
1541.6189
15029.084
289.12021
1983.1649
15113.636
393.75762
2257.2908
15197.173
513.77768
2557.3678
15269.044
629.25838
2802.8865
15316.714
732.50581
2976.3129
15369.294
853.51567
3191.1783
15416.018
954.7894
3403.3343
15440.063
1046.4489
3503.0393
15468.676
1151.8907
3618.6221
15496.546
1262.6321
3727.2711
15509.753
1333.9303
3811.3387
15519.603
1408.2278
3826.0292
15532.545
1489.1318
3883.6627
15546.036
1551.5041
3993.357
15555.736
1614.2133
4082.5392
15556.529
1672.6794
4110.333
15556.776
1718.0886
4111.4612
15562.133
1750.8545
4118.2592
15558.874
1793.8351
4093.4045
15562.688
1828.8227
4100.415
15565.937
1845.9847
4110.7811
15564.475
1874.3078
4126.6163
15566.28
1907.2211
4158.0198
15566.198
1922.7755
4144.1889
15567.869
1954.9582
4126.5128
15564.027
1991.7933
4176.3461
15559.412
2011.8737
4177.0134
15553.658
2134.8712
4270.6738
15496.932
3201.7508
4550.5784
10688.472
3328.459
4222.6726
5901.966
1571.1543
1857.7885
2150.753
826.04584
900.95282
958.56179
481.09482
499.22612
508.95235
303.95087
307.66802
307.64343
205.50145
205.81781
204.32995
147.87126
147.55627
146.31231
113.43673
113.12691
112.32395
93.227907
93.026238
92.564271
82.090745
81.983638
81.746956
76.582196
76.539897
76.441814
74.250769
74.250878
74.234755
73.291661
73.292762
73.284684
72.542838
72.546588
72.544205
71.856759
71.86554
71.869666
71.219992
71.231138
71.238634
70.672649
70.682368
70.689177
70.240184
70.246936
70.25125
69.914711
69.918752
69.920642
69.67157
69.673681
69.673837
69.485439
69.486318
69.485394
69.336726
69.336858
69.335319
69.21204
69.211734
69.209877
69.102742
69.102188
69.100193
69.00339
69.002705
69.00068
68.91059
68.909844
68.907855
68.822234
68.82147
68.819554
68.737025
68.736272
68.734449
68.654194
68.653466
68.651749
68.573311
68.572617
68.571012
68.494176
68.493522
68.492029
68.416742
68.416131
68.414749
68.341049
68.340482
68.339208
68.267145
68.266621
68.265451
68.194929
68.194448
68.193377
68.1238
68.123361
68.122385
68.051844
68.051444
68.050557
67.974002
67.973639
67.972838
67.878224
67.877898
67.877177
67.737828
67.737537
67.736894
67.497399
67.497143
67.49658
67.048743
67.048528
67.048056
66.193545
66.193383
66.19303
64.592064
64.591985
64.591816
61.705557
61.705611
61.705734
56.758748
56.758995
56.759548
48.783169
48.783635
48.784686
36.841411
36.842004
36.843354
20.398359
20.398817
20.399871
13480.848
13535.627
5980.4257
5322.6729
2081.3416
1880.0236
922.30194
853.6232
491.85227
464.52704
299.15368
286.9776
199.91975
194.09696
143.94835
141.01498
111.04162
109.50812
91.879671
91.069771
81.402837
80.989903
76.291795
76.100018
74.19247
74.120984
73.25827
73.208047
72.526437
72.487765
71.858879
71.828616
71.232289
71.208727
70.684643
70.666411
70.247086
70.232884
69.916419
69.905105
69.669551
69.66024
69.481139
69.473217
69.331177
69.324248
69.205902
69.199716
69.096416
69.090819
68.997118
68.992009
68.904512
68.899825
68.81643
68.812119
68.731541
68.727571
68.649049
68.645393
68.568512
68.565147
68.489721
68.486628
68.412624
68.409786
68.337257
68.334657
68.263666
68.26129
68.191748
68.189583
68.120902
68.118934
68.049213
68.04743
67.971624
67.970015
67.876086
67.874643
67.735923
67.734641
67.495732
67.494614
67.047345
67.046415
66.192502
66.191817
64.591563
64.591247
61.705923
61.706201
56.760399
56.761589
48.786329
48.788674
36.845518
36.848719
20.401598
20.404241
12058.199
2044.0944
696.91025
368.44127
279.42075
254.19734
246.0834
241.9588
238.36418
234.50173
230.26261
225.67394
220.74992
215.44028
209.72547
203.5812
196.97234
189.8339
182.02809
173.25932
162.92443
149.8643
131.96702
105.40817
61.796079
12058.133
2037.7367
697.92573
374.39733
282.36525
253.17627
241.21515
233.44402
226.6758
220.0954
213.52942
206.96657
200.40096
193.79237
187.11056
180.33987
173.46279
166.43573
159.16047
151.42304
142.78844
132.40508
118.61633
98.027284
62.510971
12058.18
2030.2187
718.44579
430.59723
359.26196
332.19987
314.75271
300.10452
286.65106
273.80932
261.47567
249.66987
238.40786
227.5371
217.02002
206.85583
197.03796
187.53505
178.27794
169.11397
159.74184
149.5519
137.22518
119.56831
87.173926
12058.529
2031.4007
817.43239
608.93182
550.21859
513.12186
480.17674
449.69525
421.76658
395.51208
370.87297
347.89405
326.71046
306.90312
288.26326
270.78614
254.45521
239.22678
225.03494
211.77603
199.2829
187.2655
175.11825
161.19127
138.57391
12061.538
2150.6313
1232.3401
1078.5675
989.99374
907.3434
828.97592
757.5891
693.82385
634.95605
580.8152
531.33502
487.34888
447.42018
410.76316
377.40904
347.21985
320.00236
295.54957
273.63846
254.03351
236.50491
220.85816
207.18092
196.58897
12087.271
3816.3631
2805.9772
2402.6547
2095.0611
1826.7359
1591.7325
1388.6929
1212.911
1061.1659
930.45688
817.97903
721.24667
637.85824
565.82007
503.63288
450.00081
403.7828
363.98006
329.72306
300.25659
274.94887
253.32352
235.42826
222.53502
10354.806
7895.8343
6092.6697
4784.9876
3816.8119
3082.7455
2514.3761
2067.6876
1713.1263
1429.5184
1201.1208
1016.1205
865.59141
742.6234
641.72691
558.54094
489.62117
432.25574
384.30598
344.07519
310.20816
281.63674
257.56864
237.81926
223.68081
4083.6982
3302.1348
2840.4571
2466.2136
2147.829
1867.8907
1623.602
1412.276
1231.0145
1075.6313
942.36808
827.84679
729.1028
643.95385
570.55975
507.32748
452.87453
406.00576
365.68769
331.02538
301.24334
275.69373
253.88262
235.84267
222.83513
1593.6024
1399.3883
1269.547
1161.5787
1059.6227
962.5404
873.90954
795.11918
723.34876
658.35433
600.22096
548.88508
501.90456
459.04762
420.18282
385.09757
353.5404
325.24596
299.94408
277.36354
257.23814
239.31899
223.39758
209.54911
198.85085
771.23515
708.22295
662.18563
621.78984
581.61964
541.65878
504.24556
469.85507
438.003
408.66471
381.88039
357.40699
334.56491
313.22262
293.34569
274.89387
257.80784
242.00834
227.39587
213.84382
201.17654
189.11038
177.06777
163.47135
141.63459
435.10963
411.41279
392.82109
375.73604
358.15159
340.03247
322.34718
305.54754
289.69388
274.83445
260.97868
248.00944
235.71274
224.01308
212.91452
202.39903
192.42735
182.93802
173.83261
164.94637
155.98231
146.35408
134.77638
118.06719
86.78739
274.52055
264.10021
255.50989
247.44946
239.05249
230.24445
221.38895
212.74784
204.43442
196.5021
188.95792
181.7517
174.80243
168.06636
161.53355
155.192
149.00828
142.91627
136.79553
130.42969
123.42425
115.03672
103.80075
86.624859
56.151617
188.24468
183.1786
178.82566
174.67761
170.34478
165.75085
161.0264
156.31107
151.69005
147.2061
142.86807
138.65488
134.53105
130.47079
126.4583
122.47439
118.48126
114.40636
110.11646
105.37488
99.771197
92.599821
82.62241
67.475317
41.384706
138.07424
135.44401
133.09762
130.82434
128.44453
125.90522
123.25169
120.55235
117.86021
115.20575
112.59878
110.03204
107.48952
104.9556
102.41593
99.850225
97.219894
94.450374
91.404574
87.84613
83.397071
77.509831
69.517558
59.000679
47.441204
107.95801
106.52199
105.19144
103.87805
102.49934
101.02406
99.468017
97.864905
96.246266
94.63328
93.035929
91.454404
89.882808
88.312754
86.732996
85.123608
83.444174
81.614948
79.489488
76.82158
73.240815
68.27767
61.538465
53.272689
45.817309
90.234027
89.427003
88.64691
87.8585
87.026814
86.137585
85.198207
84.227263
83.244399
82.265302
81.299717
80.351529
79.419576
78.498686
77.578086
76.635167
75.622921
74.449123
72.945927
70.832765
67.685899
62.949759
56.069453
46.90647
35.384295
80.546433
80.09339
79.630899
79.146755
78.629114
78.074624
77.489579
76.886319
76.278846
75.679761
75.09859
74.540976
74.006947
73.491025
72.980032
72.446255
71.833849
71.035753
69.858923
67.978443
64.887299
59.860116
51.954161
40.0095
22.123577
75.876385
75.625064
75.345646
75.035366
74.692726
74.319921
73.923303
73.512462
73.098686
72.693344
72.306389
71.946448
71.61382
71.301948
70.995662
70.663011
70.240803
69.610048
68.557888
66.725212
63.543336
58.180228
49.519814
36.227964
17.027913
74.016887
73.875309
73.695229
73.477505
73.224359
72.93952
72.628502
72.299022
71.96122
71.626659
71.305543
71.013569
70.750245
70.504954
70.262474
69.995724
69.637548
69.062256
68.045471
66.205608
62.944079
57.411321
48.493613
35.03052
16.496669
73.129683
73.019512
72.875761
72.698065
72.487197
72.245044
71.975002
71.682968
71.378512
71.074691
70.785349
70.521744
70.294381
70.092742
69.8984
69.675409
69.355085
68.809992
67.813067
65.981767
62.715281
57.167595
48.311053
35.179849
17.56115
72.423612
72.329834
72.204126
72.045811
71.855734
71.636598
71.393702
71.135617
70.873858
70.620929
70.387216
70.177783
70.000156
69.842823
69.686233
69.494413
69.199327
68.67437
67.693978
65.879829
62.643626
57.157561
48.45606
35.685309
18.776634
71.774635
71.692379
71.580055
71.43812
71.269191
71.078194
70.87241
70.660995
70.453718
70.259195
70.083247
69.927933
69.791651
69.668998
69.540549
69.371153
69.093997
68.584125
67.618637
65.824371
62.623321
57.205222
48.625034
36.056646
19.511292
71.164476
71.09533
71.000603
70.882139
70.743856
70.591382
70.431535
70.27151
70.117889
69.975694
69.847745
69.734286
69.632536
69.53488
69.426719
69.273445
69.009346
68.510982
67.55776
65.780368
62.607079
57.235753
48.718269
36.192783
19.612405
70.631944
70.578011
70.504666
70.41414
70.310175
70.197478
70.081138
69.966016
69.856177
69.754466
69.662226
69.579019
69.5019
69.423381
69.329905
69.188268
68.933721
68.443947
67.49993
65.734695
62.579837
57.236898
48.752736
36.239746
19.643067
70.206949
70.167082
70.113563
70.048241
69.97394
69.893993
69.811808
69.730491
69.652538
69.579631
69.512457
69.450393
69.390705
69.326607
69.243283
69.110009
68.862447
68.378984
67.441605
65.684749
62.542015
57.218048
48.760557
36.278478
19.663058
69.885631
69.856596
69.818261
69.771919
69.719467
69.663087
69.604964
69.547061
69.490955
69.437697
69.387652
69.340146
69.292593
69.238476
69.163008
69.035908
68.793517
68.31475
67.382297
65.631642
62.498115
57.18997
48.759317
36.321462
19.815794
69.645257
69.623733
69.595865
69.562493
69.524837
69.484286
69.442232
69.399938
69.358425
69.31838
69.279977
69.242508
69.203469
69.156518
69.08717
68.964471
68.725959
68.250814
67.322284
65.576796
62.451453
57.158609
48.756581
36.366044
19.889014
69.461249
69.444707
69.423732
69.398869
69.370899
69.340713
69.309214
69.277233
69.245456
69.214334
69.183917
69.153453
69.120466
69.078689
69.013731
68.894621
68.659181
68.186979
67.261811
65.520999
62.403298
57.124814
48.75116
36.423539
20.066533
69.314316
69.301066
69.284608
69.265304
69.243668
69.220291
69.195774
69.170685
69.145496
69.120506
69.095668
69.07019
69.041595
69.003643
68.941999
68.825765
68.5928
68.123083
67.200938
65.464545
62.354037
57.087748
48.732146
36.426339
20.084931
69.191204
69.180184
69.166748
69.151149
69.133742
69.114933
69.095142
69.074769
69.05415
69.03348
69.012641
68.990803
68.965474
68.930428
68.871375
68.757553
68.526536
68.05895
67.139567
65.407358
62.303558
57.047688
48.705435
36.414356
20.082334
69.083345
69.073898
69.062559
69.049517
69.035028
69.019387
69.0029
68.98586
68.968512
68.950979
68.933093
68.913986
68.891151
68.858361
68.801348
68.689398
68.460128
67.99441
67.077541
65.349281
62.251909
57.005884
48.67566
36.39386
20.046817
68.985336
68.977053
68.967237
68.956035
68.943645
68.930288
68.916199
68.901601
68.886678
68.871501
68.855863
68.838868
68.817991
68.786997
68.73163
68.621217
68.393499
67.929355
67.014741
65.290173
62.199049
56.962865
48.644692
36.370042
19.99947
68.8938
68.886423
68.877765
68.86795
68.857135
68.845495
68.833217
68.820478
68.807418
68.794072
68.780202
68.764888
68.745589
68.71606
68.662046
68.552902
68.326446
67.863718
66.951104
65.229918
62.144745
56.918303
48.613385
36.357719
20.088959
68.806639
68.799997
68.792262
68.783539
68.773957
68.763662
68.752806
68.741535
68.729958
68.718082
68.705645
68.691709
68.673714
68.645405
68.592524
68.484443
68.259043
67.797529
66.88663
65.168401
62.088561
56.871026
48.578265
36.338345
20.092288
68.722565
68.716544
68.709572
68.701742
68.693164
68.683961
68.674264
68.664193
68.653835
68.643176
68.631935
68.619156
68.602264
68.574992
68.523072
68.415887
68.19137
67.730883
66.821359
65.105552
62.030122
56.820105
48.538529
36.316994
20.101129
68.64081
68.635328
68.629009
68.621934
68.614201
68.605916
68.597192
68.588132
68.578805
68.569181
68.558962
68.547178
68.531238
68.504859
68.453763
68.34733
68.123528
67.663824
66.755386
65.041458
61.969469
56.765353
48.492413
36.28377
20.09098
68.560947
68.555946
68.550199
68.54378
68.536778
68.529285
68.521401
68.513214
68.50478
68.496056
68.486729
68.475816
68.460711
68.435113
68.384726
68.27892
68.055675
67.59654
66.688885
64.97633
61.906943
56.707499
48.442155
36.249059
20.09381
68.482781
68.478212
68.472977
68.467141
68.460784
68.45399
68.446845
68.439429
68.431784
68.423857
68.415323
68.405184
68.390821
68.365913
68.316138
68.210846
67.988014
67.529245
66.622094
64.910498
61.84322
56.648283
48.392699
36.221888
20.105028
68.406263
68.402091
68.39732
68.39201
68.386232
68.380064
68.373582
68.366855
68.359918
68.352707
68.344886
68.335445
68.321749
68.297454
68.248211
68.143333
67.92078
67.462187
66.55527
64.844346
61.778898
56.588166
48.340982
36.184551
20.084577
68.331438
68.327631
68.323284
68.318453
68.313202
68.307601
68.30172
68.295619
68.289324
68.282762
68.27559
68.266783
68.253691
68.229947
68.181166
68.076621
67.854232
67.395655
66.488771
64.778364
61.714846
56.529019
48.291839
36.152413
20.07189
68.258352
68.254884
68.250928
68.246537
68.241769
68.236687
68.231355
68.225825
68.220118
68.214151
68.207572
68.199346
68.186805
68.163559
68.115185
68.010905
67.788592
67.329905
66.422901
64.7129
61.651421
56.470998
48.2444
36.121709
20.060107
68.186908
68.183754
68.180161
68.176176
68.171852
68.167248
68.16242
68.157416
68.152249
68.146829
68.140795
68.133103
68.121069
68.098276
68.050263
67.946197
67.723894
67.265005
66.357751
64.648002
61.588401
56.413068
48.195669
36.084714
20.030466
68.116506
68.113645
68.110388
68.106779
68.102866
68.098703
68.094341
68.089823
68.085154
68.080238
68.074708
68.067509
68.055941
68.033562
67.985873
67.881983
67.659644
67.200487
66.292874
64.583172
61.524987
56.353449
48.140743
36.023583
19.902531
68.045231
68.042643
68.0397
68.03644
68.03291
68.029156
68.025226
68.021157
68.01695
68.012501
68.007438
68.000693
67.989554
67.967556
67.920159
67.816415
67.59401
67.134543
66.226491
64.516661
61.459525
56.29098
48.08168
35.961791
19.829878
67.968032
67.965701
67.963051
67.96012
67.956947
67.953577
67.950051
67.946402
67.942624
67.938611
67.93398
67.927658
67.916915
67.895265
67.848131
67.744508
67.522019
67.062229
66.153719
64.44373
61.387652
56.222511
48.01892
35.90421
19.776539
67.872866
67.870779
67.86841
67.865792
67.862963
67.85996
67.856821
67.853572
67.850204
67.846603
67.84238
67.83645
67.826074
67.804742
67.757843
67.654321
67.431742
66.97165
66.062756
64.352787
61.298223
56.137769
47.943791
35.846025
19.745873
67.733065
67.731219
67.72913
67.726828
67.724345
67.721713
67.718965
67.716121
67.713162
67.709968
67.706142
67.70059
67.690557
67.669515
67.622821
67.51938
67.296719
66.836403
65.927349
64.217945
61.16618
56.013566
47.837337
35.776595
19.737034
67.493248
67.491657
67.48987
67.487914
67.485815
67.483601
67.481292
67.478898
67.476393
67.473641
67.470235
67.465068
67.455371
67.434598
67.388083
67.284709
67.062006
66.601648
65.692949
63.985329
60.939001
55.799584
47.651378
35.646747
19.70152
67.045289
67.043999
67.042576
67.04105
67.03944
67.037761
67.036021
67.034212
67.032286
67.030089
67.027191
67.022468
67.013135
66.992632
66.946287
66.843
66.620396
66.160454
65.253296
63.550195
60.515101
55.400248
47.299988
35.379079
19.478947
66.191008
66.190119
66.189195
66.188268
66.187353
66.186449
66.185541
66.184588
66.183506
66.1821
66.179907
66.175777
66.166907
66.146738
66.100626
65.997576
65.775504
65.317125
64.414236
62.721651
59.710157
54.64385
46.634752
34.86729
19.187442
64.590913
64.590625
64.590448
64.590414
64.590536
64.590798
64.591151
64.591501
64.591695
64.591473
64.590322
64.587061
64.578879
64.559249
64.513637
64.41133
64.190964
63.736875
62.844294
61.174839
58.211882
53.240816
45.404681
33.918309
18.615391
61.706632
61.707312
61.708308
61.70961
61.711231
61.713161
61.715317
61.717526
61.719523
61.720963
61.721277
61.719278
61.712184
61.693584
61.649203
61.548962
61.333055
60.889214
60.019486
58.398294
55.531627
50.742108
43.226413
32.260671
17.706209
56.763231
56.765467
56.768285
56.771486
56.775062
56.779083
56.783448
56.787922
56.792072
56.795559
56.797649
56.797287
56.791858
56.775237
56.733689
56.638373
56.432591
56.010758
55.187873
53.661577
50.976805
46.517761
39.568919
29.511727
16.279423
48.791957
48.796385
48.801704
48.807221
48.812884
48.819226
48.825686
48.832721
48.839045
48.84534
48.849266
48.850631
48.847443
48.834228
48.798295
48.713115
48.527752
48.148811
47.414408
46.062014
43.69939
39.805532
33.794359
25.178921
13.92432
36.853372
36.859762
36.867274
36.874557
36.882082
36.89561
36.904577
36.919917
36.930102
36.94485
36.951515
36.954271
36.953454
36.944996
36.918292
36.851221
36.702866
36.400162
35.818824
34.759117
32.922474
29.921848
25.351041
18.893861
10.55588
20.408223
20.413806
20.420326
20.42672
20.438998
20.505362
20.525236
20.583039
20.604782
20.641152
20.653128
20.656509
20.657131
20.653524
20.639174
20.60033
20.51253
20.33346
19.993004
19.379359
18.322227
16.60738
14.045815
10.503043
6.0740654
)
;

boundaryField
{
    Walls
    {
        Cmu             0.09;
        kappa           0.41;
        E               9.8;
        beta1           0.075;
        type            omegaWallFunction;
        value           nonuniform List<scalar> 
38
(
12058.199
12058.133
12058.18
12058.529
12061.538
12087.271
13480.848
13535.627
14919.668
15029.084
15113.636
15197.173
15269.044
15316.714
15369.294
15416.018
15440.063
15468.676
15496.546
15509.753
15519.603
15532.545
15546.036
15555.736
15556.529
15556.776
15562.133
15558.874
15562.688
15565.937
15564.475
15566.28
15566.198
15567.869
15564.027
15559.412
15553.658
15496.932
)
;
    }
    Inlet
    {
        type            turbulentMixingLengthDissipationRateInlet;
        mixingLength    0.03;
        phi             phi;
        k               k;
        value           nonuniform List<scalar> 3(0.0039894949 0.0041280974 0.0050875752);
    }
    Outlet
    {
        type            inletOutlet;
        inletValue      uniform 1e-05;
        value           nonuniform List<scalar> 
86
(
1e-05
1e-05
1e-05
1e-05
1e-05
1e-05
1e-05
1e-05
1e-05
1e-05
1e-05
1e-05
1e-05
1e-05
1e-05
1e-05
1e-05
1e-05
1e-05
1e-05
1e-05
1e-05
1e-05
1e-05
1e-05
1e-05
1e-05
1e-05
1e-05
1e-05
223.68081
222.83513
198.85085
1e-05
1e-05
1e-05
1e-05
47.441204
45.817309
1e-05
1e-05
1e-05
1e-05
1e-05
1e-05
19.511292
19.612405
19.643067
19.663058
19.815794
19.889014
20.066533
20.084931
20.082334
20.046817
19.99947
20.088959
20.092288
20.101129
20.09098
1e-05
1e-05
1e-05
1e-05
1e-05
1e-05
1e-05
1e-05
1e-05
1e-05
1e-05
1e-05
1e-05
1e-05
1e-05
1e-05
1e-05
1e-05
1e-05
1e-05
1e-05
1e-05
1e-05
1e-05
196.58897
222.53502
)
;
    }
    Front
    {
        type            wedge;
    }
    Back
    {
        type            wedge;
    }
    defaultFaces
    {
        type            empty;
    }
}


// ************************************************************************* //
