/*--------------------------------*- C++ -*----------------------------------*\
| =========                 |                                                 |
| \\      /  F ield         | OpenFOAM: The Open Source CFD Toolbox           |
|  \\    /   O peration     | Version:  4.0                                   |
|   \\  /    A nd           | Web:      www.OpenFOAM.org                      |
|    \\/     M anipulation  |                                                 |
\*---------------------------------------------------------------------------*/
FoamFile
{
    version     2.0;
    format      ascii;
    class       volScalarField;
    location    "0.17";
    object      p;
}
// * * * * * * * * * * * * * * * * * * * * * * * * * * * * * * * * * * * * * //

dimensions      [0 2 -2 0 0 0 0];

internalField   nonuniform List<scalar> 
1740
(
491.65966
491.68587
491.76496
475.26763
475.30333
475.37208
458.82599
458.90857
458.99271
442.00084
442.14771
442.30353
425.15171
425.34706
425.40529
408.80678
408.81837
408.88241
392.56636
392.34874
392.42405
376.22171
375.96503
375.70873
359.59697
359.3984
359.09607
342.59375
342.42512
342.5196
325.66067
325.6355
325.86457
309.14252
309.16577
309.1745
292.62551
292.71211
292.68924
275.91889
276.27641
276.22995
259.32954
259.64459
259.56159
242.79955
242.73254
242.68214
226.09605
225.80327
225.7888
209.15055
209.0822
209.14353
192.25539
192.37424
192.33917
175.97595
175.97031
175.79608
160.12022
159.9502
159.84829
143.67481
143.42967
143.30508
126.92444
126.86053
126.75283
110.49622
110.77659
110.85106
94.116723
94.425077
94.630756
78.131699
78.025345
77.995865
62.16679
61.911114
61.807173
45.982237
46.029022
46.345381
30.436787
30.63303
30.740775
16.060616
15.841953
15.284273
4.0550621
3.3199216
1.3692093
-0.67765281
-0.67134521
-0.52335854
-0.20800671
-0.21336277
-0.19987942
-0.071610108
-0.076114244
-0.079039603
-0.05371597
-0.054164141
-0.05301353
-0.045637071
-0.045281151
-0.043243825
-0.039199392
-0.03872204
-0.037059264
-0.034199488
-0.0337397
-0.032501643
-0.029810594
-0.029416426
-0.028438202
-0.025650164
-0.02534712
-0.024639859
-0.022185383
-0.02197338
-0.021458706
-0.019588223
-0.019406132
-0.018989817
-0.017562794
-0.01740879
-0.017063558
-0.015942831
-0.015813083
-0.015524065
-0.014613009
-0.014502998
-0.014260548
-0.013492145
-0.013398681
-0.013193601
-0.012528548
-0.012448644
-0.012273765
-0.011689571
-0.011620894
-0.011470809
-0.01095124
-0.010891941
-0.010762423
-0.010293609
-0.010242121
-0.010129642
-0.0096996216
-0.0096546051
-0.009556204
-0.0091550305
-0.0091153586
-0.0090285796
-0.0086484036
-0.0086131493
-0.0085359767
-0.0081709423
-0.0081393697
-0.0080702046
-0.007716086
-0.0076876277
-0.007625242
-0.0072790916
-0.0072532962
-0.0071967389
-0.0068566465
-0.0068331537
-0.0067816297
-0.0064465128
-0.0064250282
-0.0063778871
-0.0060473185
-0.0060276041
-0.0059843288
-0.0056583534
-0.0056402224
-0.0056004129
-0.0052794016
-0.0052627064
-0.0052260423
-0.0049105806
-0.0048952025
-0.0048614252
-0.0045522118
-0.0045380547
-0.0045069542
-0.0042047157
-0.0041917016
-0.0041631084
-0.0038685203
-0.0038565826
-0.0038303528
-0.0035439967
-0.003533076
-0.0035090788
-0.0032314254
-0.0032214698
-0.0031995917
-0.0029309567
-0.0029219216
-0.0029020648
-0.0026425824
-0.0026344274
-0.0026165036
-0.0023661242
-0.0023588118
-0.0023427392
-0.0021012281
-0.002094724
-0.0020804272
-0.0018473677
-0.0018416402
-0.001829049
-0.0016038549
-0.0015988746
-0.0015879245
-0.001369856
-0.0013655959
-0.0013562284
-0.0011444074
-0.0011408437
-0.0011330068
-0.00092642855
-0.00092353995
-0.00091718819
-0.00071470863
-0.0007124777
-0.00070757285
-0.00050787451
-0.00050628792
-0.00050279989
-0.00030428435
-0.00030333385
-0.00030124296
-0.00010174077
-0.00010142387
-0.00010072457
-1.432474
-0.99848007
-0.41196246
-0.31553123
-0.17347314
-0.15166765
-0.073146329
-0.066187241
-0.047481289
-0.040639533
-0.039004714
-0.033505731
-0.034115932
-0.030164253
-0.030392639
-0.027582003
-0.026892325
-0.024847785
-0.023532746
-0.022050472
-0.020634102
-0.019527736
-0.018339702
-0.017472989
-0.016534632
-0.015832085
-0.015086777
-0.014509881
-0.013895215
-0.013415237
-0.012885419
-0.01248123
-0.012011577
-0.011668376
-0.011246159
-0.010952411
-0.01056863
-0.010315101
-0.0099612258
-0.0097405439
-0.0094086891
-0.0092150242
-0.0088983139
-0.0087269665
-0.0084199773
-0.0082671151
-0.0079661339
-0.007828792
-0.0075313114
-0.0074072359
-0.0071115232
-0.0069988368
-0.0067039345
-0.0066010707
-0.0063067482
-0.0062124696
-0.0059189912
-0.0058323382
-0.0055402822
-0.0054604905
-0.0051706445
-0.0050970981
-0.004810376
-0.0047425768
-0.0044599395
-0.0043974784
-0.0041198757
-0.0040624233
-0.0037906887
-0.0037379694
-0.0034727871
-0.0034245418
-0.003166501
-0.0031225058
-0.00287203
-0.0028320962
-0.002589392
-0.0025533444
-0.0023184282
-0.0022861039
-0.0020588022
-0.0020300493
-0.0018100039
-0.0017846818
-0.0015713621
-0.0015493414
-0.0013420602
-0.001323223
-0.0011211536
-0.0011053947
-0.00090758116
-0.00089480897
-0.00070015406
-0.00069029112
-0.00049752385
-0.00049050952
-0.0002980801
-0.0002938751
-9.9666298e-05
-9.825919e-05
-0.017425038
-0.016756571
-0.015616903
-0.014187781
-0.012649567
-0.011144005
-0.0097786757
-0.0086187797
-0.0076825403
-0.0069354017
-0.0063183172
-0.0057855686
-0.0052961839
-0.0048654812
-0.0044665919
-0.0040757775
-0.0036784328
-0.0032654078
-0.0028405915
-0.0024119108
-0.0019799203
-0.0015402291
-0.0010967694
-0.0006540286
-0.00021418881
-0.018463291
-0.01771052
-0.016420629
-0.014891161
-0.013327272
-0.011895195
-0.010647412
-0.009601452
-0.008741294
-0.008027968
-0.0074237421
-0.0068883096
-0.0063999329
-0.005918383
-0.0054366224
-0.0049493435
-0.0044528501
-0.0039464414
-0.0034290336
-0.0028997362
-0.0023628759
-0.0018267073
-0.0012954471
-0.00076944675
-0.00024585698
-0.02445902
-0.02353769
-0.022136723
-0.020634428
-0.019370374
-0.018404929
-0.017685063
-0.017071445
-0.016392969
-0.015639967
-0.014821901
-0.013949911
-0.013034498
-0.012076367
-0.011080168
-0.010050982
-0.0089939843
-0.007916856
-0.0068252691
-0.0057241069
-0.0046225105
-0.0035325073
-0.002466145
-0.0014287042
-0.00043058482
-0.043940436
-0.042732028
-0.041525107
-0.040801168
-0.040191656
-0.039379768
-0.038193203
-0.036636078
-0.034836114
-0.032850862
-0.030724921
-0.028526692
-0.026295243
-0.024035504
-0.021755152
-0.019472875
-0.01720571
-0.014965976
-0.012761981
-0.010603776
-0.0085005303
-0.0064610266
-0.0044969472
-0.0026083532
-0.00080915953
-0.10126138
-0.099313318
-0.096676359
-0.091838157
-0.086430082
-0.080300021
-0.073948924
-0.067648532
-0.061485881
-0.055544364
-0.049940582
-0.044739489
-0.03987119
-0.035128578
-0.030699516
-0.026615299
-0.022862169
-0.019415813
-0.016245166
-0.013313836
-0.010586864
-0.0080313473
-0.0056141522
-0.0033125914
-0.0011145495
-0.27517243
-0.22801853
-0.20382559
-0.16844329
-0.13924738
-0.11370473
-0.091949412
-0.07397795
-0.059313804
-0.047389402
-0.037696238
-0.029830167
-0.023513501
-0.018552808
-0.014553454
-0.011359303
-0.00881279
-0.0067865483
-0.0051784631
-0.00390456
-0.0028940578
-0.0020854389
-0.0014264027
-0.00086867879
-0.00041511814
-0.39742656
-0.18298115
-0.12359165
-0.079511181
-0.040695506
-0.010090684
0.0099919629
0.02089113
0.026002118
0.028022676
0.028248247
0.02732508
0.025674581
0.023600304
0.021309661
0.018943331
0.016589354
0.014299401
0.012100076
0.0099991959
0.0079926002
0.0060706501
0.0042139728
0.0024178407
0.00059235954
-0.25510717
-0.21929227
-0.18678682
-0.15608527
-0.12807929
-0.1037776
-0.083304877
-0.06656041
-0.053029431
-0.042077608
-0.033290555
-0.026250599
-0.0206581
-0.016167907
-0.012573492
-0.0097102232
-0.0074402011
-0.0056480263
-0.0042403692
-0.0031419184
-0.0022892839
-0.0016269392
-0.0011085387
-0.00068582524
-0.00036296983
-0.13564697
-0.12374819
-0.11395319
-0.10501059
-0.096321999
-0.087739496
-0.079640023
-0.072009795
-0.064825765
-0.058218762
-0.052082767
-0.04628236
-0.040834544
-0.035829387
-0.031251444
-0.027063169
-0.023225096
-0.019686086
-0.016429669
-0.013427323
-0.010647642
-0.0080590983
-0.0056316617
-0.0033309371
-0.0011298879
-0.060745803
-0.056826891
-0.054150415
-0.0521795
-0.050401579
-0.048458695
-0.04626564
-0.043812116
-0.041177198
-0.038445146
-0.035663453
-0.032863579
-0.030054932
-0.027255744
-0.024487905
-0.021771917
-0.019123698
-0.016567406
-0.014090125
-0.011689142
-0.0093647283
-0.0071179105
-0.0049506781
-0.0028665861
-0.00088891223
-0.033767078
-0.028636376
-0.025354967
-0.023752659
-0.023086922
-0.022705239
-0.022220799
-0.021572067
-0.020781081
-0.019856185
-0.018806308
-0.017651492
-0.016412244
-0.015107319
-0.013759508
-0.012384331
-0.01099446
-0.0096032865
-0.0082212997
-0.0068553347
-0.0055121114
-0.0041984103
-0.0029208429
-0.0016845187
-0.00050527818
-0.027793354
-0.022766059
-0.018790161
-0.015655874
-0.013497595
-0.012110012
-0.01123776
-0.010621951
-0.010181088
-0.0097885315
-0.0093521751
-0.0088527247
-0.0082990614
-0.007701579
-0.0070642762
-0.0063968204
-0.0057084942
-0.0050084346
-0.0043057343
-0.0036067951
-0.0029166641
-0.0022390912
-0.0015764887
-0.00092785876
-0.00029019148
-0.02583956
-0.021678858
-0.018120094
-0.015181495
-0.012762232
-0.010912944
-0.0095315449
-0.008518345
-0.0077373787
-0.0070933846
-0.0065592782
-0.0060834883
-0.0056305115
-0.0051791037
-0.0047216646
-0.0042578821
-0.0037895321
-0.0033203308
-0.0028533467
-0.0023914654
-0.0019373037
-0.0014920446
-0.0010562192
-0.00062900769
-0.00020623487
-0.024355816
-0.021077184
-0.018025195
-0.015309467
-0.012979252
-0.011059401
-0.0095561452
-0.0084031328
-0.0074567193
-0.0066804511
-0.0060413835
-0.0055162516
-0.0050426879
-0.0045957553
-0.0041641427
-0.0037417316
-0.0033257157
-0.0029138279
-0.0025062453
-0.0021035969
-0.0017059281
-0.0013142936
-0.0009297031
-0.00055281079
-0.00018296131
-0.022446565
-0.019896216
-0.017391848
-0.01506185
-0.012962919
-0.011133392
-0.0095962128
-0.0083357011
-0.0072902038
-0.0064302463
-0.005720364
-0.005098903
-0.0045610997
-0.0040885501
-0.0036604298
-0.0032630329
-0.0028850902
-0.0025195653
-0.0021628249
-0.0018129431
-0.001468991
-0.0011309823
-0.00079941287
-0.00047485094
-0.00015776884
-0.02026566
-0.018315464
-0.016315656
-0.014377486
-0.012557646
-0.010899259
-0.0094384488
-0.0081755423
-0.0070930511
-0.0061701016
-0.0053835348
-0.0047304053
-0.0041681771
-0.003674742
-0.0032369779
-0.002846437
-0.0024877394
-0.002151651
-0.0018330655
-0.0015277957
-0.0012328069
-0.00094630932
-0.00066747701
-0.00039562289
-0.00013088028
-0.018180909
-0.016670186
-0.015087132
-0.01349434
-0.011949367
-0.010496924
-0.009167368
-0.0079724056
-0.0069130474
-0.00598504
-0.0051775611
-0.004475951
-0.0038794841
-0.0033713512
-0.0029332474
-0.0025480123
-0.0021989895
-0.0018779195
-0.0015827718
-0.0013076421
-0.0010479138
-0.00080037426
-0.00056286449
-0.00033374019
-0.00011104991
-0.016419458
-0.015226129
-0.013952695
-0.0126435
-0.011341015
-0.010083337
-0.0088979008
-0.0078012606
-0.0068026047
-0.0059050078
-0.0051078209
-0.0044060435
-0.0037954227
-0.0032665856
-0.0028046151
-0.0023978607
-0.0020419597
-0.0017276248
-0.0014428669
-0.0011820467
-0.00094060714
-0.00071477382
-0.00050147053
-0.00029785246
-9.9965893e-05
-0.014984706
-0.014020584
-0.012977563
-0.011890383
-0.010790481
-0.0097065135
-0.0086614921
-0.0076723382
-0.0067511894
-0.005905114
-0.0051362139
-0.0044457151
-0.0038328992
-0.0032925233
-0.0028167234
-0.0023974994
-0.0020284608
-0.0017021601
-0.0014105742
-0.0011473332
-0.00090724389
-0.00068584552
-0.00047911679
-0.00028288158
-9.4344917e-05
-0.013814037
-0.013019016
-0.012151498
-0.011238749
-0.010304385
-0.0093692022
-0.008451789
-0.0075671835
-0.0067272277
-0.0059402441
-0.0052115689
-0.0045448151
-0.0039409991
-0.0033981797
-0.0029132561
-0.002481445
-0.0020977147
-0.0017564307
-0.0014512439
-0.0011766396
-0.00092766888
-0.00069989621
-0.00048904809
-0.0002878901
-9.4105472e-05
-0.012834112
-0.012169821
-0.011440256
-0.010666076
-0.0098661152
-0.0090560244
-0.0082505119
-0.0074621577
-0.0067016751
-0.0059769182
-0.0052944506
-0.0046587795
-0.0040724985
-0.0035362634
-0.0030493522
-0.002609562
-0.0022136895
-0.0018576381
-0.0015368603
-0.0012468342
-0.00098326819
-0.00074239868
-0.00052249625
-0.0003059266
-9.4017149e-05
-0.011991699
-0.011430356
-0.010811355
-0.010149574
-0.0094597549
-0.0087548579
-0.008046209
-0.0073442488
-0.0066578546
-0.0059948056
-0.0053608633
-0.0047609932
-0.004198681
-0.0036759856
-0.0031937033
-0.0027513683
-0.0023473935
-0.0019792688
-0.0016438247
-0.0013375698
-0.0010568706
-0.00079789056
-0.00055719997
-0.00032657375
-0.00010456605
-0.011252684
-0.010774352
-0.010244645
-0.0096749127
-0.0090765217
-0.0084600581
-0.0078347482
-0.0072089696
-0.0065902716
-0.0059852798
-0.0053994267
-0.0048373819
-0.0043028728
-0.0037986111
-0.0033262827
-0.0028865257
-0.0024789747
-0.0021023863
-0.0017547678
-0.0014336079
-0.0011360293
-0.00085886653
-0.00059876646
-0.00035108149
-0.00011355073
-0.01059635
-0.010185374
-0.0097282266
-0.0092340476
-0.0087116857
-0.0081695919
-0.0076154179
-0.0070560611
-0.0064977894
-0.0059460991
-0.0054059334
-0.0048815153
-0.0043764289
-0.0038935455
-0.0034349797
-0.0030020173
-0.002595111
-0.0022139475
-0.0018574913
-0.0015241352
-0.0012118215
-0.00091817778
-0.00064040632
-0.00037551771
-0.00012152514
-0.010007215
-0.0096510004
-0.0092531745
-0.0088210348
-0.0083617165
-0.0078820456
-0.0073883315
-0.0068863243
-0.0063811644
-0.0058775185
-0.0053795799
-0.0048911498
-0.0044154784
-0.0039553512
-0.0035129827
-0.0030899828
-0.0026873094
-0.0023053051
-0.0019436556
-0.0016015323
-0.0012776461
-0.00097035687
-0.00067782983
-0.00039791019
-0.00012918593
-0.009471905
-0.009160335
-0.0088111451
-0.0084301341
-0.0080231641
-0.0075958462
-0.0071534079
-0.0067006036
-0.0062417643
-0.0057807982
-0.0053212514
-0.0048663852
-0.0044191163
-0.0039820042
-0.0035572053
-0.0031464382
-0.0027509492
-0.0023714403
-0.0020081848
-0.0016609659
-0.0013291705
-0.0010118921
-0.00070814476
-0.00041649479
-0.00013583494
-0.0089786683
-0.0087036721
-0.0083945053
-0.0080558697
-0.0076925754
-0.0073092828
-0.0069103421
-0.0064997373
-0.0060811134
-0.0056577761
-0.0052327374
-0.0048087441
-0.0043883597
-0.0039738596
-0.0035672796
-0.0031703086
-0.0027843094
-0.0024102561
-0.0020487824
-0.0017001554
-0.001364332
-0.0010410409
-0.00072987789
-0.0004298553
-0.00014031467
-0.0085173118
-0.0082726073
-0.0079967107
-0.0076934734
-0.0073668734
-0.0070207992
-0.0066589144
-0.0062845883
-0.0059008987
-0.0055106773
-0.0051164863
-0.0047206848
-0.0043254697
-0.0039328598
-0.0035446833
-0.0031625671
-0.0027879042
-0.002421822
-0.0020651925
-0.0017186371
-0.0013825412
-0.0010570929
-0.00074231107
-0.00043755716
-0.00014270584
-0.0080796861
-0.0078604748
-0.0076125521
-0.007339178
-0.007043669
-0.0067292982
-0.0063991784
-0.0060561984
-0.0057030045
-0.0053419981
-0.0049754192
-0.0046053058
-0.0042335523
-0.0038619362
-0.0034920941
-0.003125554
-0.0027636761
-0.0024076617
-0.002058536
-0.0017171506
-0.0013841852
-0.0010601471
-0.00074539115
-0.0004396363
-0.00014321335
-0.0076601343
-0.0074624762
-0.007238278
-0.0069903136
-0.0067213845
-0.0064342503
-0.0061315885
-0.0058159024
-0.0054894878
-0.0051544546
-0.0048127106
-0.0044660761
-0.0041162057
-0.0037646663
-0.0034129401
-0.0030624336
-0.0027144562
-0.0023702235
-0.0020308404
-0.00169729
-0.0013704364
-0.0010510179
-0.00073966315
-0.00043645808
-0.00014204652
-0.0072546144
-0.0070753053
-0.0068713746
-0.0066452013
-0.0063991808
-0.006135672
-0.0058569788
-0.0055652923
-0.0052626343
-0.0049508493
-0.0046316563
-0.0043066186
-0.0039772448
-0.0036449332
-0.0033110312
-0.0029768353
-0.0026435942
-0.0023125003
-0.0019846845
-0.0016612014
-0.0013430231
-0.0010310346
-0.00072606501
-0.00042855416
-0.00013935572
-0.0068599879
-0.0066965114
-0.0065101561
-0.0063028821
-0.0060768021
-0.0058340115
-0.0055764941
-0.0053061665
-0.0050248146
-0.0047340914
-0.0044355308
-0.0041305551
-0.0038205019
-0.0035066662
-0.0031902782
-0.0028725464
-0.002554648
-0.0022377383
-0.0019229414
-0.0016113424
-0.0013039761
-0.0010018136
-0.00070583225
-0.00041659152
-0.00013508989
-0.0064741414
-0.006324458
-0.0061535201
-0.0059629407
-0.0057545274
-0.0055301338
-0.0052915579
-0.005040472
-0.0047784648
-0.0045070324
-0.004227567
-0.0039413727
-0.0036496827
-0.0033536759
-0.0030545038
-0.0027532995
-0.0024511704
-0.0021492276
-0.0018485681
-0.0015502783
-0.0012554233
-0.00096504088
-0.00068018213
-0.00040152769
-0.00013020694
-0.0060960031
-0.0059584737
-0.0058011836
-0.005625544
-0.0054330387
-0.0052252582
-0.0050038216
-0.0047702554
-0.0045260043
-0.0042724345
-0.0040108267
-0.0037423869
-0.0034682536
-0.0031895348
-0.0029073078
-0.0026226265
-0.0023365534
-0.0020501466
-0.0017644645
-0.0014805756
-0.0011995497
-0.00092244961
-0.00065036609
-0.00038396356
-0.00012443514
-0.0057251944
-0.0055985318
-0.0054534809
-0.0052912886
-0.0051132278
-0.0049206506
-0.0047149541
-0.0044975472
-0.0042697816
-0.0040329248
-0.0037881686
-0.00353664
-0.0032794062
-0.0030175047
-0.0027519552
-0.0024837536
-0.0022139068
-0.0019434175
-0.0016733093
-0.0014046122
-0.0011383671
-0.00087561934
-0.00061744355
-0.00036451426
-0.00011803186
-0.0053617548
-0.0052449218
-0.0051109675
-0.0049609783
-0.0047961089
-0.0046175458
-0.0044265016
-0.004224239
-0.0040119962
-0.0037909528
-0.0035622356
-0.0033269174
-0.0030860164
-0.0028405137
-0.0025913693
-0.0023395343
-0.0020859629
-0.0018316072
-0.0015774426
-0.0013244503
-0.0010736202
-0.00082594873
-0.00058243754
-0.00034379386
-0.0001112086
-0.0050060317
-0.0048981824
-0.0047744034
-0.0046356497
-0.0044829569
-0.0043173969
-0.0041400889
-0.0039521346
-0.0037546443
-0.0035487131
-0.0033354022
-0.0031157362
-0.002890648
-0.0026611321
-0.0024281028
-0.0021924601
-0.0019550895
-0.0017169133
-0.0014788435
-0.0012418036
-0.0010067285
-0.00077457832
-0.00054645215
-0.00032232978
-0.00010386769
-0.0046585834
-0.0045590394
-0.0044447001
-0.0043164089
-0.004175093
-0.0040217451
-0.0038573724
-0.0036829727
-0.0034995591
-0.0033081408
-0.0031097108
-0.0029052502
-0.0026955522
-0.0024816432
-0.0022644092
-0.0020447017
-0.0018233469
-0.0016012324
-0.0013792039
-0.0011581258
-0.00093886077
-0.00072225573
-0.00050911647
-0.0003005352
-9.7064683e-05
-0.0043200662
-0.0042282908
-0.004122803
-0.0040043567
-0.0038737938
-0.0037319787
-0.0035798518
-0.0034183372
-0.0032483731
-0.0030708877
-0.002886791
-0.0026969415
-0.0025023577
-0.0023037633
-0.0021020047
-0.0018979188
-0.0016923484
-0.0014860702
-0.0012799013
-0.0010746495
-0.00087112276
-0.00067012843
-0.0004725317
-0.00027884174
-8.9967956e-05
-0.0039911953
-0.0039067215
-0.003809582
-0.0037004484
-0.0035800535
-0.003449217
-0.0033087571
-0.0031595518
-0.00300247
-0.0028383766
-0.0026681235
-0.002492551
-0.0023125225
-0.0021287956
-0.0019421538
-0.0017533821
-0.0015632643
-0.0013725437
-0.0011819798
-0.00099232492
-0.00080433003
-0.00061874684
-0.00043636239
-0.00025743423
-8.295408e-05
-0.0036725894
-0.0035949975
-0.0035057457
-0.0034054398
-0.0032947453
-0.0031743718
-0.0030450948
-0.0029077104
-0.0027630219
-0.0026118348
-0.0024549474
-0.0022931527
-0.0021272336
-0.0019579409
-0.0017860091
-0.0016121682
-0.0014371316
-0.0012616113
-0.0010863035
-0.00091190182
-0.00073909361
-0.00056855859
-0.00040099692
-0.00023651934
-7.6120746e-05
-0.0033646963
-0.0032936545
-0.0032119122
-0.003120016
-0.003018569
-0.0029082377
-0.0027897062
-0.0026636991
-0.0025309593
-0.0023922328
-0.0022482665
-0.0020997998
-0.0019475581
-0.0017922535
-0.0016345784
-0.0014752108
-0.0013148151
-0.0011540469
-0.00099354716
-0.00083394798
-0.00067587071
-0.00051992159
-0.000366724
-0.00021626627
-6.9508712e-05
-0.0030679254
-0.00300314
-0.0029285775
-0.0028447328
-0.0027521546
-0.0026514439
-0.0025432279
-0.0024281661
-0.0023069382
-0.0021802344
-0.0020487456
-0.0019131573
-0.0017741443
-0.0016323703
-0.0014884815
-0.0013431068
-0.0011968613
-0.0010503461
-0.00090414731
-0.00075883725
-0.00061497258
-0.0004730911
-0.00033375416
-0.00019678606
-6.3142003e-05
-0.0027825531
-0.0027237398
-0.0026560436
-0.0025799101
-0.0024958347
-0.0024043585
-0.0023060533
-0.00220152
-0.0020913791
-0.0019762633
-0.0018568077
-0.0017336448
-0.0016073981
-0.0014786804
-0.0013480889
-0.0012162043
-0.0010835914
-0.00095079919
-0.00081836005
-0.00068678952
-0.0005565854
-0.00042822091
-0.0003022029
-0.00017815756
-5.7037798e-05
-0.0025086215
-0.0024555264
-0.0023944085
-0.0023256674
-0.0022497496
-0.0021671411
-0.0020783608
-0.0019839533
-0.0018844825
-0.0017805242
-0.0016726591
-0.0015614655
-0.0014475149
-0.0013313687
-0.0012135741
-0.0010946627
-0.00097514964
-0.00085553351
-0.00073629571
-0.00061789962
-0.00050078902
-0.00038538
-0.00027213017
-0.00016040716
-5.11996e-05
-0.0022459994
-0.0021983856
-0.0021435764
-0.002081929
-0.0020138427
-0.001939753
-0.0018601269
-0.0017754554
-0.0016862476
-0.0015930241
-0.0014963103
-0.0013966311
-0.0012945057
-0.0011904439
-0.0010849427
-0.00097848408
-0.00087153442
-0.00076454381
-0.00065794564
-0.00055215634
-0.0004475738
-0.00034456706
-0.00024356433
-0.00014353733
-4.5603781e-05
-0.0019943757
-0.0019520225
-0.0019032689
-0.001848433
-0.0017878696
-0.0017219665
-0.0016511403
-0.0015758296
-0.0014964905
-0.0014135892
-0.0013275969
-0.0012389854
-0.0011482216
-0.0010557639
-0.00096205881
-0.00086753946
-0.00077262405
-0.00067771568
-0.00058320258
-0.00048945899
-0.00039684636
-0.00030570379
-0.00021651015
-0.00012752671
-4.0168949e-05
-0.0017532655
-0.0017159675
-0.0016730336
-0.0016247441
-0.0015714125
-0.0015133814
-0.0014510181
-0.0013847105
-0.0013148624
-0.0012418867
-0.0011662018
-0.0010882267
-0.0010083765
-0.00092705811
-0.00084466834
-0.00076159168
-0.00067819886
-0.0005948471
-0.00051188071
-0.0004296337
-0.0003484361
-0.00026859196
-0.00019089955
-0.00011221222
-3.4855018e-05
-0.0015220219
-0.0014895887
-0.0014522558
-0.0014102676
-0.001363897
-0.001313443
-0.001259226
-0.0012015845
-0.0011408705
-0.0010774458
-0.0010116766
-0.00094392966
-0.00087456818
-0.00080394866
-0.00073241859
-0.00066031468
-0.00058796033
-0.00051566744
-0.00044373585
-0.00037245602
-0.0003021327
-0.00023283079
-0.00016586391
-9.7418769e-05
-3.0173729e-05
-0.0012998538
-0.0012721116
-0.0012401798
-0.0012042678
-0.0011646096
-0.0011214613
-0.0010750981
-0.0010258103
-0.00097390054
-0.00091967971
-0.00086346281
-0.00080556476
-0.00074629794
-0.00068596891
-0.00062487647
-0.00056331132
-0.00050154802
-0.00043985482
-0.00037848632
-0.00031768676
-0.00025769231
-0.00019869231
-0.0001412424
-8.3155532e-05
-2.5803431e-05
-0.0010858451
-0.0010626378
-0.0010359269
-0.0010058882
-0.00097271803
-0.00093663091
-0.0008978574
-0.00085664133
-0.00081323684
-0.00076790494
-0.00072091026
-0.00067251716
-0.00062298832
-0.00057258063
-0.00052154567
-0.00047012578
-0.00041855255
-0.00036704807
-0.00031582314
-0.00026507659
-0.00021499379
-0.0001657297
-0.00011754601
-6.9274101e-05
-2.1700651e-05
-0.0008789647
-0.00086015605
-0.00083850828
-0.00081416501
-0.00078728603
-0.00075804503
-0.00072662919
-0.00069323666
-0.00065807424
-0.00062135456
-0.00058329205
-0.00054410052
-0.00050399491
-0.00046318456
-0.00042187322
-0.00038025711
-0.00033852386
-0.00029685215
-0.00025541056
-0.0002143563
-0.00017383272
-0.00013395734
-9.4901382e-05
-5.5946973e-05
-1.7600918e-05
-0.000678056
-0.00066353192
-0.00064681587
-0.00062801908
-0.00060726552
-0.00058468953
-0.00056043589
-0.00053465781
-0.0005075155
-0.00047917332
-0.0004497978
-0.00041955352
-0.0003886074
-0.00035712172
-0.00032525349
-0.00029315447
-0.0002609691
-0.00022883434
-0.00019687895
-0.00016522233
-0.00013397327
-0.00010322319
-7.3111585e-05
-4.3103408e-05
-1.3560575e-05
-0.00048180829
-0.00047147973
-0.00045959309
-0.00044622723
-0.00043146953
-0.00041541689
-0.00039817246
-0.00037984469
-0.00036054838
-0.00034040046
-0.00031951927
-0.00029802304
-0.00027602973
-0.0002536559
-0.00023101157
-0.00020820562
-0.00018534047
-0.00016251304
-0.000139814
-0.00011732744
-9.5131117e-05
-7.329284e-05
-5.1965135e-05
-3.0623721e-05
-9.5911043e-06
-0.00028865891
-0.00028246748
-0.00027534246
-0.00026733115
-0.00025848573
-0.00024886297
-0.00023852679
-0.00022754158
-0.00021597645
-0.0002039017
-0.0001913883
-0.00017850737
-0.00016532958
-0.00015192433
-0.00013835834
-0.00012469635
-0.00011099978
-9.7326536e-05
-8.3730618e-05
-7.0261876e-05
-5.6966511e-05
-4.387432e-05
-3.1205921e-05
-1.8350345e-05
-5.7019688e-06
-9.6513724e-05
-9.4441995e-05
-9.2057979e-05
-8.9377534e-05
-8.6418249e-05
-8.3198761e-05
-7.9740416e-05
-7.6065475e-05
-7.2196685e-05
-6.8157793e-05
-6.3972605e-05
-5.9664917e-05
-5.5258367e-05
-5.0776139e-05
-4.6240622e-05
-4.1673424e-05
-3.7095088e-05
-3.2524946e-05
-2.7980971e-05
-2.3479669e-05
-1.903597e-05
-1.4662769e-05
-1.03921e-05
-6.1201095e-06
-1.9319157e-06
)
;

boundaryField
{
    Walls
    {
        type            zeroGradient;
    }
    Inlet
    {
        type            fixedValue;
        value           uniform 500;
    }
    Outlet
    {
        type            fixedValue;
        value           uniform 0;
    }
    Front
    {
        type            wedge;
    }
    Back
    {
        type            wedge;
    }
    defaultFaces
    {
        type            empty;
    }
}


// ************************************************************************* //
