/*--------------------------------*- C++ -*----------------------------------*\
| =========                 |                                                 |
| \\      /  F ield         | OpenFOAM: The Open Source CFD Toolbox           |
|  \\    /   O peration     | Version:  4.0                                   |
|   \\  /    A nd           | Web:      www.OpenFOAM.org                      |
|    \\/     M anipulation  |                                                 |
\*---------------------------------------------------------------------------*/
FoamFile
{
    version     2.0;
    format      ascii;
    class       surfaceScalarField;
    location    "0.17";
    object      phi;
}
// * * * * * * * * * * * * * * * * * * * * * * * * * * * * * * * * * * * * * //

dimensions      [0 3 -1 0 0 0 0];

internalField   nonuniform List<scalar> 
3364
(
-2.2357471e-10
1.6132156e-08
-1.0177365e-09
4.9072471e-08
8.5044872e-08
-5.0403864e-10
1.6636179e-08
-1.9485136e-09
5.0517e-08
8.3096402e-08
-2.4670231e-10
1.6882864e-08
-9.4601466e-10
5.1216373e-08
8.2150404e-08
-4.1043427e-11
1.6923862e-08
-3.5092556e-10
5.1526228e-08
8.1799462e-08
-4.5518403e-10
1.7378999e-08
-4.3349271e-10
5.1504457e-08
8.1365932e-08
-2.6422364e-10
1.7643187e-08
-4.9210904e-10
5.1732308e-08
8.0873792e-08
2.4507368e-10
1.7398076e-08
-5.6981346e-11
5.2034299e-08
8.0816767e-08
7.4842176e-11
1.7323214e-08
8.2878596e-10
5.1280287e-08
8.1645505e-08
2.7221816e-10
1.705098e-08
1.0198421e-09
5.0532636e-08
8.2665321e-08
5.4409277e-10
1.6506849e-08
-1.4032203e-10
5.1217016e-08
8.2524984e-08
-3.4507257e-11
1.6541307e-08
-5.3558714e-10
5.1718031e-08
8.1989358e-08
-5.1710192e-10
1.7058397e-08
-5.1521352e-10
5.1716119e-08
8.1474107e-08
-2.9946365e-10
1.7357842e-08
-4.6606812e-10
5.1882713e-08
8.1008011e-08
-5.8854477e-10
1.7946349e-08
4.2480778e-10
5.08693e-08
8.1432777e-08
-4.446244e-10
1.839094e-08
6.5235568e-10
4.9772251e-08
8.2085078e-08
4.213077e-10
1.7969609e-08
3.3699845e-10
4.9856496e-08
8.2422041e-08
9.3842659e-10
1.7031124e-08
2.8463196e-10
5.0510258e-08
8.2706665e-08
4.7894099e-10
1.6552136e-08
5.2498005e-10
5.0464211e-08
8.3231633e-08
7.9761144e-11
1.6472332e-08
4.1363356e-10
5.0130316e-08
8.3645237e-08
-1.2116454e-11
1.6484367e-08
3.4333638e-11
5.0083803e-08
8.3679531e-08
-6.2239384e-11
1.6546559e-08
-1.5656378e-10
5.017807e-08
8.3522939e-08
2.0735642e-10
1.6339182e-08
-5.1190654e-12
5.0390518e-08
8.3517783e-08
6.5086238e-11
1.6274088e-08
-6.4922908e-11
5.0520509e-08
8.345282e-08
-5.7522147e-10
1.684928e-08
-1.5059249e-10
5.0095841e-08
8.3302193e-08
-6.7196474e-10
1.7521189e-08
-8.5840517e-10
5.0282246e-08
8.2443756e-08
2.0294612e-10
1.731819e-08
-2.0215175e-10
5.0687307e-08
8.2241569e-08
3.8086397e-10
1.6937291e-08
1.7835072e-10
5.0889777e-08
8.2419875e-08
-2.7241375e-10
1.7209691e-08
-1.2340269e-09
5.1851355e-08
8.1185798e-08
-2.7990508e-10
1.7489641e-08
-3.553363e-10
5.1926862e-08
8.0830452e-08
1.6920955e-09
1.5797769e-08
5.864833e-09
4.7754219e-08
8.6695263e-08
1.153228e-08
4.2648374e-09
4.8887252e-08
1.0397375e-08
9.8597635e-09
1.2572017e-07
4.7864267e-09
-5.2205246e-10
1.6717673e-08
-1.5353364e-09
-1.8037914e-09
2.8379381e-08
-3.9756043e-10
-1.2445566e-10
-1.5440667e-09
-3.8875413e-10
-5.8711264e-10
-2.7606346e-09
-1.0416085e-10
-2.0279705e-11
-4.176629e-10
-7.5215573e-11
-1.4903527e-10
-8.5569716e-10
-1.1063331e-11
-9.2145736e-12
-5.565539e-11
-3.061867e-11
-5.3339245e-11
-1.5134446e-10
-2.0907138e-12
-7.1235334e-12
-1.1418789e-11
-2.1289805e-11
-3.1913522e-11
-3.2844269e-11
-1.5785932e-12
-5.5451e-12
-5.8889e-12
-1.69799e-11
-2.6738994e-11
-1.1064601e-11
-3.8835455e-13
-5.1569229e-12
-1.9854186e-12
-1.5383432e-11
-2.4716848e-11
-4.0083312e-12
-3.935295e-13
-4.7633688e-12
-1.6705036e-12
-1.4106777e-11
-2.2713203e-11
-3.6746038e-12
-7.9554577e-13
-3.9677399e-12
-3.0458314e-12
-1.1856543e-11
-1.8962978e-11
-6.7961667e-12
-9.172931e-13
-3.0503589e-12
-3.668318e-12
-9.1054953e-12
-1.4656724e-11
-7.974572e-12
-7.5709358e-13
-2.2931949e-12
-3.0400961e-12
-6.8224671e-12
-1.0963219e-11
-6.7336071e-12
-5.1224237e-13
-1.7808971e-12
-2.0675576e-12
-5.2671277e-12
-8.4627491e-12
-4.5680499e-12
-3.2999202e-13
-1.4508622e-12
-1.3106332e-12
-4.2864601e-12
-6.8812397e-12
-2.8921642e-12
-2.15818e-13
-1.2350122e-12
-8.5103553e-13
-3.6512168e-12
-5.8743039e-12
-1.8579812e-12
-1.5744065e-13
-1.0775481e-12
-6.1516946e-13
-3.1934653e-12
-5.1533365e-12
-1.3361362e-12
-1.3032626e-13
-9.4720485e-13
-5.0946736e-13
-2.8143057e-12
-4.551407e-12
-1.1113912e-12
-1.1070921e-13
-8.3648372e-13
-4.3586103e-13
-2.4891407e-12
-4.0330637e-12
-9.5419903e-13
-9.130534e-14
-7.4517038e-13
-3.6111872e-13
-2.2193196e-12
-3.6036677e-12
-7.9051293e-13
-7.2532205e-14
-6.7263317e-13
-2.8708758e-13
-2.0047612e-12
-3.2629965e-12
-6.2776159e-13
-5.5927764e-14
-6.1670267e-13
-2.2098062e-13
-1.8397093e-12
-3.0017973e-12
-4.8218708e-13
-4.256909e-14
-5.7413254e-13
-1.6798603e-13
-1.7142963e-12
-2.8042665e-12
-3.6552766e-13
-3.2469009e-14
-5.4166374e-13
-1.283388e-13
-1.6184327e-12
-2.653681e-12
-2.7893774e-13
-2.5208551e-14
-5.1645628e-13
-9.9223888e-14
-1.544425e-12
-2.5375218e-12
-2.1539836e-13
-1.9804655e-14
-4.9665334e-13
-7.7538344e-14
-1.4866999e-12
-2.4453116e-12
-1.6976483e-13
-1.6251689e-14
-4.8040378e-13
-6.4376158e-14
-1.4385846e-12
-2.3703541e-12
-1.3935046e-13
-1.3398152e-14
-4.6700803e-13
-5.2963817e-14
-1.3990284e-12
-2.3076248e-12
-1.1570988e-13
-1.1990235e-14
-4.5502031e-13
-4.7512056e-14
-1.3635159e-12
-2.2516561e-12
-1.0349722e-13
-1.1270139e-14
-4.4375272e-13
-4.4376645e-14
-1.3304184e-12
-2.1980464e-12
-9.8002026e-14
-1.1068637e-14
-4.3268658e-13
-4.3855861e-14
-1.2976399e-12
-2.1453521e-12
-9.6565042e-14
-1.1232121e-14
-4.2145686e-13
-4.4637129e-14
-1.264243e-12
-2.091253e-12
-9.8750171e-14
-1.1635784e-14
-4.0982333e-13
-4.6310725e-14
-1.2295757e-12
-2.0346753e-12
-1.029012e-13
-1.2169771e-14
-3.9765564e-13
-4.8488351e-14
-1.193264e-12
-1.9750433e-12
-1.081321e-13
-1.2738774e-14
-3.8491877e-13
-5.0778292e-14
-1.1552308e-12
-1.9123858e-12
-1.1344641e-13
-1.3227625e-14
-3.7169285e-13
-5.287131e-14
-1.1155928e-12
-1.8472561e-12
-1.1801056e-13
-1.3579236e-14
-3.5811513e-13
-5.4295529e-14
-1.0748816e-12
-1.7799966e-12
-1.2156345e-13
-1.3766545e-14
-3.4434991e-13
-5.5029251e-14
-1.0336233e-12
-1.7117769e-12
-1.2325623e-13
-1.3789474e-14
-3.3056157e-13
-5.5129643e-14
-9.9228701e-13
-1.6434399e-12
-1.2347296e-13
-1.3628865e-14
-3.1693368e-13
-5.4508048e-14
-9.5141109e-13
-1.5758965e-12
-1.2205664e-13
-1.3240987e-14
-3.036935e-13
-5.3002909e-14
-9.116519e-13
-1.5098993e-12
-1.1900448e-13
-1.2645571e-14
-2.910486e-13
-5.0611962e-14
-8.7368775e-13
-1.4469501e-12
-1.1356481e-13
-1.1862983e-14
-2.7918614e-13
-4.7474444e-14
-8.3807809e-13
-1.387951e-12
-1.0647639e-13
-1.0894647e-14
-2.6829191e-13
-4.3614045e-14
-8.0536011e-13
-1.3337044e-12
-9.7862894e-14
-9.7486509e-15
-2.5854357e-13
-3.9029945e-14
-7.7607989e-13
-1.285066e-12
-8.7669918e-14
-8.4575825e-15
-2.5008621e-13
-3.3849132e-14
-7.5068913e-13
-1.2430981e-12
-7.5818233e-14
-7.0154168e-15
-2.4307094e-13
-2.801373e-14
-7.2969137e-13
-1.2083621e-12
-6.275056e-14
-5.4424342e-15
-2.3762859e-13
-2.1625569e-14
-7.135086e-13
-1.1816069e-12
-4.8381236e-14
-3.7456297e-15
-2.3388301e-13
-1.4821567e-14
-7.024329e-13
-1.1632851e-12
-3.3143684e-14
-1.9369179e-15
-2.3194611e-13
-7.9041164e-15
-6.9646588e-13
-1.1533572e-12
-1.7832224e-14
-3.3569335e-16
-1.5450522e-15
-3.606653e-15
1.354108e-07
-9.6958965e-09
-8.7105409e-09
1.441151e-07
2.0414818e-08
-1.7325157e-09
-1.5457353e-09
1.324949e-08
-3.8249946e-09
-6.6801747e-10
-7.40224e-10
-4.6303586e-09
-1.3182876e-09
-2.0537383e-10
-2.5198949e-10
-1.8064578e-09
-2.8824188e-10
-6.8468561e-11
-7.3988005e-11
-4.662275e-10
-6.902388e-11
-3.2288599e-11
-2.3173936e-11
-1.1983391e-10
-1.52673e-11
-2.8086411e-11
-2.0454065e-11
-1.798627e-11
-1.6481753e-12
-3.044699e-11
-2.799054e-11
5.8883847e-12
-5.4204053e-12
-2.8701342e-11
-3.1007649e-11
-2.4031626e-12
-1.0982762e-11
-2.4514687e-11
-2.7676073e-11
-1.4314062e-11
-1.3342887e-11
-1.9146298e-11
-2.1992701e-11
-1.9026022e-11
-1.138466e-11
-1.4495238e-11
-1.6846258e-11
-1.6531029e-11
-7.9320814e-12
-1.1131252e-11
-1.3430845e-11
-1.1347539e-11
-4.9301053e-12
-9.0933747e-12
-1.1233131e-11
-7.127909e-12
-3.1536081e-12
-7.7978018e-12
-9.5927405e-12
-4.7940906e-12
-2.2662217e-12
-6.8677501e-12
-8.3101409e-12
-3.5488893e-12
-1.9025467e-12
-6.0766121e-12
-7.3217634e-12
-2.8909674e-12
-1.6318266e-12
-5.3989947e-12
-6.530651e-12
-2.4229677e-12
-1.3463826e-12
-4.8431347e-12
-5.8951987e-12
-1.9818587e-12
-1.0679876e-12
-4.4029212e-12
-5.3878708e-12
-1.5753399e-12
-8.1891095e-13
-4.0662137e-12
-5.000395e-12
-1.2064138e-12
-6.1816935e-13
-3.8135917e-12
-4.7153759e-12
-9.0321812e-13
-4.7224131e-13
-3.6203104e-12
-4.5020771e-12
-6.8557196e-13
-3.6120893e-13
-3.4745238e-12
-4.3256854e-12
-5.3763378e-13
-2.8981312e-13
-3.3545003e-12
-4.1970922e-12
-4.1843995e-13
-2.3326864e-13
-3.260607e-12
-4.0924384e-12
-3.3795583e-13
-1.9676018e-13
-3.1795813e-12
-4.0012334e-12
-2.8799759e-13
-1.7653461e-13
-3.1065676e-12
-3.9164291e-12
-2.6136997e-13
-1.6825172e-13
-3.0363404e-12
-3.8334554e-12
-2.5125471e-13
-1.670828e-13
-2.9658438e-12
-3.7492053e-12
-2.5136022e-13
-1.7147278e-13
-2.8931408e-12
-3.6605497e-12
-2.6015365e-13
-1.7962987e-13
-2.8164301e-12
-3.565954e-12
-2.7424875e-13
-1.8978923e-13
-2.7347895e-12
-3.4647934e-12
-2.909709e-13
-1.997226e-13
-2.6485282e-12
-3.3567497e-12
-3.0778523e-13
-2.0751577e-13
-2.5590362e-12
-3.2440334e-12
-3.2024881e-13
-2.1408396e-13
-2.4665272e-12
-3.1270361e-12
-3.3109576e-13
-2.1761118e-13
-2.3721822e-12
-3.0079542e-12
-3.3670571e-13
-2.1823136e-13
-2.2774324e-12
-2.8879853e-12
-3.3821091e-13
-2.1585941e-13
-2.1836368e-12
-2.7690877e-12
-3.3476612e-13
-2.102473e-13
-2.0923999e-12
-2.653393e-12
-3.2594941e-13
-2.0073358e-13
-2.005236e-12
-2.5428012e-12
-3.1133152e-13
-1.8831774e-13
-1.9233985e-12
-2.4388909e-12
-2.9223283e-13
-1.7311576e-13
-1.8481486e-12
-2.3433606e-12
-2.6864978e-13
-1.5506433e-13
-1.7807564e-12
-2.2577534e-12
-2.4067427e-13
-1.3410743e-13
-1.7224688e-12
-2.1838121e-12
-2.0805065e-13
-1.1096156e-13
-1.6742588e-12
-2.122535e-12
-1.7223989e-13
-8.545529e-14
-1.6371854e-12
-2.0755302e-12
-1.3246087e-13
-5.85468e-14
-1.6117826e-12
-2.0432801e-12
-9.0797254e-14
-3.1636849e-14
-1.5979781e-12
-2.0257003e-12
-4.9216765e-14
-6.5070785e-15
-1.023811e-14
-1.3059696e-11
1.3057384e-11
-2.7283961e-11
1.4218113e-11
-4.1104941e-11
1.3813137e-11
-5.4791999e-11
1.3678787e-11
-6.9495435e-11
1.4695628e-11
-8.7465972e-11
1.7963776e-11
-1.1019346e-10
2.272248e-11
-1.3811882e-10
2.7922604e-11
-1.7061308e-10
3.2493125e-11
-2.0663883e-10
3.6025748e-11
-2.456111e-10
3.8973025e-11
-2.8700728e-10
4.1397414e-11
-3.3101279e-10
4.4007022e-11
-3.7542466e-10
4.4413509e-11
-4.1854675e-10
4.3123739e-11
-4.593378e-10
4.0792624e-11
-4.9721776e-10
3.7881408e-11
-5.3204565e-10
3.4829149e-11
-5.6345647e-10
3.1411872e-11
-5.9132916e-10
2.7873496e-11
-6.1539664e-10
2.4068041e-11
-6.3471997e-10
1.9323647e-11
-6.4880928e-10
1.408942e-11
-6.5712395e-10
8.3146204e-12
2.1226416e-12
-5.3347633e-11
6.6408331e-11
-1.1589328e-10
7.6768992e-11
-1.8740364e-10
8.5329611e-11
-2.6955586e-10
9.583742e-11
-3.6408518e-10
1.0923137e-10
-4.7273012e-10
1.2661491e-10
-5.9693654e-10
1.4693475e-10
-7.3785541e-10
1.6884684e-10
-8.9388555e-10
1.8852808e-10
-1.0622214e-09
2.0436583e-10
-1.2389924e-09
2.1574767e-10
-1.4206189e-09
2.2302697e-10
-1.6038358e-09
2.2722647e-10
-1.7878789e-09
2.2845865e-10
-1.9712378e-09
2.2648416e-10
-2.1520902e-09
2.216461e-10
-2.3297716e-09
2.1556352e-10
-2.5101621e-09
2.152199e-10
-2.6758003e-09
1.9705003e-10
-2.8207572e-09
1.7282989e-10
-2.9411473e-09
1.4445741e-10
-3.034596e-09
1.1277142e-10
-3.0990827e-09
7.8574967e-11
-3.1306633e-09
3.9893896e-11
1.0346357e-11
-1.3910916e-10
2.0552472e-10
-3.0130977e-10
2.3898096e-10
-4.8891845e-10
2.7295144e-10
-7.0772129e-10
3.1465363e-10
-9.6219167e-10
3.6371457e-10
-1.2538521e-09
4.1828709e-10
-1.5846109e-09
4.7770413e-10
-2.0155801e-09
5.9982506e-10
-2.4823377e-09
6.552932e-10
-2.9578228e-09
6.7985701e-10
-3.4276441e-09
6.8557362e-10
-3.8833059e-09
6.7869207e-10
-4.3182897e-09
6.6221253e-10
-4.7276329e-09
6.378031e-10
-5.1058787e-09
6.0473026e-10
-5.4485601e-09
5.6432698e-10
-5.7510513e-09
5.1805336e-10
-6.0026574e-09
4.6682412e-10
-6.2170632e-09
4.1145341e-10
-6.3972551e-09
3.5301892e-10
-6.5450073e-09
2.9220625e-10
-6.6617538e-09
2.2951429e-10
-6.7483696e-09
1.6518682e-10
-6.8077391e-09
9.925923e-11
3.2718389e-11
-3.9205148e-10
5.9759071e-10
-8.3335081e-10
6.8030227e-10
-1.34423e-09
7.8385447e-10
-2.1643468e-09
1.1347915e-09
-3.0484652e-09
1.2478503e-09
-3.8895989e-09
1.2594344e-09
-4.6370136e-09
1.225129e-09
-5.1999561e-09
1.1627751e-09
-5.6251774e-09
1.0805198e-09
-5.9305722e-09
9.852555e-10
-6.1308852e-09
8.8588884e-10
-6.2398756e-09
7.8768355e-10
-6.2681412e-09
6.9047835e-10
-6.218118e-09
5.8777947e-10
-6.1040479e-09
4.9065914e-10
-5.9426548e-09
4.0293246e-10
-5.7504321e-09
3.2582901e-10
-5.543467e-09
2.5985699e-10
-5.3370256e-09
2.0500983e-10
-5.1443403e-09
1.6033123e-10
-4.9766636e-09
1.2452704e-10
-4.8424538e-09
9.5301879e-11
-4.7474833e-09
7.0213605e-11
-4.6955697e-09
4.7342794e-11
2.4165645e-11
-2.2494756e-09
2.8470898e-09
-4.0383726e-09
2.4692251e-09
-5.5816826e-09
2.3271892e-09
-6.2924058e-09
1.8455312e-09
-6.3941273e-09
1.3495848e-09
-5.9433327e-09
8.0865022e-10
-5.1868884e-09
4.6869323e-10
-4.2032606e-09
1.7915473e-10
-3.0564761e-09
-6.6258043e-11
-1.8037656e-09
-2.6744909e-10
-5.5771613e-10
-3.6015604e-10
6.7560262e-10
-4.4563494e-10
1.9323855e-09
-5.6630474e-10
3.3307695e-09
-8.1060369e-10
4.7009096e-09
-8.7947842e-10
5.9988041e-09
-8.9495778e-10
7.2005284e-09
-8.758893e-10
8.2910803e-09
-8.306873e-10
9.260423e-09
-7.6432384e-10
1.01007e-08
-6.799354e-10
1.0805226e-08
-5.7998677e-10
1.136705e-08
-4.6650891e-10
1.1778391e-08
-3.4111301e-10
1.2032253e-08
-2.06504e-10
-6.1580231e-11
8.8246642e-10
1.9647082e-09
4.0139851e-09
-6.6224192e-10
7.702564e-09
-1.3613171e-09
1.13811e-08
-1.8329725e-09
1.5117702e-08
-2.3869908e-09
1.8782658e-08
-2.8562771e-09
2.2384548e-08
-3.133163e-09
2.577367e-08
-3.2099295e-09
2.8856931e-08
-3.149476e-09
3.1605615e-08
-3.0160859e-09
3.4086468e-08
-2.8409585e-09
3.6271617e-08
-2.6307303e-09
3.8117849e-08
-2.4124813e-09
3.9511234e-08
-2.203933e-09
4.0620564e-08
-1.9887515e-09
4.1499503e-08
-1.7738407e-09
4.2188909e-08
-1.5652385e-09
4.2722408e-08
-1.3641301e-09
4.3128934e-08
-1.1707935e-09
4.3433585e-08
-9.8453115e-10
4.365752e-08
-8.0386601e-10
4.3817713e-08
-6.2664778e-10
4.3926673e-08
-4.5001807e-10
4.3991951e-08
-2.71728e-10
-8.59622e-11
1.4839433e-07
-2.3133087e-09
1.471999e-07
5.3310321e-10
1.4476737e-07
1.0719934e-09
1.4140323e-07
1.5318658e-09
1.36927e-07
2.0898542e-09
1.3150728e-07
2.5639603e-09
1.2551921e-07
2.85536e-09
1.1935815e-07
2.9515113e-09
1.1329543e-07
2.9135788e-09
1.0748719e-07
2.7924313e-09
1.0200408e-07
2.6424107e-09
9.689772e-08
2.4758496e-09
9.2199145e-08
2.2862923e-09
8.7909796e-08
2.0855949e-09
8.4039126e-08
1.8820793e-09
8.058505e-08
1.6803823e-09
7.7536495e-08
1.4834506e-09
7.4879725e-08
1.2927627e-09
7.2600079e-08
1.1089675e-09
7.0683897e-08
9.3175689e-10
6.9120132e-08
7.599993e-10
6.7901612e-08
5.9196622e-10
6.7026624e-08
4.250593e-10
6.649808e-08
2.5690115e-10
8.1662566e-11
1.2671647e-08
-1.7353443e-09
1.5056472e-08
-1.851609e-09
1.7734859e-08
-1.6062802e-09
2.0502404e-08
-1.2355689e-09
2.3363456e-08
-7.710914e-10
2.6308685e-08
-3.8116766e-10
2.9259801e-08
-9.5663031e-11
3.2057697e-08
1.5370364e-10
3.465302e-08
3.1834464e-10
3.7023926e-08
4.2161281e-10
3.9129795e-08
5.3662843e-10
4.0802466e-08
8.0326354e-10
4.212559e-08
9.632515e-10
4.3181372e-08
1.0298947e-09
4.4012588e-08
1.0509424e-09
4.4655296e-08
1.0377515e-09
4.5142181e-08
9.9664044e-10
4.5503742e-08
9.3127535e-10
4.5765964e-08
8.4681596e-10
4.59515e-08
7.4628821e-10
4.6079565e-08
6.3200071e-10
4.6166072e-08
5.0552341e-10
4.6222117e-08
3.6907622e-10
4.6255033e-08
2.2404504e-10
6.7671733e-11
-5.4430031e-09
-9.2271244e-10
-6.1477007e-09
-1.1469226e-09
-6.5091352e-09
-1.2448573e-09
-6.4549614e-09
-1.2897537e-09
-5.9460923e-09
-1.2799696e-09
-5.1026128e-09
-1.2246539e-09
-4.0515083e-09
-1.1467714e-09
-2.8448321e-09
-1.0529736e-09
-1.5776071e-09
-9.4887854e-10
-3.122346e-10
-8.4375539e-10
9.6263616e-10
-7.3823574e-10
2.39606e-09
-6.3015135e-10
3.8833405e-09
-5.2401776e-10
5.3398417e-09
-4.2659309e-10
6.7304234e-09
-3.3962404e-10
8.0313477e-09
-2.63156e-10
9.227475e-09
-1.9946872e-10
1.0317482e-08
-1.5871229e-10
1.1288658e-08
-1.2434051e-10
1.213127e-08
-9.6302564e-11
1.2837267e-08
-7.3975486e-11
1.3399182e-08
-5.6370804e-11
1.3810594e-08
-4.2314646e-11
1.4064571e-08
-2.9911844e-11
-1.7164189e-11
-2.4416456e-09
-2.8752748e-10
-3.2474745e-09
-3.4109771e-10
-4.0841548e-09
-4.0818345e-10
-4.8994355e-09
-4.7448174e-10
-5.6338326e-09
-5.4558313e-10
-6.1795282e-09
-6.7897001e-10
-6.5955209e-09
-7.3079102e-10
-6.8929803e-09
-7.5552667e-10
-7.0788374e-09
-7.6303381e-10
-7.1649449e-09
-7.5766008e-10
-7.1604256e-09
-7.4276662e-10
-7.0698974e-09
-7.206906e-10
-6.9027064e-09
-6.9121895e-10
-6.6744941e-09
-6.5481488e-10
-6.4016752e-09
-6.1245164e-10
-6.0994997e-09
-5.6533933e-10
-5.7840489e-09
-5.1492662e-10
-5.4798954e-09
-4.6287212e-10
-5.1960475e-09
-4.0819414e-10
-4.9413516e-09
-3.5100372e-10
-4.7238647e-09
-2.9146715e-10
-4.5505507e-09
-2.296892e-10
-4.4270959e-09
-1.6577357e-10
-4.3570599e-09
-9.9951809e-11
-3.3381882e-11
-6.7826151e-10
-7.5491752e-11
-9.3210486e-10
-8.7252828e-11
-1.2281892e-09
-1.1209832e-10
-1.5656541e-09
-1.3701683e-10
-1.9427278e-09
-1.6851045e-10
-2.4167065e-09
-2.0499349e-10
-2.9103543e-09
-2.3714666e-10
-3.4042363e-09
-2.6164919e-10
-3.8894785e-09
-2.7779713e-10
-4.3594617e-09
-2.8768331e-10
-4.8084802e-09
-2.9375531e-10
-5.2316399e-09
-2.9753872e-10
-5.6225499e-09
-3.0031728e-10
-5.9612355e-09
-3.1613787e-10
-6.2536985e-09
-3.1999763e-10
-6.5103436e-09
-3.0870325e-10
-6.7346526e-09
-2.9062678e-10
-6.9302737e-09
-2.672602e-10
-7.0989112e-09
-2.3956585e-10
-7.2419135e-09
-2.080106e-10
-7.3603353e-09
-1.7305443e-10
-7.4548206e-09
-1.3521289e-10
-7.5255248e-09
-9.5078299e-11
-7.5723804e-09
-5.3105133e-11
-1.2372355e-11
-1.841177e-10
-1.1206833e-11
-2.6715724e-10
-4.2120899e-12
-3.7432084e-10
-4.9336382e-12
-5.01755e-10
-9.5818557e-12
-6.5412248e-10
-1.6142501e-11
-8.3039602e-10
-2.8719906e-11
-1.0228667e-09
-4.4676392e-11
-1.224775e-09
-5.9741786e-11
-1.4320952e-09
-7.0478328e-11
-1.6420888e-09
-7.7691447e-11
-1.8523175e-09
-8.3528765e-11
-2.0626795e-09
-8.7179186e-11
-2.274475e-09
-8.8524645e-11
-2.5025802e-09
-8.8035843e-11
-2.7367264e-09
-8.5854913e-11
-2.9632549e-09
-8.2178538e-11
-3.1767118e-09
-7.7173913e-11
-3.3730307e-09
-7.0945611e-11
-3.5489086e-09
-6.3692378e-11
-3.7013801e-09
-5.5543658e-11
-3.8278641e-09
-4.6575124e-11
-3.9261661e-09
-3.6915531e-11
-3.9945684e-09
-2.668069e-11
-4.0317856e-09
-1.5892637e-11
-4.6439683e-12
-1.8364428e-11
-1.0828004e-11
-2.2818193e-11
2.4234512e-13
-3.6093712e-11
8.3424696e-12
-5.8181136e-11
1.2506046e-11
-8.8768825e-11
1.4445541e-11
-1.2833292e-10
1.0844411e-11
-1.7855125e-10
5.542021e-12
-2.3484212e-10
-3.4509687e-12
-2.9657004e-10
-8.7505801e-12
-3.6054117e-10
-1.3720621e-11
-4.2573277e-10
-1.833758e-11
-4.9157612e-10
-2.1336361e-11
-5.566734e-10
-2.3427983e-11
-6.2013911e-10
-2.4570836e-11
-6.8124027e-10
-2.475455e-11
-7.3931914e-10
-2.4100537e-11
-7.9377214e-10
-2.2721849e-11
-8.4386882e-10
-2.0849928e-11
-8.8896077e-10
-1.8601463e-11
-9.2841844e-10
-1.6087052e-11
-9.6153454e-10
-1.3460106e-11
-9.8770337e-10
-1.0747789e-11
-1.0064452e-09
-7.93997e-12
-1.0173816e-09
-4.9572336e-12
-1.5685288e-12
1.7634545e-11
-2.2573616e-11
3.5471998e-11
-1.7594506e-11
5.2417983e-11
-8.6029165e-12
6.5618482e-11
-6.9388317e-13
7.6625906e-11
3.4386527e-12
8.3878067e-11
3.5927478e-12
8.6248365e-11
3.1721849e-12
8.3147841e-11
-3.5001806e-13
7.7980876e-11
-3.5832231e-12
7.1120741e-11
-6.8601261e-12
6.418258e-11
-1.1399088e-11
5.7192716e-11
-1.4346192e-11
5.1219917e-11
-1.74549e-11
4.6678558e-11
-2.0029209e-11
4.3646668e-11
-2.1722404e-11
4.1995157e-11
-2.2448779e-11
4.1542887e-11
-2.2269336e-11
4.1920678e-11
-2.1227479e-11
4.2837649e-11
-1.9518198e-11
4.4033926e-11
-1.7283094e-11
4.5226063e-11
-1.4652012e-11
4.6179912e-11
-1.1701414e-11
4.6702704e-11
-8.4625457e-12
4.6745245e-11
-4.9995716e-12
-1.6974115e-12
5.3074211e-12
-3.0283854e-11
1.43708e-11
-2.6657464e-11
2.7139934e-11
-2.1371597e-11
4.2143387e-11
-1.5696868e-11
5.6597821e-11
-1.1015312e-11
6.8018442e-11
-7.8274112e-12
7.6471152e-11
-5.2800752e-12
8.2339716e-11
-6.2181482e-12
8.5936599e-11
-7.1796897e-12
8.8939454e-11
-9.8625832e-12
8.9571469e-11
-1.2030722e-11
9.0241212e-11
-1.5015571e-11
9.0660087e-11
-1.7873425e-11
9.0906101e-11
-2.0274887e-11
9.1254383e-11
-2.2070362e-11
9.1770674e-11
-2.2964757e-11
9.2559663e-11
-2.3058022e-11
9.3720023e-11
-2.2387545e-11
9.5180887e-11
-2.0978777e-11
9.6816422e-11
-1.8918355e-11
9.8468251e-11
-1.6303577e-11
1.0000677e-10
-1.3239685e-11
1.0136621e-10
-9.8217406e-12
1.0253752e-10
-6.170663e-12
-2.216202e-12
-1.6361451e-11
-2.8236396e-11
-1.5826267e-11
-2.7192496e-11
-1.3536628e-11
-2.3661044e-11
-9.3426781e-12
-1.9890608e-11
-4.3273047e-12
-1.6030468e-11
9.4934528e-14
-1.2249433e-11
4.0434997e-12
-9.2284308e-12
4.6791729e-12
-6.8536243e-12
4.1809514e-12
-6.6812872e-12
1.2538236e-12
-6.9352931e-12
-2.076829e-12
-8.6999265e-12
-7.2308513e-12
-9.8614247e-12
-1.3474575e-11
-1.1629597e-11
-1.9978393e-11
-1.3770982e-11
-2.6595999e-11
-1.5452685e-11
-3.3230082e-11
-1.6330618e-11
-3.9564184e-11
-1.6723878e-11
-4.5315262e-11
-1.6636437e-11
-5.0391681e-11
-1.5902339e-11
-5.4726211e-11
-1.4583816e-11
-5.8285049e-11
-1.2744738e-11
-6.1075022e-11
-1.0449718e-11
-6.3130182e-11
-7.7665948e-12
-6.4581171e-11
-4.7196895e-12
-1.5234454e-12
-2.448164e-11
-2.2780947e-11
-2.8717954e-11
-2.2956267e-11
-3.1408528e-11
-2.0970504e-11
-3.4462524e-11
-1.6836619e-11
-3.5971359e-11
-1.4521627e-11
-3.7098924e-11
-1.112186e-11
-3.8388448e-11
-7.9389018e-12
-3.9955061e-11
-5.2870135e-12
-4.3071719e-11
-3.5646441e-12
-4.8244628e-11
-1.762412e-12
-5.4585231e-11
-2.3593681e-12
-6.1542198e-11
-2.9045164e-12
-6.9724367e-11
-3.447502e-12
-7.8215214e-11
-5.2802229e-12
-8.7172907e-11
-6.4950937e-12
-9.6409706e-11
-7.0939318e-12
-1.0537037e-10
-7.7633384e-12
-1.1355349e-10
-8.4534439e-12
-1.2104025e-10
-8.4157229e-12
-1.2768037e-10
-7.9438408e-12
-1.3334415e-10
-7.0811051e-12
-1.3793378e-10
-5.8602343e-12
-1.4137533e-10
-4.3251925e-12
-1.4360801e-10
-2.4871568e-12
-6.8388908e-13
-2.1414108e-11
-1.7898104e-11
-2.6536483e-11
-1.7834105e-11
-3.0863266e-11
-1.6643896e-11
-3.35743e-11
-1.4125728e-11
-3.6712316e-11
-1.1383735e-11
-3.9411142e-11
-8.4231469e-12
-4.1867224e-11
-5.4829284e-12
-4.4361172e-11
-2.7931737e-12
-4.743829e-11
-4.8763747e-13
-5.052015e-11
1.319332e-12
-5.5098336e-11
2.2186971e-12
-6.0634619e-11
2.631638e-12
-6.6823145e-11
2.7408886e-12
-7.3905014e-11
1.8015039e-12
-8.1384957e-11
9.8470102e-13
-8.8714983e-11
2.3594027e-13
-9.6015498e-11
-4.6298151e-13
-1.0319218e-10
-1.2769253e-12
-1.098286e-10
-1.779468e-12
-1.1572702e-10
-2.0455762e-12
-1.2073165e-10
-2.0766413e-12
-1.2470301e-10
-1.8890363e-12
-1.2751374e-10
-1.5146208e-12
-1.2901752e-10
-9.8352219e-13
-3.8068586e-13
-1.5028951e-11
-1.4216868e-11
-1.8725432e-11
-1.4137809e-11
-2.1955186e-11
-1.3414325e-11
-2.4272074e-11
-1.1809008e-11
-2.6258131e-11
-9.3978316e-12
-2.7878176e-11
-6.8032434e-12
-2.9262324e-11
-4.0989128e-12
-3.0538644e-11
-1.5169799e-12
-3.1872542e-11
8.4613852e-13
-3.3347688e-11
2.7943572e-12
-3.5440309e-11
4.311198e-12
-3.8144222e-11
5.3354306e-12
-4.1248816e-11
5.8453614e-12
-4.5279505e-11
5.8320701e-12
-4.979873e-11
5.5038015e-12
-5.4478303e-11
4.9153882e-12
-5.9121305e-11
4.1798939e-12
-6.3961396e-11
3.5630402e-12
-6.8546533e-11
2.8055441e-12
-7.2716213e-11
2.123981e-12
-7.6339732e-11
1.5467573e-12
-7.9340455e-11
1.1115689e-12
-8.1661668e-11
8.0647664e-13
-8.3066844e-11
4.2154801e-13
1.9420622e-14
-9.4695679e-12
-1.1875345e-11
-1.1729957e-11
-1.1877558e-11
-1.3788862e-11
-1.1355559e-11
-1.5323506e-11
-1.0274501e-11
-1.6247793e-11
-8.4736733e-12
-1.673832e-11
-6.3128369e-12
-1.6860462e-11
-3.976882e-12
-1.6735942e-11
-1.641604e-12
-1.6583839e-11
6.939367e-13
-1.654659e-11
2.7570153e-12
-1.674271e-11
4.5072279e-12
-1.7267125e-11
5.8597572e-12
-1.8186231e-11
6.7643799e-12
-1.9617036e-11
7.2627887e-12
-2.1489401e-11
7.37608e-12
-2.3746717e-11
7.1726186e-12
-2.6290371e-11
6.7234636e-12
-2.8861946e-11
6.1345304e-12
-3.1460678e-11
5.4041933e-12
-3.3936189e-11
4.5994103e-12
-3.6119697e-11
3.7301851e-12
-3.7969315e-11
2.9611084e-12
-3.9536065e-11
2.373149e-12
-4.0448372e-11
1.3337859e-12
6.8486186e-14
-6.343389e-12
-1.0326175e-11
-7.6668023e-12
-1.0554267e-11
-8.8507316e-12
-1.0171746e-11
-9.7605418e-12
-9.3648035e-12
-1.0108019e-11
-8.1263028e-12
-1.0078299e-11
-6.3426565e-12
-9.6517471e-12
-4.4035265e-12
-8.9810587e-12
-2.3123774e-12
-7.9548537e-12
-3.3234699e-13
-7.049297e-12
1.8513854e-12
-6.1776041e-12
3.6354658e-12
-5.4522581e-12
5.1343451e-12
-4.9881996e-12
6.3002577e-12
-4.8433829e-12
7.11791e-12
-5.0412975e-12
7.5739342e-12
-5.5646034e-12
7.6958652e-12
-6.3608079e-12
7.5196098e-12
-7.331268e-12
7.1049329e-12
-8.4175942e-12
6.4904627e-12
-9.5307359e-12
5.712496e-12
-1.0609224e-11
4.8086179e-12
-1.1379704e-11
3.7315355e-12
-1.1511956e-11
2.5053476e-12
-1.1722853e-11
1.5446366e-12
7.0434657e-13
-4.7047812e-12
-9.1704129e-12
-5.7380055e-12
-9.5211667e-12
-6.5267671e-12
-9.3831025e-12
-7.0840398e-12
-8.8076417e-12
-7.3287736e-12
-7.881672e-12
-7.1440798e-12
-6.5274443e-12
-6.6411572e-12
-4.9065345e-12
-5.773408e-12
-3.1802044e-12
-4.7832599e-12
-1.3225661e-12
-3.4696667e-12
5.377272e-13
-2.113507e-12
2.2792464e-12
-8.0023635e-13
3.8210189e-12
3.8943114e-13
5.1105379e-12
1.3942432e-12
6.1130483e-12
2.1651473e-12
6.8029825e-12
2.6881897e-12
7.1727769e-12
2.9740331e-12
7.2337217e-12
3.061388e-12
7.0175343e-12
2.9871858e-12
6.5646219e-12
2.802664e-12
5.8969756e-12
2.5822401e-12
5.0290007e-12
2.2682591e-12
4.0454761e-12
2.0069128e-12
2.7666538e-12
1.8521191e-12
1.6993969e-12
7.4304368e-13
-3.843906e-12
-8.2176001e-12
-4.749622e-12
-8.6155715e-12
-5.4125994e-12
-8.7202397e-12
-5.8665737e-12
-8.3537743e-12
-6.101132e-12
-7.6472122e-12
-5.9997465e-12
-6.6289195e-12
-5.5483999e-12
-5.3579625e-12
-4.8151558e-12
-3.9135222e-12
-3.8241152e-12
-2.3136737e-12
-2.5635514e-12
-7.2289733e-13
-1.1319632e-12
8.4760287e-13
3.7183148e-13
2.3171735e-12
1.8650292e-12
3.6172934e-12
3.2830185e-12
4.6950152e-12
4.5720533e-12
5.5139064e-12
5.6917659e-12
6.0530249e-12
6.6158949e-12
6.3095551e-12
7.3461905e-12
6.2872022e-12
7.9027935e-12
6.0079835e-12
8.3055798e-12
5.4941548e-12
8.5501497e-12
4.7843971e-12
8.6791366e-12
3.9164562e-12
8.5028406e-12
2.942917e-12
8.4113342e-12
1.7908767e-12
4.2128332e-13
-3.2467553e-12
-7.3939234e-12
-3.9682405e-12
-7.8941952e-12
-4.6215891e-12
-8.0669959e-12
-5.0654842e-12
-7.909978e-12
-5.2776865e-12
-7.4351015e-12
-5.2241106e-12
-6.6825794e-12
-4.8823248e-12
-5.699825e-12
-4.2768734e-12
-4.5190433e-12
-3.3636657e-12
-3.2269447e-12
-2.2501203e-12
-1.8365e-12
-9.097283e-13
-4.9284126e-13
5.7659291e-13
8.3080489e-13
2.1448161e-12
2.0490268e-12
3.7138221e-12
3.1259691e-12
5.2353317e-12
3.9923596e-12
6.6656927e-12
4.622629e-12
7.9543197e-12
5.020895e-12
9.0938344e-12
5.1476559e-12
1.0069997e-11
5.0317905e-12
1.0873079e-11
4.6910431e-12
1.1515617e-11
4.1418309e-12
1.2025849e-11
3.4061972e-12
1.2401765e-11
2.5669733e-12
1.266343e-11
1.529189e-12
5.4054731e-13
-2.6219572e-12
-6.7539214e-12
-3.2593307e-12
-7.2569163e-12
-3.8047835e-12
-7.5216344e-12
-4.2005168e-12
-7.5143311e-12
-4.3974221e-12
-7.2382772e-12
-4.3632891e-12
-6.7167877e-12
-4.0996274e-12
-5.9635561e-12
-3.5505214e-12
-5.068213e-12
-2.7582618e-12
-4.0192627e-12
-1.7201601e-12
-2.874655e-12
-5.1839285e-13
-1.694657e-12
8.775213e-13
-5.6515331e-13
2.3939398e-12
5.3256822e-13
3.9903624e-12
1.5295099e-12
5.6035288e-12
2.3791596e-12
7.1790157e-12
3.0471111e-12
8.6316413e-12
3.5682405e-12
1.0001006e-11
3.7782642e-12
1.1226679e-11
3.8060917e-12
1.2291829e-11
3.6258681e-12
1.3188578e-11
3.245059e-12
1.3919624e-11
2.6751281e-12
1.4614424e-11
1.8721504e-12
1.4890582e-11
1.2530134e-12
6.1935445e-13
-2.0645413e-12
-6.2648057e-12
-2.56947e-12
-6.7520712e-12
-3.0004746e-12
-7.0907105e-12
-3.3140328e-12
-7.2008498e-12
-3.4641878e-12
-7.0881947e-12
-3.4255821e-12
-6.7554612e-12
-3.1636849e-12
-6.2255161e-12
-2.6905066e-12
-5.5414492e-12
-1.9795492e-12
-4.7302733e-12
-1.0338973e-12
-3.8203555e-12
9.952898e-14
-2.8281276e-12
1.3962356e-12
-1.8619002e-12
2.8246772e-12
-8.959099e-13
4.3604095e-12
-6.2554242e-15
5.946736e-12
7.9280311e-13
7.5296522e-12
1.4641676e-12
9.1100646e-12
1.987803e-12
1.056776e-11
2.3205458e-12
1.1897311e-11
2.4765187e-12
1.306904e-11
2.4541186e-12
1.4048181e-11
2.2658987e-12
1.4758098e-11
1.9651931e-12
1.5106346e-11
1.5238836e-12
1.540358e-11
9.5576667e-13
3.087463e-13
-1.610655e-12
-5.8606414e-12
-1.9765106e-12
-6.3862907e-12
-2.2971537e-12
-6.7701398e-12
-2.516689e-12
-6.9813836e-12
-2.6075381e-12
-6.997411e-12
-2.5340981e-12
-6.8289623e-12
-2.2782167e-12
-6.4814544e-12
-1.8379056e-12
-5.9818129e-12
-1.1967539e-12
-5.3714733e-12
-3.5380889e-13
-4.6633447e-12
7.0050075e-13
-3.8824775e-12
1.9005922e-12
-3.0620281e-12
3.246904e-12
-2.2422546e-12
4.671543e-12
-1.4309241e-12
6.1786294e-12
-7.143099e-13
7.7122504e-12
-6.9477366e-14
9.2351082e-12
4.6492369e-13
1.0684914e-11
8.7072051e-13
1.202436e-11
1.1370541e-12
1.3212093e-11
1.2663693e-12
1.4211e-11
1.2669761e-12
1.5017288e-11
1.1588905e-12
1.5610247e-11
9.309102e-13
1.5964443e-11
6.0156077e-13
1.6283506e-13
-1.2343292e-12
-5.5296001e-12
-1.5209525e-12
-6.0997353e-12
-1.732055e-12
-6.5591028e-12
-1.8732575e-12
-6.8402436e-12
-1.9108431e-12
-6.9598847e-12
-1.8175227e-12
-6.9223382e-12
-1.5648742e-12
-6.7341548e-12
-1.1423438e-12
-6.4043912e-12
-5.6952871e-13
-5.9443325e-12
1.8922122e-13
-5.422135e-12
1.1195869e-12
-4.8128798e-12
2.203903e-12
-4.1463774e-12
3.4189165e-12
-3.4572979e-12
4.7445907e-12
-2.756625e-12
6.135713e-12
-2.105456e-12
7.5521369e-12
-1.4859223e-12
8.966911e-12
-9.4986912e-13
1.0336663e-11