/*--------------------------------*- C++ -*----------------------------------*\
| =========                 |                                                 |
| \\      /  F ield         | OpenFOAM: The Open Source CFD Toolbox           |
|  \\    /   O peration     | Version:  4.0                                   |
|   \\  /    A nd           | Web:      www.OpenFOAM.org                      |
|    \\/     M anipulation  |                                                 |
\*---------------------------------------------------------------------------*/
FoamFile
{
    version     2.0;
    format      ascii;
    class       volScalarField;
    location    "0.61";
    object      k;
}
// * * * * * * * * * * * * * * * * * * * * * * * * * * * * * * * * * * * * * //

dimensions      [0 2 -2 0 0 0 0];

internalField   nonuniform List<scalar> 
1740
(
0.0084436446
0.0090120341
0.018319499
0.0090480572
0.009912947
0.027401526
0.0096266741
0.010552977
0.034467329
0.0099429869
0.01072713
0.04143794
0.010060548
0.010989714
0.047386523
0.010119859
0.011355405
0.051459707
0.010187035
0.011675895
0.055902818
0.010242987
0.012180126
0.05966786
0.010216398
0.012541174
0.061579038
0.010201266
0.012538999
0.064031641
0.010125254
0.012802146
0.066222734
0.010047501
0.013087181
0.067102156
0.0099276912
0.013201529
0.068450041
0.009812365
0.013464099
0.069721714
0.0096908339
0.013678981
0.069901601
0.0095631231
0.013707528
0.070758556
0.0094174483
0.013875237
0.071413995
0.0092571584
0.014187433
0.071448935
0.0091197937
0.01394153
0.072127869
0.0090037485
0.014002993
0.072121515
0.0089062721
0.014198651
0.072747252
0.0089108208
0.014380983
0.073569847
0.00884607
0.01486106
0.073266686
0.0087034778
0.015034473
0.072989482
0.0085982548
0.014674319
0.072814589
0.008520162
0.014668228
0.072724585
0.0084785381
0.014743731
0.072635191
0.0084198614
0.015101495
0.072216497
0.0083756915
0.014961221
0.07159843
0.008965504
0.016062992
0.06664387
0.01275321
0.018055691
0.047307009
0.02388267
0.031065751
0.039690912
0.010258472
0.012511294
0.0136986
0.0042733083
0.0046063722
0.0046643788
0.0020762695
0.0021202246
0.0020953367
0.0011408566
0.0011423066
0.0011250628
0.0006909352
0.00068862309
0.00068097107
0.00045075564
0.00044951699
0.00044697619
0.00031101667
0.0003107222
0.00031044462
0.0002236114
0.00022376976
0.00022435053
0.00016540836
0.0001657228
0.00016653456
0.0001245175
0.00012484854
0.0001256341
9.451363e-05
9.4805848e-05
9.5474645e-05
7.1780611e-05
7.2017848e-05
7.2550901e-05
5.4205535e-05
5.4388305e-05
5.4794905e-05
4.0500687e-05
4.0635979e-05
4.0935269e-05
2.9834578e-05
2.9931229e-05
3.0144338e-05
2.1623907e-05
2.1690624e-05
2.1837423e-05
1.5416593e-05
1.5461105e-05
1.5558894e-05
1.0830948e-05
1.0859663e-05
1.0922665e-05
7.5304458e-06
7.5483652e-06
7.5876499e-06
5.2192016e-06
5.2300322e-06
5.2537816e-06
3.6470785e-06
3.6534703e-06
3.6674799e-06
2.6094906e-06
2.6132123e-06
2.6213547e-06
1.9453321e-06
1.9474943e-06
1.9522188e-06
1.53438e-06
1.535662e-06
1.5384608e-06
1.2906917e-06
1.291492e-06
1.2932386e-06
1.1547894e-06
1.1553324e-06
1.1565174e-06
1.0866735e-06
1.08708e-06
1.087968e-06
1.0601206e-06
1.0604533e-06
1.0611805e-06
1.0583177e-06
1.0586073e-06
1.0592408e-06
1.0706761e-06
1.070937e-06
1.0715081e-06
1.0905954e-06
1.0908343e-06
1.0913572e-06
1.1139422e-06
1.1141621e-06
1.1146432e-06
1.1380371e-06
1.1382395e-06
1.1386822e-06
1.1609906e-06
1.1611766e-06
1.161583e-06
1.1812681e-06
1.1814385e-06
1.1818108e-06
1.1974008e-06
1.1975567e-06
1.1978969e-06
1.2077888e-06
1.2079311e-06
1.2082414e-06
1.2105619e-06
1.2106915e-06
1.210974e-06
1.2034845e-06
1.2036023e-06
1.2038589e-06
1.1839025e-06
1.1840093e-06
1.1842419e-06
1.1487469e-06
1.1488434e-06
1.1490533e-06
1.0946154e-06
1.094702e-06
1.0948903e-06
1.0179735e-06
1.0180505e-06
1.0182178e-06
9.1553311e-07
9.1560039e-07
9.1574679e-07
7.848458e-07
7.8490313e-07
7.8502847e-07
6.2509578e-07
6.2514263e-07
6.2524628e-07
4.3791152e-07
4.379465e-07
4.3802552e-07
2.2849022e-07
2.2851006e-07
2.2855594e-07
0.056275541
0.060940625
0.046092007
0.046560665
0.01246041
0.011335134
0.0043513845
0.0041197206
0.0020026889
0.0019419793
0.0010959042
0.0010808076
0.00067225678
0.00067049382
0.0004453382
0.00044746456
0.00031123524
0.00031422147
0.00022583188
0.00022868359
0.00016805078
0.00017047251
0.00012695805
0.00012890596
9.6549942e-05
9.8066343e-05
7.3386698e-05
7.4537956e-05
5.5423384e-05
5.6277378e-05
4.1394012e-05
4.2012162e-05
3.0469303e-05
3.0904844e-05
2.2060515e-05
2.2358432e-05
1.5707144e-05
1.5904592e-05
1.1017995e-05
1.1144684e-05
7.6470087e-06
7.7257493e-06
5.2896369e-06
5.3371255e-06
3.6886047e-06
3.716531e-06
2.6336087e-06
2.6497713e-06
1.9593163e-06
1.9686565e-06
1.5426594e-06
1.548174e-06
1.2958565e-06
1.2992907e-06
1.1582937e-06
1.1606235e-06
1.0892999e-06
1.0910482e-06
1.0622722e-06
1.063707e-06
1.0601925e-06
1.0614442e-06
1.0723664e-06
1.0734956e-06
1.0921429e-06
1.0931763e-06
1.1153658e-06
1.1163152e-06
1.1393464e-06
1.1402182e-06
1.1621923e-06
1.1629909e-06
1.1823683e-06
1.1830978e-06
1.1984058e-06
1.1990704e-06
1.2087049e-06
1.209309e-06
1.2113954e-06
1.2119433e-06
1.2042411e-06
1.204737e-06
1.1845876e-06
1.1850351e-06
1.1493649e-06
1.1497671e-06
1.0951695e-06
1.095529e-06
1.0184657e-06
1.0187843e-06
9.1596408e-07
9.1624346e-07
7.8521579e-07
7.8545763e-07
6.2540385e-07
6.2560932e-07
4.3814917e-07
4.3831272e-07
2.2862997e-07
2.2872912e-07
6.3915275e-06
2.7110731e-05
0.00013454785
0.0003052304
0.00046255989
0.00057357473
0.00064389535
0.00068752667
0.00071625304
0.00073721024
0.00075444755
0.00077100523
0.00078651288
0.00080073559
0.00081336532
0.00082385356
0.00083121666
0.00083378779
0.00082884701
0.00081210932
0.00077701639
0.00071387194
0.00060916349
0.00044579307
0.00020325459
2.6318449e-06
5.4783242e-05
0.00025119329
0.00051623574
0.00072829048
0.00085985683
0.00093579809
0.00098029611
0.0010087966
0.0010293373
0.0010461732
0.0010618537
0.0010762279
0.0010890331
0.0010998769
0.0011081361
0.0011126782
0.0011115863
0.0011016578
0.001077763
0.001031894
0.00095177805
0.00081913096
0.0006083871
0.0002881555
8.0096415e-06
0.00016004171
0.00061621254
0.001080022
0.0013629675
0.0015056466
0.0015730734
0.0016046281
0.0016202999
0.0016285484
0.0016337551
0.0016368293
0.0016389951
0.0016395989
0.0016381476
0.0016341685
0.0016266005
0.0016136427
0.0015918792
0.0015557041
0.0014960837
0.0013982928
0.0012376157
0.00097109672
0.00052302279
3.7751761e-05
0.00057958661
0.0016860031
0.0024368742
0.0027734307
0.002887132
0.0028963894
0.0028661277
0.0028260708
0.0027811949
0.0027365684
0.0026940826
0.0026542377
0.002613862
0.0025724114
0.0025302916
0.0024870004
0.002441107
0.0023898574
0.0023284707
0.0022490265
0.0021382291
0.0019717396
0.0016965908
0.0011557393
0.00028181376
0.0024457431
0.0049120645
0.006033203
0.0063796377
0.0063182703
0.0060892651
0.0058267925
0.0055771792
0.0053263011
0.0050860525
0.0048618864
0.0046585285
0.0044613908
0.0042701088
0.0040892777
0.0039197903
0.0037610662
0.0036112715
0.0034669102
0.0033223045
0.0031691885
0.0029965325
0.0027959705
0.002585877
0.0023576378
0.010507814
0.016549752
0.018503263
0.018046908
0.016493385
0.014681778
0.012996362
0.01151721
0.01024271
0.0091524577
0.0082239211
0.0074318621
0.0067526731
0.0061688149
0.0056669541
0.0052356819
0.0048646516
0.0045444478
0.0042662334
0.0040211551
0.003800228
0.003594843
0.0034042931
0.0032440407
0.044997684
0.034132646
0.026603353
0.021407475
0.017732553
0.015022546
0.01293807
0.011290335
0.0099679184
0.0088931666
0.0080075007
0.0072668978
0.0066386515
0.0060989096
0.0056303519
0.0052208207
0.0048617456
0.0045465664
0.0042697171
0.0040259129
0.0038095405
0.0036146036
0.0034353603
0.0032731541
0.0031431709
0.037212958
0.030939399
0.027739594
0.025113556
0.022243664
0.019272503
0.016558052
0.014263474
0.012385695
0.010847148
0.0095782569
0.0085224898
0.0076367314
0.0068913472
0.0062626334
0.0057311209
0.0052804521
0.0048968719
0.0045686109
0.0042851281
0.0040363433
0.0038124532
0.0036042869
0.0034110007
0.0032484941
0.010205736
0.0095349323
0.0091966218
0.0088782983
0.0084177204
0.0078544657
0.0072994931
0.0068032733
0.0063527382
0.0059548976
0.0056070822
0.0053028913
0.0050173473
0.0047535697
0.0045129881
0.0042947914
0.0040968286
0.0039161592
0.0037488871
0.0035899469
0.0034325868
0.0032678345
0.0030842051
0.0028731424
0.0026532674
0.0039639645
0.0038916869
0.00386982
0.0038295603
0.0037355866
0.0036010706
0.0034619412
0.003332959
0.003216776
0.0031155112
0.0030282083
0.002951732
0.0028805072
0.0028139568
0.0027518918
0.00269345
0.0026369352
0.0025797267
0.0025180233
0.0024463041
0.0023562396
0.0022344055
0.0020564485
0.0017686659
0.0012086338
0.0019241356
0.0019379877
0.0019635119
0.001978674
0.00197252
0.0019486717
0.0019181366
0.001887894
0.0018609784
0.0018387024
0.0018208462
0.0018061504
0.001792941
0.0017805393
0.0017685624
0.0017557704
0.0017402626
0.0017192249
0.0016885758
0.0016423324
0.0015714369
0.0014615077
0.0012883501
0.0010090426
0.00054615045
0.0010852889
0.0011039042
0.001127709
0.0011480289
0.0011603391
0.0011653882
0.0011667511
0.0011674173
0.0011691079
0.0011725631
0.0011777347
0.0011840388
0.0011906726
0.0011969359
0.0012020431
0.0012047547
0.0012032239
0.0011948021
0.0011757521
0.0011407845
0.0010823073
0.00098923896
0.00084527177
0.00062697938
0.00030347523
0.00067800103
0.00069254289
0.00071010104
0.00072687084
0.00074073832
0.0007516638
0.00076085852
0.00076961481
0.00077882106
0.00078889357
0.00079982439
0.00081129537
0.00082279996
0.00083371665
0.00084322289
0.00085013996
0.00085282081
0.000849011
0.00083567388
0.00080876144
0.00076293305
0.00069126789
0.00058508559
0.00043369608
0.00021940773
0.0004543098
0.00046492805
0.0004774956
0.00049024251
0.000502097
0.00051286023
0.00052293168
0.0005328595
0.00054307071
0.0005537714
0.00056493926
0.00057635223
0.00058762664
0.00059822696
0.00060741934
0.00061419527
0.00061719844
0.00061465102
0.00060428483
0.00058330286
0.00054844699
0.00049638137
0.00042496467
0.00033702855
0.00024549507
0.00031980114
0.00032755446
0.00033662872
0.00034616418
0.00035559097
0.00036472649
0.00037367853
0.00038266299
0.00039186717
0.00040137356
0.00041113207
0.00042095868
0.00043053886
0.00043941966
0.00044698128
0.00045239683
0.00045459489
0.0004522329
0.00044369743
0.00042716921
0.000400838
0.00036346349
0.00031571868
0.00026319214
0.00022182003
0.00023306977
0.00023879291
0.00024543985
0.00025257599
0.00025988889
0.00026723904
0.00027463208
0.00028213979
0.00028982752
0.00029770625
0.00030570608
0.00031366303
0.00032131227
0.0003282764
0.0003340467
0.00033796354
0.00033920138
0.00033676844
0.00032953607
0.0003163253
0.0002961032
0.00026838637
0.00023402708
0.00019661543
0.00016015479
0.00017386488
0.0001781273
0.00018305102
0.00018840752
0.0001940187
0.00019978573
0.00020568106
0.00021171344
0.00021788943
0.00022418288
0.00023051469
0.0002367392
0.00024263332
0.00024788671
0.00025209056
0.00025472807
0.00025517105
0.00025268947
0.00024648159
0.00023573539
0.00021972975
0.00019795894
0.0001701418
0.00013542624
8.6939577e-05
0.00013150061
0.00013468686
0.00013835368
0.00014237575
0.00014664786
0.00015110103
0.00015570036
0.00016042885
0.00016526675
0.00017017187
0.0001750656
0.00017982075
0.00018425235
0.00018810961
0.00019106908
0.00019273043
0.00019261786
0.00019018976
0.00018485916
0.00017602397
0.00016309471
0.00014547454
0.00012235426
9.1958205e-05
4.9567432e-05
0.00010002917
0.0001024056
0.00010513386
0.00010814209
0.00011136569
0.00011475615
0.00011828071
0.00012191394
0.00012562659
0.00012937288
0.00013308082
0.00013664276
0.00013990829
0.00014267816
0.00014470007
0.00014566689
0.00014521892
0.0001429509
0.00013842349
0.00013117487
0.0001207205
0.00010651436
8.7822716e-05
6.3463251e-05
3.1613332e-05
7.6003263e-05
7.7761864e-05
7.9777468e-05
8.2007264e-05
8.4410184e-05
8.6951849e-05
8.9604444e-05
9.2342079e-05
9.5134475e-05
9.7939061e-05
0.00010069375
0.00010331047
0.00010566973
0.00010761621
0.00010895604
0.00010945597
0.0001088453
0.00010682045
0.00010305141
9.7187033e-05
8.8853966e-05
7.764297e-05
6.30839e-05
4.4652694e-05
2.1930514e-05
5.7353164e-05
5.8637118e-05
6.0107141e-05
6.1736551e-05
6.3498545e-05
6.5368658e-05
6.7324602e-05
6.9343451e-05
7.1398062e-05
7.3451919e-05
7.5454221e-05
7.7335362e-05
7.9002798e-05
8.033807e-05
8.1194837e-05
8.1398475e-05
8.0747333e-05
7.9015929e-05
7.5959402e-05
7.1318606e-05
6.4825813e-05
5.6215129e-05
4.5251455e-05
3.1808041e-05
1.5968678e-05
4.2785796e-05
4.3705816e-05
4.4758109e-05
4.5925821e-05
4.7190946e-05
4.8536087e-05
4.9944058e-05
5.1396178e-05
5.2870018e-05
5.4336177e-05
5.5754913e-05
5.707301e-05
5.8220889e-05
5.9110439e-05
5.9633635e-05
5.9662117e-05
5.9048206e-05
5.7627185e-05
5.522118e-05
5.1645174e-05
4.6717369e-05
4.0279651e-05
3.2237414e-05
2.2619287e-05
1.1577176e-05
3.1447616e-05
3.2091368e-05
3.2827003e-05
3.3643514e-05
3.4528866e-05
3.5470671e-05
3.6456098e-05
3.7470755e-05
3.8497204e-05
3.9512958e-05
4.0488209e-05
4.1383706e-05
4.2148763e-05
4.2719673e-05
4.301869e-05
4.2953718e-05
4.2418963e-05
4.1296754e-05
3.9460999e-05
3.6783314e-05
3.3144141e-05
2.8452873e-05
2.2680159e-05
1.5893152e-05
8.2446559e-06
2.2728601e-05
2.3166666e-05
2.3666698e-05
2.4221455e-05
2.4822814e-05
2.5462158e-05
2.613016e-05
2.6816206e-05
2.7507375e-05
2.8187235e-05
2.8834314e-05
2.9420693e-05
2.9910642e-05
3.0259511e-05
3.0412935e-05
3.0306593e-05
2.9866638e-05
2.9011104e-05
2.7652814e-05
2.5704695e-05
2.3089216e-05
1.9754054e-05
1.5693748e-05
1.0965998e-05
5.667773e-06
1.6149334e-05
1.643841e-05
1.6767889e-05
1.7132986e-05
1.7528288e-05
1.7947847e-05
1.8385121e-05
1.8832564e-05
1.9280996e-05
1.9718865e-05
2.0131283e-05
2.049908e-05
2.0797885e-05
2.0997356e-05
2.1060601e-05
2.0943952e-05
2.0597248e-05
1.9964861e-05
1.8987943e-05
1.760854e-05
1.5776596e-05
1.3460868e-05
1.0662731e-05
7.4243288e-06
3.8074885e-06
1.1301378e-05
1.148611e-05
1.1696259e-05
1.1928685e-05
1.21798e-05
1.2445593e-05
1.2721573e-05
1.3002555e-05
1.3282267e-05
1.3552853e-05
1.3804327e-05
1.4023936e-05
1.4195557e-05
1.4299157e-05
1.431038e-05
1.4200363e-05
1.3935894e-05
1.3480115e-05
1.2794149e-05
1.1840029e-05
1.0585516e-05
9.0112533e-06
7.119472e-06
4.9393824e-06
2.5162565e-06
7.8229443e-06
7.9372926e-06
8.067097e-06
8.2102968e-06
8.3645366e-06
8.52716e-06
8.6951617e-06
8.8650679e-06
9.0327049e-06
9.1929038e-06
9.3391381e-06
9.4631287e-06
9.5544643e-06
9.6002121e-06
9.5846436e-06
9.4890933e-06
9.2920272e-06
8.9694776e-06
8.4961717e-06
7.8475386e-06
7.0028849e-06
5.9499529e-06
4.6904484e-06
3.2441833e-06
1.6509793e-06
5.3956295e-06
5.4643082e-06
5.5420751e-06
5.6276037e-06
5.7193714e-06
5.815656e-06
5.9144887e-06
6.013597e-06
6.1102672e-06
6.2011593e-06
6.2820892e-06
6.3477768e-06
6.3915695e-06
6.4051886e-06
6.3785479e-06
6.2997231e-06
6.1549547e-06
5.9288225e-06
5.6050123e-06
5.1677081e-06
4.6036549e-06
3.9050535e-06
3.0731368e-06
2.1215084e-06
1.0790273e-06
3.7508542e-06
3.791035e-06
3.8363811e-06
3.8860585e-06
3.9390886e-06
3.9943712e-06
4.0506424e-06
4.106437e-06
4.1600134e-06
4.2092412e-06
4.2514654e-06
4.2833495e-06
4.3006981e-06
4.2982699e-06
4.2695726e-06
4.2067459e-06
4.1008214e-06
3.9419545e-06
3.719579e-06
3.4234608e-06
3.0450612e-06
2.5793928e-06
2.027313e-06
1.3978182e-06
7.1298728e-07
2.6695804e-06
2.69269e-06
2.7186617e-06
2.7469657e-06
2.7769842e-06
2.8080082e-06
2.8392285e-06
2.8696993e-06
2.8982939e-06
2.9236382e-06
2.9440237e-06
2.9573057e-06
2.9607928e-06
2.9511194e-06
2.9240855e-06
2.8745153e-06
2.7962628e-06
2.6827197e-06
2.5269125e-06
2.3220771e-06
2.0625893e-06
1.7451897e-06
1.3704584e-06
9.4423445e-07
4.8104222e-07
1.9800712e-06
1.9933396e-06
2.0081831e-06
2.0242644e-06
2.0411882e-06
2.0584962e-06
2.0756572e-06
2.0920469e-06
2.1069144e-06
2.1193378e-06
2.1281658e-06
2.1319454e-06
2.1288449e-06
2.1165657e-06
2.0922572e-06
2.0524409e-06
1.9928722e-06
1.9087446e-06
1.7951851e-06
1.6474945e-06
1.461783e-06
1.2358117e-06
9.6995168e-07
6.6799549e-07
3.4006339e-07
1.5548961e-06
1.5626838e-06
1.5713576e-06
1.5806987e-06
1.5904473e-06
1.6002979e-06
1.6098891e-06
1.6187875e-06
1.6264648e-06
1.6322627e-06
1.6353493e-06
1.6346664e-06
1.6288701e-06
1.6162647e-06
1.5947392e-06
1.5617174e-06
1.5141289e-06
1.4483451e-06
1.3606591e-06
1.2475431e-06
1.1060974e-06
9.346705e-07
7.3354856e-07
5.0544689e-07
2.5750882e-07
1.3034699e-06
1.3083002e-06
1.3136624e-06
1.3194087e-06
1.3253604e-06
1.3313018e-06
1.3369712e-06
1.3420472e-06
1.3461271e-06
1.3487005e-06
1.3491127e-06
1.3465213e-06
1.3398488e-06
1.327728e-06
1.3084521e-06
1.2799352e-06
1.239706e-06
1.1848734e-06
1.1123905e-06
1.0193719e-06
9.0345753e-07
7.633147e-07
5.9918057e-07
4.1314468e-07
2.1037719e-07
1.1634577e-06
1.1667314e-06
1.1703607e-06
1.1742396e-06
1.1782365e-06
1.1821875e-06
1.1858876e-06
1.1890774e-06
1.191424e-06
1.1924959e-06
1.1917317e-06
1.188402e-06
1.1815663e-06
1.1700275e-06
1.1522884e-06
1.1265186e-06
1.0905497e-06
1.0418869e-06
9.7785042e-07
8.9589227e-07
7.9393092e-07
6.707985e-07
5.2672436e-07
3.6355681e-07
1.8561299e-07
1.0931771e-06
1.0956383e-06
1.0983683e-06
1.1012851e-06
1.1042836e-06
1.1072292e-06
1.109948e-06
1.112214e-06
1.1137303e-06
1.1141057e-06
1.1128246e-06
1.1092117e-06
1.1023921e-06
1.0912489e-06
1.0743838e-06
1.050088e-06
1.0163378e-06
9.7082822e-07
9.1106689e-07
8.3466831e-07
7.3967975e-07
6.2500823e-07
4.9088739e-07
3.3910815e-07
1.7445249e-07
1.0654564e-06
1.0674818e-06
1.0697312e-06
1.072136e-06
1.0746059e-06
1.0770221e-06
1.0792274e-06
1.0810127e-06
1.0820987e-06
1.0821125e-06
1.0805585e-06
1.0767835e-06
1.0699384e-06
1.0589372e-06
1.0424197e-06
1.0187244e-06
9.8588448e-07
9.4167077e-07
8.8367221e-07
8.0956684e-07
7.1744754e-07
6.0624788e-07
4.7621994e-07
3.2916858e-07
1.6965931e-07
1.0629719e-06
1.0647422e-06
1.0667098e-06
1.0688133e-06
1.0709705e-06
1.0730711e-06
1.0749662e-06
1.0764548e-06
1.0772652e-06
1.0770311e-06
1.075263e-06
1.0713127e-06
1.0643357e-06
1.0532506e-06
1.0367022e-06
1.0130364e-06
9.8029575e-07
9.3626589e-07
8.785573e-07
8.0485748e-07
7.1326051e-07
6.0270066e-07
4.7345463e-07
3.274077e-07
1.6907305e-07
1.0748739e-06
1.076471e-06
1.0782453e-06
1.0801396e-06
1.082076e-06
1.0839484e-06
1.0856121e-06
1.0868695e-06
1.0874508e-06
1.0869907e-06
1.084998e-06
1.0808214e-06
1.0736096e-06
1.0622722e-06
1.0454422e-06
1.0214512e-06
9.883267e-07
9.4383845e-07
8.8558581e-07
8.1123777e-07
7.188675e-07
6.0739774e-07
4.77129e-07
3.3003533e-07
1.7066929e-07
1.0944369e-06
1.0958963e-06
1.0975147e-06
1.0992374e-06
1.100989e-06
1.1026655e-06
1.1041241e-06
1.1051676e-06
1.1055262e-06
1.1048319e-06
1.1025888e-06
1.0981372e-06
1.0906146e-06
1.0789144e-06
1.0616494e-06
1.0371271e-06
1.0033472e-06
9.5804955e-07
8.9880596e-07
8.2325344e-07
7.2943343e-07
6.1625061e-07
4.8403376e-07
3.3488992e-07
1.7416411e-07
1.1174722e-06
1.118809e-06
1.1202875e-06
1.1218542e-06
1.123435e-06
1.1249272e-06
1.1261883e-06
1.1270209e-06
1.1271531e-06
1.126213e-06
1.1236982e-06
1.1189392e-06
1.1110592e-06
1.098933e-06
1.0811497e-06
1.0559883e-06
1.0214162e-06
9.7513786e-07
9.1469095e-07
8.3767583e-07
7.4209809e-07
6.2683821e-07
4.9223687e-07
3.4050528e-07
1.7740974e-07
1.1412787e-06
1.1425011e-06
1.1438479e-06
1.1452666e-06
1.1466839e-06
1.1479978e-06
1.1490654e-06
1.1496884e-06
1.1495922e-06
1.1484006e-06
1.1456037e-06
1.1405214e-06
1.1322624e-06
1.1196821e-06
1.1013456e-06
1.0755026e-06
1.0400879e-06
9.9277046e-07
9.3105388e-07
8.5250339e-07
7.5509134e-07
6.3767642e-07
5.0061358e-07
3.4620408e-07
1.8039883e-07
1.1639602e-06
1.1650741e-06
1.1662957e-06
1.1675731e-06
1.1688336e-06
1.1699752e-06
1.1708547e-06
1.1712724e-06
1.1709508e-06
1.169509e-06
1.1664297e-06
1.1610226e-06
1.152382e-06
1.139345e-06
1.1204537e-06
1.093931e-06
1.0576816e-06
1.0093427e-06
9.4638824e-07
8.6635497e-07
7.6719087e-07
6.477435e-07
5.0839333e-07
3.5153673e-07
1.8323925e-07
1.183981e-06
1.1849923e-06
1.1860953e-06
1.1872387e-06
1.1883499e-06
1.1893271e-06
1.1900264e-06
1.1902465e-06
1.1897072e-06
1.1880227e-06
1.1846692e-06
1.1789466e-06
1.1699363e-06
1.156459e-06
1.1370369e-06
1.1098699e-06
1.0728379e-06
1.0235533e-06
9.5946828e-07
8.7810158e-07
7.7738909e-07
6.5617836e-07
5.148668e-07
3.5585192e-07
1.8515441e-07
1.1998729e-06
1.200788e-06
1.2017796e-06
1.2027969e-06
1.2037677e-06
1.2045897e-06
1.2051188e-06
1.2051519e-06
1.2044062e-06
1.2024919e-06
1.198879e-06
1.1928591e-06
1.1835031e-06
1.1696184e-06
1.1497116e-06
1.1219657e-06
1.0842438e-06
1.0341428e-06
9.6910512e-07
8.8664503e-07
7.8470144e-07
6.6213696e-07
5.1937673e-07
3.5882716e-07
1.8649919e-07
1.2100362e-06
1.2108615e-06
1.2117494e-06
1.2126492e-06
1.2134889e-06
1.2141664e-06
1.2145367e-06
1.2143956e-06
1.2134581e-06
1.2113311e-06
1.2074798e-06
1.2011898e-06
1.1915243e-06
1.1772819e-06
1.15696e-06
1.1287329e-06
1.0904577e-06
1.0397289e-06
9.7399429e-07
8.9078125e-07
7.880491e-07
6.6469089e-07
5.2117571e-07
3.599611e-07
1.8707225e-07
1.2126006e-06
1.2133427e-06
1.2141344e-06
1.2149254e-06
1.215644e-06
1.2161881e-06
1.2164123e-06
1.2161118e-06
1.2150002e-06
1.2126822e-06
1.2086206e-06
1.2020976e-06
1.1921733e-06
1.1776436e-06
1.157005e-06
1.128434e-06
1.089796e-06
1.0386999e-06
9.7261863e-07
8.8911495e-07
7.8618962e-07
6.6278312e-07
5.1942338e-07
3.5865785e-07
1.8577672e-07
1.2053296e-06
1.2059947e-06
1.2066977e-06
1.2073886e-06
1.2079961e-06
1.2084185e-06
1.2085106e-06
1.2080677e-06
1.2068033e-06
1.2043222e-06
1.2000872e-06
1.1933818e-06
1.1832686e-06
1.1685491e-06
1.1477296e-06
1.1190031e-06
1.0802616e-06
1.0291499e-06
9.6319106e-07
8.8001058e-07
7.7767658e-07
6.551969e-07
5.1316356e-07
3.5422356e-07
1.8396442e-07
1.1855677e-06
1.1861618e-06
1.186783e-06
1.1873822e-06
1.1878889e-06
1.188202e-06
1.1881776e-06
1.1876124e-06
1.1862217e-06
1.1836132e-06
1.1792542e-06
1.1724349e-06
1.1622285e-06
1.1474525e-06
1.1266374e-06
1.0980115e-06
1.0595144e-06
1.0088541e-06
9.4363576e-07
8.6157894e-07
7.6085039e-07
6.4055039e-07
5.0133884e-07
3.4586978e-07
1.7960868e-07
1.150244e-06
1.1507721e-06
1.1513182e-06
1.1518339e-06
1.15225e-06
1.1524673e-06
1.1523442e-06
1.1516808e-06
1.1501973e-06
1.1475082e-06
1.143091e-06
1.1362503e-06
1.1260804e-06
1.111429e-06
1.0908684e-06
1.0626843e-06
1.0248911e-06
9.7529436e-07
9.1161641e-07
8.3170697e-07
7.3386505e-07
6.1730531e-07
4.827511e-07
3.3284362e-07
1.7303167e-07
1.0959535e-06
1.0964203e-06
1.096897e-06
1.097337e-06
1.0976733e-06
1.0978095e-06
1.0976086e-06
1.0968764e-06
1.0953424e-06
1.0926334e-06
1.0882445e-06
1.0815055e-06
1.0715452e-06
1.0572589e-06
1.0372833e-06
1.0099884e-06
9.7349782e-07
9.2575121e-07
8.6462762e-07
7.8814693e-07
6.9477497e-07
5.8385997e-07
4.561747e-07
3.1424992e-07
1.6253455e-07
1.0191591e-06
1.0195682e-06
1.0199807e-06
1.0203526e-06
1.0206202e-06
1.020692e-06
1.0204373e-06
1.0196722e-06
1.0181404e-06
1.0154888e-06
1.0112401e-06
1.0047623e-06
9.9523624e-07
9.816268e-07
9.6266231e-07
9.368303e-07
9.0240061e-07
8.5748827e-07
8.0017144e-07
7.2868127e-07
6.4168294e-07
5.3867013e-07
4.2043488e-07
2.89301e-07
1.4929915e-07
9.1657069e-07
9.1692454e-07
9.1727651e-07
9.1758657e-07
9.1779692e-07
9.1782223e-07
9.1754066e-07
9.1678281e-07
9.1531577e-07
9.1281575e-07
9.0884514e-07
9.0282699e-07
8.9401511e-07
8.8147037e-07
8.6404592e-07
8.4038443e-07
8.0894355e-07
7.680567e-07
7.1604333e-07
6.5138428e-07
5.7297167e-07
4.8045128e-07
3.7461605e-07
2.5756384e-07
1.3282142e-07
7.857391e-07
7.8603783e-07
7.863288e-07
7.8657927e-07
7.8674121e-07
7.8673662e-07
7.8645242e-07
7.8573917e-07
7.8440311e-07
7.8216082e-07
7.7862714e-07
7.7330064e-07
7.6553153e-07
7.5450716e-07
7.392459e-07
7.1858752e-07
6.9122143e-07
6.5574136e-07
6.1074444e-07
5.5499261e-07
4.8762396e-07
4.0843401e-07
3.1819155e-07
2.1874611e-07
1.1301327e-07
6.2584473e-07
6.2608318e-07
6.2630452e-07
6.2648823e-07
6.2660221e-07
6.2657554e-07
6.26298e-07
6.2564547e-07
6.2449736e-07
6.2262445e-07
6.196967e-07
6.1531657e-07
6.0894812e-07
5.9993965e-07
5.8752649e-07
5.7078935e-07
5.4869277e-07
5.2012744e-07
4.8399392e-07
4.3935541e-07
3.8560311e-07
3.2266438e-07
2.5123291e-07
1.7289796e-07
9.0009807e-08
4.3849401e-07
4.386601e-07
4.3879665e-07
4.389096e-07
4.3895917e-07
4.3890476e-07
4.3862348e-07
4.380216e-07
4.3711373e-07
4.3578545e-07
4.3364912e-07
4.3053485e-07
4.2593148e-07
4.1943047e-07
4.1054892e-07
3.986474e-07
3.8300736e-07
3.6284565e-07
3.3738459e-07
3.0599765e-07
2.6832288e-07
2.2438244e-07
1.7468662e-07
1.2045167e-07
6.3341017e-08
2.2883432e-07
2.2891735e-07
2.2898183e-07
2.2992601e-07
2.2899939e-07
2.2892404e-07
2.2867866e-07
2.2820534e-07
2.2769913e-07
2.2755285e-07
2.2651115e-07
2.2546807e-07
2.2302253e-07
2.1948494e-07
2.1471492e-07
2.0837474e-07
2.0012062e-07
1.8951633e-07
1.7613334e-07
1.5965556e-07
1.3993781e-07
1.1703769e-07
9.1179433e-08
6.3153777e-08
3.4338405e-08
)
;

boundaryField
{
    Walls
    {
        type            kqRWallFunction;
        value           nonuniform List<scalar> 
38
(
6.3915275e-06
2.6318449e-06
8.0096415e-06
3.7751761e-05
0.00028181376
0.0023576378
0.056275541
0.060940625
0.018319499
0.027401526
0.034467329
0.04143794
0.047386523
0.051459707
0.055902818
0.05966786
0.061579038
0.064031641
0.066222734
0.067102156
0.068450041
0.069721714
0.069901601
0.070758556
0.071413995
0.071448935
0.072127869
0.072121515
0.072747252
0.073569847
0.073266686
0.072989482
0.072814589
0.072724585
0.072635191
0.072216497
0.07159843
0.06664387
)
;
    }
    Inlet
    {
        type            turbulentIntensityKineticEnergyInlet;
        intensity       0.05;
        value           nonuniform List<scalar> 3(0.0085001685 0.0080268093 0.0095639633);
    }
    Outlet
    {
        type            inletOutlet;
        inletValue      uniform 0;
        value           nonuniform List<scalar> 
86
(
0
0
0
0
0
0
0
0
0
0
0
0
0
0
0
0
0
0
0
0
0
0
0
0
0
0
0
0
0
0
0.0031431709
0.0032484941
0.0026532674
0
0
0
0
0
0.00022182003
0.00016015479
0
0
0
0
1.5968678e-05
1.1577176e-05
8.2446559e-06
5.667773e-06
3.8074885e-06
2.5162565e-06
1.6509793e-06
1.0790273e-06
7.1298728e-07
4.8104222e-07
3.4006339e-07
2.5750882e-07
2.1037719e-07
1.8561299e-07
1.7445249e-07
1.6965931e-07
1.6907305e-07
1.7066929e-07
1.7416411e-07
1.7740974e-07
1.8039883e-07
1.8323925e-07
1.8515441e-07
1.8649919e-07
1.8707225e-07
0
0
0
0
0
0
0
0
0
0
3.4338405e-08
0
0
0
0
0.002585877
0.0032440407
)
;
    }
    Front
    {
        type            wedge;
    }
    Back
    {
        type            wedge;
    }
    defaultFaces
    {
        type            empty;
    }
}


// ************************************************************************* //
