/*--------------------------------*- C++ -*----------------------------------*\
| =========                 |                                                 |
| \\      /  F ield         | OpenFOAM: The Open Source CFD Toolbox           |
|  \\    /   O peration     | Version:  4.0                                   |
|   \\  /    A nd           | Web:      www.OpenFOAM.org                      |
|    \\/     M anipulation  |                                                 |
\*---------------------------------------------------------------------------*/
FoamFile
{
    version     2.0;
    format      ascii;
    class       volScalarField;
    location    "0.61";
    object      nut;
}
// * * * * * * * * * * * * * * * * * * * * * * * * * * * * * * * * * * * * * //

dimensions      [0 2 -1 0 0 0 0];

internalField   nonuniform List<scalar> 
1740
(
2.9459737e-05
1.2982816e-05
1.2278915e-06
1.9017633e-05
6.6462663e-06
1.8230409e-06
3.4314344e-05
5.2274522e-06
2.2801055e-06
2.1371407e-05
4.7313884e-06
2.7261752e-06
2.0163892e-05
4.3505658e-06
3.1028468e-06
1.6638344e-05
4.0604973e-06
3.3588869e-06
1.410741e-05
3.8590719e-06
3.6366403e-06
1.1383579e-05
3.7278262e-06
3.8701552e-06
1.0705573e-05
3.6400438e-06
3.9881612e-06
9.669585e-06
3.5678199e-06
4.1390292e-06
8.7514438e-06
3.5257929e-06
4.2732801e-06
7.9889791e-06
3.5016956e-06
4.3275908e-06
7.4226903e-06
3.4802396e-06
4.4098058e-06
6.9628609e-06
3.480829e-06
4.4876395e-06
6.5570727e-06
3.4861647e-06
4.4986208e-06
6.2002886e-06
3.4779339e-06
4.5509117e-06
5.9154714e-06
3.4824801e-06
4.5913042e-06
5.6763018e-06
3.4997251e-06
4.5927845e-06
5.4451738e-06
3.477166e-06
4.6336566e-06
5.2347125e-06
3.4826219e-06
4.6336575e-06
5.0493785e-06
3.5003454e-06
4.6711892e-06
4.8492064e-06
3.5156048e-06
4.7218999e-06
4.7098377e-06
3.5527323e-06
4.7039026e-06
4.6076058e-06
3.5685517e-06
4.686016e-06
4.5062442e-06
3.5458029e-06
4.6748612e-06
4.4072356e-06
3.5463424e-06
4.6698895e-06
4.3043152e-06
3.5500573e-06
4.6648882e-06
4.2126486e-06
3.5748144e-06
4.6394701e-06
4.1660394e-06
3.5688235e-06
4.6026417e-06
2.8770309e-06
3.6244499e-06
4.2999984e-06
1.9234362e-06
2.1976574e-06
4.4150085e-06
7.1737309e-06
7.3577678e-06
6.7163766e-06
6.5273151e-06
6.7318429e-06
6.3658586e-06
5.1816504e-06
5.1204541e-06
4.8727267e-06
4.338882e-06
4.2677062e-06
4.133291e-06
3.7977167e-06
3.7553892e-06
3.696398e-06
3.4369594e-06
3.419957e-06
3.4058643e-06
3.1812589e-06
3.1799264e-06
3.1901966e-06
2.9822993e-06
2.9891693e-06
3.0111605e-06
2.8068499e-06
2.81727e-06
2.843599e-06
2.6312789e-06
2.6426139e-06
2.6691683e-06
2.4394763e-06
2.4503343e-06
2.4749582e-06
2.2223016e-06
2.2320095e-06
2.2536814e-06
1.9775936e-06
1.9858758e-06
2.0042173e-06
1.7101219e-06
1.716918e-06
1.7319053e-06
1.4308611e-06
1.4362306e-06
1.4480465e-06
1.1550159e-06
1.1590918e-06
1.1680515e-06
8.9871282e-07
9.0167608e-07
9.0818676e-07
6.7519431e-07
6.7725323e-07
6.8177627e-07
4.9201555e-07
4.9338223e-07
4.9638562e-07
3.5036554e-07
3.512332e-07
3.5314321e-07
2.4645521e-07
2.4698525e-07
2.4815535e-07
1.7392583e-07
1.7424441e-07
1.7494507e-07
1.2538849e-07
1.2557684e-07
1.2598984e-07
9.4052966e-08
9.4164054e-08
9.4407344e-08
7.4582401e-08
7.4649393e-08
7.4796108e-08
6.3047146e-08
6.3089725e-08
6.3183121e-08
5.6677046e-08
5.670635e-08
5.6770895e-08
5.3585989e-08
5.3608045e-08
5.3656989e-08
5.252554e-08
5.2543487e-08
5.2583711e-08
5.2687918e-08
5.270336e-08
5.2738315e-08
5.3559958e-08
5.357372e-08
5.36051e-08
5.482082e-08
5.4833331e-08
5.4861966e-08
5.6273007e-08
5.6284498e-08
5.6310809e-08
5.7796826e-08
5.7807429e-08
5.7831656e-08
5.9320718e-08
5.9330515e-08
5.9352829e-08
6.0802222e-08
6.0811278e-08
6.0831831e-08
6.2216078e-08
6.2224453e-08
6.2243391e-08
6.3547053e-08
6.3554806e-08
6.3572279e-08
6.4785868e-08
6.4793059e-08
6.4809221e-08
6.5927153e-08
6.5933846e-08
6.594885e-08
6.6968925e-08
6.6975192e-08
6.6989201e-08
6.7913299e-08
6.7919247e-08
6.793245e-08
6.874751e-08
6.8753193e-08
6.8765708e-08
6.9451133e-08
6.9456556e-08
6.9468463e-08
7.0018045e-08
7.0023241e-08
7.0034639e-08
7.0437289e-08
7.0442299e-08
7.0453284e-08
7.0687335e-08
7.0692197e-08
7.0702858e-08
7.0721089e-08
7.0725834e-08
7.0736241e-08
7.0393623e-08
7.0398259e-08
7.0408433e-08
4.1744159e-06
4.5021652e-06
6.7474628e-06
8.4637429e-06
5.9861087e-06
6.0310148e-06
4.725017e-06
4.8304089e-06
4.0855888e-06
4.194054e-06
3.6999083e-06
3.8022332e-06
3.4360596e-06
3.5305041e-06
3.2331327e-06
3.3195521e-06
3.0585207e-06
3.1368373e-06
2.8904699e-06
2.9605527e-06
2.7127637e-06
2.774523e-06
2.5138353e-06
2.567319e-06
2.2872276e-06
2.332649e-06
2.0323156e-06
2.07004e-06
1.75474e-06
1.7852648e-06
1.4659978e-06
1.4899418e-06
1.1816434e-06
1.1997526e-06
9.1805594e-07
9.3119746e-07
6.8862985e-07
6.977531e-07
5.0093651e-07
5.0699328e-07
3.5603933e-07
3.598936e-07
2.4993095e-07
2.5229312e-07
1.7600558e-07
1.7741357e-07
1.2661352e-07
1.2743994e-07
9.4774296e-08
9.5259926e-08
7.5017386e-08
7.5310202e-08
6.3324212e-08
6.3511238e-08
5.6868793e-08
5.6999077e-08
5.3731703e-08
5.3831706e-08
5.264559e-08
5.2728925e-08
5.2792472e-08
5.2865786e-08
5.3653959e-08
5.3720323e-08
5.4906653e-08
5.4967432e-08
5.6351868e-08
5.6407699e-08
5.7869403e-08
5.7920663e-08
5.9387511e-08
5.9434516e-08
6.0863683e-08
6.0906761e-08
6.2272659e-08
6.2312157e-08
6.3599216e-08
6.3635496e-08
6.4834079e-08
6.48675e-08
6.597188e-08
6.6002792e-08
6.701065e-08
6.7039388e-08
6.7952571e-08
6.7979452e-08
6.8784684e-08
6.8809955e-08
6.9486472e-08
6.9510408e-08
7.0051854e-08
7.0074708e-08
7.0469867e-08
7.0491867e-08
7.0718953e-08
7.07403e-08
7.0751962e-08
7.0772813e-08
7.0423815e-08
7.0444219e-08
5.3005635e-10
1.3264582e-08
1.9313411e-07
8.2691459e-07
1.6443712e-06
2.2310951e-06
2.5760567e-06
2.7843923e-06
2.9284382e-06
3.0437971e-06
3.147616e-06
3.2538899e-06
3.3593947e-06
3.4630446e-06
3.5640569e-06
3.6610839e-06
3.7516716e-06
3.831681e-06
3.8944076e-06
3.9292575e-06
3.919604e-06
3.839192e-06
3.6455085e-06
3.2617383e-06
2.4516858e-06
2.1826304e-10
2.6887981e-08
3.6002601e-07
1.3778193e-06
2.571337e-06
3.3799078e-06
3.8530762e-06
4.1597453e-06
4.3944083e-06
4.5998144e-06
4.7965515e-06
4.997162e-06
5.1993213e-06
5.4020263e-06
5.6036259e-06
5.8013774e-06
5.990529e-06
6.1632914e-06
6.3069374e-06
6.4011412e-06
6.4135289e-06
6.2917035e-06
5.9478592e-06
5.2210826e-06
3.6825918e-06
6.6424964e-10
7.882012e-08
8.5755492e-07
2.5076959e-06
3.7931352e-06
4.529655e-06
4.9933294e-06
5.3390673e-06
5.6394372e-06
5.9268182e-06
6.2165287e-06
6.5153265e-06
6.8217325e-06
7.1345977e-06
7.4524998e-06
7.7723698e-06
8.0879684e-06
8.3893005e-06
8.6586812e-06
8.8673338e-06
8.9685422e-06
8.8846087e-06
8.4800046e-06
7.4961643e-06
5.2895711e-06
3.1307105e-09
2.8527399e-07
2.0622844e-06
4.0027964e-06
5.0432744e-06
5.6308977e-06
6.0376396e-06
6.3802159e-06
6.7087909e-06
7.0419692e-06
7.3905846e-06
7.7577206e-06
8.1398939e-06
8.5358221e-06
8.9453651e-06
9.3671584e-06
9.796219e-06
1.0222996e-05
1.063079e-05
1.0991631e-05
1.1259191e-05
1.1354889e-05
1.1134876e-05
1.0289931e-05
7.8904708e-06
2.3364666e-08
1.1369834e-06
3.9861808e-06
5.5954654e-06
6.4475578e-06
6.9688013e-06
7.3524184e-06
7.6987631e-06
8.0481524e-06
8.4026255e-06
8.7757992e-06
9.1742168e-06
9.588015e-06
1.0012393e-05
1.0450227e-05
1.0906106e-05
1.1379327e-05
1.1865266e-05
1.235396e-05
1.2827125e-05
1.3253539e-05
1.3582871e-05
1.3738315e-05
1.3623984e-05
1.3211637e-05
1.9505189e-07
2.750239e-06
5.8924715e-06
7.6974717e-06
8.6140168e-06
9.0331293e-06
9.231119e-06
9.369171e-06
9.5086822e-06
9.6678582e-06
9.8547649e-06
1.0075727e-05
1.0331392e-05
1.0622137e-05
1.0949314e-05
1.1314028e-05
1.1716431e-05
1.2154511e-05
1.2623186e-05
1.3112572e-05
1.3604917e-05
1.4071256e-05
1.4468301e-05
1.4747263e-05
1.4850717e-05
4.3443031e-06
4.3197722e-06
4.3623072e-06
4.4700614e-06
4.6435847e-06
4.873046e-06
5.1482206e-06
5.465571e-06
5.8260434e-06
6.2304969e-06
6.6779039e-06
7.164953e-06
7.6858181e-06
8.2334849e-06
8.8015058e-06
9.3854603e-06
9.9830668e-06
1.0592937e-05
1.1213015e-05
1.1838571e-05
1.2459231e-05
1.3055825e-05
1.3597569e-05
1.4047582e-05
1.4338197e-05
9.1075906e-06
9.3620405e-06
9.7582535e-06
1.0178152e-05
1.035677e-05
1.0322946e-05
1.0207985e-05
1.0112653e-05
1.0076914e-05
1.0102624e-05
1.0185618e-05
1.0321337e-05
1.0507997e-05
1.0745499e-05
1.1033871e-05
1.1372644e-05
1.1759888e-05
1.2191613e-05
1.2660697e-05
1.3154844e-05
1.3653429e-05
1.4124318e-05
1.4521069e-05
1.4793513e-05
1.4887834e-05
6.4057971e-06
6.8153004e-06
7.2469719e-06
7.6480217e-06
7.951087e-06
8.1692069e-06
8.3624483e-06
8.5700636e-06
8.8010019e-06
9.0698394e-06
9.3731132e-06
9.7021116e-06
1.0051881e-05
1.0428823e-05
1.0836822e-05
1.1276444e-05
1.17447e-05
1.2234288e-05
1.2731658e-05
1.3213971e-05
1.3644549e-05
1.3966994e-05
1.4098741e-05
1.3940958e-05
1.3472766e-05
5.1438907e-06
5.500763e-06
5.8516784e-06
6.1689937e-06
6.4358254e-06
6.6648144e-06
6.8861833e-06
7.1203439e-06
7.3784483e-06
7.6671107e-06
7.9842969e-06
8.3273522e-06
8.6961436e-06
9.0917982e-06
9.5138514e-06
9.958603e-06
1.0417876e-05
1.0877327e-05
1.1313828e-05
1.1691321e-05
1.1953882e-05
1.2012527e-05
1.1713443e-05
1.0737044e-05
8.128001e-06
4.4373459e-06
4.7281006e-06
5.0196495e-06
5.291655e-06
5.5383942e-06
5.768058e-06
5.9951365e-06
6.2324196e-06
6.4884354e-06
6.7673352e-06
7.0688016e-06
7.3916229e-06
7.7354583e-06
8.0992605e-06
8.4801156e-06
8.87102e-06
9.2597981e-06
9.6272051e-06
9.9442005e-06
1.016784e-05
1.0234718e-05
1.0049435e-05
9.4611584e-06
8.2040714e-06
5.6418929e-06
3.9916696e-06
4.2225913e-06
4.4622808e-06
4.6950592e-06
4.9173131e-06
5.1338056e-06
5.3526336e-06
5.581543e-06
5.8262202e-06
6.0894979e-06
6.3715892e-06
6.6715946e-06
6.9882245e-06
7.3187216e-06
7.657669e-06
7.9959058e-06
8.3191444e-06
8.6063502e-06
8.8276426e-06
8.9414388e-06
8.8903651e-06
8.5947232e-06
7.9395161e-06
6.736622e-06
4.5014149e-06
3.6828891e-06
3.8690034e-06
4.0677665e-06
4.2676869e-06
4.4655223e-06
4.6635041e-06
4.8662318e-06
5.0784868e-06
5.3039684e-06
5.5446167e-06
5.800607e-06
6.0709648e-06
6.3536811e-06
6.6450025e-06
6.938503e-06
7.224194e-06
7.4875754e-06
7.7085171e-06
7.8600213e-06
7.9068676e-06
7.8041044e-06
7.4949302e-06
6.905153e-06
5.9165195e-06
4.1547958e-06
3.4460295e-06
3.599364e-06
3.7664988e-06
3.93931e-06
4.1148617e-06
4.2938602e-06
4.4788047e-06
4.6725506e-06
4.8773612e-06
5.0943591e-06
5.3234115e-06
5.5632243e-06
5.8112331e-06
6.0631084e-06
6.3121003e-06
6.5483932e-06
6.7584781e-06
6.9245666e-06
7.0241634e-06
7.0300055e-06
6.9107896e-06
6.6336589e-06
6.1714205e-06
5.5266291e-06
4.7811691e-06
3.2441189e-06
3.3729281e-06
3.5152174e-06
3.6653722e-06
3.8208718e-06
3.9816022e-06
4.1487664e-06
4.3239214e-06
4.5083001e-06
4.7023424e-06
4.905506e-06
5.1161568e-06
5.3313828e-06
5.5466232e-06
5.7552321e-06
5.9480575e-06
6.1131131e-06
6.2354037e-06
6.2970604e-06
6.2780652e-06
6.1581391e-06
5.921174e-06
5.5660231e-06
5.1344517e-06
4.7743036e-06
3.052538e-06
3.1620583e-06
3.2840849e-06
3.41475e-06
3.5519763e-06
3.6952256e-06
3.8449006e-06
4.0017045e-06
4.1661259e-06
4.3380751e-06
4.5166485e-06
4.6999609e-06
4.884947e-06
5.0670981e-06
5.2401705e-06
5.3959597e-06
5.5241795e-06
5.6125369e-06
5.6471219e-06
5.6133211e-06
5.4976375e-06
5.2912439e-06
4.9973168e-06
4.6469318e-06
4.2801986e-06
2.8534835e-06
2.946952e-06
3.051703e-06
3.1650363e-06
3.2852641e-06
3.4116639e-06
3.5441533e-06
3.682873e-06
3.8278076e-06
3.9784875e-06
4.1337692e-06
4.2916555e-06
4.4491172e-06
4.6019089e-06
4.7443964e-06
4.8694507e-06
4.9684503e-06
5.0314521e-06
5.0475842e-06
5.00572e-06
4.8954262e-06
4.7078913e-06
4.4351055e-06
4.0580059e-06
3.4508161e-06
2.6346586e-06
2.7141119e-06
2.8035394e-06
2.9010189e-06
3.0051865e-06
3.1152671e-06
3.230903e-06
3.3518862e-06
3.4778841e-06
3.6081976e-06
3.7415748e-06
3.8760452e-06
4.0087755e-06
4.1359428e-06
4.2526379e-06
4.3528305e-06
4.4294244e-06
4.4744235e-06
4.4792072e-06
4.4348434e-06
4.3321798e-06
4.1608688e-06
3.9044675e-06
3.5205448e-06
2.8397679e-06
2.3893559e-06
2.4561736e-06
2.5316431e-06
2.6143696e-06
2.7032537e-06
2.7975453e-06
2.8967558e-06
3.0004852e-06
3.1082311e-06
3.2191964e-06
3.3321397e-06
3.4452353e-06
3.5559622e-06
3.6610182e-06
3.7562697e-06
3.8367503e-06
3.8967234e-06
3.9298022e-06
3.9290897e-06
3.8872151e-06
3.7959551e-06
3.6446379e-06
3.4150678e-06
3.0650204e-06
2.4498991e-06
2.1169339e-06
2.172185e-06
2.2347759e-06
2.303686e-06
2.3780384e-06
2.4571545e-06
2.540512e-06
2.627633e-06
2.717955e-06
2.8106893e-06
2.9046959e-06
2.9983794e-06
3.089605e-06
3.17564e-06
3.2531285e-06
3.3181018e-06
3.3660274e-06
3.391876e-06
3.390159e-06
3.354818e-06
3.2787147e-06
3.1521722e-06
2.9591616e-06
2.666252e-06
2.1682822e-06
1.8231324e-06
1.8677767e-06
1.918485e-06
1.9745081e-06
2.0351605e-06
2.099863e-06
2.1681232e-06
2.2394645e-06
2.3133445e-06
2.3890505e-06
2.4656073e-06
2.5417002e-06
2.6156116e-06
2.6851837e-06
2.7478048e-06
2.8004207e-06
2.8395608e-06
2.8613648e-06
2.8615584e-06
2.8352926e-06
2.7766862e-06
2.6777628e-06
2.5260207e-06
2.2977275e-06
1.9208721e-06
1.5196224e-06
1.5546482e-06
1.5945186e-06
1.638696e-06
1.6866543e-06
1.7379242e-06
1.7920803e-06
1.8486992e-06
1.9073062e-06
1.9673071e-06
2.0279212e-06
2.088127e-06
2.1466192e-06
2.2017829e-06
2.2516863e-06
2.2940838e-06
2.3264296e-06
2.3458735e-06
2.3492104e-06
2.3327241e-06
2.2918389e-06
2.2204248e-06
2.1093332e-06
1.9421573e-06
1.6695822e-06
1.2221968e-06
1.2487067e-06
1.278938e-06
1.312509e-06
1.3490335e-06
1.388146e-06
1.4295037e-06
1.4727606e-06
1.5175341e-06
1.5633632e-06
1.609663e-06
1.6556894e-06
1.7005101e-06
1.7429883e-06
1.7817752e-06
1.8153112e-06
1.8418257e-06
1.8593225e-06
1.8655239e-06
1.8577446e-06
1.8326496e-06
1.7858199e-06
1.7108459e-06
1.5964781e-06
1.409264e-06
9.4748655e-07
9.6673874e-07
9.8872214e-07
1.0131723e-06
1.0398128e-06
1.0683745e-06
1.0985957e-06
1.130212e-06
1.1629357e-06
1.1964326e-06
1.2302931e-06
1.2640105e-06
1.2969634e-06
1.3284036e-06
1.3574494e-06
1.383083e-06
1.4041469e-06
1.4193271e-06
1.4271107e-06
1.4256946e-06
1.4128291e-06
1.3855478e-06
1.3395711e-06
1.2672236e-06
1.1445998e-06
7.0906175e-07
7.2243321e-07
7.3771244e-07
7.5472002e-07
7.7326546e-07
7.931566e-07
8.142047e-07
8.3621885e-07
8.5899521e-07
8.8230586e-07
9.0588276e-07
9.2940487e-07
9.5248677e-07
9.7467082e-07
9.9541914e-07
1.0141086e-06
1.0300264e-06
1.0423611e-06
1.0501773e-06
1.0523599e-06
1.047517e-06
1.0338138e-06
1.0085797e-06
9.6684844e-07
8.9240688e-07
5.1450002e-07
5.2337784e-07
5.3352365e-07
5.448185e-07
5.5713415e-07
5.7033875e-07
5.843009e-07
5.9888936e-07
6.1396803e-07
6.2938947e-07
6.4498924e-07
6.6057837e-07
6.7593676e-07
6.9080579e-07
7.0487963e-07
7.1779686e-07
7.2913693e-07
7.3842114e-07
7.4510644e-07
7.4855556e-07
7.4797861e-07
7.423306e-07
7.3006686e-07
7.0822771e-07
6.6690338e-07
3.6466961e-07
3.7031715e-07
3.7677026e-07
3.8395086e-07
3.9177442e-07
4.001533e-07
4.0899955e-07
4.1822627e-07
4.2774608e-07
4.3746926e-07
4.4730091e-07
4.5713809e-07
4.6686704e-07
4.7635575e-07
4.8544341e-07
4.9392746e-07
5.0155942e-07
5.0805753e-07
5.1311703e-07
5.1639634e-07
5.1747931e-07
5.1581006e-07
5.1054817e-07
5.000504e-07
4.7894e-07
2.5521819e-07
2.5867468e-07
2.6262108e-07
2.6700775e-07
2.717808e-07
2.7688443e-07
2.8226215e-07
2.8785894e-07
2.9362129e-07
2.994969e-07
3.054347e-07
3.1138475e-07
3.1729646e-07
3.2311314e-07
3.2875798e-07
3.3411695e-07
3.3903213e-07
3.4332554e-07
3.4682489e-07
3.4935594e-07
3.5071261e-07
3.5061297e-07
3.4861696e-07
3.438642e-07
3.3361987e-07
1.7915346e-07
1.8120462e-07
1.835406e-07
1.8613056e-07
1.8894026e-07
1.9193488e-07
1.9507942e-07
1.9834026e-07
2.0168601e-07
2.0508814e-07
2.0852211e-07
2.1196948e-07
2.1542019e-07
2.1886995e-07
2.2229764e-07
2.2562817e-07
2.2873128e-07
2.3147508e-07
2.3376016e-07
2.3550403e-07
2.3661189e-07
2.3694604e-07
2.3628205e-07
2.3419193e-07
2.2942591e-07
1.2845902e-07
1.2965752e-07
1.3101885e-07
1.3252369e-07
1.341509e-07
1.358786e-07
1.3768532e-07
1.3955056e-07
1.4145567e-07
1.4338458e-07
1.4532468e-07
1.4726812e-07
1.4921393e-07
1.5116989e-07
1.5315284e-07
1.5517646e-07
1.5714651e-07
1.5889346e-07
1.603523e-07
1.614903e-07
1.6226909e-07
1.6262358e-07
1.6243982e-07
1.6150609e-07
1.5924137e-07
9.5857926e-08
9.656003e-08
9.7355998e-08
9.8233922e-08
9.9180829e-08
1.001833e-07
1.0122812e-07
1.0230295e-07
1.0339677e-07
1.0450051e-07
1.0560764e-07
1.0671499e-07
1.0782399e-07
1.0894227e-07
1.1008572e-07
1.1128104e-07
1.1253176e-07
1.1366806e-07
1.1461308e-07
1.1535486e-07
1.1588074e-07
1.1616016e-07
1.1613189e-07
1.1567898e-07
1.1449448e-07
7.5670724e-08
7.6093924e-08
7.6573563e-08
7.7102376e-08
7.7672415e-08
7.8275485e-08
7.8903518e-08
7.9548973e-08
8.0205322e-08
8.0867341e-08
8.1531561e-08
8.2196791e-08
8.2864974e-08
8.3542253e-08
8.4240736e-08
8.4981188e-08
8.5793118e-08
8.6571358e-08
8.7218049e-08
8.7727143e-08
8.8096113e-08
8.8310012e-08
8.833258e-08
8.8086999e-08
8.7362079e-08
6.3741947e-08
6.4013345e-08
6.4321661e-08
6.4662459e-08
6.5030843e-08
6.5421723e-08
6.5830058e-08
6.6251178e-08
6.6680986e-08
6.711627e-08
6.7554958e-08
6.7996506e-08
6.8442507e-08
6.8897531e-08
6.9370601e-08
6.9877747e-08
7.0445932e-08
7.1024125e-08
7.1506814e-08
7.1889197e-08
7.2172114e-08
7.2347438e-08
7.2391666e-08
7.2251341e-08
7.1771681e-08
5.716048e-08
5.7351261e-08
5.756914e-08
5.7811355e-08
5.8074802e-08
5.8356195e-08
5.8652232e-08
5.895979e-08
5.9276098e-08
5.9598885e-08
5.9926635e-08
6.0258851e-08
6.0596554e-08
6.094299e-08
6.1304817e-08
6.1694259e-08
6.2133127e-08
6.2603549e-08
6.2998631e-08
6.3314579e-08
6.3553097e-08
6.3708608e-08
6.3763446e-08
6.3675823e-08
6.3318537e-08
5.395633e-08
5.4104602e-08
5.4275111e-08
5.4466061e-08
5.4675358e-08
5.4900722e-08
5.5139801e-08
5.5390291e-08
5.5650061e-08
5.591728e-08
5.6190597e-08
5.6469394e-08
5.6754191e-08
5.704727e-08
5.7353633e-08
5.7682667e-08
5.8051585e-08
5.8462132e-08
5.8808868e-08
5.908894e-08
5.9303913e-08
5.9448673e-08
5.9507837e-08
5.9445532e-08
5.9154423e-08
5.2833405e-08
5.2958515e-08
5.3103337e-08
5.3266603e-08
5.3446769e-08
5.3642093e-08
5.3850721e-08
5.4070776e-08
5.4300451e-08
5.4538123e-08
5.4782506e-08
5.5032879e-08
5.5289435e-08
5.5553825e-08
5.5829958e-08
5.6125272e-08
5.6453228e-08
5.6826071e-08
5.71424e-08
5.7400405e-08
5.7600798e-08
5.7737848e-08
5.7796499e-08
5.7743017e-08
5.7477487e-08
5.295814e-08
5.306928e-08
5.3198553e-08
5.3344971e-08
5.3507281e-08
5.368403e-08
5.3873638e-08
5.4074475e-08
5.4284941e-08
5.4503566e-08
5.4729149e-08
5.4960952e-08
5.5199006e-08
5.5444572e-08
5.5700836e-08
5.5973951e-08
5.6274718e-08
5.6618762e-08
5.6912327e-08
5.7153927e-08
5.7342989e-08
5.7472694e-08
5.7527388e-08
5.7473603e-08
5.7213271e-08
5.3804165e-08
5.390536e-08
5.4023392e-08
5.4157422e-08
5.4306363e-08
5.4468939e-08
5.4643756e-08
5.4829374e-08
5.5024378e-08
5.5227472e-08
5.5437591e-08
5.5654072e-08
5.5876903e-08
5.6107109e-08
5.6347349e-08
5.660283e-08
5.6882748e-08
5.7201582e-08
5.7475738e-08
5.7703139e-08
5.78818e-08
5.8003668e-08
5.8052067e-08
5.7992754e-08
5.7726826e-08
5.5044305e-08
5.5137194e-08
5.5245648e-08
5.5368924e-08
5.5506047e-08
5.5655885e-08
5.581721e-08
5.5988765e-08
5.6169338e-08
5.6357835e-08
5.6553378e-08
5.6755439e-08
5.6964036e-08
5.7180049e-08
5.7405721e-08
5.7645449e-08
5.7907074e-08
5.8203163e-08
5.8459707e-08
5.8673878e-08
5.8842346e-08
5.8955822e-08
5.8996417e-08
5.8928532e-08
5.8653134e-08
5.6478294e-08
5.6563575e-08
5.6663131e-08
5.6776287e-08
5.6902174e-08
5.7039795e-08
5.7188089e-08
5.7345996e-08
5.7512519e-08
5.7686789e-08
5.7868139e-08
5.8056205e-08
5.8251074e-08
5.8453534e-08
5.8665482e-08
5.8890597e-08
5.9135471e-08
5.9410785e-08
5.965103e-08
5.9852647e-08
6.0011072e-08
6.0115839e-08
6.0147804e-08
6.0069667e-08
5.9779451e-08
5.7985397e-08
5.8063514e-08
5.8154626e-08
5.8258123e-08
5.837324e-08
5.8499117e-08
5.8634867e-08
5.8779627e-08
5.8932621e-08
5.9093206e-08
5.926093e-08
5.9435599e-08
5.9617385e-08
5.9807013e-08
6.0006087e-08
6.0217648e-08
6.0447159e-08
6.0703537e-08
6.0928714e-08
6.111846e-08
6.1267107e-08
6.1363139e-08
6.1386271e-08
6.1297599e-08
6.099119e-08
5.9493776e-08
5.9565176e-08
5.9648352e-08
5.974276e-08
5.9847734e-08
5.9962555e-08
6.0086501e-08
6.0218902e-08
6.0359194e-08
6.0506949e-08
6.0661917e-08
6.0824069e-08
6.099366e-08
6.1171369e-08
6.1358547e-08
6.1557678e-08
6.1773216e-08
6.2012482e-08
6.2223805e-08
6.2402388e-08
6.2541601e-08
6.2629003e-08
6.2643288e-08
6.2543921e-08
6.2220366e-08
6.0960968e-08
6.1026169e-08
6.1102025e-08
6.1188055e-08
6.1283693e-08
6.1388348e-08
6.1501453e-08
6.1622521e-08
6.1751177e-08
6.1887189e-08
6.2030492e-08
6.21812e-08
6.2339649e-08
6.2506481e-08
6.2682832e-08
6.2870701e-08
6.3073653e-08
6.3297557e-08
6.3496157e-08
6.3664238e-08
6.3794343e-08
6.3873211e-08
6.3878572e-08
6.3768108e-08
6.34255e-08
6.2361769e-08
6.2421346e-08
6.2490574e-08
6.2569031e-08
6.2656245e-08
6.2751739e-08
6.2855091e-08
6.2965969e-08
6.3084171e-08
6.3209636e-08
6.3342457e-08
6.3482879e-08
6.3631306e-08
6.3788352e-08
6.3954977e-08
6.4132782e-08
6.4324589e-08
6.4534591e-08
6.4721378e-08
6.4879485e-08
6.5000733e-08
6.5071131e-08
6.5067534e-08
6.4946138e-08
6.4586342e-08
6.3680988e-08
6.3735536e-08
6.3798853e-08
6.3870573e-08
6.3950302e-08
6.403767e-08
6.4132378e-08
6.4234232e-08
6.4343174e-08
6.4459293e-08
6.4582819e-08
6.4714108e-08
6.4853628e-08
6.5001978e-08
6.5160004e-08
6.5329117e-08
6.5512157e-08
6.5708328e-08
6.5883721e-08
6.6032139e-08
6.6144664e-08
6.6206623e-08
6.6194086e-08
6.6062018e-08
6.5686556e-08
6.4909344e-08
6.4959452e-08
6.501756e-08
6.5083354e-08
6.5156511e-08
6.5236751e-08
6.5323879e-08
6.541782e-08
6.5518642e-08
6.562656e-08
6.5741926e-08
6.5865192e-08
6.5996884e-08
6.6137607e-08
6.6288197e-08
6.6450174e-08
6.6626784e-08
6.6808423e-08
6.6972212e-08
6.7110913e-08
6.7214704e-08
6.7268244e-08
6.7246943e-08
6.7104831e-08
6.6715143e-08
6.6041439e-08
6.6087662e-08
6.6141221e-08
6.6201843e-08
6.6269269e-08
6.6343296e-08
6.6423819e-08
6.6510864e-08
6.6604609e-08
6.6705382e-08
6.6813644e-08
6.6929937e-08
6.7054831e-08
6.7188937e-08
6.7333129e-08
6.7489115e-08
6.7658999e-08
6.7826242e-08
6.7978255e-08
6.8107084e-08
6.8202033e-08
6.8247165e-08
6.8217463e-08
6.8066632e-08
6.7668317e-08
6.7075259e-08
6.7118104e-08
6.7167702e-08
6.7223818e-08
6.7286247e-08
6.7354852e-08
6.7429609e-08
6.7510637e-08
6.7598213e-08
6.7692774e-08
6.7794884e-08
6.7905168e-08
6.8024215e-08
6.815257e-08
6.8291145e-08
6.8442958e-08
6.8600713e-08
6.8753984e-08
6.8894375e-08
6.9013277e-08
6.9099264e-08
6.9135957e-08
6.9098237e-08
6.894069e-08
6.8545948e-08
6.801293e-08
6.8052832e-08
6.8098951e-08
6.8151087e-08
6.8209082e-08
6.8272864e-08
6.8342484e-08
6.8418148e-08
6.8500233e-08
6.8589285e-08
6.868598e-08
6.8791024e-08
6.8904979e-08
6.9028078e-08
6.9160097e-08
6.9300108e-08
6.9443856e-08
6.9584321e-08
6.9713674e-08
6.9822785e-08
6.989972e-08
6.9927795e-08
6.988182e-08
6.9716744e-08
6.9318348e-08
6.8841348e-08
6.8878674e-08
6.8921733e-08
6.897035e-08
6.9024401e-08
6.9083856e-08
6.9148811e-08
6.9219514e-08
6.9296376e-08
6.9379959e-08
6.9470925e-08
6.9569927e-08
6.9677428e-08
6.9793473e-08
6.9917424e-08
7.0047592e-08
7.0180381e-08
7.0310083e-08
7.0429371e-08
7.0529018e-08
7.059688e-08
7.0616128e-08
7.0561498e-08
7.0387706e-08
6.9975585e-08
6.9540087e-08
6.9575316e-08
6.9615904e-08
6.9661691e-08
6.9712579e-08
6.9768566e-08
6.9829777e-08
6.9896483e-08
6.996911e-08
7.0048215e-08
7.0134423e-08
7.0228321e-08
7.0330276e-08
7.0440192e-08
7.0557229e-08
7.0679466e-08
7.0803473e-08
7.0924052e-08
7.1034205e-08
7.112478e-08
7.1183621e-08
7.1193901e-08
7.1130351e-08
7.0947311e-08
7.0523286e-08
7.0103011e-08
7.0136566e-08
7.0175189e-08
7.0218734e-08
7.0267122e-08
7.0320367e-08
7.0378607e-08
7.0442126e-08
7.0511359e-08
7.0586845e-08
7.0669169e-08
7.0758854e-08
7.085618e-08
7.0960948e-08
7.1072201e-08
7.1187894e-08
7.1304591e-08
7.1417259e-08
7.1519067e-08
7.1600984e-08
7.1650955e-08
7.16523e-08
7.1579939e-08
7.1388326e-08
7.0955263e-08
7.0519089e-08
7.0551327e-08
7.0588402e-08
7.0630183e-08
7.0676609e-08
7.0727696e-08
7.0783578e-08
7.0844542e-08
7.091104e-08
7.0983592e-08
7.106274e-08
7.1148959e-08
7.1242465e-08
7.1343002e-08
7.1449553e-08
7.1559951e-08
7.1670579e-08
7.1776382e-08
7.187061e-08
7.1944371e-08
7.1985807e-08
7.1978522e-08
7.1897868e-08
7.1699061e-08
7.126132e-08
7.0766688e-08
7.0797895e-08
7.0833743e-08
7.0874126e-08
7.0919004e-08
7.0968376e-08
7.1022335e-08
7.1081167e-08
7.1145397e-08
7.1215528e-08
7.1292034e-08
7.1375382e-08
7.1465757e-08
7.1562946e-08
7.166604e-08
7.1772725e-08
7.187873e-08
7.1978838e-08
7.2066393e-08
7.213272e-08
7.2166267e-08
7.2151073e-08
7.2063154e-08
7.1859367e-08
7.1424554e-08
7.0798555e-08
7.0828927e-08
7.0863756e-08
7.0902994e-08
7.0946585e-08
7.0994506e-08
7.1046738e-08
7.1103568e-08
7.1165774e-08
7.1233962e-08
7.1308195e-08
7.1389214e-08
7.1477004e-08
7.1571784e-08
7.1673465e-08
7.1779807e-08
7.1883564e-08
7.1979555e-08
7.2061632e-08
7.2121595e-08
7.2148402e-08
7.2126714e-08
7.2033286e-08
7.182721e-08
7.1400381e-08
7.0469365e-08
7.049893e-08
7.0532793e-08
7.0574819e-08
7.0614525e-08
7.0660932e-08
7.0711205e-08
7.0765648e-08
7.0825978e-08
7.0894821e-08
7.096734e-08
7.1048413e-08
7.1133994e-08
7.1227449e-08
7.1333854e-08
7.1454862e-08
7.1562099e-08
7.1656195e-08
7.1734225e-08
7.1789287e-08
7.1811235e-08
7.1785673e-08
7.1689976e-08
7.1487845e-08
7.1094113e-08
)
;

boundaryField
{
    Walls
    {
        type            nutUWallFunction;
        Cmu             0.09;
        kappa           0.41;
        E               9.8;
        value           uniform 0;
    }
    Inlet
    {
        type            calculated;
        value           nonuniform List<scalar> 3(3.3989219e-05 2.913616e-05 7.9251266e-07);
    }
    Outlet
    {
        type            calculated;
        value           nonuniform List<scalar> 
86
(
0
0
0
0
0
0
0
0
0
0
0
0
0
0
0
0
0
0
0
0
0
0
0
0
0
0
0
0
0
0
1.4338197e-05
1.4887834e-05
1.3472766e-05
0
0
0
0
0
4.7743036e-06
4.2801986e-06
0
0
0
0
1.9208721e-06
1.6695822e-06
1.409264e-06
1.1445998e-06
8.9240688e-07
6.6690338e-07
4.7894e-07
3.3361987e-07
2.2942591e-07
1.5924137e-07
1.1449448e-07
8.7362079e-08
7.1771681e-08
6.3318537e-08
5.9154423e-08
5.7477487e-08
5.7213271e-08
5.7726826e-08
5.8653134e-08
5.9779451e-08
6.099119e-08
6.2220366e-08
6.34255e-08
6.4586342e-08
6.5686556e-08
0
0
0
0
0
0
0
0
0
0
7.1094113e-08
0
0
0
0
1.3211637e-05
1.4850717e-05
)
;
    }
    Front
    {
        type            wedge;
    }
    Back
    {
        type            wedge;
    }
    defaultFaces
    {
        type            empty;
    }
}


// ************************************************************************* //
