/*--------------------------------*- C++ -*----------------------------------*\
| =========                 |                                                 |
| \\      /  F ield         | OpenFOAM: The Open Source CFD Toolbox           |
|  \\    /   O peration     | Version:  4.0                                   |
|   \\  /    A nd           | Web:      www.OpenFOAM.org                      |
|    \\/     M anipulation  |                                                 |
\*---------------------------------------------------------------------------*/
FoamFile
{
    version     2.0;
    format      ascii;
    class       volScalarField;
    location    "0.61";
    object      omega;
}
// * * * * * * * * * * * * * * * * * * * * * * * * * * * * * * * * * * * * * //

dimensions      [0 0 -1 0 0 0 0];

internalField   nonuniform List<scalar> 
1740
(
65.368095
694.15097
14919.477
166.4291
1491.5061
15030.67
280.54373
2018.7611
15116.55
393.43541
2267.2267
15200.028
498.93881
2526.0425
15271.951
608.22512
2796.5553
15320.464
722.10522
3025.5708
15372.105
851.43852
3267.3535
15417.433
954.30651
3445.336
15440.459
1054.9849
3514.4708
15470.208
1156.981
3630.9977
15496.933
1257.6701
3737.3839
15505.661
1337.4788
3793.2817
15522.235
1409.2433
3868.0725
15536.389
1477.9208
3923.7908
15538.451
1542.3674
3941.2847
15548.215
1592.003
3984.2974
15554.185
1630.8432
4053.8706
15556.779
1674.8398
4009.4519
15566.08
1720.0082
4020.8192
15564.706
1763.8353
4056.3573
15573.604
1837.5833
4090.6144
15580.561
1878.2112
4182.9945
15575.723
1888.9371
4213.0461
15576.021
1908.0757
4138.5039
15575.776
1933.2214
4136.1567
15573.085
1969.7763
4153.0965
15570.618
1998.7096
4224.4136
15565.678
2010.4686
4192.1999
15555.943
2132.2264
4273.6064
15498.58
3201.7683
4543.819
10715.044
3329.184
4222.1706
5909.5721
1571.622
1858.5244
2151.8857
824.70024
899.60229
957.24204
478.52638
496.80661
506.94149
300.40591
304.17796
304.36732
201.03095
201.35431
199.94075
141.69096
141.36081
140.1093
104.28754
103.94935
103.098
79.666321
79.427872
78.896682
62.862346
62.711697
62.391929
51.04272
50.951634
50.762112
42.529614
42.475558
42.363861
36.296949
36.26503
36.19912
31.696883
31.67787
31.638511
28.305115
28.293492
28.269306
25.830447
25.823001
25.807371
24.060975
24.055894
24.045079
22.832824
22.829134
22.821114
22.013427
22.010648
22.004394
21.493112
21.491036
21.486042
21.17708
21.175484
21.171341
20.96916
20.967504
20.963608
20.811246
20.809668
20.806081
20.683368
20.68193
20.678675
20.572949
20.571661
20.568728
20.47185
20.470719
20.468103
20.374905
20.37395
20.371661
20.279059
20.2783
20.276352
20.182955
20.182392
20.180783
20.086536
20.086145
20.084842
19.990233
19.98997
19.988922
19.893817
19.893636
19.892784
19.79532
19.795186
19.794481
19.690304
19.690195
19.6896
19.571419
19.571321
19.570811
19.428041
19.42795
19.427507
19.245842
19.245757
19.245368
19.006213
19.006133
19.005791
18.685586
18.685513
18.685212
18.254762
18.254696
18.254434
17.678386
17.678327
17.678101
16.914904
16.914843
16.914645
15.922255
15.922199
15.92204
14.657406
14.65737
14.657266
13.075674
13.075664
13.075627
11.142476
11.142497
11.142539
8.8431085
8.8431631
8.8432957
6.1920924
6.1921717
6.1923777
3.2458937
3.2459618
3.2461444
13481.058
13535.848
5987.0501
5327.6855
2081.5542
1879.4738
920.92462
852.87202
490.18367
463.03155
296.19766
284.25601
195.64759
189.91447
137.74201
134.79666
101.76006
100.17143
78.129816
77.243545
61.948181
61.442094
50.503728
50.210339
42.212652
42.040763
36.109892
36.007978
31.584956
31.523266
28.236066
28.197183
25.785531
25.759349
24.029598
24.010409
22.809269
22.794011
21.994793
21.981916
21.477989
21.46676
21.164394
21.154463
20.957317
20.948403
20.800376
20.792315
20.673499
20.666156
20.564026
20.557294
20.46384
20.457651
20.367826
20.362145
20.272945
20.267762
20.177801
20.173122
20.082266
20.078094
19.986715
19.983044
19.890904
19.887709
19.79288
19.790122
19.688235
19.685863
19.569642
19.567601
19.426499
19.424736
19.244494
19.242961
19.005029
19.003687
18.684547
18.683367
18.253855
18.252818
17.677603
17.676699
16.914223
16.913451
15.921706
15.921084
14.657035
14.656573
13.075515
13.075238
11.142575
11.142528
8.8435112
8.843747
6.1927493
6.1932358
3.2464866
3.2469538
12058.204
2043.8436
696.65503
369.11962
281.29894
257.08215
249.95387
246.92163
244.58534
242.20085
239.68856
236.94878
234.12339
231.22301
228.21334
225.02996
221.55901
217.60366
212.83006
206.68264
198.23849
185.94328
167.09973
136.67347
82.904013
12058.133
2037.4621
697.70871
374.67593
283.23416
254.40245
242.87038
235.66253
229.5637
223.778
218.10944
212.49136
206.99391
201.59715
196.2795
191.01258
185.73956
180.35596
174.67397
168.37045
160.89333
151.2751
137.71862
116.52509
78.248016
12058.18
2030.4677
718.56918
430.68299
359.32478
332.39763
315.03497
300.54466
287.31588
274.77617
262.80826
251.22752
240.26082
229.80958
219.81183
210.25357
201.11361
192.34533
183.84777
175.44215
166.81459
157.38372
145.94517
129.54582
98.878111
12058.528
2031.684
817.54152
608.79296
549.9266
512.73033
479.72214
449.22112
421.2489
394.94562
370.27767
347.27761
326.07768
306.22264
287.56919
270.12371
253.8735
238.78587
224.80526
211.84032
199.75027
188.30912
177.07783
164.87875
146.47279
12061.536
2151.0807
1232.2734
1078.2308
989.46575
906.65094
828.19893
756.84787
692.97634
633.88534
579.55434
529.95111
485.86996
445.58685
408.61399
374.95305
344.46592
316.9812
292.31691
270.27959
250.673
233.32244
218.11499
205.22414
195.72722
12087.234
3820.6912
2808.6265
2403.8105
2095.063
1825.8772
1590.4657
1387.1411
1211.2309
1059.4601
928.73425
816.21117
719.34763
635.71701
563.39739
500.87856
446.86662
400.23426
360.00799
325.35442
295.5663
270.07028
248.46338
230.84237
218.44338
10357.86
7901.4921
6098.4594
4789.0785
3818.7207
3082.7835
2513.115
2065.7192
1710.9242
1427.3607
1199.1039
1014.2283
863.7534
740.74462
639.70325
556.26687
486.9992
429.20736
380.78225
340.06747
305.76048
276.85754
252.64519
233.00481
219.21661
4085.9278
3304.7709
2842.6802
2467.3986
2147.7414
1866.9576
1622.0686
1410.4581
1229.116
1073.6961
940.37067
825.71565
726.75423
641.32407
567.5826
503.93919
449.0223
401.65906
360.84987
325.74527
295.62854
269.92123
248.21085
230.57408
218.1979
1593.2031
1399.048
1269.0296
1160.8621
1058.688
961.47225
872.88948
793.84163
721.81989
656.56042
598.20916
546.57085
499.14511
455.81077
416.44941
380.86398
348.82361
320.09702
294.45396
271.67813
251.57203
233.96835
218.75749
206.09361
196.93561
770.616
707.48129
661.31795
620.77552
580.43629
540.31071
502.7373
468.08961
435.96917
406.34749
379.27051
354.46225
331.23961
309.50498
289.25108
270.46465
253.11639
237.1655
222.56156
209.24104
197.11083
186.00628
175.56311
164.72558
148.70001
433.62309
409.88715
391.16514
373.92347
356.15378
337.83844
319.94878
302.91511
286.81466
271.70257
257.5891
244.35099
231.78213
219.83974
208.55404
197.92204
187.93742
178.57986
169.80508
161.52225
153.53984
145.43182
136.17255
122.99291
96.802696
271.88846
261.42813
252.72032
244.51851
235.97015
227.00279
217.97702
209.15674
200.66319
192.55497
184.84159
177.47463
170.38271
163.5444
156.97246
150.67145
144.63313
138.82797
133.18982
127.58399
121.73936
115.09841
106.46389
93.070293
67.417742
184.09488
178.99774
174.5678
170.31963
165.87944
161.18005
156.35476
151.54412
146.83742
142.28099
137.88633
133.63533
129.49973
125.46521
121.52807
117.67956
113.89813
110.13934
106.31954
102.28595
97.760487
92.231398
84.731733
73.302569
52.808306
131.83573
129.1695
126.77439
124.44883
122.02038
119.44037
116.75697
114.04039
111.34519
108.70286
106.12354
103.60039
101.1191
98.666709
96.23094
93.793279
91.322104
88.763825
86.029438
82.973315
79.360974
74.82769
68.860106
60.982661
51.346243
98.578735
97.112788
95.763272
94.441754
93.065402
91.602947
90.069792
88.499063
86.92127
85.35609
83.81033
82.280254
80.755571
79.222915
77.665206
76.057911
74.363893
72.526642
70.461041
68.041539
65.090767
61.383686
56.722489
51.260028
46.461234
76.352783
75.518188
74.736146
73.966175
73.167407
72.320089
71.427616
70.504903
69.567633
68.626349
67.684275
66.73737
65.775999
64.785878
63.747295
62.632702
61.403033
60.002891
58.354694
56.352611
53.860081
50.722736
46.830547
42.310806
37.417608
60.930746
60.444589
59.983236
59.527758
59.057261
58.559617
58.033906
57.485948
56.922774
56.348769
55.763803
55.162676
54.535159
53.866062
53.134381
52.311458
51.358278
50.221978
48.831594
47.093203
44.884702
42.048324
38.362516
33.372609
25.193918
49.911823
49.624652
49.349646
49.077842
48.798256
48.503396
48.190973
47.862261
47.519336
47.16257
46.789282
46.392841
45.962251
45.481677
44.929542
44.277034
43.485981
42.505981
41.270508
39.691135
37.647263
34.96254
31.33699
26.120447
17.454748
41.864493
41.693145
41.527914
41.3645
41.196906
41.020302
40.832128
40.631408
40.417391
40.187943
39.938549
39.661373
39.344706
38.972262
38.522278
37.966216
37.266931
36.376106
35.230423
33.745205
31.802403
29.22495
25.716244
20.705653
12.903932
35.902521
35.798914
35.698196
35.598282
35.49572
35.387212
35.27023
35.142686
35.002225
34.845211
34.665849
34.455436
34.201694
33.888038
33.492695
32.987526
32.336426
31.493028
30.397219
28.969391
27.100244
24.631576
21.318166
16.747365
10.114234
31.458584
31.394073
31.330524
31.266801
31.200755
31.129964
31.052019
30.9643
30.863567
30.745235
30.602692
30.426626
30.204331
29.919022
29.548983
29.066516
28.436557
27.614769
26.544767
25.153878
23.346467
20.993319
17.914127
13.843261
8.3132435
28.155545
28.112994
28.069981
28.025834
27.979027
27.927621
27.869319
27.801267
27.719733
27.619571
27.49363
27.332154
27.122132
26.846625
26.483989
26.006947
25.381472
24.565342
23.506272
22.139426
20.384229
18.140515
15.283225
11.646475
6.934176
25.730403
25.699685
25.667391
25.632977
25.595262
25.552551
25.502625
25.44253
25.368262
25.274329
25.15322
24.99485
24.785952
24.509444
24.143724
23.661904
23.030932
22.210646
21.15277
19.799985
18.085367
15.932667
13.256693
9.9551329
5.8503275
23.988309
23.96373
23.936653
23.906551
23.872387
23.832614
23.785056
23.726704
23.653393
23.559401
23.436948
23.275671
23.062055
22.778853
22.404471
21.912346
21.270309
20.440041
19.376783
18.029594
16.34254
14.257216
11.715502
8.6535621
4.9517508
22.775639
22.754228
22.729573
22.701115
22.667879
22.628378
22.580466
22.521095
22.445988
22.349239
22.222835
22.056136
21.835353
21.543023
21.15752
20.652573
19.996815
19.153497
18.080702
16.732431
15.060944
13.020592
10.572026
7.6788962
4.2665387
21.965748
21.946115
21.922663
21.894787
21.861521
21.821405
21.772298
21.711114
21.633483
21.533333
21.402414
21.229783
21.00131
20.699244
20.301878
19.783261
19.112862
18.255321
17.170901
15.817167
14.152164
12.139138
9.7518082
6.9742858
3.7730451
21.452142
21.43377
21.411183
21.383718
21.35039
21.309733
21.259587
21.196822
21.116979
21.013828
20.878872
20.70081
20.465065
20.153451
19.744101
19.211512
18.526274
17.654453
16.557961
15.196735
13.532686
11.535162
9.187083
6.4877127
3.4471526
21.141242
21.124248
21.102933
21.076556
21.04406
21.003911
20.953885
20.890777
20.810027
20.705254
20.5677
20.385638
20.143841
19.823361
19.401956
18.854845
18.154488
17.268807
16.160929
14.7921
13.126574
11.13779
8.8152246
6.1696111
3.2343017
20.936543
20.921294
20.902084
20.878132
20.848328
20.811075
20.764068
20.704001
20.626187
20.524059
20.388559
20.207388
19.964229
19.638465
19.206559
18.644595
17.928555
17.029714
15.911946
14.536739
12.869434
10.885992
8.5800551
5.9686866
3.1077017
20.781572
20.767712
20.750156
20.728111
20.700451
20.665566
20.621141
20.563868
20.489062
20.390186
20.25825
20.081098
19.842603
19.521872
19.092597
18.524171
17.793986
16.883764
15.758505
14.37905
12.71092
10.731468
8.4367143
5.8464327
3.020837
20.656312
20.643527
20.627215
20.606572
20.580471
20.547299
20.504749
20.449527
20.376985
20.280647
20.151627
19.977938
19.743702
19.428324
19.00571
18.443761
17.709421
16.792269
15.663003
14.281969
12.614547
10.63886
8.3521562
5.7745624
2.9701292
20.548186
20.536249
20.520889
20.501297
20.476347
20.444432
20.403261
20.349571
20.278764
20.184449
20.057868
19.887228
19.656919
19.346674
18.930737
18.377213
17.648606
16.730073
15.60066
14.22072
12.555576
10.58397
8.3043942
5.7380419
2.9476041
20.44917
20.43793
20.423328
20.404555
20.380489
20.349538
20.309434
20.256956
20.187571
20.094987
19.970594
19.802802
19.576267
19.271053
18.861767
18.316779
17.597978
16.682689
15.556427
14.179765
12.518097
10.55068
8.2769276
5.7181594
2.9312005
20.354233
20.343605
20.329654
20.311574
20.288256
20.258132
20.218968
20.167599
20.099569
20.008695
19.886512
19.721616
19.498902
19.198722
18.796051
18.2597
17.551824
16.642617
15.521773
14.149857
12.492403
10.529166
8.2606005
5.7094952
2.9314162
20.260405
20.250371
20.237053
20.219657
20.197099
20.167843
20.129707
20.079584
20.013102
19.924175
19.804463
19.642707
19.423978
19.128854
18.732619
18.204568
17.507495
16.606103
15.491998
14.125627
12.472697
10.513409
8.2491218
5.7045186
2.949103
20.16634
20.156943
20.144331
20.127733
20.106097
20.077929
20.041096
19.99255
19.927987
19.841396
19.724517
19.566186
19.351589
19.061463
18.671332
18.150904
17.46374
16.571105
15.464388
14.103852
12.455514
10.500008
8.2395984
5.7005782
2.9517524
20.071927
20.06325
20.051481
20.035877
20.015417
19.988647
19.953474
19.906894
19.844641
19.760746
19.646988
19.492252
19.281792
18.996459
18.611969
18.098355
17.419825
16.536319
15.43703
14.082278
12.438495
10.486731
8.2300735
5.6966623
2.9551369
19.977522
19.969648
19.95886
19.944442
19.925399
19.900304
19.867085
19.822759
19.763072
19.682064
19.571522
19.420347
19.213836
18.932934
18.553529
18.045939
17.374806
16.500216
15.407994
14.058815
12.419578
10.471713
8.2189838
5.6909753
2.9564988
19.882836
19.875808
19.866084
19.852967
19.835478
19.8122
19.781068
19.739096
19.682023
19.603874
19.496426
19.348582
19.14567
18.868721
18.493792
17.991483
17.32685
16.460438
15.374794
14.031004
12.396403
10.452752
8.2044603
5.6829843
2.9693914
19.78587
19.779674
19.771013
19.759203
19.74327
19.721796
19.692707
19.653
19.598395
19.522893
19.418254
19.273378
19.073626
18.800112
18.429061
17.931357
17.27248
16.413482
15.334035
13.995635
12.36602
10.427172
8.1837879
5.6685062
2.9677378
19.682174
19.676747
19.669078
19.658487
19.644
19.624189
19.596964
19.5593
19.506891
19.433716
19.331517
19.189197
18.992151
18.721586
18.353898
17.860255
17.206563
16.354409
15.281036
13.948378
12.32458
10.391848
8.1551391
5.6479224
2.9577851
19.564403
19.559652
19.552857
19.54334
19.530123
19.511763
19.486153
19.450245
19.39971
19.328507
19.228368
19.088209
18.893472
18.625462
18.26076
17.77083
17.12201
16.276445
15.209424
13.883362
12.266889
10.342549
8.1156871
5.6206379
2.9450043
19.421953
19.417774
19.411719
19.403112
19.390965
19.373825
19.349565
19.315122
19.266146
19.196586
19.098176
18.959855
18.767129
18.501425
18.139527
17.653213
17.009288
16.170502
15.110651
13.792698
12.185863
10.273139
8.0600862
5.5804057
2.9192424
19.240521
19.236816
19.231374
19.223518
19.212254
19.196117
19.17297
19.139734
19.092051
19.02387
18.926942
18.79025
18.599385
18.335924
17.97689
17.494418
16.855821
16.024628
14.973493
13.666031
12.072194
10.175587
7.9821179
5.5249961
2.8875948
19.00153
18.998217
18.993279
18.986039
18.9755
18.96019
18.937964
18.905739
18.859159
18.792187
18.696611
18.561483
18.372515
18.111477
17.755677
17.277639
16.64512
15.823396
14.783535
13.490116
11.914024
10.039643
7.8734483
5.4488359
2.8479534
18.681449
18.678463
18.673946
18.667222
18.657292
18.642683
18.62125
18.589916
18.544343
18.478527
18.38432
18.250878
18.064084
17.80596
17.454163
16.981656
16.356725
15.54744
14.522719
13.248441
11.696691
9.8528382
7.7241188
5.3447397
2.784626
18.25111
18.248409
18.24426
18.23799
18.228602
18.214628
18.193935
18.163464
18.118916
18.054348
17.961709
17.830315
17.646285
17.391986
17.04554
16.580498
15.966266
15.173329
14.169105
12.920984
11.402543
9.6003533
7.5224662
5.2040706
2.7186197
17.675186
17.672754
17.668953
17.663118
17.65426
17.640926
17.621007
17.591485
17.548122
17.485075
17.394443
17.265769
17.085511
16.836526
16.497562
16.042724
15.444655
14.673391
13.696848
12.484249
11.010977
9.2650832
7.2554505
5.0169179
2.620267
16.912136
16.909982
16.906548
16.901181
16.892911
16.880312
16.861316
16.832972
16.791145
16.730138
16.642275
16.517421
16.342512
16.101114
15.773089
15.334525
14.758557
14.016007
13.07658
11.911684
10.498827
8.8277531
6.9081072
4.7742278
2.4961885
15.919988
15.918139
15.915111
15.910272
15.902685
15.890971
15.873137
15.846347
15.806633
15.748544
15.664748
15.545589
15.378656
15.148393
14.835834
14.418603
13.871367
13.166692
12.276521
11.174789
9.8414402
8.2680825
6.4649237
4.464557
2.3227322
14.655706
14.654165
14.651547
14.647256
14.640403
14.629683
14.613212
14.588319
14.551284
14.496997
14.418598
14.307081
14.150893
13.935607
13.643709
13.254632
12.745146
12.090232
11.264593
10.245111
9.0144746
7.5662399
5.9107662
4.0776881
2.1170192
13.074627
13.073417
13.071237
13.067546
13.061541
13.052011
13.03721
13.014695
12.981111
12.931811
12.860561
12.759209
12.61732
12.421908
12.157298
11.805159
11.344901
10.754497
10.011922
9.0974208
7.9967067
6.7053155
5.233534
3.6079267
1.8719037
11.142219
11.141361
11.139632
11.136588
11.131564
11.123459
11.110662
11.091033
11.061791
11.018896
10.956897
10.868755
10.745439
10.57577
10.346403
10.041755
9.6444236
9.1358932
8.497833
7.7141908
6.7738903
5.6743872
4.4256048
3.0508922
1.5858992
8.8437759
8.8432458
8.841895
8.8394491
8.8354627
8.8289401
8.8183246
8.8018458
8.7777619
8.7428187
8.6923695
8.6208515
8.5208377
8.3833839
8.1981158
7.9527335
7.6335902
7.2261161
6.7159448
6.0909309
5.3432598
4.4720663
3.486288
2.4060602
1.2602082
6.1935446
6.1932337
6.1921168
6.190283
6.1871783
6.1822356
6.1737314
6.1603322
6.1421903
6.1176641
6.0813364
6.0308109
5.9590002
5.8602769
5.7280461
5.5537542
5.3281632
5.0409544
4.6818894
4.242802
3.7190413
3.1109478
2.4250819
1.6769643
0.88712435
3.247288
3.247104
3.2464591
3.2579044
3.2429502
3.2397541
3.2339805
3.224804
3.2149098
3.2097245
3.1917662
3.1734428
3.1352455
3.0814657
3.0100003
2.916173
2.7964611
2.6448003
2.4553599
2.2239469
1.9486896
1.6303767
1.2718575
0.8834198
0.48299927
)
;

boundaryField
{
    Walls
    {
        Cmu             0.09;
        kappa           0.41;
        E               9.8;
        beta1           0.075;
        type            omegaWallFunction;
        value           nonuniform List<scalar> 
38
(
12058.204
12058.133
12058.18
12058.528
12061.536
12087.234
13481.058
13535.848
14919.477
15030.67
15116.55
15200.028
15271.951
15320.464
15372.105
15417.433
15440.459
15470.208
15496.933
15505.661
15522.235
15536.389
15538.451
15548.215
15554.185
15556.779
15566.08
15564.706
15573.604
15580.561
15575.723
15576.021
15575.776
15573.085
15570.618
15565.678
15555.943
15498.58
)
;
    }
    Inlet
    {
        type            turbulentMixingLengthDissipationRateInlet;
        mixingLength    0.03;
        phi             phi;
        k               k;
        value           nonuniform List<scalar> 3(0.0037261139 0.0050177221 0.0045172817);
    }
    Outlet
    {
        type            inletOutlet;
        inletValue      uniform 1e-05;
        value           nonuniform List<scalar> 
86
(
1e-05
1e-05
1e-05
1e-05
1e-05
1e-05
1e-05
1e-05
1e-05
1e-05
1e-05
1e-05
1e-05
1e-05
1e-05
1e-05
1e-05
1e-05
1e-05
1e-05
1e-05
1e-05
1e-05
1e-05
1e-05
1e-05
1e-05
1e-05
1e-05
1e-05
219.21661
218.1979
196.93561
1e-05
1e-05
1e-05
1e-05
1e-05
46.461234
37.417608
1e-05
1e-05
1e-05
1e-05
8.3132435
6.934176
5.8503275
4.9517508
4.2665387
3.7730451
3.4471526
3.2343017
3.1077017
3.020837
2.9701292
2.9476041
2.9312005
2.9314162
2.949103
2.9517524
2.9551369
2.9564988
2.9693914
2.9677378
2.9577851
2.9450043
2.9192424
2.8875948
2.8479534
1e-05
1e-05
1e-05
1e-05
1e-05
1e-05
1e-05
1e-05
1e-05
1e-05
0.48299927
1e-05
1e-05
1e-05
1e-05
195.72722
218.44338
)
;
    }
    Front
    {
        type            wedge;
    }
    Back
    {
        type            wedge;
    }
    defaultFaces
    {
        type            empty;
    }
}


// ************************************************************************* //
