/*--------------------------------*- C++ -*----------------------------------*\
| =========                 |                                                 |
| \\      /  F ield         | OpenFOAM: The Open Source CFD Toolbox           |
|  \\    /   O peration     | Version:  4.0                                   |
|   \\  /    A nd           | Web:      www.OpenFOAM.org                      |
|    \\/     M anipulation  |                                                 |
\*---------------------------------------------------------------------------*/
FoamFile
{
    version     2.0;
    format      ascii;
    class       volScalarField;
    location    "0.61";
    object      p;
}
// * * * * * * * * * * * * * * * * * * * * * * * * * * * * * * * * * * * * * //

dimensions      [0 2 -2 0 0 0 0];

internalField   nonuniform List<scalar> 
1740
(
491.54708
491.65369
491.68985
474.8175
474.87518
475.11984
458.44589
458.20167
458.49037
442.44887
442.20752
442.19492
426.33516
426.33636
426.20572
409.75587
409.65828
409.69309
392.96999
392.95428
393.13868
376.42421
376.7107
376.92165
360.25668
360.41953
360.61512
343.89109
343.80747
343.89081
327.11242
327.04404
326.93222
310.32968
310.50743
310.30243
293.56759
293.66694
293.53458
276.76463
276.54796
276.44725
259.9897
259.93383
259.8435
243.47148
243.61212
243.57983
227.19577
227.08296
227.21479
210.66782
210.46815
210.61551
193.81505
193.80935
193.70449
176.82414
176.95638
176.81885
159.82033
159.90605
159.77593
143.02812
142.93532
142.89874
126.36717
126.35536
126.71391
109.71228
109.91895
110.35338
93.652931
93.898311
93.803599
78.019766
78.027675
77.751347
62.23843
62.000405
61.815197
46.435058
46.225947
45.851339
30.765664
30.614595
30.492506
15.955656
15.760793
15.600252
3.9274253
3.4156948
1.6610091
-0.60553614
-0.52825218
-0.34859934
-0.09798886
-0.088244547
-0.072871796
0.033824868
0.031338145
0.023508764
0.036274657
0.035040976
0.03141851
0.032987205
0.031384796
0.028376076
0.027801266
0.026536548
0.024212233
0.023257769
0.022290743
0.0206073
0.019894354
0.019183966
0.017911133
0.01745455
0.016937288
0.015970613
0.01553395
0.015149073
0.014410589
0.013850641
0.013558789
0.012984559
0.012281864
0.012055924
0.011603919
0.010800388
0.010622919
0.01026227
0.0094193884
0.0092773684
0.0089858397
0.008157496
0.0080422612
0.0078035878
0.0070194957
0.0069251458
0.0067283197
0.0059980049
0.0059203121
0.00575728
0.0050823889
0.0050180036
0.0048822586
0.004262827
0.0042090836
0.0040953373
0.0035316627
0.0034864885
0.0033906304
0.0028834722
0.0028452193
0.0027643918
0.0023144699
0.0022820876
0.0022141477
0.0018199648
0.0017927384
0.0017348795
0.0013943081
0.0013712834
0.0013221005
0.0010316105
0.0010121188
0.00097039876
0.00072610826
0.00070963431
0.00067434111
0.0004723217
0.00045843784
0.00042868036
0.00026495475
0.00025329179
0.00022829352
9.8834248e-05
8.9069837e-05
6.8145457e-05
-3.1067266e-05
-3.9212745e-05
-5.6658428e-05
-0.00012956537
-0.00013633418
-0.00015081953
-0.00020123158
-0.00020683259
-0.0002188052
-0.00025034855
-0.00025495775
-0.00026479691
-0.00028074913
-0.00028452194
-0.00029256065
-0.00029580207
-0.00029888003
-0.00030542454
-0.00029859908
-0.00030110421
-0.0003064161
-0.00029193976
-0.00029397051
-0.0002982605
-0.00027820293
-0.00027984231
-0.00028328773
-0.00025936911
-0.00026068916
-0.00026344216
-0.00023707694
-0.00023813655
-0.00024032582
-0.00021264747
-0.00021348535
-0.00021522154
-0.00018709857
-0.00018775839
-0.00018912647
-0.00016119314
-0.00016170932
-0.00016277861
-0.00013546151
-0.00013586067
-0.00013668613
-0.00011021231
-0.00011051508
-0.00011113949
-8.5523084e-05
-8.5744249e-05
-8.6199966e-05
-6.125098e-05
-6.140209e-05
-6.1709756e-05
-3.7051874e-05
-3.7137234e-05
-3.7309305e-05
-1.2622098e-05
-1.264728e-05
-1.2696711e-05
-1.2658176
-0.89376864
-0.28027853
-0.21877152
-0.063315433
-0.065474831
0.016906383
0.0084598891
0.028272718
0.025626371
0.026152202
0.02457401
0.022210411
0.020924336
0.018959769
0.017686337
0.016557681
0.01534422
0.014856605
0.013806973
0.013514725
0.012623584
0.012262907
0.011513088
0.011018818
0.010387702
0.0097831132
0.0092498936
0.0085900215
0.0081361509
0.0074745602
0.0070880016
0.0064543087
0.0061285251
0.0055285511
0.0052541372
0.0046903239
0.0044576417
0.0039333894
0.0037351925
0.0032534947
0.0030841397
0.0026484553
0.0025038965
0.0021153536
0.0019916026
0.0016507907
0.0015450229
0.0012505412
0.0011603178
0.00090960275
0.00083279459
0.00062283392
0.00055764693
0.00038519491
0.00033008302
0.00019172535
0.00014532258
3.7519396e-05
-1.3628942e-06
-8.2196868e-05
-0.00011461761
-0.00017201953
-0.00019891767
-0.00023631587
-0.00025851314
-0.00027917533
-0.00029738455
-0.000304301
-0.00031915488
-0.00031497286
-0.00032703582
-0.00031415323
-0.00032390631
-0.00030449744
-0.00031233745
-0.00028828806
-0.00029455532
-0.0002674321
-0.00027241875
-0.00024349492
-0.00024744737
-0.00021772573
-0.00022083473
-0.00019109311
-0.00019352504
-0.00016431122
-0.00016619929
-0.00013786633
-0.00013931551
-0.00011203046
-0.00011312163
-8.6849338e-05
-8.764258e-05
-6.2147921e-05
-6.2681557e-05
-3.7553338e-05
-3.7850283e-05
-1.2766684e-05
-1.2852782e-05
0.020581481
0.020192083
0.019574584
0.018854702
0.018067927
0.017198709
0.016172105
0.014957803
0.013578986
0.012192498
0.010859983
0.009600243
0.0084480721
0.0073874996
0.0063910147
0.005460917
0.0046056739
0.0038290565
0.0031297974
0.0025034196
0.001944173
0.0014421196
0.00098637659
0.00056776209
0.00018145406
0.020263684
0.019848493
0.019185355
0.018386162
0.017458261
0.016378723
0.015176875
0.013863071
0.012504523
0.011106346
0.0097293662
0.0084277935
0.0072080638
0.0060975414
0.0051195859
0.0042673663
0.0035289154
0.0028926656
0.0023410539
0.0018610737
0.0014407774
0.0010661489
0.00072805743
0.00042258043
0.00014421721
0.015464701
0.014942482
0.014085173
0.012937972
0.011430083
0.0096258102
0.0077038404
0.0058786704
0.0043185659
0.0029905531
0.0018807573
0.0009733862
0.00024142317
-0.00033105776
-0.00074627882
-0.001017033
-0.0011635376
-0.0012076688
-0.0011632545
-0.0010475389
-0.00088168525
-0.00068493756
-0.00046964064
-0.00024789758
-4.2618648e-05
-0.00143006
-0.0022936247
-0.004031418
-0.0066241668
-0.0092730795
-0.011489353
-0.013037001
-0.013949273
-0.014394928
-0.014467559
-0.014240127
-0.013800609
-0.013196904
-0.012429638
-0.011534972
-0.010541933
-0.0094732219
-0.0083476317
-0.0071847113
-0.0060055407
-0.0048356325
-0.0036866674
-0.0025580259
-0.0014615719
-0.00043507812
-0.054260595
-0.055628336
-0.057354253
-0.056732848
-0.055043002
-0.052127856
-0.048600532
-0.044813837
-0.040894415
-0.036975088
-0.033271357
-0.029827012
-0.026594236
-0.023299397
-0.020253562
-0.017475132
-0.014951736
-0.012663414
-0.010581916
-0.0086739957
-0.0069011905
-0.0052378303
-0.0036733835
-0.0021859488
-0.00075504926
-0.22025107
-0.17966003
-0.16209881
-0.13201047
-0.10691956
-0.084779697
-0.065947802
-0.050542484
-0.038185036
-0.028360474
-0.020540783
-0.014400562
-0.0096533518
-0.0062234678
-0.0036289535
-0.0017485629
-0.00043695683
0.00042314188
0.00092408551
0.0011428359
0.0011458426
0.0009923404
0.00072552788
0.00038961145
-1.5491969e-05
-0.3301685
-0.13095973
-0.079849433
-0.041404699
-0.0070389102
0.019844984
0.036690256
0.044760591
0.047389557
0.047233106
0.045516442
0.042841607
0.039598263
0.0360427
0.032375041
0.028721673
0.025157047
0.021722329
0.018430507
0.015278354
0.01225445
0.0093441069
0.0065225833
0.0037791838
0.0010275101
-0.18447609
-0.16491401
-0.14244154
-0.11837216
-0.095265624
-0.074825633
-0.057522694
-0.043482185
-0.032324077
-0.023461966
-0.016567693
-0.011262739
-0.0072319253
-0.0041908026
-0.0019476595
-0.00035149134
0.00072418095
0.0013906331
0.0017278197
0.0018024799
0.001672385
0.0013894283
0.00099834812
0.00054470235
2.6359409e-05
-0.067935361
-0.069535955
-0.069503181
-0.067619365
-0.064235002
-0.059751794
-0.054974843
-0.050115572
-0.045296261
-0.040780506
-0.036487608
-0.032321271
-0.028398312
-0.024798453
-0.021519558
-0.018540513
-0.015829279
-0.013351608
-0.011097857
-0.0090441186
-0.007163328
-0.0054266439
-0.0038071093
-0.0022725876
-0.00079539686
0.0014420988
-0.005071299
-0.01084518
-0.015421812
-0.018846457
-0.021070802
-0.022282612
-0.022672879
-0.022449973
-0.021810898
-0.020868503
-0.019708537
-0.01838041
-0.016931619
-0.015406897
-0.013841208
-0.012266982
-0.010710399
-0.0091662984
-0.0076398599
-0.0061371876
-0.0046650301
-0.0032319736
-0.001850002
-0.00055539029
0.022690175
0.019798716
0.016077166
0.012067443
0.0079484236
0.0043518861
0.001489204
-0.00070964152
-0.0023488611
-0.0035176463
-0.0043028016
-0.0047793293
-0.0050050485
-0.0050309597
-0.0049014441
-0.0046448714
-0.0042871347
-0.0038589956
-0.0033770576
-0.0028562785
-0.0023107217
-0.0017541056
-0.0012001975
-0.00066204926
-0.00016655142
0.023079661
0.021840261
0.02061526
0.018887837
0.016966011
0.014737432
0.012417012
0.010221216
0.0082538427
0.0065757235
0.0051849975
0.0040494053
0.0031358924
0.0024046295
0.001829576
0.001383883
0.00104366
0.00078220305
0.00058164914
0.00042809871
0.0003100367
0.0002178718
0.00014442282
8.6810229e-05
4.2010104e-05
0.019883559
0.019023321
0.018230269
0.017307358
0.016258326
0.015037946
0.013723621
0.012283661
0.010847282
0.0094696631
0.0081896195
0.0070198286
0.005999839
0.0051094045
0.0043368274
0.0036675373
0.0030881803
0.0025777123
0.0021224915
0.0017120306
0.0013382255
0.00099479117
0.00067784262
0.00038647055
0.00012296942
0.016735649
0.016056891
0.015492961
0.014909812
0.014248539
0.013468082
0.012529469
0.011523434
0.010476658
0.009414571
0.0083609779
0.0073702846
0.006435907
0.0055824455
0.0048112827
0.0041178272
0.003490449
0.0029253826
0.0024156653
0.0019541843
0.0015339895
0.0011489667
0.00079283582
0.00045980237
0.00014598227
0.014416431
0.013773268
0.013293096
0.012853535
0.01239809
0.011874424
0.011246608
0.010547503
0.0097823832
0.0089692439
0.0081520513
0.0073411646
0.006548968
0.0057866348
0.0050650369
0.004389954
0.0037634695
0.0031840645
0.0026501757
0.0021584466
0.0017045467
0.0012833089
0.00088964685
0.00051848585
0.00016506558
0.012898094
0.012218478
0.011733055
0.011332398
0.010962953
0.01057965
0.01014557
0.0096496293
0.009094462
0.0084904186
0.0078478448
0.0071806298
0.006508782
0.0058395811
0.0051858545
0.004553516
0.0039525882
0.0033789765
0.0028380512
0.0023295206
0.0018514559
0.0014010083
0.00097478976
0.00056964296
0.00018191449
0.011840931
0.011160565
0.01062976
0.010209462
0.009854427
0.0095215611
0.0091798826
0.0088093752
0.0083978678
0.0079407527
0.0074386719
0.0069017455
0.0063343385
0.0057504368
0.0051664274
0.0045894225
0.0040240701
0.0034736998
0.002942651
0.002433603
0.0019465701
0.0014807776
0.001034797
0.00060710517
0.00019498301
0.010816433
0.010194077
0.0096623036
0.0092316268
0.0088739027
0.0085605787
0.0082624091
0.0079574184
0.0076296815
0.007270033
0.0068737832
0.0064417642
0.0059773453
0.005490853
0.0049845643
0.0044675328
0.003948926
0.0034351955
0.0029297439
0.0024380929
0.0019601668
0.0014968214
0.001048434
0.00061524288
0.00019711137
0.0097732214
0.0091959916
0.0086970422
0.0082796629
0.007930206
0.0076293289
0.0073551639
0.0070879359
0.0068117281
0.0065151937
0.0061925757
0.0058422778
0.0054635335
0.0050577561
0.0046283517
0.0041823065
0.0037260043
0.0032646431
0.0028038538
0.0023448744
0.0018927487
0.0014498543
0.0010177518
0.00059791658
0.00019136529
0.0087041185
0.008193577
0.007737921
0.0073444507
0.0070083361
0.006718522
0.0064600848
0.0062174634
0.005976272
0.0057253212
0.0054574441
0.0051685453
0.0048562157
0.0045204467
0.0041626331
0.0037858797
0.0033939204
0.0029909885
0.0025815213
0.0021690899
0.0017576899
0.0013504342
0.00094991652
0.00055900477
0.00017943421
0.0076651712
0.0072188361
0.0068060462
0.0064414962
0.0061229311
0.0058453224
0.0055992895
0.0053736998
0.0051569512
0.0049392379
0.0047129401
0.0044725053
0.0042146498
0.0039377367
0.0036416085
0.0033269488
0.0029961721
0.0026524821
0.0022991924
0.0019395046
0.0015768881
0.0012145384
0.00085535082
0.0005041007
0.00016311023
0.0066868059
0.0062954302
0.005925257
0.0055911991
0.0052912747
0.0050272827
0.0047930022
0.0045806103
0.0043817075
0.0041881408
0.0039928356
0.0037901391
0.0035760985
0.0033481195
0.0031044598
0.0028450669
0.0025708619
0.0022837645
0.0019861547
0.0016806342
0.001370068
0.0010574497
0.00074528619
0.00043987445
0.00014399426
0.0057837714
0.0054394104
0.0051086411
0.0048014497
0.0045221433
0.0042729282
0.0040506804
0.0038503378
0.0036657239
0.003490547
0.0033188706
0.0031455684
0.0029664839
0.0027784769
0.0025792639
0.0023678316
0.0021441961
0.0019092134
0.0016643961
0.0014116935
0.0011533992
0.00089204435
0.00063021254
0.00037245485
0.00012095876
0.0049561408
0.0046526922
0.0043571549
0.0040766928
0.0038184296
0.0035847881
0.0033751404
0.0031865015
0.0030145848
0.0028546471
0.0027019738
0.002552129
0.0024012186
0.0022460336
0.0020841056
0.0019138423
0.0017345918
0.0015464569
0.0013501873
0.0011470463
0.00093873154
0.0007272807
0.00051489991
0.00030458666
9.825362e-05
0.0042006369
0.0039340067
0.0036698264
0.0034157903
0.0031787282
0.0029618121
0.0027657063
0.0025890829
0.0024293442
0.0022830563
0.0021465805
0.0020162146
0.0018885809
0.0017607001
0.0016301084
0.0014949978
0.001354255
0.0012074343
0.0010546794
0.00089664865
0.000734453
0.00056957588
0.00040369543
0.00023913039
7.740874e-05
0.0035144232
0.003280751
0.003045468
0.0028170523
0.0026013329
0.0024019207
0.0022203766
0.002056557
0.0019090484
0.001775688
0.0016537569
0.0015402692
0.0014324336
0.0013276575
0.0012236174
0.0011184537
0.0010108228
0.00089991291
0.00078542149
0.0006675063
0.0005467487
0.00042407548
0.00030062182
0.00017845233
5.8540843e-05
0.0028940734
0.0026908065
0.0024830267
0.0022791025
0.0020845713
0.0019031905
0.0017370286
0.0015867598
0.0014519378
0.0013312202
0.001222709
0.0011243552
0.0010337837
0.00094884616
0.00086743008
0.00078775852
0.00070840973
0.00062835681
0.00054698935
0.00046406248
0.00037971502
0.00029440164
0.00020874539
0.00012387183
4.0387974e-05
0.0023382456
0.0021639279
0.0019814076
0.0018009038
0.0016270788
0.0014637991
0.0013134693
0.001177256
0.0010553639
0.00094717358
0.00085153112
0.00076696156
0.00069171123
0.00062390196
0.00056178974
0.00050375527
0.0004483841
0.00039452122
0.00034135899
0.00028834208
0.00023524002
0.00018206967
0.00012894556
7.6542498e-05
2.509553e-05
0.0018491063
0.0016960648
0.001539288
0.0013807745
0.0012268549
0.0010813481
0.00094688241
0.00082492436
0.0007160897
0.00062032142
0.00053702132
0.0004651956
0.00040359534
0.00035070773
0.0003051048
0.00026533066
0.00023006571
0.00019812852
0.00016852523
0.0001405285
0.00011359714
8.7367961e-05
6.1550593e-05
3.637087e-05
1.1728097e-05
0.0014226564
0.001289674
0.0011530764
0.0010164584
0.00088112942
0.0007527492
0.00063383035
0.00052595911
0.00043008378
0.00034651492
0.00027503396
0.00021505586
0.00016570249
0.00012586058
9.4338759e-05
6.9881184e-05
5.1262191e-05
3.7338099e-05
2.7047113e-05
1.9500247e-05
1.3924935e-05
9.6821791e-06
6.1694461e-06
3.3936354e-06
9.508522e-07
0.0010555281
0.00094100307
0.00082152253
0.00070139719
0.00058615791
0.00047418419
0.00037039129
0.00027612983
0.00019287135
0.00012110921
6.0841129e-05
1.1823729e-05
-2.6499763e-05
-5.4957618e-05
-7.4532043e-05
-8.6266038e-05
-9.1278314e-05
-9.0669323e-05
-8.5498381e-05
-7.6754028e-05
-6.5354713e-05
-5.215318e-05
-3.7885947e-05
-2.2747428e-05
-7.4273425e-06
0.00074333692
0.00064518174
0.00054225236
0.00043816796
0.00033617127
0.00024079089
0.00015226207
7.0957773e-05
-1.9344246e-07
-6.0671013e-05
-0.00011050692
-0.00014947778
-0.00017793304
-0.00019653375
-0.00020605302
-0.00020736614
-0.00020145819
-0.00018935685
-0.00017211042
-0.00015075174
-0.00012627913
-9.9629092e-05
-7.1659002e-05
-4.2713546e-05
-1.3713472e-05
0.00048157799
0.00039789394
0.00030989922
0.00022073741
0.0001333142
5.0319979e-05
-2.6810704e-05
-9.4943463e-05
-0.00015403882
-0.00020354303
-0.00024400981
-0.0002738995
-0.00029358921
-0.00030373397
-0.00030494353
-0.00029786878
-0.00028337344
-0.00026242388
-0.00023603683
-0.00020524714
-0.00017106791
-0.00013446198
-9.6358823e-05
-5.7262898e-05
-1.825099e-05
0.00026568983
0.00019473368
0.00012000623
4.4213339e-05
-3.0117002e-05
-0.00010073581
-0.00016581928
-0.00022356509
-0.00027354748
-0.00031467544
-0.00034532082
-0.00036658224
-0.000378313
-0.00038129106
-0.00037584225
-0.00036215793
-0.00034109262
-0.00031355765
-0.00028051793
-0.00024298742
-0.00020198835
-0.0001584648
-0.00011334323
-6.7210803e-05
-2.1294791e-05
9.1079578e-05
3.1258263e-05
-3.1786383e-05
-9.5729318e-05
-0.00015837691
-0.00021775335
-0.00027216182
-0.00032017874
-0.00036090416
-0.00039341855
-0.0004170219
-0.00043183079
-0.00043797394
-0.00043504311
-0.00042357736
-0.00040454773
-0.00037854716
-0.00034630762
-0.00030866373
-0.00026660849
-0.00022121233
-0.00017337263
-0.00012397386
-7.339808e-05
-2.272351e-05
-4.6820621e-05
-9.6965089e-05
-0.00014979826
-0.00020332933
-0.00025566139
-0.00030506106
-0.00035001547
-0.00038926143
-0.00042182885
-0.00044693358
-0.00046402914
-0.00047297246
-0.00047369774
-0.00046621789
-0.00045089031
-0.00042832226
-0.00039913768
-0.00036405376
-0.00032387503
-0.00027938601
-0.00023136697
-0.00018081511
-0.00012882929
-7.6279378e-05
-2.4271565e-05
-0.00015250742
-0.00019428819
-0.00023826363
-0.000282729
-0.00032604798
-0.00036670889
-0.0004033749
-0.0004349114
-0.00046040446
-0.00047914761
-0.00049065398
-0.00049468549
-0.00049115419
-0.00048014374
-0.00046192574
-0.00043696279
-0.00040581193
-0.00036912371
-0.00032762246
-0.00028207555
-0.00023330075
-0.00018221975
-0.00012986047
-7.687011e-05
-2.4306887e-05
-0.00023032065
-0.00026491863
-0.00030126719
-0.00033790847
-0.00037343235
-0.00040652943
-0.00043602589
-0.00046091161
-0.00048035905
-0.00049372833
-0.00050057187
-0.00050063516
-0.00049382994
-0.00048023004
-0.00046006636
-0.00043371823
-0.00040167914
-0.00036453232
-0.00032294106
-0.00027762815
-0.00022937391
-0.00017902031
-0.00012750397
-7.540352e-05
-2.3717442e-05
-0.00028439244
-0.00031285413
-0.00034267727
-0.00037262111
-0.00040147516
-0.00042810646
-0.00045148845
-0.00047073069
-0.00048509705
-0.00049401394
-0.00049707389
-0.00049403508
-0.00048481103
-0.00046946132
-0.00044818492
-0.00042130814
-0.00038926569
-0.00035258307
-0.00031186315
-0.00026777172
-0.0002210264
-0.00017238808
-0.00012272198
-7.2470641e-05
-2.2624251e-05
-0.0003185856
-0.00034183696
-0.00036611632
-0.00039037327
-0.00041357985
-0.00043474909
-0.00045298631
-0.00046751383
-0.00047768515
-0.00048299337
-0.00048307475
-0.00047770927
-0.00046681493
-0.00045044071
-0.00042875977
-0.00040205827
-0.00037072174
-0.0003352217
-0.00029610268
-0.00025396972
-0.00020947557
-0.00016331051
-0.00011624279
-6.8620816e-05
-2.1434025e-05
-0.00033641737
-0.0003552917
-0.00037491668
-0.00039440012
-0.00041286428
-0.00042946231
-0.00044342305
-0.00045407267
-0.00046084772
-0.00046330481
-0.00046112574
-0.00045411407
-0.0004421938
-0.00042540687
-0.00040390579
-0.00037794395
-0.00034786439
-0.00031408855
-0.00027710506
-0.00023745841
-0.00019573723
-0.00015256515
-0.00010863041
-6.4068104e-05
-1.9897766e-05
-0.00034102028
-0.00035625297
-0.00037201289
-0.00038753613
-0.00040206286
-0.00041488429
-0.00042534585
-0.00043286765
-0.00043696127
-0.0004372407
-0.00043342813
-0.00042535193
-0.00041294645
-0.00039624991
-0.00037539793
-0.00035061544
-0.00032220725
-0.00029054841
-0.00025607419
-0.00021926967
-0.00018065919
-0.0001407968
-0.00010028981
-5.9081171e-05
-1.8237754e-05
-0.00033517607
-0.00034739005
-0.00035995323
-0.00037221342
-0.00038352496
-0.00039328778
-0.00040094621
-0.00040600511
-0.00040804506
-0.00040673214
-0.00040182343
-0.00039317275
-0.00038072813
-0.00036452654
-0.00034468928
-0.00032141575
-0.00029497605
-0.00026570222
-0.00023397901
-0.0002002341
-0.00016492784
-0.00012854363
-9.1617201e-05
-5.390645e-05
-1.6522841e-05
-0.00032136175
-0.00033109389
-0.00034102535
-0.00035061824
-0.00035933516
-0.00036665804
-0.00037211174
-0.00037527514
-0.00037579133
-0.00037337555
-0.00036782038
-0.00035900251
-0.00034688048
-0.00033149008
-0.00031294024
-0.00029140783
-0.00026713144
-0.00024040362
-0.00021156231
-0.00018098148
-0.00014906077
-0.00011621619
-8.2919287e-05
-4.8727536e-05
-1.4810384e-05
-0.00030173976
-0.00030944203
-0.00031723601
-0.00032467712
-0.00033131393
-0.00033670694
-0.00034045152
-0.00034219033
-0.00034162108
-0.00033850368
-0.0003326656
-0.00032400295
-0.00031248128
-0.00029813436
-0.00028105973
-0.0002614139
-0.00023940679
-0.00021529501
-0.00018937426
-0.00016197065
-0.00013343108
-0.00010411175
-7.4423459e-05
-4.3671197e-05
-1.3133326e-05
-0.00027810889
-0.0002841658
-0.00029023589
-0.00029595879
-0.00030094878
-0.00030483692
-0.00030728304
-0.00030798633
-0.00030669201
-0.00030319858
-0.00029736191
-0.00028909578
-0.00027837321
-0.0002652256
-0.00024973949
-0.00023205234
-0.0002123478
-0.00019085029
-0.00016781848
-0.00014353808
-0.0001183135
-9.2452997e-05
-6.6314179e-05
-3.8833405e-05
-1.1496034e-05
-0.00025193432
-0.00025666621
-0.00026134287
-0.00026571005
-0.00026941659
-0.00027215367
-0.0002736398
-0.00027362442
-0.00027189383
-0.00026827965
-0.00026266103
-0.00025496717
-0.00024517798
-0.00023332302
-0.00021947857
-0.00020376428
-0.00018633986
-0.00016740122
-0.0001471752
-0.00012591399
-0.00010389081
-8.138459e-05
-5.8754837e-05
-3.4295593e-05
-9.8492634e-06
-0.00022435049
-0.00022803422
-0.00023162519
-0.00023491859
-0.00023763062
-0.00023950248
-0.00024030093
-0.00023981946
-0.00023787731
-0.00023433592
-0.00022909442
-0.00022209464
-0.00021332181
-0.00020280398
-0.00019060799
-0.00017683721
-0.00016162929
-0.00014515442
-0.00012761108
-0.00010922187
-9.0236852e-05
-7.0923117e-05
-5.1861582e-05
-3.002205e-05
-8.1241057e-06
-0.00019625874
-0.00019910249
-0.00020185251
-0.00020431081
-0.00020626181
-0.00020749683
-0.00020782428
-0.00020707062
-0.00020508868
-0.00020176268
-0.00019700911
-0.00019078034
-0.0001830652
-0.00017389075
-0.00016331532
-0.00015142776
-0.000138345
-0.00012421254
-0.00010920081
-9.3499784e-05
-7.7336346e-05
-6.0845596e-05
-4.5124873e-05
-2.5858114e-05
-6.6940063e-06
-0.00016830987
-0.00017048867
-0.00017256984
-0.00017438569
-0.00017576628
-0.00017654574
-0.00017656924
-0.00017569329
-0.00017379689
-0.00017078621
-0.00016659207
-0.00016117639
-0.00015452872
-0.00014667446
-0.00013766482
-0.00012757836
-0.00011651492
-0.00010459355
-9.1950273e-05
-7.8747874e-05
-6.517076e-05
-5.1421674e-05
-3.8030316e-05
-2.1769629e-05
-5.5584624e-06
-0.00014092727
-0.00014257776
-0.00014413276
-0.00014545565
-0.00014641355
-0.00014687805
-0.00014672571
-0.00014583886
-0.00014411533
-0.00014148321
-0.00013788586
-0.00013329804
-0.00012770837
-0.0001211239
-0.00011359357
-0.00010519259
-9.6014939e-05
-8.6157434e-05
-7.5725654e-05
-6.4847935e-05
-5.3660638e-05
-4.2303898e-05
-3.098287e-05
-1.7889226e-05
-4.7333609e-06
-0.00011433021
-0.00011555875
-0.0001167007
-0.00011764531
-0.00011829315
-0.00011854881
-0.00011831619
-0.00011749797
-0.00011600836
-0.00011377237
-0.00011075587
-0.00010694164
-0.00010234502
-9.6973817e-05
-9.086626e-05
-8.4079203e-05
-7.6687413e-05
-6.8772059e-05
-6.0425633e-05
-5.173826e-05
-4.2804429e-05
-3.370426e-05
-2.4546624e-05
-1.422178e-05
-3.8506515e-06
-8.8518452e-05
-8.9403991e-05
-9.0218081e-05
-9.0873754e-05
-9.1295274e-05
-9.1419501e-05
-9.114875e-05
-9.0404988e-05
-8.9129036e-05
-8.7270212e-05
-8.4824078e-05
-8.1778849e-05
-7.8158161e-05
-7.3997511e-05
-6.931486e-05
-6.4135062e-05
-5.8493983e-05
-5.2452717e-05
-4.608406e-05
-3.9455937e-05
-3.2636317e-05
-2.5681375e-05
-1.8672516e-05
-1.0820417e-05
-2.9405315e-06
-6.3268447e-05
-6.3860647e-05
-6.4399693e-05
-6.4818993e-05
-6.5040701e-05
-6.5036538e-05
-6.4723702e-05
-6.4061908e-05
-6.3024989e-05
-6.1622339e-05
-5.984307e-05
-5.7685908e-05
-5.5132316e-05
-5.2199351e-05
-4.890166e-05
-4.5256565e-05
-4.1287374e-05
-3.7033067e-05
-3.2539617e-05
-2.7858414e-05
-2.3040128e-05
-1.8134524e-05
-1.3222233e-05
-7.6385655e-06
-2.0358962e-06
-3.8175438e-05
-3.8495667e-05
-3.8768853e-05
-3.8937167e-05
-3.8913267e-05
-3.8802679e-05
-3.8553979e-05
-3.813059e-05
-3.7518839e-05
-3.6712651e-05
-3.5683436e-05
-3.4427675e-05
-3.2931797e-05
-3.119294e-05
-2.9223883e-05
-2.7041964e-05
-2.4668774e-05
-2.2126833e-05
-1.944199e-05
-1.6644767e-05
-1.376831e-05
-1.0847358e-05
-7.9913267e-06
-4.5637328e-06
-1.1575003e-06
-1.2947327e-05
-1.3028367e-05
-1.3074477e-05
-1.3049768e-05
-1.295522e-05
-1.2904128e-05
-1.2861997e-05
-1.2767694e-05
-1.2604071e-05
-1.236084e-05
-1.2031186e-05
-1.1610393e-05
-1.1105582e-05
-1.0518347e-05
-9.852611e-06
-9.1148268e-06
-8.3129978e-06
-7.4548694e-06
-6.5490725e-06
-5.6057459e-06
-4.6358855e-06
-3.6502026e-06
-2.6594325e-06
-1.5342483e-06
-4.1626686e-07
)
;

boundaryField
{
    Walls
    {
        type            zeroGradient;
    }
    Inlet
    {
        type            fixedValue;
        value           uniform 500;
    }
    Outlet
    {
        type            fixedValue;
        value           uniform 0;
    }
    Front
    {
        type            wedge;
    }
    Back
    {
        type            wedge;
    }
    defaultFaces
    {
        type            empty;
    }
}


// ************************************************************************* //
