/*--------------------------------*- C++ -*----------------------------------*\
| =========                 |                                                 |
| \\      /  F ield         | OpenFOAM: The Open Source CFD Toolbox           |
|  \\    /   O peration     | Version:  4.0                                   |
|   \\  /    A nd           | Web:      www.OpenFOAM.org                      |
|    \\/     M anipulation  |                                                 |
\*---------------------------------------------------------------------------*/
FoamFile
{
    version     2.0;
    format      ascii;
    class       surfaceScalarField;
    location    "0.61";
    object      phi;
}
// * * * * * * * * * * * * * * * * * * * * * * * * * * * * * * * * * * * * * //

dimensions      [0 3 -1 0 0 0 0];

internalField   nonuniform List<scalar> 
3364
(
-2.2485535e-10
1.6645322e-08
-5.1387376e-10
4.8159189e-08
8.6574732e-08
-2.9685868e-10
1.6942138e-08
-1.9627214e-09
4.982507e-08
8.4612036e-08
1.255222e-10
1.6816568e-08
-2.084894e-09
5.2035533e-08
8.2527152e-08
1.8616034e-10
1.6630384e-08
2.5891238e-10
5.1962777e-08
8.2786042e-08
6.3152381e-11
1.6567223e-08
1.2768273e-09
5.0749048e-08
8.4062822e-08
3.1604784e-10
1.6251145e-08
2.988975e-10
5.076614e-08
8.4361673e-08
-1.1563629e-11
1.6262664e-08
-3.9036608e-10
5.1144882e-08
8.3971269e-08
-7.8320649e-10
1.7045845e-08
-1.0854853e-09
5.1447108e-08
8.2885745e-08
-3.3108254e-10
1.7376903e-08
-1.0498757e-09
5.2165882e-08
8.1835844e-08
5.6591178e-10
1.6810944e-08
2.4512603e-11
5.2707244e-08
8.1860325e-08
3.0245146e-10
1.6508447e-08
5.1870161e-10
5.2490921e-08
8.2378983e-08
-5.7973413e-10
1.7088146e-08
5.6231311e-10
5.1348829e-08
8.2941271e-08
-3.9780005e-10
1.7485914e-08
4.6043603e-10
5.0490566e-08
8.3401684e-08
4.72458e-10
1.7013436e-08
-1.564803e-11
5.0978645e-08
8.3386e-08
3.1534775e-10
1.6698052e-08
2.4292178e-10
5.1051063e-08
8.3628897e-08
-1.5150045e-10
1.6849478e-08
8.3953222e-10
5.0059993e-08
8.4468409e-08
2.0355014e-10
1.6645876e-08
-3.3324664e-10
5.0596723e-08
8.4135106e-08
2.3005968e-10
1.6415784e-08
-1.1709042e-09
5.1997628e-08
8.2964149e-08
-1.909343e-10
1.6606678e-08
2.8264165e-10
5.1523994e-08
8.3246749e-08
-2.7685113e-10
1.6883508e-08
6.5721647e-10
5.0589885e-08
8.3903925e-08
-1.4460148e-10
1.7028072e-08
8.211444e-10
4.9624083e-08
8.4725029e-08
-1.7260684e-10
1.7200628e-08
8.3284937e-11
4.9368148e-08
8.4808281e-08
-1.7402646e-10
1.7374656e-08
-1.5899013e-09
5.0784005e-08
8.3218346e-08
-2.1514395e-10
1.7589805e-08
-1.9816138e-09
5.2550455e-08
8.1236698e-08
-1.0313193e-10
1.7692888e-08
6.2024069e-10
5.182705e-08
8.1856913e-08
4.5665015e-10
1.7236163e-08
1.8428732e-09
5.0440777e-08
8.3699751e-08
5.6573861e-10
1.6670377e-08
7.7358621e-10
5.0232871e-08
8.4473292e-08
-3.3664308e-11
1.6704035e-08
4.6600731e-10
4.9733189e-08
8.4939255e-08
2.1713601e-11
1.6682362e-08
1.2255641e-11
4.9742729e-08
8.4951545e-08
1.4129681e-09
1.5269609e-08
3.9340521e-09
4.7221771e-08
8.8885577e-08
1.1217645e-08
4.051304e-09
4.8068043e-08
1.0369476e-08
1.0534363e-08
1.2641668e-07
4.616154e-09
-5.6531336e-10
1.6455102e-08
-1.4709353e-09
-1.527787e-09
2.851541e-08
-4.5063329e-10
-1.146431e-10
-1.6127463e-09
-3.0874448e-10
-4.295288e-10
-2.710897e-09
-1.1220791e-10
-2.4201027e-12
-4.0918552e-10
-1.1731075e-11
-4.4441299e-11
-7.9423365e-10
-8.6456394e-12
6.2267994e-12
-3.9687307e-11
1.9314263e-11
1.7808613e-11
-1.0193263e-10
1.5391416e-13
6.0730499e-12
1.0016998e-12
1.8466902e-11
2.5304229e-11
-6.4935105e-12
1.0130443e-12
5.0602131e-12
5.052081e-12
1.4428248e-11
2.1283784e-11
9.0739798e-12
1.5216796e-12
3.53888e-12
6.1254381e-12
9.8250654e-12
1.4335093e-11
1.3074704e-11
1.0816785e-12
2.4574093e-12
4.2502919e-12
6.6567767e-12
9.5024108e-12
9.083337e-12
5.0467954e-13
1.9528955e-12
1.7049138e-12
5.4568426e-12
7.7461128e-12
3.4616233e-12
1.183829e-13
1.8346582e-12
4.4356236e-13
5.1319458e-12
7.7179609e-12
4.721304e-13
2.9631133e-14
1.8051414e-12
-1.273372e-14
5.1745438e-12
8.0263771e-12
-3.2079663e-13
5.2247705e-14
1.7529762e-12
1.0191001e-13
5.1250539e-12
8.0261963e-12
1.0235402e-13
1.0303006e-13
1.6500027e-12
3.7293025e-13
4.8552716e-12
7.6867142e-12
7.1259434e-13
1.4823986e-13
1.5018017e-12
5.6718941e-13
4.4364013e-12
7.0734363e-12
1.1805899e-12
1.6041721e-13
1.3414116e-12
6.2641702e-13
3.9704564e-12
6.3721114e-12
1.3278263e-12
1.4618371e-13
1.1952476e-12
5.7605611e-13
3.5406236e-12
5.7060191e-12
1.2422094e-12
1.2790757e-13
1.0673547e-12
5.0405914e-13
3.164501e-12
5.1143708e-12
1.0957519e-12
1.1286247e-13
9.5450276e-13
4.43207e-13
2.8341768e-12
4.5924987e-12
9.6511049e-13
1.030325e-13
8.5147759e-13
4.0587261e-13
2.5313499e-12
4.1115341e-12
8.8685735e-13
9.7479003e-14
7.540033e-13
3.8233708e-13
2.2464989e-12
3.6582633e-12
8.3561837e-13
9.5118802e-14
6.5888717e-13
3.7892157e-13
1.9626984e-12
3.2092913e-12
8.2789624e-13
8.4927654e-14
5.7396073e-13
3.3631973e-13
1.7113052e-12
2.7993266e-12
7.4628165e-13
7.7694854e-14
4.9626604e-13
3.0883369e-13
1.4801628e-12
2.4183318e-12
6.8982162e-13
7.1974716e-14
4.2429069e-13
2.8690068e-13
1.2652315e-12
2.0659221e-12
6.3930056e-13
6.6157257e-14
3.5813222e-13
2.6373869e-13
1.0676436e-12
1.7423391e-12
5.8730981e-13
6.0070628e-14
2.9805998e-13
2.3946804e-13
8.8823897e-13
1.4484516e-12
5.3334248e-13
5.3951064e-14
2.4410706e-13
2.1495556e-13
7.2722685e-13
1.1845425e-12
4.7885116e-13
4.8077102e-14
1.9602795e-13
1.9168743e-13
5.8360877e-13
9.4898892e-13
4.2722738e-13
4.2255823e-14
1.5377006e-13
1.6857305e-13
4.5728389e-13
7.4193891e-13
3.7560977e-13
3.6640359e-14
1.1712764e-13
1.4610147e-13
3.4781539e-13
5.6237098e-13
3.2565669e-13
3.1329984e-14
8.5795675e-14
1.2492276e-13
2.5421563e-13
4.0895003e-13
2.7833175e-13
2.6443323e-14
5.9350482e-14
1.0541214e-13
1.7524032e-13
2.7968451e-13
2.3466661e-13
2.1972842e-14
3.7375917e-14
8.7691374e-14
1.0951584e-13
1.7250002e-13
1.948658e-13
1.7700518e-14
1.9673848e-14
7.0524632e-14
5.6686388e-14
8.5737437e-14
1.5727821e-13
1.4082424e-14
5.5900588e-15
5.6114452e-14
1.4649644e-14
1.6923088e-14
1.2492092e-13
1.0945942e-14
-5.3570616e-15
4.3600213e-14
-1.8008729e-14
-3.6332595e-14
9.6849123e-14
8.2253678e-15
-1.3583428e-14
3.2732022e-14
-4.2518884e-14
-7.6175574e-14
7.2569275e-14
5.9116109e-15
-1.9495869e-14
2.3503254e-14
-6.011345e-14
-1.0470504e-13
5.2027963e-14
3.9976134e-15
-2.3494157e-14
1.5882555e-14
-7.2000785e-14
-1.2390806e-13
3.5081703e-14
2.5383032e-15
-2.6032994e-14
1.0027956e-14
-7.9492356e-14
-1.3564166e-13
2.1758488e-14
1.3321652e-15
-2.7365571e-14
5.171637e-15
-8.3333323e-14
-1.4145869e-13
1.0986286e-14
4.5297248e-16
-2.7818847e-14
1.6890311e-15
-8.457052e-14
-1.4310243e-13
3.3309957e-15
-1.4758608e-16
-2.7671484e-14
-6.9242076e-16
-8.4026526e-14
-1.4188955e-13
-1.9065828e-15
-4.870918e-16
-2.7184551e-14
-2.018203e-15
-8.2496033e-14
-1.3908908e-13
-4.8195804e-15
-5.8258373e-16
-2.6602088e-14
-2.3429977e-15
-8.0736071e-14
-1.35962e-13
-5.4707131e-15
-4.4237981e-16
-2.6159805e-14
-1.8612462e-15
-7.9317545e-14
-1.3350787e-13
-4.3158237e-15
-7.6894207e-17
-2.6082982e-14
-8.1891911e-16
-7.8575752e-14
-1.3235125e-13
-1.9757723e-15
6.3287319e-17
-2.6146295e-14
6.3131685e-16
-7.9143863e-14
-1.3301621e-13
1.2963123e-15
2.4514504e-16
1.0371983e-15
2.2534451e-15
1.3583721e-07
-9.4257931e-09
-8.6371748e-09
1.4446815e-07
2.0576177e-08
-1.4877375e-09
-1.4292469e-09
1.3367732e-08
-3.6959365e-09
-5.0256181e-10
-6.2455073e-10
-4.5004859e-09
-1.2066477e-09
-9.0091668e-11
-1.4013742e-10
-1.690995e-09
-2.0929034e-10
1.7277843e-11
1.0990402e-11
-3.6040228e-10
-2.0857571e-11
3.1645389e-11
4.3752417e-11
-5.3616091e-11
1.3663585e-11
2.7056695e-11
3.8134624e-11
1.9281859e-11
2.1837923e-11
1.829367e-11
2.4051835e-11
3.5920556e-11
1.5313085e-11
1.2064161e-11
1.5272156e-11
2.4092832e-11
6.2045483e-12
9.3216701e-12
1.0951988e-11
1.0525118e-11
2.9090516e-13
9.5033994e-12
1.0858197e-11
3.852471e-13
-9.0364677e-13
1.0086695e-11
1.2010013e-11
-2.0549503e-12
-1.7496664e-13
1.0364352e-11
1.2214367e-11
-3.7892787e-13
1.0729772e-12
1.0004204e-11
1.1809523e-11
1.4780963e-12
1.8910171e-12
9.2939349e-12
1.0992116e-11
2.7086099e-12
2.1807662e-12
8.4411045e-12
1.0077127e-11
3.0958836e-12
2.0752796e-12
7.608113e-12
9.1690371e-12
2.9834621e-12
1.8499782e-12
6.8539441e-12
8.3363709e-12
2.6827118e-12
1.6437125e-12
6.1753826e-12
7.5613621e-12
2.4187685e-12
1.5161045e-12
5.5461613e-12
6.8142056e-12
2.2632906e-12
1.4634221e-12
4.9183706e-12
6.0570703e-12
2.2205716e-12
1.3957526e-12
4.350517e-12
5.3757618e-12
2.0770631e-12
1.2927149e-12
3.8040789e-12
4.7051592e-12
1.9633101e-12
1.2081054e-12
3.2857847e-12
4.0639722e-12
1.8492782e-12
1.1198002e-12
2.8052703e-12
3.4653532e-12
1.7183993e-12
1.0289312e-12
2.3636312e-12
2.916389e-12
1.5778718e-12
9.3474956e-13
1.9622049e-12
2.4173966e-12
1.4337164e-12
8.3895992e-13
1.6020764e-12
1.9669686e-12
1.2893618e-12
7.4969172e-13
1.2795924e-12
1.5662264e-12
1.1504081e-12
6.581186e-13
9.9706456e-13
1.2141416e-12
1.0101786e-12
5.7092521e-13
7.5177796e-13
9.0820305e-13
8.7684032e-13
4.8768776e-13
5.4240505e-13
6.4806296e-13
7.4780604e-13
4.1073892e-13
3.6631718e-13
4.2977334e-13
6.2900854e-13
3.4075234e-13
2.2041654e-13
2.483411e-13
5.2216655e-13
2.7547258e-13
1.0220965e-13
1.0203998e-13
4.2175781e-13
2.1842895e-13
8.6907461e-15
-1.3405812e-14
3.3386098e-13
1.688338e-13
-6.3303243e-14
-1.0162122e-13
2.5703745e-13
1.2619813e-13
-1.1693994e-13
-1.6709577e-13
1.9166281e-13
9.0170219e-14
-1.5508868e-13
-2.1314468e-13
1.3621099e-13
6.041254e-14
-1.8042478e-13
-2.4287485e-13
9.013614e-14
3.6944289e-14
-1.9561473e-13
-2.5965051e-13
5.3714781e-14
1.8046667e-14
-2.0267829e-13
-2.6782534e-13
2.6217587e-14
4.7627783e-15
-2.0411242e-13
-2.6839353e-13
5.3281075e-15
-4.2350836e-15
-2.0178558e-13
-2.6424008e-13
-8.3905354e-15
-9.2714278e-15
-1.9733488e-13
-2.5773913e-13
-1.57737e-14
-1.0258565e-14
-1.9254779e-13
-2.5095669e-13
-1.7041859e-14
-7.9766887e-15
-1.8888741e-13
-2.4578638e-13
-1.3147489e-14
-3.6270294e-15
-1.8723633e-13
-2.4332416e-13
-6.0893398e-15
1.90105e-15
-1.8784084e-13
-2.4372813e-13
2.3054789e-15
3.7279885e-15
5.5170336e-15
-3.9578062e-12
3.9526236e-12
-9.028998e-12
5.0651274e-12
-1.566704e-11
6.6365128e-12
-2.4722993e-11
9.0579856e-12
-3.7885358e-11
1.3166466e-11
-5.7434675e-11
1.9554784e-11
-8.3415176e-11
2.5986923e-11
-1.1448302e-10
3.1074848e-11
-1.5451423e-10
4.0038536e-11
-2.0179896e-10
4.729209e-11
-2.5411912e-10
5.2327366e-11
-3.0671619e-10
5.2603931e-11
-3.575271e-10
5.0817284e-11
-4.0634853e-10
4.8827196e-11
-4.5345801e-10
4.7114572e-11
-4.9871666e-10
4.5262966e-11
-5.4162134e-10
4.2908237e-11
-5.8139369e-10
3.9775111e-11
-6.1733976e-10
3.594812e-11
-6.4881673e-10
3.1478342e-11
-6.7523092e-10
2.6415028e-11
-6.9616592e-10
2.0935376e-11
-7.112667e-10
1.5100849e-11
-7.2020878e-10
8.9419356e-12
2.5024929e-12
-4.1931672e-11
4.5889494e-11
-9.3665684e-11
5.6807236e-11
-1.5694231e-10
6.9922537e-11
-2.338683e-10
8.5993862e-11
-3.2619309e-10
1.0550119e-10
-4.3498555e-10
1.2835695e-10
-5.6290174e-10
1.5391238e-10
-7.1222479e-10
1.8040659e-10
-8.7554109e-10
2.0336282e-10
-1.048732e-09
2.2049028e-10
-1.2284462e-09
2.3204801e-10
-1.415103e-09
2.3926641e-10
-1.6060286e-09
2.4174795e-10
-1.7984321e-09
2.4123501e-10
-1.9901809e-09
2.3886697e-10
-2.1801876e-09
2.3527265e-10
-2.3784022e-09
2.4112506e-10
-2.5673382e-09
2.2871277e-10
-2.7389749e-09
2.0758585e-10
-2.8885452e-09
1.8104917e-10
-3.0126738e-09
1.5054359e-10
-3.1087229e-09
1.1698396e-10
-3.1742796e-09
8.0656554e-11
-3.2055962e-09
4.0257226e-11
1.0442443e-11
-1.2054046e-10
1.6643986e-10
-2.6757731e-10
2.0385975e-10
-4.4488826e-10
2.4725185e-10
-6.5875666e-10
2.9988131e-10
-9.1219608e-10
3.5895929e-10
-1.2055992e-09
4.2177767e-10
-1.5393126e-09
4.87642e-10
-1.9721151e-09
6.1322358e-10
-2.4356958e-09
6.6695614e-10
-2.9059094e-09
6.9071477e-10
-3.3693495e-09
6.954973e-10
-3.8182229e-09
6.8814737e-10
-4.2477729e-09
6.7130401e-10
-4.651899e-09
6.4536574e-10
-5.0241888e-09
6.1116022e-10
-5.3592476e-09
5.7033373e-10
-5.6419971e-09
5.2387584e-10
-5.8855058e-09
4.722217e-10
-6.094483e-09
4.1656245e-10
-6.2713919e-09
3.5795659e-10
-6.4184112e-09
2.9756079e-10
-6.5363543e-09
2.3492424e-10
-6.6253072e-09
1.6960615e-10
-6.6870118e-09
1.0195808e-10
3.3871917e-11
-3.6649127e-10
5.3294919e-10
-7.9170147e-10
6.2909742e-10
-1.2957e-09
7.5128059e-10
-2.1160715e-09
1.1202806e-09
-2.9973857e-09
1.2402977e-09
-3.8296188e-09
1.2540309e-09
-4.5628668e-09
1.2209065e-09
-5.1081573e-09
1.1585274e-09
-5.5158373e-09
1.0746469e-09
-5.8014328e-09
9.7631885e-10
-5.9815147e-09
8.7558586e-10
-6.0692623e-09
7.7590014e-10
-6.0753497e-09
6.7739528e-10
-6.0012439e-09
5.7126268e-10
-5.8627587e-09
4.7267689e-10
-5.6770097e-09
3.8458595e-10
-5.4612723e-09
3.0813889e-10
-5.2329361e-09
2.4388546e-10
-5.007918e-09
1.915439e-10
-4.800018e-09
1.5005568e-10
-4.6214214e-09
1.1896293e-10
-4.4793339e-09
9.2835197e-11
-4.3789715e-09
6.9241886e-11
-4.3236165e-09
4.6600973e-11
2.4906549e-11
-2.2187404e-09
2.7517177e-09
-3.9999514e-09
2.4103401e-09
-5.5432298e-09
2.2945897e-09
-6.2473522e-09
1.8244253e-09
-6.3368628e-09
1.3298265e-09
-5.8689648e-09
7.8614784e-10
-5.0997116e-09
4.5166547e-10
-4.1033385e-09
1.6216461e-10
-2.9460285e-09
-8.2654457e-11
-1.6871721e-09
-2.8253064e-10
-4.4138979e-10
-3.7019223e-10
7.953918e-10
-4.6088273e-10
2.1046374e-09
-6.3185173e-10
3.5199952e-09
-8.4409539e-10
4.9029266e-09
-9.1025304e-10
6.2132384e-09
-9.2572255e-10
7.42869e-09
-9.0730762e-10
8.5352968e-09
-8.6271446e-10
9.5230431e-09
-7.9619376e-10
1.0383536e-08
-7.1042685e-10
1.1109591e-08
-6.0708042e-10
1.1691455e-08
-4.8901528e-10
1.2119129e-08
-3.5841739e-10
1.2383437e-08
-2.1769151e-10
-6.519068e-11
9.211539e-10
1.8306501e-09
4.0492778e-09
-7.1773022e-10
7.7404468e-09
-1.3965067e-09
1.1422978e-08
-1.8580748e-09
1.5168042e-08
-2.4152132e-09
1.883765e-08
-2.8834321e-09
2.2445494e-08
-3.1561472e-09
2.5835348e-08
-3.227653e-09
2.8915779e-08
-3.1630437e-09
3.1661087e-08
-3.0277937e-09
3.4141592e-08
-2.8506489e-09
3.6320149e-08
-2.6393877e-09
3.8109105e-08
-2.4207541e-09
3.9479985e-08
-2.2149216e-09
4.0570992e-08
-2.0012053e-09
4.143332e-08
-1.7879953e-09
4.2107133e-08
-1.5810661e-09
4.2625976e-08
-1.3815017e-09
4.3019131e-08
-1.1892943e-09
4.3312223e-08
-1.0034643e-09
4.3527235e-08
-8.2203851e-10
4.3681151e-08
-6.4287665e-10
4.378604e-08
-4.632533e-10
4.3849039e-08
-2.8063689e-10
-8.9146246e-11
1.4865551e-07
-2.3554974e-09
1.4744076e-07
4.9793348e-10
1.4498356e-07
1.0614785e-09
1.4157579e-07
1.550394e-09
1.3704331e-07
2.1178746e-09
1.3156418e-07
2.5962213e-09
1.2552119e-07
2.8872897e-09
1.1931284e-07
2.9810847e-09
1.1320932e-07
2.9408048e-09
1.073646e-07
2.8172109e-09
1.0184761e-07
2.6665977e-09
9.670757e-08
2.5008716e-09
9.1975699e-08
2.3113146e-09
8.7650709e-08
2.1102464e-09
8.374307e-08
1.906594e-09
8.0250376e-08
1.7048446e-09
7.7161604e-08
1.5078393e-09
7.4463217e-08
1.3170076e-09
7.2141267e-08
1.1327688e-09
7.0183309e-08
9.5459909e-10
6.8580077e-08
7.8129204e-10
6.7326401e-08
6.1089298e-10
6.6422788e-08
4.4044701e-10
6.5875005e-08
2.6723039e-10
8.545025e-11
1.2722148e-08
-1.7097926e-09
1.5075972e-08
-1.8557774e-09
1.7749351e-08
-1.6117871e-09
2.0528918e-08
-1.2290625e-09
2.3396571e-08
-7.4967261e-10
2.6351075e-08
-3.5818158e-10
2.9304933e-08
-6.647631e-11
3.2098759e-08
1.8734754e-10
3.4693986e-08
3.4566628e-10
3.7057691e-08
4.5359327e-10
3.9146831e-08
5.7754336e-10
4.0776212e-08
8.7157579e-10
4.2070606e-08
1.0170028e-09
4.3099056e-08
1.0818782e-09
4.3903946e-08
1.1017828e-09
4.4521815e-08
1.0870523e-09
4.4986413e-08
1.0433152e-09
4.5327533e-08
9.7595961e-10
4.5571448e-08
8.8892325e-10
4.5741167e-08
7.8494806e-10
4.5856321e-08
6.6620311e-10
4.5932814e-08
5.3446353e-10
4.5982182e-08
3.9114023e-10
4.6011587e-08
2.3788483e-10
7.2322486e-11
-5.3489265e-09
-8.6136299e-10
-6.0901316e-09
-1.1145821e-09
-6.4724545e-09
-1.2294745e-09
-6.4200303e-09
-1.2814964e-09
-5.89826e-09
-1.271451e-09
-5.0448516e-09
-1.2115956e-09
-3.9830328e-09
-1.1282982e-09
-2.7664255e-09
-1.0292599e-09
-1.5001145e-09
-9.2064239e-10
-2.3421201e-10
-8.1230439e-10
1.0472052e-09
-7.0386684e-10
2.511319e-09
-5.9252863e-10
4.013659e-09
-4.8532547e-10
5.4830169e-09
-3.8746593e-10
6.8848877e-09
-3.0007246e-10
8.1947084e-09
-2.2275116e-10
9.4110761e-09
-1.73034e-10
1.0521272e-08
-1.3421653e-10
1.1512694e-08
-1.0247864e-10
1.2375308e-08
-7.7644363e-11
1.3100567e-08
-5.9034772e-11
1.3680579e-08
-4.5526414e-11
1.4107406e-08
-3.5665471e-11
1.4372474e-08
-2.7162191e-11
-1.6858904e-11
-2.3395706e-09
-2.1278816e-10
-3.1647443e-09
-2.8941052e-10
-4.0182372e-09
-3.7598624e-10
-4.8418717e-09
-4.5786903e-10
-5.5723881e-09
-5.4094345e-10
-6.1076897e-09
-6.7630413e-10
-6.5093273e-09
-7.2667134e-10
-6.7885215e-09
-7.5007673e-10
-6.9535538e-09
-7.5562101e-10
-7.0167472e-09
-7.491217e-10
-6.9872576e-09
-7.3336665e-10
-6.8689789e-09
-7.1081706e-10
-6.6732888e-09
-6.8102445e-10
-6.4162395e-09
-6.4452346e-10
-6.1139185e-09
-6.0240085e-10
-5.780324e-09
-5.5635228e-10
-5.4452099e-09
-5.0815393e-10
-5.121784e-09
-4.5764769e-10
-4.8197076e-09
-4.0455954e-10
-4.5484275e-09
-3.4892854e-10
-4.3167076e-09
-2.9075829e-10
-4.1322266e-09
-2.3001071e-10
-4.0012204e-09
-1.6667473e-10
-3.9274541e-09
-1.0093151e-10
-3.4010868e-11
-5.6842783e-10
-4.7590919e-12
-8.2781263e-10
-3.0022522e-11
-1.1399515e-09
-6.3844977e-11
-1.4924214e-09
-1.0539763e-10
-1.8838291e-09
-1.4953529e-10
-2.3634898e-09
-1.9664417e-10
-2.8557479e-09
-2.3441526e-10
-3.3449877e-09
-2.6084009e-10
-3.8220175e-09
-2.7859547e-10
-4.2812369e-09
-2.8990743e-10
-4.717367e-09
-2.9724246e-10
-5.1255968e-09
-3.0259384e-10
-5.4970975e-09
-3.0953089e-10
-5.8093588e-09
-3.3226962e-10
-6.0835132e-09
-3.2825426e-10
-6.3242786e-09
-3.1559477e-10
-6.535868e-09
-2.965727e-10
-6.7209123e-09
-2.7261157e-10
-6.8813456e-09
-2.4413452e-10
-7.0187088e-09
-2.1157353e-10
-7.134095e-09
-1.7538029e-10
-7.2280148e-09
-1.3609911e-10
-7.3002502e-09
-9.4447456e-11
-7.3507202e-09
-5.0469598e-11
-1.1688194e-11
-1.0817432e-10
4.980134e-11
-1.8953134e-10
5.1336762e-11
-2.9484538e-10
4.1471175e-11
-4.3093496e-10
3.0693776e-11
-5.9597934e-10
1.5510527e-11
-7.8574781e-10
-6.8747299e-12
-9.9021901e-10
-2.9943604e-11
-1.2039437e-09
-4.7115487e-11
-1.420839e-09
-6.1700707e-11
-1.6371125e-09
-7.3634872e-11
-1.8522655e-09
-8.2090862e-11
-2.0680653e-09
-8.6795934e-11
-2.2883514e-09
-8.9247063e-11
-2.5311814e-09
-8.9442242e-11
-2.7718027e-09
-8.7636017e-11
-3.0033136e-09
-8.4087339e-11
-3.2207811e-09
-7.9108946e-11
-3.4205687e-09
-7.2827989e-11
-3.599342e-09
-6.5365474e-11
-3.7540756e-09
-5.6844288e-11
-3.8820432e-09
-4.7417296e-11
-3.9808909e-09
-3.7255965e-11
-4.0487861e-09
-2.655691e-11
-4.0837968e-09
-1.5463573e-11
-4.315925e-12
2.162098e-11
4.7463129e-11
1.9961427e-11
5.2997113e-11
5.2458445e-12
5.6187431e-11
-2.0485259e-11
5.6425422e-11
-5.8123307e-11
5.314898e-11
-1.0889042e-10
4.3892642e-11
-1.702353e-10
3.1401372e-11
-2.3916148e-10
2.1810638e-11
-3.124634e-10
1.160101e-11
-3.8814431e-10
2.045705e-12
-4.6441673e-10
-5.8189209e-12
-5.4117068e-10
-1.0042585e-11
-6.1641955e-10
-1.3998906e-11
-6.8968963e-10
-1.6172987e-11
-7.6014886e-10
-1.7177727e-11
-8.2704979e-10
-1.7187452e-11
-8.8946695e-10
-1.6692935e-11
-9.4670646e-10
-1.55897e-11
-9.979484e-10
-1.4124826e-11
-1.042383e-09
-1.241103e-11
-1.0792777e-09
-1.0523904e-11
-1.1080481e-09
-8.4870101e-12
-1.1282933e-09
-6.3130623e-12
-1.1398242e-09
-3.9339401e-12
-1.223703e-12
5.2182232e-11
3.1202033e-11
6.8245039e-11
3.6934784e-11
8.4482882e-11
3.9949982e-11
9.7541368e-11
4.3367264e-11
1.0637525e-10
4.4315374e-11
1.0809647e-10
4.2171668e-11
1.007551e-10
3.8742949e-11
9.1275819e-11
3.1290092e-11
7.9691825e-11
2.3185146e-11
6.687534e-11
1.4862302e-11
5.1924139e-11
9.1323666e-12
3.7824946e-11
4.0566739e-12
2.4940253e-11
-1.1141647e-12
1.4166502e-11
-5.3992003e-12
5.5543746e-12
-8.5655713e-12
-1.072832e-12
-1.056022e-11
-6.1134559e-12
-1.1652286e-11
-9.8252335e-12
-1.1877895e-11
-1.2527245e-11
-1.1422782e-11
-1.4503812e-11
-1.0434424e-11
-1.5824518e-11
-9.203151e-12
-1.6831536e-11
-7.4799345e-12
-1.7638322e-11
-5.5062077e-12
-1.8145743e-11
-3.4264408e-12
-1.2582334e-12
3.7241576e-11
1.8053778e-11
5.2730134e-11
2.1446659e-11
6.7832555e-11
2.4847947e-11
8.3418014e-11
2.7782158e-11
9.7643665e-11
3.0090053e-11
1.0904558e-10
3.0770068e-11
1.1841743e-10
2.9371405e-11
1.2418882e-10
2.5519002e-11
1.2693936e-10
2.04349e-11
1.2624378e-10
1.555817e-11
1.2509185e-10
1.0284583e-11
1.239635e-10
5.1852962e-12
1.2281618e-10
3.3424878e-14
1.217555e-10
-4.3382409e-12
1.2109876e-10
-7.9085596e-12
1.2097311e-10
-1.0434295e-11
1.2151257e-10
-1.2191464e-11
1.2253578e-10
-1.2900823e-11
1.2393078e-10
-1.2817496e-11
1.2554041e-10
-1.2043755e-11
1.2697536e-10
-1.0637818e-11
1.2825356e-10
-8.7578365e-12
1.2921722e-10
-6.469578e-12
1.2970816e-10
-3.9171014e-12
-1.2214657e-12
1.521545e-11
1.3363838e-11
2.182825e-11
1.4834224e-11
2.9670683e-11
1.7005856e-11
3.7601117e-11
1.9852046e-11
4.5192694e-11
2.2498784e-11
5.2349224e-11
2.3613835e-11
5.8034752e-11
2.3686163e-11
6.1365014e-11
2.2189016e-11
6.2097943e-11
1.9702238e-11
6.0705193e-11
1.6951176e-11
5.6967235e-11
1.4022786e-11
5.2015759e-11
1.0137005e-11
4.6666532e-11
5.3828737e-12
4.0772415e-11
1.5560877e-12
3.4621424e-11
-1.7573686e-12
2.8799233e-11
-4.6119129e-12
2.3167916e-11
-6.5599647e-12
1.8154396e-11
-7.8871298e-12
1.3817862e-11
-8.4807967e-12
1.0216119e-11
-8.4418539e-12
7.4053853e-12
-7.8269339e-12
5.3723516e-12
-6.7246588e-12
4.129883e-12
-5.2269733e-12
3.6173329e-12
-3.4044248e-12
-1.2510626e-12
1.2721014e-12
1.2477279e-11
2.2196702e-12
1.3886933e-11
3.8827587e-12
1.5343031e-11
6.194714e-12
1.7540341e-11
8.2057132e-12
2.0488025e-11
9.4774117e-12
2.2342365e-11
9.5428932e-12
2.3620898e-11
8.7449023e-12
2.298721e-11
6.1162299e-12
2.23311e-11
2.1579286e-12
2.0909651e-11
-2.7363279e-12
1.89172e-11
-9.0686862e-12
1.6469503e-11
-1.7586958e-11
1.3901267e-11
-2.7069126e-11
1.103836e-11
-3.6263386e-11
7.4369762e-12
-4.5378048e-11
4.502818e-12
-5.4244734e-11
2.3067747e-12
-6.2654826e-11
5.2300009e-13
-7.0353116e-11
-7.8248063e-13
-7.714983e-11
-1.6451261e-12
-8.2962067e-11
-2.0146922e-12
-8.7737999e-11
-1.9487301e-12
-9.1446758e-11
-1.5182253e-12
-9.4154242e-11
-6.9695979e-13
-1.8419782e-14
-2.6673312e-12
1.3089871e-11
-3.3299899e-12
1.454979e-11
-4.2339924e-12
1.6247219e-11
-4.9196086e-12
1.8226132e-11
-4.9096197e-12
2.04782e-11
-5.0501241e-12
2.2483024e-11
-6.197758e-12
2.4768676e-11
-8.1851244e-12
2.4974708e-11
-1.1648812e-11
2.5794905e-11
-1.5754417e-11
2.5015359e-11
-2.086977e-11
2.4032639e-11
-2.6969996e-11
2.25698e-11
-3.3815778e-11
2.0747103e-11
-4.1235891e-11
1.8458509e-11
-4.9525111e-11
1.5726216e-11
-5.8142734e-11
1.3120445e-11
-6.6895722e-11
1.1059752e-11
-7.5146539e-11
8.7737933e-12
-8.272862e-11
6.7995645e-12
-8.9374406e-11
5.0006133e-12
-9.5043049e-11
3.6538976e-12
-9.9584272e-11
2.5924332e-12
-1.0283442e-10
1.7318577e-12
-1.0455735e-10
1.0259021e-12
4.1852038e-13
-8.0237543e-13
1.3513468e-11
-1.648272e-12
1.5395828e-11
-2.3841391e-12
1.6983219e-11
-2.9616919e-12
1.8803809e-11
-3.2785636e-12
2.0795188e-11
-3.6472324e-12
2.28518e-11
-3.6654804e-12
2.4787022e-11
-4.8273494e-12
2.6136666e-11
-6.1559566e-12
2.7123591e-11
-8.5315039e-12
2.7390973e-11
-1.1630572e-11
2.7131762e-11
-1.5481885e-11
2.6421156e-11
-1.9930996e-11
2.5196244e-11
-2.4957813e-11
2.3485342e-11
-3.0635106e-11
2.1403513e-11
-3.6760773e-11
1.9246103e-11
-4.2726365e-11
1.7025324e-11
-4.8636613e-11
1.4684011e-11
-5.4217486e-11
1.2380398e-11
-5.9368891e-11
1.0151971e-11
-6.3807933e-11
8.0928863e-12
-6.7395322e-11
6.1797644e-12
-7.0030038e-11
4.3665117e-12
-7.1570034e-11
2.5658319e-12
8.4009157e-13
1.6248809e-12
1.3366792e-11
1.9551777e-12
1.5065635e-11
2.1091126e-12
1.6829383e-11
2.3750601e-12
1.8537955e-11
2.8916744e-12
2.027866e-11
3.6194582e-12
2.2124097e-11
4.4197559e-12
2.3986799e-11
4.9556754e-12
2.5600815e-11
5.2443919e-12
2.6834935e-11
5.0149264e-12
2.7620492e-11
4.3546153e-12
2.7792118e-11
3.0717317e-12
2.7704075e-11
1.2244832e-12
2.7043519e-11
-1.1689271e-12
2.587877e-11
-3.9373223e-12
2.4171916e-11
-7.274073e-12
2.2582852e-11
-1.0751332e-11
2.0502574e-11
-1.4305135e-11
1.8237796e-11
-1.7794954e-11
1.5870192e-11
-2.1075699e-11
1.3432686e-11
-2.4004695e-11
1.1021848e-11
-2.6446925e-11
8.6219566e-12
-2.8305365e-11
6.22491e-12
-2.9495615e-11
3.7560375e-12
1.1785339e-12
3.4337536e-12
1.2641723e-11
4.1439685e-12
1.4355494e-11
5.303779e-12
1.5669644e-11
6.4375836e-12
1.7404219e-11
7.650103e-12
1.9066206e-11
9.0957814e-12
2.067848e-11
1.0722543e-11
2.2360094e-11
1.2360869e-11
2.3962541e-11
1.3902507e-11
2.5293346e-11
1.5221401e-11
2.630164e-11
1.6108367e-11
2.6905189e-11
1.6681893e-11
2.713058e-11
1.6839825e-11
2.6885611e-11
1.6724857e-11
2.5993756e-11
1.5806823e-11
2.5089961e-11
1.4710235e-11
2.3679445e-11
1.3308779e-11
2.1904028e-11
1.1691726e-11
1.9854842e-11
1.0015355e-11
1.7546552e-11
8.3880964e-12
1.5059928e-11
6.8202968e-12
1.2589628e-11
5.4836562e-12
9.9585755e-12
4.4111994e-12
7.2973412e-12
3.7524138e-12
4.4147947e-12
1.2567915e-12
4.0952002e-12
1.1642454e-11
5.2530217e-12
1.319772e-11
6.3981136e-12
1.4524599e-11
7.9881538e-12
1.5814224e-11
9.5845441e-12
1.7469859e-11
1.1320241e-11
1.8942823e-11
1.3241121e-11
2.0439252e-11
1.536295e-11
2.1840748e-11
1.752209e-11
2.3134238e-11
1.960778e-11
2.4215979e-11
2.1505382e-11
2.5007613e-11
2.3202892e-11
2.5433092e-11
2.4615671e-11
2.547285e-11
2.5511507e-11
2.5097933e-11
2.6185744e-11
2.4415732e-11
2.6557789e-11
2.3307405e-11
2.6651892e-11
2.1809924e-11
2.6486711e-11
2.0020019e-11
2.6093546e-11
1.7939709e-11
2.5552737e-11
1.5600726e-11
2.5059182e-11
1.3083169e-11
2.4639815e-11
1.0377928e-11
2.4507077e-11
7.4300602e-12
2.4416218e-11
4.5056335e-12
1.6734015e-12
4.0000741e-12
1.0625863e-11
5.18546e-12
1.2012357e-11
6.4646542e-12
1.3245428e-11
7.8041626e-12
1.4474738e-11
9.5536431e-12
1.5720401e-11
1.1387474e-11
1.7109014e-11
1.3386542e-11
1.8440204e-11
1.5508935e-11
1.9718373e-11
1.7776937e-11
2.0866253e-11
2.0103669e-11
2.1889263e-11
2.2416299e-11
2.2694997e-11
2.461866e-11
2.3230742e-11
2.6631703e-11
2.3459814e-11
2.8373914e-11
2.3355727e-11
2.990771e-11
2.2881938e-11
3.1177002e-11
2.2038111e-11
3.2155785e-11
2.0831137e-11
3.2883593e-11
1.9292204e-11
3.3381685e-11
1.7441607e-11
3.3678486e-11
1.5303914e-11
3.3852438e-11
1.2909204e-11
3.3944198e-11
1.0286153e-11
3.3927964e-11
7.4462778e-12
3.3891822e-11
4.5417574e-12
1.5870999e-12
3.6475212e-12
9.6610526e-12
4.754193e-12
1.0905686e-11
5.9577754e-12
1.2041848e-11
7.3047282e-12
1.3127789e-11
8.8116213e-12
1.4213512e-11
1.057787e-11
1.534277e-11
1.2518484e-11
1.6499594e-11
1.4585373e-11
1.7651487e-11
1.6788084e-11
1.8663545e-11
1.9116744e-11
1.9560605e-11
2.1497674e-11
2.0314067e-11
2.3854185e-11
2.0874231e-11
2.6132921e-11
2.1181076e-11
2.8288224e-11
2.120042e-11
3.0271596e-11
2.0898561e-11
3.2052452e-11
2.0257247e-11
3.3599587e-11
1.9283993e-11
3.4910699e-11
1.798108e-11
3.5987307e-11
1.6364987e-11
3.6839511e-11
1.4451696e-11
3.7482397e-11
1.2266302e-11
3.7925265e-11
9.8432696e-12
3.8187002e-11
7.184523e-12
3.8335932e-11
4.3928103e-12
1.4693498e-12
3.3330045e-12
8.7467979e-12
4.3594729e-12
9.8792021e-12
5.4916563e-12
1.0909651e-11
6.7580318e-12
1.1861401e-11
8.186707e-12
1.2784825e-11
9.7887002e-12
1.3740766e-11
1.1578541e-11
1.4709744e-11
1.3580269e-11
1.564975e-11
1.5694956e-11
1.6548849e-11
1.7941977e-11
1.7313575e-11
2.0259506e-11
1.7996529e-11
2.2627893e-11
1.8505835e-11
2.499764e-11
1.8811319e-11
2.7317355e-11
1.8880694e-11
2.9538303e-11
1.8677602e-11
3.1609784e-11
1.8185752e-11
3.3499454e-11
1.739431e-11
3.5180599e-11
1.6299921e-11
3.6640737e-11
1.4904833e-11
3.7867725e-11
1.3224692e-11
3.885376e-11
1.128025e-11
3.95973e-11
9.0997147e-12
3.9936078e-11
6.8457276e-12
4.0200868e-11
4.1280046e-12
1.1478865e-12
3.1515686e-12
7.8584879e-12
4.1558456e-12
8.8748964e-12
5.2491919e-12
9.8162788e-12
6.4294943e-12
1.0681075e-11
7.7357268e-12
1.1478571e-11
9.2186778e-12
1.2257795e-11
1.0891937e-11
1.3036466e-11
1.2742941e-11
1.3798729e-11
1.4831725e-11
1.4460049e-11
1.7052131e-11
1.5093153e-11
1.9263143e-11
1.5785503e-11
2.1581213e-11
1.618775e-11
2.3962091e-11
1.6430426e-11
2.6325974e-11
1.6516798e-11
2.8628255e-11
1.6375305e-11
3.0831993e-11
1.5982e-11
3.2899699e-11
1.5326588e-11
3.4799535e-11
1.4400069e-11
3.649946e-11
1.3204892e-11
3.797591e-11
1.1748227e-11
3.9215833e-11
1.0040311e-11
4.0221266e-11
8.0942675e-12
4.1311686e-11
5.7552923e-12
4.1815642e-11
3.6240345e-12
1.443998e-12
3.0505149e-12
7.0285041e-12
3.9594923e-12
7.9658817e-12
5.0055393e-12
8.7701975e-12
6.1749599e-12
9.5116232e-12
7.4702042e-12
1.0183298e-11
8.9023584e-12
1.0825614e-11
1.0504747e-11
1.1434053e-11
1.2282045e-11
1.2021408e-11
1.4172192e-11
1.2569881e-11
1.6172694e-11
1.309263e-11
1.8398527e-11
1.3559651e-11
2.0653707e-11
1.3932553e-11
2.3035703e-11
1.4048413e-11
2.5368254e-11
1.418423e-11
2.7659481e-11
1.4084062e-11
2.988684e-11
1.3754625e-11
3.201763e-11
1.3195783e-11
3.4014326e-11
1.2403358e-11
3.5818189e-11
1.1401014e-11
3.7404922e-11
1.0161479e-11
3.874641e-11
8.6988097e-12
3.9799341e-11
7.0413248e-12
4.0217946e-11
5.3366749e-12
4.0627834e-11
3.2141352e-12
8.8601557e-13
2.8391969e-12
6.2663251e-12
3.7911788e-12
7.013858e-12
4.8502321e-12
7.7111054e-12
5.9831179e-12
8.3787015e-12
7.2423209e-12
8.9240616e-12
8.6293707e-12
9.4385337e-12
1.014632e-11
9.917076e-12
1.1809706e-11
1.0357996e-11
1.3600387e-11
1.0779175e-11
1.552716e-11
1.1165836e-11
1.7593363e-11
1.1493428e-11
1.9758976e-11
1.1766921e-11
2.1929635e-11
1.1877737e-11
2.4163957e-11
1.1949891e-11
2.6411514e-11
1.183649e-11
2.8608458e-11
1.1557666e-11
3.070473e-11
1.1099497e-11
3.2711351e-11
1.0396724e-11
3.4511887e-11
9.6004659e-12
3.6107169e-11
8.5661843e-12
3.7477434e-11
7.3285334e-12
3.8607974e-11
5.9107757e-12
3.972602e-11
4.2186197e-12
4.0272448e-11
2.6676983e-12
1.0613573e-12
2.7390344e-12
5.4905542e-12
3.6071113e-12
6.1457375e-12
4.6021465e-12
6.7160296e-12
5.7346306e-12
7.2461798e-12
6.9448194e-12
7.7138382e-12
8.2744946e-12
8.1088266e-12
9.7157342e-12
8.4758074e-12
1.1263016e-11
8.8106877e-12
1.2934522e-11
9.1076447e-12
1.4731013e-11
9.3693234e-12
1.6635144e-11
9.5892767e-12
1.8645446e-11
9.7566006e-12
2.0671329e-11
9.8518384e-12
2.2772663e-11
9.8485418e-12
2.4873671e-11
9.7354675e-12
2.6957814e-11
9.4735094e-12