/*--------------------------------*- C++ -*----------------------------------*\
| =========                 |                                                 |
| \\      /  F ield         | OpenFOAM: The Open Source CFD Toolbox           |
|  \\    /   O peration     | Version:  4.0                                   |
|   \\  /    A nd           | Web:      www.OpenFOAM.org                      |
|    \\/     M anipulation  |                                                 |
\*---------------------------------------------------------------------------*/
FoamFile
{
    version     2.0;
    format      ascii;
    class       volVectorField;
    location    "0.61";
    object      U;
}
// * * * * * * * * * * * * * * * * * * * * * * * * * * * * * * * * * * * * * //

dimensions      [0 1 -1 0 0 0 0];

internalField   nonuniform List<vector> 
1740
(
(1.497639 -0.002888671 5.063012e-06)
(1.4669813 -0.012601118 8.2191419e-07)
(1.5947722 -0.0062454397 2.250797e-08)
(1.5623919 -0.00030458726 8.2178282e-06)
(1.4922052 -0.038187179 1.530531e-06)
(1.6023275 -0.029018978 3.1064588e-07)
(1.5514238 0.0048906926 1.0987597e-05)
(1.5606556 -0.02723069 2.3334109e-06)
(1.4781146 -0.023250027 4.6239656e-07)
(1.5560361 -0.0053124558 1.3003676e-05)
(1.6518177 0.013084057 3.4083527e-06)
(1.549287 0.002131333 5.5764625e-07)
(1.5350336 -0.0052068781 1.5477879e-05)
(1.5559145 0.023296718 4.4853632e-06)
(1.5564364 0.014666323 8.3201803e-07)
(1.4660511 0.0058398791 1.6280002e-05)
(1.4936239 0.012679171 5.1489704e-06)
(1.4770809 0.0044770306 9.9680271e-07)
(1.4695349 -0.0066252008 1.7124485e-05)
(1.5844312 -0.00031568612 5.8689777e-06)
(1.5753357 -0.0028474675 1.0935141e-06)
(1.5185197 -0.023901772 1.7870796e-05)
(1.5661397 -0.027641181 6.6180686e-06)
(1.561385 -0.013196605 1.3665592e-06)
(1.6341615 -0.0053321441 1.8258305e-05)
(1.5847876 -0.02102491 7.0906269e-06)
(1.4739512 -0.013017781 1.5359075e-06)
(1.5780212 0.018535254 1.9054877e-05)
(1.609046 0.012137754 7.7924413e-06)
(1.5084712 -0.00014519574 1.6499825e-06)
(1.4930224 0.010764557 1.9476374e-05)
(1.6059798 0.0143069 8.2673126e-06)
(1.5141841 0.0020530677 1.933334e-06)
(1.5076193 -0.01822194 1.968617e-05)
(1.6090211 -0.0018944391 8.7927913e-06)
(1.505413 0.0023553746 2.1140935e-06)
(1.6223677 -0.016935824 2.0021977e-05)
(1.5326112 0.00036145336 9.3783395e-06)
(1.5227994 0.003521696 2.2799912e-06)
(1.6108847 0.018187573 2.0511285e-05)
(1.5217618 0.0063556147 9.9740499e-06)
(1.5412734 -0.0027967443 2.5004006e-06)
(1.4881345 0.015550547 2.0522608e-05)
(1.5868841 0.0060150873 1.0337234e-05)
(1.4993696 -0.00088251737 2.6928151e-06)
(1.5684268 -0.0060309811 2.0646692e-05)
(1.5802781 0.01146942 1.0967701e-05)
(1.5690122 0.0084164892 2.8394761e-06)
(1.5648478 0.0021017826 2.1003456e-05)
(1.4854563 0.0018239046 1.1393641e-05)
(1.5849689 -0.00029077633 3.1462482e-06)
(1.4809234 0.0069897837 2.1130828e-05)
(1.5888857 -0.013842721 1.1654459e-05)
(1.4990562 -0.0093176729 3.2837912e-06)
(1.5078037 -0.0098767952 2.1377567e-05)
(1.6015229 0.00057263039 1.2218761e-05)
(1.5134286 0.0032264165 3.4617925e-06)
(1.5382256 -0.0095570743 2.1544307e-05)
(1.5280937 0.0047140397 1.2566573e-05)
(1.525664 0.0067011735 3.6393663e-06)
(1.5304043 -0.0050237646 2.1707383e-05)
(1.5374254 0.011051195 1.2800854e-05)
(1.5286771 0.0070168397 3.7370871e-06)
(1.6014582 -0.012073738 2.236827e-05)
(1.5279961 0.0025274122 1.3332538e-05)
(1.5926514 0.0049368764 3.9516663e-06)
(1.5922999 -0.012455717 2.2792161e-05)
(1.5030871 -0.02236784 1.3644637e-05)
(1.5649237 -0.012956471 4.115568e-06)
(1.5566306 -0.0028526519 2.2402331e-05)
(1.5643081 -0.03260713 1.3845796e-05)
(1.4734041 -0.021011393 4.2630095e-06)
(1.6353119 0.0043202763 2.2143721e-05)
(1.6409435 0.0032459327 1.4171786e-05)
(1.4510056 0.0023195653 4.402824e-06)
(1.6184322 0.019639698 2.2197993e-05)
(1.5208819 0.032987189 1.4396387e-05)
(1.5341196 0.017417339 4.5427173e-06)
(1.5118916 0.013943737 2.2500149e-05)
(1.5180053 0.022342003 1.4646742e-05)
(1.5347701 0.0079296127 4.674355e-06)
(1.458656 -0.001229008 2.2696033e-05)
(1.4921805 -0.0010289138 1.4866249e-05)
(1.5047052 0.0056376047 4.8470311e-06)
(1.4153403 -0.0024178977 2.2122965e-05)
(1.3961144 -0.0004961251 1.5047609e-05)
(1.540089 -0.0069837429 4.8104638e-06)
(1.2483811 0.03503284 2.3406911e-05)
(1.2749804 0.078358571 1.5616533e-05)
(1.3661995 0.050969065 5.5510838e-06)
(0.81135403 0.36506478 1.1530125e-05)
(0.78687788 0.92681516 9.7856215e-06)
(0.73469682 1.2431288 5.3828305e-06)
(0.20448852 0.10568274 1.4519992e-06)
(0.17743361 0.35464908 3.0406552e-06)
(0.086722491 0.48838264 6.8058309e-07)
(-0.032829677 -0.015500822 1.2295075e-06)
(-0.028931771 -0.03126108 1.6712622e-06)
(-0.019276448 -0.036057229 5.7008173e-07)
(-0.0069211741 -0.0033074584 4.5272244e-07)
(-0.0063944733 -0.0080051275 7.2367213e-07)
(-0.0054214385 -0.010741787 3.174659e-07)
(6.7627476e-05 -0.00021415166 1.1377499e-07)
(1.6554409e-05 -0.0006450493 2.309961e-07)
(-0.00024439192 -0.0011148762 8.9398919e-08)
(0.00045479565 4.9635923e-06 1.9320796e-08)
(0.0004560193 2.9491191e-05 4.270083e-08)
(0.00038352514 -1.2875474e-05 -2.5731717e-08)
(0.00051661036 2.4498177e-05 -9.5032707e-09)
(0.00048365633 8.2769451e-05 -2.4580495e-08)
(0.00041103308 0.00012431106 -7.0656139e-08)
(0.00041946828 4.0739333e-05 -1.7918067e-08)
(0.00039099783 0.00011016869 -4.4810034e-08)
(0.0003338035 0.00016068664 -8.1276848e-08)
(0.00030829998 3.0707862e-05 -1.7797873e-08)
(0.00028526046 7.6113247e-05 -4.5466393e-08)
(0.00024636617 0.00011405608 -7.5614828e-08)
(0.00023192234 1.596395e-05 -1.4611257e-08)
(0.00021533819 3.2977068e-05 -3.8758813e-08)
(0.00018646731 4.4072709e-05 -6.3618161e-08)
(0.00019152496 3.1731449e-06 -1.108059e-08)
(0.00018018533 9.4123703e-06 -3.0705279e-08)
(0.00015904702 8.5038192e-06 -5.0823744e-08)
(0.00017239932 1.0806503e-06 -8.3991917e-09)
(0.00016457135 1.4271816e-06 -2.3751815e-08)
(0.00014917808 -2.5872703e-06 -3.9619208e-08)
(0.00016126586 2.3046048e-06 -6.498029e-09)
(0.00015579549 3.2975787e-06 -1.8313831e-08)
(0.00014435413 2.2264535e-06 -3.0532715e-08)
(0.00015102674 3.5455073e-06 -5.0838354e-09)
(0.00014715179 8.2157157e-06 -1.4093826e-08)
(0.00013858287 1.0464795e-05 -2.3326771e-08)
(0.00013925585 4.2714854e-06 -3.9543142e-09)
(0.00013648978 1.1138067e-05 -1.0742916e-08)
(0.00012999402 1.6479982e-05 -1.7605538e-08)
(0.00012634712 4.4997435e-06 -3.0103708e-09)
(0.00012430134 1.1332827e-05 -8.0323094e-09)
(0.00011926962 1.7968537e-05 -1.305089e-08)
(0.00011362875 4.1737828e-06 -2.2170979e-09)
(0.00011206726 1.0258606e-05 -5.84874e-09)
(0.00010805779 1.6544612e-05 -9.4536502e-09)
(0.00010188938 3.671015e-06 -1.5796691e-09)
(0.0001006806 8.9321905e-06 -4.137707e-09)
(9.7450056e-05 1.4431019e-05 -6.6748576e-09)
(9.1245772e-05 3.2696089e-06 -1.0974104e-09)
(9.0311887e-05 7.8614017e-06 -2.850568e-09)
(8.7710342e-05 1.264934e-05 -4.5949608e-09)
(8.1535568e-05 3.0201959e-06 -7.5085221e-10)
(8.0813649e-05 7.1727205e-06 -1.9215611e-09)
(7.8711933e-05 1.1475153e-05 -3.0907139e-09)
(7.2524473e-05 2.8503767e-06 -5.1070001e-10)
(7.1964384e-05 6.80939e-06 -1.2744886e-09)
(7.0232516e-05 1.0912785e-05 -2.0376017e-09)
(6.4007332e-05 2.7777216e-06 -3.489748e-10)
(6.3557728e-05 6.7226673e-06 -8.3721657e-10)
(6.2090744e-05 1.0746535e-05 -1.3218586e-09)
(5.5943814e-05 2.474047e-06 -2.3972146e-10)
(5.5557646e-05 5.9949776e-06 -5.4606696e-10)
(5.435177e-05 9.6948053e-06 -8.4562018e-10)
(4.8429006e-05 2.2583198e-06 -1.6726169e-10)
(4.8103406e-05 5.5663407e-06 -3.5533547e-10)
(4.7118971e-05 8.9761624e-06 -5.3488271e-10)
(4.1523183e-05 2.0931734e-06 -1.191935e-10)
(4.1258029e-05 5.1740344e-06 -2.3208413e-10)
(4.0410681e-05 8.3146894e-06 -3.3576898e-10)
(3.5230895e-05 1.9248749e-06 -8.7533902e-11)
(3.5005344e-05 4.7552482e-06 -1.5356186e-10)
(3.427546e-05 7.6327421e-06 -2.1046831e-10)
(2.9529962e-05 1.7476884e-06 -6.6857156e-11)
(2.9333445e-05 4.3153178e-06 -1.0421213e-10)
(2.8703956e-05 6.9256925e-06 -1.3304839e-10)
(2.439523e-05 1.5689464e-06 -5.3750723e-11)
(2.4222045e-05 3.8727317e-06 -7.3951501e-11)
(2.3679201e-05 6.2112202e-06 -8.6225104e-11)
(1.9809939e-05 1.3968587e-06 -4.5822437e-11)
(1.9656467e-05 3.4523031e-06 -5.616949e-11)
(1.9189415e-05 5.5383915e-06 -5.8927496e-11)
(1.5759402e-05 1.2252378e-06 -4.0777981e-11)
(1.562282e-05 3.0353963e-06 -4.5404668e-11)
(1.5222049e-05 4.8719159e-06 -4.3056568e-11)
(1.2224404e-05 1.0571572e-06 -3.7533636e-11)
(1.2102336e-05 2.632018e-06 -3.881769e-11)
(1.1759134e-05 4.2244155e-06 -3.3866804e-11)
(9.1807081e-06 8.9963303e-07 -3.5441802e-11)
(9.0711987e-06 2.2514432e-06 -3.4739634e-11)
(8.7778933e-06 3.6099349e-06 -2.8584467e-11)
(6.6000963e-06 7.5491267e-07 -3.4095443e-11)
(6.5013454e-06 1.9010104e-06 -3.2167281e-11)
(6.2507438e-06 3.0438996e-06 -2.5593333e-11)
(4.4437195e-06 6.2259601e-07 -3.3285308e-11)
(4.3544722e-06 1.5821352e-06 -3.0592805e-11)
(4.1406783e-06 2.5295009e-06 -2.400402e-11)
(2.6638089e-06 4.9629554e-07 -3.2701219e-11)
(2.5836198e-06 1.2743685e-06 -2.942383e-11)
(2.4028807e-06 2.0388649e-06 -2.3080853e-11)
(1.2215043e-06 3.8975299e-07 -3.2385734e-11)
(1.1498513e-06 1.0154282e-06 -2.8627257e-11)
(9.9849968e-07 1.6202782e-06 -2.26143e-11)
(8.682582e-08 2.9768432e-07 -3.2222238e-11)
(2.2591086e-08 7.9057468e-07 -2.8055435e-11)
(-1.0426987e-07 1.2571662e-06 -2.2400986e-11)
(-7.7749052e-07 2.1820463e-07 -3.2123732e-11)
(-8.3534853e-07 5.9542643e-07 -2.7584965e-11)
(-9.4204204e-07 9.4267322e-07 -2.2256502e-11)
(-1.4141608e-06 1.5104051e-07 -3.2064147e-11)
(-1.4662047e-06 4.2952187e-07 -2.7183933e-11)
(-1.5557472e-06 6.7620793e-07 -2.2168819e-11)
(-1.8618657e-06 9.6079814e-08 -3.2048398e-11)
(-1.9086973e-06 2.92375e-07 -2.6847304e-11)
(-1.9835637e-06 4.5630912e-07 -2.2138663e-11)
(-2.1551494e-06 5.4827217e-08 -3.2190517e-11)
(-2.1978697e-06 1.8722428e-07 -2.6630624e-11)
(-2.2601708e-06 2.845735e-07 -2.2172538e-11)
(-2.326343e-06 2.0129727e-08 -3.220557e-11)
(-2.36526e-06 9.9840318e-08 -2.6401104e-11)
(-2.4172658e-06 1.453347e-07 -2.2202337e-11)
(-2.4044881e-06 -4.2546727e-09 -3.2269768e-11)
(-2.4395371e-06 3.655678e-08 -2.6244706e-11)
(-2.4833878e-06 4.5698781e-08 -2.2259668e-11)
(-2.4150714e-06 -2.0074167e-08 -3.2338484e-11)
(-2.446899e-06 -6.9629156e-09 -2.6134385e-11)
(-2.4841508e-06 -2.2643706e-08 -2.2328916e-11)
(-2.3817847e-06 -2.8027473e-08 -3.2513917e-11)
(-2.4109568e-06 -3.153125e-08 -2.6218041e-11)
(-2.4429931e-06 -6.0517563e-08 -2.25027e-11)
(-2.3282268e-06 -2.8718182e-08 -3.277563e-11)
(-2.3552956e-06 -3.8483151e-08 -2.6413598e-11)
(-2.3833051e-06 -6.9253209e-08 -2.2680664e-11)
(-2.2778646e-06 -2.2258865e-08 -3.2978458e-11)
(-2.3033365e-06 -3.0485714e-08 -2.6391943e-11)
(-2.3285194e-06 -5.4832778e-08 -2.2490315e-11)
(-2.2526759e-06 -8.6978363e-09 -3.2942274e-11)
(-2.2772039e-06 -1.0484655e-08 -2.5681482e-11)
(-2.3006356e-06 -2.4807897e-08 -2.135701e-11)
(-2.260983e-06 -2.6009241e-09 -3.2214987e-11)
(-2.2850005e-06 1.1279847e-08 -2.3369223e-11)
(-2.3070613e-06 1.7311796e-08 -1.8406309e-11)
(-2.3772196e-06 5.4063365e-09 -2.9214691e-11)
(-2.4008444e-06 1.9550384e-08 -1.7391666e-11)
(-2.4205022e-06 2.9506067e-08 -1.2240761e-11)
(-0.04529789 1.9406304 -3.7418375e-07)
(-0.032520796 1.68633 -3.4631979e-06)
(-0.060955759 0.33504301 -2.591312e-07)
(-0.04278505 0.1474863 -1.0142895e-06)
(-0.015395655 -0.042861673 -2.1446223e-07)
(-0.011783706 -0.044423867 -6.4371158e-07)
(-0.0047606952 -0.013326575 -1.2663111e-07)
(-0.0047381613 -0.014921828 -4.257156e-07)
(-0.00047705505 -0.0019062829 -1.296864e-07)
(-0.00083815707 -0.0028275345 -3.1493923e-07)
(0.00032037145 -0.00014135632 -1.4059354e-07)
(0.00024723913 -0.00034103976 -2.5292042e-07)
(0.00037827677 0.00015388299 -1.3907899e-07)
(0.00036091418 0.00017994729 -2.0990342e-07)
(0.00029785278 0.0002202659 -1.2709031e-07)
(0.00029268564 0.00029694486 -1.7460346e-07)
(0.00021700588 0.00015618393 -1.0907985e-07)
(0.00020413046 0.00020194543 -1.4285769e-07)
(0.00016150134 6.0821294e-05 -8.9297063e-08)
(0.00014371262 8.223837e-05 -1.1444002e-07)
(0.00013778972 4.3174378e-06 -7.0864244e-08)
(0.00012141255 2.5275759e-06 -9.0057253e-08)
(0.00013239584 -7.6768967e-06 -5.5188513e-08)
(0.00011826704 -1.4935791e-05 -6.9915065e-08)
(0.00013128897 -4.4606909e-07 -4.245726e-08)
(0.00011955471 -2.6921877e-06 -5.3682223e-08)
(0.00012840541 1.1750485e-05 -3.2309142e-08)
(0.00011882889 1.2845121e-05 -4.0750135e-08)
(0.00012193803 2.0274115e-05 -2.4259601e-08)
(0.00011403485 2.3237907e-05 -3.0509242e-08)
(0.00011274597 2.3105156e-05 -1.7899012e-08)
(0.00010586481 2.6688288e-05 -2.2450131e-08)
(0.00010269517 2.1702614e-05 -1.2925495e-08)
(9.6685411e-05 2.5415985e-05 -1.618159e-08)
(9.3067497e-05 1.9260765e-05 -9.1137391e-09)
(8.8084271e-05 2.2705867e-05 -1.139862e-08)
(8.4148069e-05 1.6935202e-05 -6.2710751e-09)
(8.0071678e-05 2.0384819e-05 -7.8401274e-09)
(7.5791316e-05 1.5603048e-05 -4.2152746e-09)
(7.2407075e-05 1.909426e-05 -5.267663e-09)
(6.7782569e-05 1.4950534e-05 -2.7729665e-09)
(6.4918933e-05 1.8539612e-05 -3.4615979e-09)
(6.0050757e-05 1.4401421e-05 -1.7896601e-09)
(5.7618136e-05 1.753195e-05 -2.2284478e-09)
(5.2658167e-05 1.3342256e-05 -1.1351621e-09)
(5.0590185e-05 1.6548272e-05 -1.4072922e-09)
(4.5671322e-05 1.2455669e-05 -7.0874459e-10)
(4.3884868e-05 1.5588199e-05 -8.7262299e-10)
(3.9172833e-05 1.1593186e-05 -4.36453e-10)
(3.7630327e-05 1.4524882e-05 -5.3178834e-10)
(3.3209984e-05 1.0652845e-05 -2.659772e-10)
(3.1876795e-05 1.3349488e-05 -3.1895052e-10)
(2.7784158e-05 9.6635962e-06 -1.6141189e-10)
(2.6629025e-05 1.2123528e-05 -1.8885434e-10)
(2.288525e-05 8.6570462e-06 -9.8655476e-11)
(2.1885158e-05 1.088497e-05 -1.111016e-10)
(1.8505672e-05 7.6622692e-06 -6.2011893e-11)
(1.7641429e-05 9.6552117e-06 -6.5754081e-11)
(1.4635157e-05 6.7175179e-06 -4.1089507e-11)
(1.3890305e-05 8.4881015e-06 -4.0015542e-11)
(1.1257049e-05 5.819126e-06 -2.9361138e-11)
(1.0618217e-05 7.3867629e-06 -2.5802954e-11)
(8.3497012e-06 4.9653222e-06 -2.2898304e-11)
(7.8042246e-06 6.3379851e-06 -1.8181043e-11)
(5.8862674e-06 4.1810699e-06 -1.9469021e-11)
(5.4221125e-06 5.3346938e-06 -1.4279316e-11)
(3.8317211e-06 3.4692166e-06 -1.7791619e-11)
(3.4388364e-06 4.3918219e-06 -1.2471752e-11)
(2.1435375e-06 2.8015452e-06 -1.7050856e-11)
(1.8140045e-06 3.5398146e-06 -1.1839062e-11)
(7.827626e-07 2.2223267e-06 -1.6864563e-11)
(5.0852252e-07 2.8004339e-06 -1.1835325e-11)
(-2.8350191e-07 1.7196964e-06 -1.6962223e-11)
(-5.1130241e-07 2.157827e-06 -1.2141267e-11)
(-1.0909397e-06 1.286527e-06 -1.7119051e-11)
(-1.2797389e-06 1.6101218e-06 -1.2531369e-11)
(-1.6787822e-06 9.2034193e-07 -1.7320019e-11)
(-1.834125e-06 1.1467023e-06 -1.296162e-11)
(-2.0846374e-06 6.1821864e-07 -1.7561464e-11)
(-2.2114922e-06 7.6249328e-07 -1.3408211e-11)
(-2.3429871e-06 3.8009487e-07 -1.7832088e-11)
(-2.4467106e-06 4.5856141e-07 -1.3855796e-11)
(-2.4850992e-06 1.8798855e-07 -1.8079516e-11)
(-2.5699205e-06 2.2466065e-07 -1.4271983e-11)
(-2.5390001e-06 5.2779648e-08 -1.832235e-11)
(-2.6079602e-06 5.1583771e-08 -1.4641024e-11)
(-2.5299526e-06 -3.9429653e-08 -1.8535463e-11)
(-2.5862946e-06 -6.3228362e-08 -1.4960844e-11)
(-2.481113e-06 -9.1028651e-08 -1.8748719e-11)
(-2.5276015e-06 -1.2630001e-07 -1.5214419e-11)
(-2.4155403e-06 -1.0149883e-07 -1.8882429e-11)
(-2.4545502e-06 -1.374885e-07 -1.5331204e-11)
(-2.3566075e-06 -7.9273637e-08 -1.8593062e-11)
(-2.3903903e-06 -1.0643967e-07 -1.5027086e-11)
(-2.3262017e-06 -3.6181146e-08 -1.7343512e-11)
(-2.3567268e-06 -4.8994595e-08 -1.3857179e-11)
(-2.3306512e-06 2.0684462e-08 -1.4461165e-11)
(-2.3585869e-06 2.1300113e-08 -1.132568e-11)
(-2.4404772e-06 3.8706062e-08 -9.1131459e-12)
(-2.4639983e-06 4.6716025e-08 -6.9332034e-12)
(-0.0021426029 7.0729829e-06 -1.1736299e-07)
(-0.0021071211 -6.1015393e-05 -2.7841922e-07)
(-0.0020391425 -6.6838031e-05 -3.9411379e-07)
(-0.0019584664 -0.0001123382 -4.6737081e-07)
(-0.0018675347 -0.00014852789 -5.0725061e-07)
(-0.0017645455 -0.00020843263 -5.2403192e-07)
(-0.0016471847 -0.00027976517 -5.2542665e-07)
(-0.0015143244 -0.00036155912 -5.1683387e-07)
(-0.0013705988 -0.00045610251 -5.020237e-07)
(-0.0012244482 -0.00056230208 -4.8360463e-07)
(-0.0010822734 -0.00067303901 -4.63399e-07)
(-0.00094788949 -0.00077818604 -4.425115e-07)
(-0.00082343254 -0.00086926668 -4.2148627e-07)
(-0.00070948584 -0.00094591861 -4.0043765e-07)
(-0.000605827 -0.0010103505 -3.7923545e-07)
(-0.0005122166 -0.0010640986 -3.5760143e-07)
(-0.00042847255 -0.0011091751 -3.3514001e-07)
(-0.00035418862 -0.0011454715 -3.1127736e-07)
(-0.00028838244 -0.0011711727 -2.8538006e-07)
(-0.00023014098 -0.0011866819 -2.5672044e-07)
(-0.00017854158 -0.0011931456 -2.245103e-07)
(-0.00013233358 -0.0011902801 -1.8756691e-07)
(-9.0471301e-05 -0.0011773174 -1.4487234e-07)
(-5.2268585e-05 -0.0011603397 -9.5828962e-08)
(-1.7126556e-05 -0.0011031178 -3.9872106e-08)
(0.00026673478 -0.00012220828 -1.3334708e-07)
(0.00027415568 -0.00049410797 -3.1208594e-07)
(0.00028657739 -0.00072160086 -4.337108e-07)
(0.00030855027 -0.0010611876 -5.0420577e-07)
(0.00034570838 -0.0013434351 -5.3782582e-07)
(0.00039406513 -0.0016573121 -5.4834933e-07)
(0.00044054869 -0.0019764226 -5.4450978e-07)
(0.00047234726 -0.0023257116 -5.3191761e-07)
(0.00048176252 -0.0026938053 -5.1412302e-07)
(0.00047869977 -0.0030437222 -4.9344972e-07)
(0.00046711636 -0.0033705413 -4.7167043e-07)
(0.00044884722 -0.0036765672 -4.4975396e-07)
(0.00042704563 -0.0039618554 -4.2811851e-07)
(0.00040168645 -0.0042232701 -4.0672377e-07)
(0.00037144976 -0.0044585286 -3.8534937e-07)
(0.00033712245 -0.00466902 -3.6368925e-07)
(0.00030021056 -0.0048663564 -3.4139878e-07)
(0.00026206164 -0.0050453638 -3.1777234e-07)
(0.00022333922 -0.0051837255 -2.9221833e-07)
(0.00018469549 -0.005273781 -2.6394332e-07)
(0.00014697078 -0.0053136693 -2.3246168e-07)
(0.00011064186 -0.0053060431 -1.9592665e-07)
(7.5755556e-05 -0.0052543488 -1.5291404e-07)
(4.2452755e-05 -0.0051442628 -1.017696e-07)
(1.1672128e-05 -0.0049105272 -4.3993032e-08)
(0.0011313701 -0.00030427419 -1.7160376e-07)
(0.0011566105 -0.0014992561 -3.8730773e-07)
(0.0012116339 -0.0020569419 -5.16874e-07)
(0.0013033611 -0.0029998789 -5.7707543e-07)
(0.0013915054 -0.0037940793 -5.9646878e-07)
(0.0014498221 -0.0046360945 -5.9424943e-07)
(0.0014674154 -0.0054683903 -5.8014499e-07)
(0.0014463343 -0.006433686 -5.6011727e-07)
(0.0013987594 -0.0074974966 -5.3695528e-07)
(0.0013297071 -0.0084655473 -5.1207908e-07)
(0.0012461182 -0.0093029993 -4.8748552e-07)
(0.0011553903 -0.010009477 -4.6379378e-07)
(0.0010603874 -0.010587059 -4.4123972e-07)
(0.00096258897 -0.011045606 -4.194054e-07)
(0.00086509518 -0.011390734 -3.9790005e-07)
(0.00076901624 -0.011623833 -3.7634947e-07)
(0.00067501956 -0.011737553 -3.5482297e-07)
(0.00058343034 -0.011749116 -3.3192382e-07)
(0.00049434322 -0.011687234 -3.0751027e-07)
(0.00040818561 -0.011568184 -2.8079803e-07)
(0.00032564224 -0.011402265 -2.5085575e-07)
(0.00024661011 -0.011198314 -2.1616636e-07)
(0.00017056345 -0.010962841 -1.7462569e-07)
(9.7826499e-05 -0.010666046 -1.2265155e-07)
(3.0124666e-05 -0.010258953 -6.0160769e-08)
(0.0036355097 -0.0010277992 -2.5394561e-07)
(0.0036839876 -0.0046774758 -5.2665476e-07)
(0.003724209 -0.0060584087 -6.5347163e-07)
(0.0036268102 -0.0094005159 -6.8717516e-07)
(0.0034578038 -0.012401297 -6.8135784e-07)
(0.0032109206 -0.015029292 -6.5930286e-07)
(0.0029256881 -0.016865097 -6.3006201e-07)
(0.002631758 -0.01781829 -6.0070916e-07)
(0.0023477837 -0.01808324 -5.7145559e-07)
(0.002075872 -0.017919856 -5.4079234e-07)
(0.001825465 -0.017440284 -5.1270329e-07)
(0.0015990946 -0.016769351 -4.8677179e-07)
(0.0013929092 -0.015927091 -4.6343534e-07)
(0.0011918567 -0.014966351 -4.4132607e-07)
(0.0010119744 -0.013938392 -4.1989066e-07)
(0.00085354529 -0.012888024 -3.9885211e-07)
(0.00071486628 -0.01185406 -3.778699e-07)
(0.00059372833 -0.010870389 -3.5642441e-07)
(0.00048800603 -0.0099605172 -3.3398652e-07)
(0.00039503212 -0.0091439365 -3.0988406e-07)
(0.00031174779 -0.0084327565 -2.8324484e-07)
(0.0002357848 -0.0078307525 -2.5279766e-07)
(0.00016594987 -0.0073378818 -2.1663781e-07)
(0.00010042794 -0.0069120291 -1.7158405e-07)
(3.6992368e-05 -0.0066000702 -1.0761401e-07)
(0.011385485 -0.0087460089 -4.4120765e-07)
(0.0092382535 -0.025798942 -7.6171133e-07)
(0.0082084555 -0.028527329 -8.4937349e-07)
(0.0065055418 -0.03295503 -8.3823204e-07)
(0.0050725172 -0.030457777 -7.9957276e-07)
(0.0038063826 -0.026661418 -7.5194985e-07)
(0.0027475187 -0.021900431 -7.0461616e-07)
(0.001899515 -0.016875019 -6.6045266e-07)
(0.001234793 -0.0118696 -6.2102483e-07)
(0.00072102183 -0.0072437203 -5.8480577e-07)
(0.00032707458 -0.0030633263 -5.5221206e-07)
(3.1400662e-05 0.00051821527 -5.2195845e-07)
(-0.00018339971 0.0038596638 -4.9763435e-07)
(-0.00032131965 0.0070433998 -4.7462552e-07)
(-0.00040927753 0.0099595703 -4.5244325e-07)
(-0.0004550967 0.012489201 -4.3121917e-07)
(-0.00046751881 0.014601667 -4.1062e-07)
(-0.00045362648 0.016316284 -3.9021504e-07)
(-0.00041924095 0.017662197 -3.6952588e-07)
(-0.00036946751 0.018668768 -3.4800725e-07)
(-0.00030904278 0.019361002 -3.2497868e-07)
(-0.00024168326 0.019764282 -2.9948638e-07)
(-0.00016940398 0.019876476 -2.6999937e-07)
(-9.5457693e-05 0.019755204 -2.41137e-07)
(-2.1751127e-05 0.01906271 -2.1237188e-07)
(0.014338462 0.022507826 -7.9868902e-07)
(0.0039110068 -0.0025433727 -1.1306151e-06)
(0.0011652379 0.047199425 -1.1337165e-06)
(-0.00079499898 0.04999108 -1.0614253e-06)
(-0.0024861111 0.064383132 -9.8469886e-07)
(-0.0037313289 0.074825893 -8.9917127e-07)
(-0.0044211228 0.082144722 -8.2245915e-07)
(-0.0046429183 0.088245645 -7.5580795e-07)
(-0.0045757273 0.092751983 -6.9786583e-07)
(-0.0043640524 0.095563069 -6.4837222e-07)
(-0.0040825807 0.097174247 -6.0676596e-07)
(-0.0037453597 0.097696796 -5.6382314e-07)
(-0.0034034143 0.097454308 -5.3929226e-07)
(-0.0030658292 0.096159152 -5.1294214e-07)
(-0.0027247233 0.094019583 -4.8698953e-07)
(-0.0023910215 0.091606339 -4.6368576e-07)
(-0.0020752384 0.088987587 -4.4199679e-07)
(-0.00177849 0.086248604 -4.2131091e-07)
(-0.0015000013 0.083466895 -4.0112539e-07)
(-0.0012378905 0.080701163 -3.809489e-07)
(-0.00098961358 0.077988759 -3.6024254e-07)
(-0.00075305887 0.075372021 -3.3834368e-07)
(-0.00052639824 0.072823012 -3.1456803e-07)
(-0.00030791143 0.070528843 -2.8983609e-07)
(-9.2168181e-05 0.067055439 -2.6554346e-07)
(-0.0018595618 1.1685719 -2.5302204e-06)
(-0.00076790856 0.95852144 -2.0110564e-06)
(-0.0010212992 0.86388482 -1.6287155e-06)
(-0.00070882261 0.77236608 -1.334246e-06)
(-0.00060523226 0.67677277 -1.1159072e-06)
(-0.00051663338 0.58560729 -9.5815554e-07)
(-0.00043712465 0.50735324 -8.4293866e-07)
(-0.00036621269 0.4437211 -7.5835631e-07)
(-0.00030389772 0.39122304 -6.9010323e-07)
(-0.00025391772 0.34641676 -6.3744185e-07)
(-0.0002058985 0.30775045 -5.9665834e-07)
(-0.00016255415 0.27447627 -5.6142687e-07)
(-0.00012537069 0.2460229 -5.3253906e-07)
(-0.00010519853 0.22166421 -5.0750938e-07)
(-8.6968994e-05 0.20074277 -4.8487963e-07)
(-7.2220346e-05 0.18277794 -4.6395547e-07)
(-5.9975264e-05 0.16734113 -4.4416262e-07)
(-4.9935013e-05 0.15407044 -4.2509653e-07)
(-4.1452584e-05 0.14266405 -4.0643394e-07)
(-3.3994111e-05 0.13287331 -3.8784572e-07)
(-2.7119729e-05 0.12448275 -3.6894439e-07)
(-2.0441371e-05 0.11735081 -3.4918851e-07)
(-1.4037047e-05 0.11123635 -3.2824039e-07)
(-7.9759104e-06 0.10642133 -3.058542e-07)
(-2.1502689e-06 0.10041798 -2.8152144e-07)
(-0.013508393 0.087353743 -1.2327801e-06)
(-0.0031687529 0.095882671 -1.2740907e-06)
(-0.00053700543 0.10216734 -1.2286308e-06)
(0.0013566035 0.10428574 -1.1381781e-06)
(0.0029614841 0.10674555 -1.0358467e-06)
(0.0041223473 0.1087192 -9.3640182e-07)
(0.0047482126 0.11055337 -8.4763808e-07)
(0.0049150565 0.11220581 -7.7096091e-07)
(0.004801809 0.11309257 -6.9049763e-07)
(0.0045331472 0.11322366 -6.464896e-07)
(0.0042219899 0.11255899 -6.0631048e-07)
(0.00389083 0.11091748 -5.6406653e-07)
(0.0035217773 0.10841554 -5.2878705e-07)
(0.0031505976 0.10541433 -4.9866801e-07)
(0.0027902475 0.1021567 -4.7227803e-07)
(0.0024462306 0.098767433 -4.4862421e-07)
(0.002120781 0.095331319 -4.2697104e-07)
(0.0018142407 0.091917262 -4.0672311e-07)
(0.0015268295 0.088576899 -3.8735057e-07)
(0.0012571655 0.085348342 -3.6832805e-07)
(0.0010032695 0.082253595 -3.4905613e-07)
(0.00076289778 0.079322481 -3.2874791e-07)
(0.00053336764 0.076517942 -3.0771615e-07)
(0.00031242565 0.074031475 -2.8472324e-07)
(9.4251211e-05 0.070344513 -2.6151791e-07)
(-0.0096510556 -0.042180068 -8.6708314e-07)
(-0.0082962516 -0.040217963 -9.3241048e-07)
(-0.0068295301 -0.038490767 -9.1982929e-07)
(-0.0053424331 -0.034916099 -8.7384933e-07)
(-0.0039657878 -0.02979364 -8.1556069e-07)
(-0.0027889418 -0.023998663 -7.5428204e-07)
(-0.0018284872 -0.018051251 -6.9726423e-07)
(-0.0010797883 -0.012307438 -6.4508083e-07)
(-0.00051250789 -0.0071821073 -5.9694294e-07)
(-8.5927575e-05 -0.0026665425 -5.6082335e-07)
(0.00022274544 0.0012134567 -5.2767377e-07)
(0.00043760664 0.0050029863 -4.968242e-07)
(0.00057760321 0.0086070653 -4.6914687e-07)
(0.00065998098 0.01182562 -4.4429966e-07)
(0.00069702133 0.014595076 -4.2169274e-07)
(0.0006983718 0.01691494 -4.0079365e-07)
(0.0006722898 0.018819793 -3.8117065e-07)
(0.00062598754 0.020351663 -3.6233424e-07)
(0.00056334056 0.021533797 -3.4377438e-07)
(0.00048809062 0.022387986 -3.2490017e-07)
(0.00040356015 0.02293595 -3.0488786e-07)
(0.00031279198 0.023198965 -2.823193e-07)
(0.00021836896 0.023187527 -2.6002317e-07)
(0.00012358271 0.022945407 -2.329647e-07)
(3.0174026e-05 0.022102129 -2.0637169e-07)
(-0.0047119319 -0.016676927 -6.0035008e-07)
(-0.0046431873 -0.019272575 -6.7695275e-07)
(-0.0044468626 -0.02207131 -6.9220462e-07)
(-0.0041377182 -0.024059126 -6.7552713e-07)
(-0.0037464578 -0.025255581 -6.4589264e-07)
(-0.0033278644 -0.025570175 -6.1315772e-07)
(-0.0029322911 -0.025205816 -5.7364337e-07)
(-0.0025655401 -0.024404879 -5.3660001e-07)
(-0.0022298335 -0.023343319 -5.0302704e-07)
(-0.001934357 -0.022094221 -4.7426883e-07)
(-0.0016703871 -0.020741057 -4.4811395e-07)
(-0.0014290653 -0.019264981 -4.2400872e-07)
(-0.0012134582 -0.017735587 -4.0190906e-07)
(-0.0010250523 -0.016204842 -3.8161391e-07)
(-0.00086143636 -0.014707544 -3.6259288e-07)
(-0.00072001349 -0.013274757 -3.4442011e-07)
(-0.00059788086 -0.011940374 -3.2696046e-07)
(-0.00049154272 -0.010734564 -3.0963333e-07)
(-0.00039965645 -0.0096635911 -2.91891e-07)
(-0.00032020705 -0.0087282952 -2.7307315e-07)
(-0.00025105835 -0.0079286747 -2.5227238e-07)
(-0.00018999761 -0.0072638955 -2.282492e-07)
(-0.00013490327 -0.0067302027 -1.997268e-07)
(-8.3388174e-05 -0.0062867922 -1.6114716e-07)
(-3.2637608e-05 -0.0059836092 -1.0329216e-07)
(-0.0011249559 -0.0038874596 -4.4174701e-07)
(-0.0013985763 -0.0049422348 -5.1232086e-07)
(-0.0016347537 -0.006038861 -5.4016498e-07)
(-0.0017823999 -0.0071073877 -5.4127856e-07)
(-0.0018605236 -0.0081371764 -5.2750845e-07)
(-0.0018604456 -0.0092607898 -5.0608027e-07)
(-0.0018029412 -0.010414413 -4.7975694e-07)
(-0.0017091197 -0.011388328 -4.5302534e-07)
(-0.0015951761 -0.012191926 -4.2776133e-07)
(-0.0014745911 -0.012832563 -4.0466381e-07)
(-0.0013531525 -0.013333053 -3.8331833e-07)
(-0.0012336386 -0.013696792 -3.6344157e-07)
(-0.0011169667 -0.013931998 -3.4487694e-07)
(-0.001003538 -0.014021427 -3.2776279e-07)
(-0.00089430148 -0.013990114 -3.1124349e-07)
(-0.00078964155 -0.013879138 -2.9533543e-07)
(-0.00069011953 -0.013712621 -2.793997e-07)
(-0.00059568611 -0.013504716 -2.6311021e-07)
(-0.00050513157 -0.013264333 -2.4595091e-07)
(-0.00041800297 -0.012998217 -2.2726535e-07)
(-0.00033401646 -0.012711679 -2.060649e-07)
(-0.0002530127 -0.012409846 -1.8088683e-07)
(-0.00017503825 -0.01209574 -1.4959612e-07)
(-0.00010045507 -0.011731253 -1.0774923e-07)
(-3.104749e-05 -0.011273442 -5.4589526e-08)
(0.00014721661 -0.0006540741 -3.4017984e-07)
(4.1263368e-05 -0.0010435374 -3.9681568e-07)
(-0.00011109078 -0.0014916291 -4.2624093e-07)
(-0.00027111532 -0.0019667055 -4.3570962e-07)
(-0.0004307202 -0.0024681534 -4.3201056e-07)
(-0.00055441567 -0.0030035629 -4.2019635e-07)
(-0.00063513037 -0.0035384331 -4.0355169e-07)
(-0.00067469229 -0.0040250167 -3.8494925e-07)
(-0.00068532477 -0.0044597202 -3.6612801e-07)
(-0.00067452459 -0.0048373843 -3.4794451e-07)
(-0.00064881596 -0.0051638186 -3.3060357e-07)
(-0.00061275224 -0.005449118 -3.1411337e-07)
(-0.00057143266 -0.005710075 -2.9842757e-07)
(-0.00052645215 -0.0059758401 -2.8348922e-07)
(-0.00047952098 -0.0062396285 -2.6896963e-07)
(-0.0004313641 -0.0064650179 -2.5464777e-07)
(-0.00038264649 -0.0066438657 -2.4013658e-07)
(-0.00033388297 -0.0067741051 -2.2505087e-07)
(-0.00028522821 -0.0068555108 -2.0889895e-07)
(-0.00023691423 -0.0068877552 -1.9121062e-07)
(-0.00018924719 -0.0068717588 -1.7116346e-07)
(-0.00014260381 -0.0068106235 -1.472642e-07)
(-9.7480171e-05 -0.0067087124 -1.1817368e-07)
(-5.4460874e-05 -0.0065478155 -8.1436714e-08)
(-1.5063019e-05 -0.006252896 -3.7512991e-08)
(0.00033151589 0.00018692807 -2.6965301e-07)
(0.00030193632 0.0001597206 -3.1281887e-07)
(0.000267516 8.4351787e-05 -3.3914695e-07)
(0.00020789416 -3.8239971e-05 -3.5144137e-07)
(0.00014240418 -0.0001879731 -3.5329475e-07)
(6.7059817e-05 -0.00036329288 -3.4794199e-07)
(-4.8571228e-06 -0.00055591798 -3.379466e-07)
(-6.6771933e-05 -0.000749979 -3.2538415e-07)
(-0.0001147447 -0.00093680755 -3.1169418e-07)
(-0.0001469014 -0.0011075296 -2.9773793e-07)
(-0.00016455011 -0.0012598555 -2.8393417e-07)
(-0.00017217764 -0.0013955326 -2.7046102e-07)
(-0.00017115866 -0.0015139782 -2.5736672e-07)
(-0.00016485642 -0.0016172202 -2.4460792e-07)
(-0.00015470266 -0.0017056687 -2.320198e-07)
(-0.00014185487 -0.001777329 -2.1939662e-07)
(-0.00012694774 -0.0018334442 -2.0645926e-07)
(-0.00011118713 -0.0018747362 -1.9288509e-07)
(-9.5143797e-05 -0.0019017178 -1.7828963e-07)
(-7.9171814e-05 -0.0019145008 -1.6224667e-07)
(-6.350772e-05 -0.0019133372 -1.4422876e-07)
(-4.832895e-05 -0.0018989515 -1.2345784e-07)
(-3.367665e-05 -0.0018739719 -9.9140333e-08)
(-1.9388939e-05 -0.0018373497 -7.0310084e-08)
(-5.4122506e-06 -0.0017454165 -3.5298669e-08)
(0.00028584094 0.00036960778 -2.1645268e-07)
(0.0002740513 0.0004251748 -2.4872686e-07)
(0.00025766323 0.00046791341 -2.7062888e-07)