/*--------------------------------*- C++ -*----------------------------------*\
| =========                 |                                                 |
| \\      /  F ield         | OpenFOAM: The Open Source CFD Toolbox           |
|  \\    /   O peration     | Version:  4.0                                   |
|   \\  /    A nd           | Web:      www.OpenFOAM.org                      |
|    \\/     M anipulation  |                                                 |
\*---------------------------------------------------------------------------*/
FoamFile
{
    version     2.0;
    format      ascii;
    class       volScalarField;
    location    "0.53";
    object      k;
}
// * * * * * * * * * * * * * * * * * * * * * * * * * * * * * * * * * * * * * //

dimensions      [0 2 -2 0 0 0 0];

internalField   nonuniform List<scalar> 
1740
(
0.009021603
0.0091824818
0.01871402
0.0091928532
0.0099416357
0.027533527
0.0095493288
0.010437015
0.03441261
0.0097838072
0.010576797
0.041384486
0.0099026891
0.010832915
0.047290742
0.0099839087
0.011300589
0.05225148
0.010149277
0.01206118
0.056648346
0.010161547
0.012469711
0.059224906
0.010091584
0.012302709
0.062248744
0.01007416
0.012655214
0.064906796
0.010073783
0.013103352
0.066123908
0.01007736
0.013260537
0.067820908
0.0099832017
0.013459097
0.06936296
0.0098486882
0.013727427
0.069771515
0.0096764125
0.013762079
0.070739681
0.0096416105
0.013984056
0.071544782
0.0094993406
0.014247036
0.071619525
0.0093755073
0.014286481
0.072040437
0.0092853004
0.014276299
0.072425758
0.0091490872
0.01435526
0.072598818
0.0089915497
0.014314141
0.072939295
0.0088651499
0.014356692
0.073184712
0.0087622203
0.014806257
0.07333907
0.0086859627
0.015241854
0.073530135
0.0086191945
0.014925296
0.073223886
0.0085351377
0.014768895
0.072917317
0.0085022128
0.014925933
0.072687107
0.0084699038
0.014983692
0.072399459
0.0084092549
0.014906062
0.071769981
0.0089766805
0.015980772
0.066775186
0.012774683
0.0179822
0.047418408
0.024074002
0.031294689
0.039989002
0.010304532
0.012561527
0.013756706
0.0042467867
0.0045742283
0.0046444552
0.0020646374
0.0021067464
0.0020832108
0.0011396042
0.0011405759
0.0011228718
0.00069017005
0.0006876973
0.00067975166
0.00044892537
0.00044762631
0.00044496013
0.00030819827
0.00030787106
0.00030752375
0.00021991164
0.00022004035
0.00022055637
0.00016088069
0.00016116221
0.00016190185
0.00011925325
0.00011954837
0.00012025533
8.8681298e-05
8.893619e-05
8.9523377e-05
6.5622975e-05
6.5823131e-05
6.6275101e-05
4.8013255e-05
4.8160812e-05
4.8490422e-05
3.4573137e-05
3.4676505e-05
3.4905982e-05
2.4436411e-05
2.4505529e-05
2.4658369e-05
1.6947429e-05
1.6991614e-05
1.708905e-05
1.1560161e-05
1.15872e-05
1.1646703e-05
7.7992411e-06
7.8150898e-06
7.8499356e-06
5.2551396e-06
5.2640735e-06
5.28372e-06
3.5905528e-06
3.5954656e-06
3.6062563e-06
2.5380337e-06
2.540718e-06
2.5465993e-06
1.8957649e-06
1.8972648e-06
1.9005456e-06
1.5199672e-06
1.520868e-06
1.5228367e-06
1.3124098e-06
1.3130209e-06
1.3143569e-06
1.20825e-06
1.2087253e-06
1.2097652e-06
1.165981e-06
1.1663913e-06
1.1672899e-06
1.1597602e-06
1.1601351e-06
1.1609569e-06
1.1738914e-06
1.1742418e-06
1.1750098e-06
1.1990391e-06
1.1993678e-06
1.2000883e-06
1.2297264e-06
1.2300338e-06
1.2307076e-06
1.2627334e-06
1.2630195e-06
1.2636463e-06
1.2960939e-06
1.2963588e-06
1.296939e-06
1.328475e-06
1.3287194e-06
1.3292543e-06
1.3587904e-06
1.3590151e-06
1.3595068e-06
1.385948e-06
1.3861541e-06
1.386605e-06
1.4086705e-06
1.4088593e-06
1.409272e-06
1.4253527e-06
1.4255253e-06
1.4259027e-06
1.4339363e-06
1.434094e-06
1.4344385e-06
1.4317995e-06
1.4319434e-06
1.4322575e-06
1.4156715e-06
1.4158024e-06
1.4160882e-06
1.381595e-06
1.3817137e-06
1.3819727e-06
1.3249819e-06
1.3250888e-06
1.3253221e-06
1.2408126e-06
1.2409078e-06
1.2411156e-06
1.1240751e-06
1.1241582e-06
1.1243402e-06
9.7052958e-07
9.7059998e-07
9.7075491e-07
7.7792394e-07
7.7798053e-07
7.7810615e-07
5.4756838e-07
5.4760916e-07
5.4770075e-07
2.8503433e-07
2.8505625e-07
2.85106e-07
0.056247659
0.060896146
0.046150582
0.046637088
0.012501849
0.011368113
0.0043558856
0.004127839
0.0019961592
0.0019402096
0.0010938174
0.001079047
0.00067078992
0.00066886731
0.00044319234
0.00044519515
0.00030822383
0.0003111011
0.00022194308
0.00022467102
0.00016331096
0.00016559038
0.00012146175
0.00012325361
9.0475823e-05
9.182977e-05
6.6988695e-05
6.7978541e-05
4.9002841e-05
4.9703122e-05
3.5259404e-05
3.5737757e-05
2.489235e-05
2.5206994e-05
1.7237602e-05
1.7436456e-05
1.1737142e-05
1.1857783e-05
7.9027859e-06
7.9730971e-06
5.313478e-06
5.352974e-06
3.6225683e-06
3.6441594e-06
2.5554669e-06
2.5671697e-06
1.9054818e-06
1.9119803e-06
1.525795e-06
1.5296846e-06
1.3163647e-06
1.3190056e-06
1.2113297e-06
1.2133911e-06
1.1686435e-06
1.1704303e-06
1.1621957e-06
1.1638329e-06
1.1761678e-06
1.1776989e-06
1.2011745e-06
1.2026105e-06
1.2317228e-06
1.2330643e-06
1.2645902e-06
1.2658364e-06
1.2978123e-06
1.2989642e-06
1.3300589e-06
1.3311193e-06
1.3602459e-06
1.3612189e-06
1.3872822e-06
1.3881731e-06
1.4098916e-06
1.4107056e-06
1.4264686e-06
1.4272114e-06
1.4349549e-06
1.4356318e-06
1.432728e-06
1.433344e-06
1.4165159e-06
1.4170753e-06
1.3823602e-06
1.3828664e-06
1.3256709e-06
1.3261265e-06
1.2414267e-06
1.2418334e-06
1.1246135e-06
1.1249726e-06
9.7098971e-07
9.7130115e-07
7.7829924e-07
7.7855937e-07
5.4784403e-07
5.4804057e-07
2.8518502e-07
2.8529495e-07
2.7807789e-06
2.6940663e-05
0.00013443553
0.00030496386
0.00046215055
0.00057310689
0.00064341828
0.00068706333
0.00071581377
0.00073679848
0.00075405575
0.00077059844
0.00078610125
0.00080032066
0.00081294518
0.00082342544
0.00083077798
0.00083333722
0.00082838528
0.00081163987
0.00077654472
0.00071338602
0.00060851635
0.00044437649
0.00019996456
2.4627785e-06
5.4777516e-05
0.0002511879
0.00051606428
0.00072792924
0.00085942262
0.0009353664
0.00097989562
0.0010084376
0.0010290164
0.0010458786
0.001061555
0.0010759274
0.0010887246
0.0010995532
0.0011077914
0.0011123078
0.0011111892
0.0011012364
0.0010773224
0.0010314434
0.00095132208
0.00081862628
0.00060766153
0.00028716306
7.8990423e-06
0.00016013241
0.00061667331
0.0010808561
0.0013640014
0.0015067234
0.0015741116
0.001605597
0.0016211945
0.0016293572
0.0016344714
0.0016374721
0.0016395442
0.001640043
0.00163848
0.0016343864
0.0016267054
0.0016136438
0.0015917868
0.0015555336
0.0014958542
0.0013980239
0.0012373142
0.00097074416
0.00052267801
3.7424438e-05
0.00058019588
0.0016884873
0.002440218
0.0027769637
0.0028905519
0.0028995268
0.0028688993
0.0028286268
0.0027835841
0.0027388076
0.0026961768
0.002656181
0.0026156421
0.0025740053
0.00253169
0.0024881992
0.0024421051
0.0023906662
0.0023291098
0.002249524
0.0021386163
0.0019720371
0.0016967842
0.0011557914
0.00028033643
0.0024516165
0.0049248979
0.0060468304
0.0063923834
0.0063295775
0.0060989677
0.0058342909
0.0055841795
0.0053329339
0.005092317
0.0048675127
0.0046637205
0.0044665791
0.0042749744
0.0040937579
0.003923862
0.0037646864
0.0036144374
0.0034696396
0.0033246468
0.003171211
0.0029983004
0.0027975407
0.0025872846
0.0023606635
0.0105408
0.016600353
0.018548317
0.018087413
0.016530488
0.014714533
0.01302541
0.011541821
0.010263634
0.0091701867
0.0082391062
0.007445188
0.0067645389
0.0061792818
0.005676114
0.0052436259
0.0048714694
0.004550231
0.0042710845
0.0040251918
0.0038035854
0.0035976601
0.003406708
0.0032461547
0.045036521
0.034097654
0.026573122
0.021411847
0.017760545
0.015058738
0.012973925
0.011322349
0.0099948197
0.0089147541
0.0080243211
0.0072799625
0.0066490821
0.0061076336
0.0056379724
0.0052276277
0.0048678216
0.0045518987
0.0042742799
0.0040297112
0.003812624
0.0036170645
0.0034373153
0.0032747293
0.0031444778
0.037303478
0.031001624
0.027792022
0.025157599
0.022286837
0.019311883
0.016594611
0.014294586
0.012411664
0.010868657
0.0095963318
0.0085380368
0.0076502646
0.0069031823
0.0062730114
0.0057401776
0.0052882536
0.004903491
0.0045741462
0.0042896993
0.0040400909
0.0038155335
0.0036068569
0.0034132053
0.0032504314
0.010226087
0.0095553804
0.0092168025
0.0088966892
0.0084336251
0.0078674337
0.0073080366
0.0068117538
0.0063601942
0.0059616663
0.0056130926
0.0053085959
0.0050228912
0.0047588202
0.0045177732
0.0042989775
0.0041004276
0.0039192155
0.0037514379
0.0035920547
0.0034343348
0.0032693157
0.0030855059
0.002874331
0.0026543672
0.0039696711
0.0038972073
0.0038752273
0.003834631
0.0037401573
0.0036049668
0.0034651104
0.0033357067
0.0032191237
0.0031175339
0.0030299227
0.0029531714
0.0028816726
0.0028148406
0.002752475
0.0026937284
0.0026369349
0.002579487
0.0025175938
0.0024457464
0.0023556218
0.0022337934
0.002055889
0.0017681669
0.0012082038
0.0019249514
0.001939028
0.001964473
0.0019795657
0.0019733498
0.0019493814
0.0019186468
0.0018881602
0.0018609887
0.0018384519
0.0018203372
0.0018053859
0.0017919162
0.0017792716
0.0017670667
0.0017540755
0.0017384099
0.0017172651
0.0016865684
0.0016403442
0.0015695384
0.0014597692
0.0012868374
0.0010078283
0.00054540953
0.0010839652
0.0011029221
0.0011269896
0.0011473952
0.0011596502
0.0011645526
0.0011657219
0.0011661686
0.0011676217
0.0011708302
0.0011757482
0.0011818019
0.0011881948
0.0011942355
0.0011991535
0.0012017193
0.0012000962
0.0011916446
0.0011726349
0.0011377841
0.0010795065
0.0009867264
0.00084314396
0.0006253552
0.00030257546
0.00067633013
0.00069085899
0.00070838498
0.00072507543
0.00073881246
0.00074955386
0.000758529
0.00076704455
0.00077599676
0.00078580788
0.00079647996
0.00080770099
0.0008189743
0.00082968918
0.00083903382
0.00084584135
0.00084847502
0.00084468937
0.0008314558
0.00080473434
0.00075919356
0.00068792268
0.00058224962
0.00043149448
0.00021814513
0.00045193327
0.00046244999
0.00047489673
0.00048749214
0.000499161
0.00050970468
0.00051952499
0.00052917569
0.000539093
0.00054949392
0.00056036649
0.00057149885
0.00058251906
0.00059290493
0.00060193503
0.00060861323
0.00061159435
0.00060910952
0.00059889865
0.00057817347
0.00054368695
0.00049211345
0.00042130545
0.00033412196
0.00025070442
0.00031655135
0.00032416137
0.00033306626
0.0003424021
0.0003515973
0.00036046999
0.00036912968
0.00037779973
0.0003866747
0.00039584685
0.00040527749
0.00041479516
0.00042409948
0.00043275299
0.0004401507
0.00044547953
0.00044768023
0.00044542019
0.00043709511
0.0004208962
0.00039502693
0.00035825792
0.00031123722
0.00025942249
0.00021868702
0.00022890354
0.00023444655
0.00024088477
0.00024778097
0.00025482119
0.00026186858
0.00026893112
0.00027608626
0.00028340772
0.00029091709
0.00029855662
0.00030617742
0.00031353076
0.00032025627
0.00032586256
0.0003297057
0.00033097406
0.00032868784
0.00032172965
0.00030893389
0.0002892852
0.00026231311
0.00022883437
0.00019238394
0.00016238901
0.00016880626
0.00017285973
0.00017754301
0.00018262608
0.00018793092
0.0001933607
0.00019889148
0.00020453811
0.00021031542
0.00021620877
0.00022215281
0.00022801774
0.00023359864
0.00023860456
0.00024264594
0.00024522415
0.00024572768
0.00024344129
0.00023757749
0.00022734081
0.00021203192
0.00019116816
0.00016447847
0.0001312181
8.6077789e-05
0.00012565541
0.00012861298
0.00013201726
0.00013574271
0.00013968434
0.00014377578
0.00014798598
0.00015230436
0.00015671994
0.00016120283
0.00016568875
0.00017006764
0.000174174
0.00017777809
0.00018057802
0.00018219458
0.00018217172
0.00017998606
0.0001750681
0.00016683477
0.00015471988
0.00013815291
0.00011633837
8.745459e-05
4.6527385e-05
9.3591819e-05
9.573034e-05
9.8184886e-05
0.00010088448
0.00010376544
0.00010678209
0.00010990572
0.00011311742
0.00011639685
0.00011971056
0.00012300126
0.0001261792
0.00012911434
0.00013162989
0.0001334971
0.00013443251
0.00013409929
0.00013211371
0.00012805683
0.00012148733
0.00011194276
9.8900047e-05
8.163879e-05
5.8926363e-05
2.8735265e-05
6.9244049e-05
7.076557e-05
7.2508128e-05
7.4430062e-05
7.6491852e-05
7.8661915e-05
8.0916598e-05
8.3236492e-05
8.5600058e-05
8.797636e-05
9.0317989e-05
9.2554642e-05
9.45875e-05
9.628447e-05
9.7476499e-05
9.7955978e-05
9.7477495e-05
9.5761662e-05
9.2501025e-05
8.7365415e-05
8.0001012e-05
7.0015991e-05
5.6953827e-05
4.0301873e-05
1.9844103e-05
5.0588563e-05
5.1646397e-05
5.285571e-05
5.4191291e-05
5.5628045e-05
5.7144128e-05
5.8721258e-05
6.0342614e-05
6.1989202e-05
6.363541e-05
6.5244258e-05
6.6763079e-05
6.8119426e-05
6.9217738e-05
6.9936732e-05
7.0128126e-05
6.9616871e-05
6.82031e-05
6.5665524e-05
6.1765512e-05
5.6251623e-05
4.8868402e-05
3.9387191e-05
2.7720131e-05
1.4460614e-05
3.6338217e-05
3.7052348e-05
3.7867289e-05
3.8767425e-05
3.9736651e-05
4.0759967e-05
4.1823755e-05
4.2914746e-05
4.4017818e-05
4.5113285e-05
4.6173882e-05
4.7161856e-05
4.8026152e-05
4.8700127e-05
4.9099646e-05
4.9121995e-05
4.8645724e-05
4.7531642e-05
4.5625145e-05
4.2760491e-05
3.8769054e-05
3.3497313e-05
2.6848063e-05
1.8875445e-05
1.0078177e-05
2.5599895e-05
2.6065514e-05
2.6595793e-05
2.7180951e-05
2.7810578e-05
2.8474532e-05
2.9163073e-05
2.9866326e-05
3.0573083e-05
3.1269091e-05
3.1935228e-05
3.2545614e-05
3.3065751e-05
3.345093e-05
3.3644871e-05
3.3578831e-05
3.3171255e-05
3.2328269e-05
3.0945449e-05
2.8911889e-05
2.6118821e-05
2.2477037e-05
1.794945e-05
1.2607426e-05
6.7778337e-06
1.7683731e-05
1.7975852e-05
1.8307723e-05
1.8673192e-05
1.9065566e-05
1.9478093e-05
1.990406e-05
2.033651e-05
2.0767547e-05
2.1187388e-05
2.1583212e-05
2.1938005e-05
2.2229379e-05
2.2428478e-05
2.2499009e-05
2.2396539e-05
2.2068113e-05
2.1452476e-05
2.0481397e-05
1.9083009e-05
1.7188843e-05
1.4747121e-05
1.1744658e-05
8.2376576e-06
4.4262225e-06
1.200727e-05
1.2183328e-05
1.2382742e-05
1.2601652e-05
1.28358e-05
1.3080792e-05
1.3332151e-05
1.3585176e-05
1.3834564e-05
1.407387e-05
1.4294844e-05
1.4486713e-05
1.4635444e-05
1.4723035e-05
1.4726823e-05
1.4618968e-05
1.4366096e-05
1.3929387e-05
1.3265496e-05
1.2329002e-05
1.1077427e-05
9.4801871e-06
7.5323551e-06
5.2716889e-06
2.8193744e-06
8.0599562e-06
8.1619401e-06
8.2770586e-06
8.4029121e-06
8.5368295e-06
8.6760103e-06
8.8175619e-06
8.9584111e-06
9.0951164e-06
9.2235734e-06
9.3386304e-06
9.4336584e-06
9.5000877e-06
9.526944e-06
9.5003925e-06
9.4033451e-06
9.2152301e-06
8.9119338e-06
8.4664187e-06
7.8504124e-06
7.0377374e-06
6.0099827e-06
4.7649879e-06
3.3273247e-06
1.7734947e-06
5.4016255e-06
5.458554e-06
5.5225579e-06
5.592169e-06
5.6657503e-06
5.7415596e-06
5.8177776e-06
5.8924643e-06
5.9634531e-06
6.0281933e-06
6.0835331e-06
6.1254579e-06
6.1487993e-06
6.1469095e-06
6.1113239e-06
6.0314938e-06
5.8948063e-06
5.6864307e-06
5.3895621e-06
4.9866217e-06
4.4614295e-06
3.8027233e-06
3.0094036e-06
2.097384e-06
1.1193657e-06
3.670665e-06
3.7015498e-06
3.7360933e-06
3.7734156e-06
3.8125276e-06
3.8523673e-06
3.8918103e-06
3.9296524e-06
3.9645503e-06
3.9949299e-06
4.0188621e-06
4.0339036e-06
4.0369137e-06
4.0238464e-06
3.9895176e-06
3.9273552e-06
3.829176e-06
3.6855625e-06
3.4859631e-06
3.2192647e-06
2.8752741e-06
2.446934e-06
1.9336283e-06
1.345612e-06
7.1671518e-07
2.5814839e-06
2.5980843e-06
2.6165426e-06
2.636335e-06
2.6568652e-06
2.6774868e-06
2.6975047e-06
2.7161641e-06
2.7326185e-06
2.7458707e-06
2.7546952e-06
2.7575382e-06
2.7523972e-06
2.736686e-06
2.7070859e-06
2.6593581e-06
2.5880959e-06
2.4868184e-06
2.3484908e-06
2.1657633e-06
1.9319152e-06
1.6423024e-06
1.2964609e-06
9.0066324e-07
4.7387262e-07
1.9199042e-06
1.9290579e-06
1.9391847e-06
1.9499718e-06
1.9610569e-06
1.9720395e-06
1.9824805e-06
1.9918916e-06
1.9997125e-06
2.0052725e-06
2.0077336e-06
2.0060215e-06
1.9987378e-06
1.9840593e-06
1.9596284e-06
1.9224402e-06
1.8687423e-06
1.7938719e-06
1.6926432e-06
1.5597785e-06
1.3904809e-06
1.1814356e-06
9.3223723e-07
6.4712847e-07
3.3980155e-07
1.534421e-06
1.5398844e-06
1.5459178e-06
1.5523285e-06
1.5588894e-06
1.5653422e-06
1.571394e-06
1.576708e-06
1.5808833e-06
1.5834249e-06
1.5836994e-06
1.5808803e-06
1.5738778e-06
1.5612596e-06
1.5411632e-06
1.5112102e-06
1.4684408e-06
1.40927e-06
1.3295491e-06
1.2250919e-06
1.0921157e-06
9.279992e-07
7.3233884e-07
5.0826635e-07
2.6659614e-07
1.3222252e-06
1.3259469e-06
1.3300699e-06
1.3344683e-06
1.3389903e-06
1.3434571e-06
1.3476573e-06
1.351336e-06
1.3541774e-06
1.3557766e-06
1.3556025e-06
1.3529487e-06
1.3468741e-06
1.3361339e-06
1.3191047e-06
1.2937142e-06
1.2573881e-06
1.2070511e-06
1.1391408e-06
1.050027e-06
9.3643666e-07
7.9609405e-07
6.2859137e-07
4.3652875e-07
2.2924431e-07
1.2159116e-06
1.2188383e-06
1.222101e-06
1.2256102e-06
1.2292551e-06
1.2329e-06
1.2363769e-06
1.2394742e-06
1.2419189e-06
1.2433499e-06
1.2432831e-06
1.2410655e-06
1.2358203e-06
1.2263828e-06
1.2112326e-06
1.1884307e-06
1.1555747e-06
1.1098067e-06
1.0478553e-06
9.6635418e-07
8.6226772e-07
7.3347559e-07
5.7955391e-07
4.0285225e-07
2.1200307e-07
1.1726213e-06
1.1751763e-06
1.1780414e-06
1.1811467e-06
1.1844033e-06
1.1876979e-06
1.1908855e-06
1.1937763e-06
1.1961176e-06
1.1975678e-06
1.1976615e-06
1.1957652e-06
1.1910234e-06
1.1822969e-06
1.1680974e-06
1.1465286e-06
1.1152459e-06
1.0714666e-06
1.0120342e-06
9.3368753e-07
8.3348253e-07
7.0935294e-07
5.6083838e-07
3.9007299e-07
2.0517029e-07
1.1658441e-06
1.1681958e-06
1.1708428e-06
1.1737255e-06
1.1767666e-06
1.1798647e-06
1.1828865e-06
1.1856528e-06
1.18792e-06
1.1893536e-06
1.1894931e-06
1.1877077e-06
1.1831421e-06
1.174655e-06
1.1607552e-06
1.1395426e-06
1.1086713e-06
1.0653614e-06
1.0064773e-06
9.2877607e-07
8.2932698e-07
7.0606495e-07
5.5848836e-07
3.8857199e-07
2.0416245e-07
1.1795812e-06
1.1817846e-06
1.1842687e-06
1.1869796e-06
1.189846e-06
1.1927733e-06
1.195634e-06
1.1982539e-06
1.2003931e-06
1.201718e-06
1.2017667e-06
1.1999027e-06
1.1952609e-06
1.1866852e-06
1.1726634e-06
1.1512692e-06
1.1201255e-06
1.0764187e-06
1.0169847e-06
9.3855233e-07
8.3816293e-07
7.1372835e-07
5.6473762e-07
3.932071e-07
2.0546486e-07
1.2043756e-06
1.2064419e-06
1.2087716e-06
1.2113142e-06
1.2140022e-06
1.2167444e-06
1.2194167e-06
1.2218474e-06
1.2237969e-06
1.2249304e-06
1.2247808e-06
1.2227028e-06
1.2178166e-06
1.208945e-06
1.1945471e-06
1.172659e-06
1.1408582e-06
1.0962789e-06
1.0357043e-06
9.5581033e-07
8.5358853e-07
7.2691264e-07
5.752585e-07
4.006715e-07
2.0872464e-07
1.2347122e-06
1.2366399e-06
1.2388116e-06
1.2411787e-06
1.2436762e-06
1.2462154e-06
1.248674e-06
1.2508812e-06
1.2525968e-06
1.2534831e-06
1.2530668e-06
1.2506915e-06
1.2454613e-06
1.2361748e-06
1.2212587e-06
1.1987072e-06
1.1660457e-06
1.1203479e-06
1.0583326e-06
9.7661167e-07
8.7211748e-07
7.4267987e-07
5.8775469e-07
4.0940742e-07
2.1329635e-07
1.267366e-06
1.2691532e-06
1.2711636e-06
1.2733504e-06
1.2756502e-06
1.277976e-06
1.2802067e-06
1.2821718e-06
1.2836299e-06
1.2842394e-06
1.28352e-06
1.2808041e-06
1.2751782e-06
1.2654163e-06
1.2499114e-06
1.226614e-06
1.1929954e-06
1.1460659e-06
1.0824764e-06
9.9877099e-07
8.9182257e-07
7.5942272e-07
6.0101606e-07
4.1867361e-07
2.1809733e-07
1.3003764e-06
1.3020243e-06
1.3038743e-06
1.3058811e-06
1.3079829e-06
1.3100939e-06
1.3120937e-06
1.3138115e-06
1.3150044e-06
1.3153266e-06
1.3142907e-06
1.3112173e-06
1.3051753e-06
1.294914e-06
1.2787929e-06
1.2547191e-06
1.2201104e-06
1.1719144e-06
1.1067144e-06
1.0209882e-06
9.1155209e-07
7.761646e-07
6.1426228e-07
4.278901e-07
2.232353e-07
1.3324177e-06
1.3339303e-06
1.3356248e-06
1.3374569e-06
1.339366e-06
1.3412673e-06
1.3430409e-06
1.3445157e-06
1.3454465e-06
1.3454836e-06
1.3441318e-06
1.3407002e-06
1.3342405e-06
1.3234779e-06
1.3067393e-06
1.2818903e-06
1.2462976e-06
1.1968489e-06
1.130064e-06
1.0423581e-06
9.3049395e-07
7.9219661e-07
6.2689346e-07
4.3664203e-07
2.2771743e-07
1.3624089e-06
1.3637927e-06
1.3653389e-06
1.3670045e-06
1.3687298e-06
1.3704309e-06
1.3719881e-06
1.3732295e-06
1.3739077e-06
1.3736687e-06
1.3720101e-06
1.3682294e-06
1.3613617e-06
1.3501093e-06
1.3327688e-06
1.3071668e-06
1.2706231e-06
1.2199712e-06
1.1516735e-06
1.0620893e-06
9.4793341e-07
8.0689792e-07
6.3840026e-07
4.4453364e-07
2.3173625e-07
1.389261e-06
1.3905236e-06
1.3919305e-06
1.3934396e-06
1.394992e-06
1.3965045e-06
1.3978574e-06
1.3988779e-06
1.3993165e-06
1.3988147e-06
1.3968628e-06
1.3927477e-06
1.3854891e-06
1.373768e-06
1.3558535e-06
1.3295379e-06
1.2921e-06
1.240327e-06
1.1706333e-06
1.0793327e-06
9.6310079e-07
8.1960384e-07
6.4825859e-07
4.5121863e-07
2.3510964e-07
1.4116983e-06
1.412848e-06
1.4141251e-06
1.4154882e-06
1.4168794e-06
1.4182158e-06
1.4193777e-06
1.4201913e-06
1.4204048e-06
1.4196554e-06
1.4174271e-06
1.4129966e-06
1.4053699e-06
1.3932098e-06
1.3747618e-06
1.3477901e-06
1.3095408e-06
1.2567662e-06
1.185846e-06
1.0930635e-06
9.7507019e-07
8.2952175e-07
6.5585428e-07
4.5630517e-07
2.3765009e-07
1.4281158e-06
1.4291609e-06
1.4303176e-06
1.4315455e-06
1.4327872e-06
1.4339602e-06
1.4349447e-06
1.4355658e-06
1.4355697e-06
1.4345899e-06
1.4321044e-06
1.4273818e-06
1.4194167e-06
1.4068573e-06
1.3879319e-06
1.3603847e-06
1.3214408e-06
1.2678327e-06
1.1959241e-06
1.1019888e-06
9.8267706e-07
8.3565657e-07
6.6040905e-07
4.5926085e-07
2.3816062e-07
1.4364546e-06
1.4374029e-06
1.4384485e-06
1.4395514e-06
1.440655e-06
1.4416771e-06
1.4424976e-06
1.4429411e-06
1.4427519e-06
1.4415606e-06
1.4388409e-06
1.4338552e-06
1.4255906e-06
1.4126864e-06
1.3933614e-06
1.3653513e-06
1.325876e-06
1.2716686e-06
1.1991017e-06
1.1044686e-06
9.8444803e-07
8.3674703e-07
6.6091503e-07
4.5940102e-07
2.382204e-07
1.4340913e-06
1.4349502e-06
1.4358931e-06
1.4368808e-06
1.4378571e-06
1.4387402e-06
1.4394102e-06
1.4396914e-06
1.4393272e-06
1.4379465e-06
1.435021e-06
1.4298104e-06
1.4212992e-06
1.4081258e-06
1.3885104e-06
1.3601957e-06
1.3204168e-06
1.2659341e-06
1.1931623e-06
1.0984514e-06
9.785464e-07
8.3122257e-07
6.5610247e-07
4.5573601e-07
2.3619399e-07
1.4177526e-06
1.4185287e-06
1.4193767e-06
1.4202579e-06
1.421117e-06
1.4218727e-06
1.422406e-06
1.4225415e-06
1.422023e-06
1.4204802e-06
1.4173858e-06
1.412002e-06
1.4033183e-06
1.3899823e-06
1.3702308e-06
1.3418335e-06
1.3020681e-06
1.247756e-06
1.1753951e-06
1.0814396e-06
9.6274783e-07
8.171979e-07
6.4447129e-07
4.4704461e-07
2.3060668e-07
1.3834782e-06
1.3841772e-06
1.384937e-06
1.3857199e-06
1.3864713e-06
1.3871114e-06
1.3875224e-06
1.387531e-06
1.3868837e-06
1.3852141e-06
1.3820009e-06
1.376516e-06
1.3677641e-06
1.3544165e-06
1.3347462e-06
1.3065767e-06
1.2672616e-06
1.2137256e-06
1.1426012e-06
1.0505035e-06
9.3446072e-07
7.9250257e-07
6.2439943e-07
4.3259563e-07
2.2266835e-07
1.3266765e-06
1.3273032e-06
1.3279811e-06
1.3286733e-06
1.3293265e-06
1.3298629e-06
1.3301679e-06
1.3300723e-06
1.3293286e-06
1.3275793e-06
1.3243163e-06
1.3188313e-06
1.310158e-06
1.2970104e-06
1.2777233e-06
1.250207e-06
1.2119335e-06
1.1599831e-06
1.0911831e-06
1.002373e-06
8.9081464e-07
7.5474471e-07
5.9406629e-07
4.1124157e-07
2.1167704e-07
1.2423247e-06
1.2428838e-06
1.2434859e-06
1.2440951e-06
1.2446595e-06
1.2451051e-06
1.2453228e-06
1.2451509e-06
1.2443529e-06
1.2425874e-06
1.2393694e-06
1.2340238e-06
1.2256317e-06
1.2129744e-06
1.1944803e-06
1.1681879e-06
1.1317392e-06
1.0824311e-06
1.0173529e-06
9.3363808e-07
8.2884785e-07
7.0147411e-07
5.5156004e-07
3.8149666e-07
1.9631215e-07
1.125408e-06
1.125904e-06
1.1264363e-06
1.1269693e-06
1.1274533e-06
1.1278202e-06
1.1279712e-06
1.127757e-06
1.1269583e-06
1.1252596e-06
1.1222124e-06
1.1171922e-06
1.1093506e-06
1.097567e-06
1.0804027e-06
1.0560732e-06
1.0224505e-06
9.7711639e-07
9.174958e-07
8.410883e-07
7.4581364e-07
6.30456e-07
4.9518942e-07
3.4223451e-07
1.7604915e-07
9.7168193e-07
9.7211735e-07
9.725828e-07
9.7304196e-07
9.7344801e-07
9.7374375e-07
9.7384817e-07
9.7362925e-07
9.7289359e-07
9.7136378e-07
9.6864315e-07
9.6418096e-07
9.57228e-07
9.4679899e-07
9.3163005e-07
9.1017132e-07
8.8059096e-07
8.4083125e-07
7.8873049e-07
7.2222126e-07
6.396269e-07
5.4004094e-07
4.2374295e-07
2.9269135e-07
1.5063898e-07
7.7888128e-07
7.7925079e-07
7.7964233e-07
7.8001859e-07
7.8033747e-07
7.8056061e-07
7.8063984e-07
7.8045357e-07
7.7984775e-07
7.785944e-07
7.7636012e-07
7.727158e-07
7.6704143e-07
7.5853094e-07
7.4612423e-07
7.2857092e-07
7.0441109e-07
6.7202559e-07
6.2974347e-07
5.759864e-07
5.0950224e-07
4.2968313e-07
3.368742e-07
2.3274928e-07
1.2064502e-07
5.4828665e-07
5.4856905e-07
5.4886302e-07
5.4913339e-07
5.4934803e-07
5.4950508e-07
5.4966029e-07
5.4954651e-07
5.4912232e-07
5.4821423e-07
5.4653621e-07
5.4393682e-07
5.3993884e-07
5.3395605e-07
5.2510906e-07
5.1252233e-07
4.9519921e-07
4.7203454e-07
4.4190889e-07
4.0376819e-07
3.5678111e-07
3.0059808e-07
2.3556548e-07
1.6297995e-07
8.5333851e-08
2.8543358e-07
2.8559189e-07
2.8575293e-07
2.8589365e-07
2.8600359e-07
2.8618034e-07
2.8693237e-07
2.8697409e-07
2.8675208e-07
2.8618557e-07
2.8499602e-07
2.8356919e-07
2.8154912e-07
2.7858813e-07
2.7398789e-07
2.6730148e-07
2.5809992e-07
2.4584232e-07
2.2996834e-07
2.099519e-07
1.8537228e-07
1.5608001e-07
1.2232309e-07
8.4914031e-08
4.5801276e-08
)
;

boundaryField
{
    Walls
    {
        type            kqRWallFunction;
        value           nonuniform List<scalar> 
38
(
2.7807789e-06
2.4627785e-06
7.8990423e-06
3.7424438e-05
0.00028033643
0.0023606635
0.056247659
0.060896146
0.01871402
0.027533527
0.03441261
0.041384486
0.047290742
0.05225148
0.056648346
0.059224906
0.062248744
0.064906796
0.066123908
0.067820908
0.06936296
0.069771515
0.070739681
0.071544782
0.071619525
0.072040437
0.072425758
0.072598818
0.072939295
0.073184712
0.07333907
0.073530135
0.073223886
0.072917317
0.072687107
0.072399459
0.071769981
0.066775186
)
;
    }
    Inlet
    {
        type            turbulentIntensityKineticEnergyInlet;
        intensity       0.05;
        value           nonuniform List<scalar> 3(0.0096259256 0.0085553634 0.010162539);
    }
    Outlet
    {
        type            inletOutlet;
        inletValue      uniform 0;
        value           nonuniform List<scalar> 
86
(
2.8503433e-07
2.8505625e-07
2.85106e-07
2.8518502e-07
2.8529495e-07
2.8543358e-07
2.8559189e-07
2.8575293e-07
2.8589365e-07
2.8600359e-07
2.8618034e-07
2.8693237e-07
2.8697409e-07
2.8675208e-07
2.8618557e-07
2.8499602e-07
2.8356919e-07
2.8154912e-07
2.7858813e-07
2.7398789e-07
2.6730148e-07
2.5809992e-07
2.4584232e-07
2.2996834e-07
2.099519e-07
1.8537228e-07
1.5608001e-07
1.2232309e-07
8.4914031e-08
4.5801276e-08
0.0031444778
0.0032504314
0.0026543672
0
0
0
0
0.00025070442
0.00021868702
0.00016238901
8.6077789e-05
4.6527385e-05
2.8735265e-05
1.9844103e-05
1.4460614e-05
1.0078177e-05
6.7778337e-06
4.4262225e-06
2.8193744e-06
1.7734947e-06
1.1193657e-06
7.1671518e-07
4.7387262e-07
3.3980155e-07
2.6659614e-07
2.2924431e-07
2.1200307e-07
2.0517029e-07
2.0416245e-07
2.0546486e-07
2.0872464e-07
2.1329635e-07
2.1809733e-07
2.232353e-07
2.2771743e-07
2.3173625e-07
2.3510964e-07
2.3765009e-07
2.3816062e-07
2.382204e-07
2.3619399e-07
2.3060668e-07
2.2266835e-07
2.1167704e-07
1.9631215e-07
1.7604915e-07
1.5063898e-07
1.2064502e-07
8.5333851e-08
4.5801276e-08
0
0
0
0
0.0025872846
0.0032461547
)
;
    }
    Front
    {
        type            wedge;
    }
    Back
    {
        type            wedge;
    }
    defaultFaces
    {
        type            empty;
    }
}


// ************************************************************************* //
