/*--------------------------------*- C++ -*----------------------------------*\
| =========                 |                                                 |
| \\      /  F ield         | OpenFOAM: The Open Source CFD Toolbox           |
|  \\    /   O peration     | Version:  4.0                                   |
|   \\  /    A nd           | Web:      www.OpenFOAM.org                      |
|    \\/     M anipulation  |                                                 |
\*---------------------------------------------------------------------------*/
FoamFile
{
    version     2.0;
    format      ascii;
    class       surfaceScalarField;
    location    "0.53";
    object      phi;
}
// * * * * * * * * * * * * * * * * * * * * * * * * * * * * * * * * * * * * * //

dimensions      [0 3 -1 0 0 0 0];

internalField   nonuniform List<scalar> 
3364
(
4.0926278e-11
1.7433106e-08
-3.691685e-10
4.9831238e-08
8.9403371e-08
3.4252833e-10
1.7090548e-08
-1.5331782e-09
5.1706976e-08
8.787022e-08
6.9316106e-10
1.6397346e-08
-1.5055295e-09
5.3905719e-08
8.6364703e-08
7.5247621e-11
1.6322061e-08
4.6663825e-10
5.3514321e-08
8.6831306e-08
-4.2801812e-10
1.6750043e-08
1.7146273e-09
5.13716e-08
8.854588e-08
-3.0793974e-10
1.7057934e-08
1.0585761e-09
5.0004991e-08
8.9604408e-08
-7.4056694e-11
1.7131946e-08
-1.5881158e-09
5.1519018e-08
8.8016282e-08
1.7449862e-11
1.7114495e-08
-2.4483667e-09
5.3984852e-08
8.5567896e-08
-7.3189534e-11
1.7187677e-08
1.0170608e-11
5.3901467e-08
8.5578016e-08
-6.3244216e-10
1.78201e-08
7.9237327e-10
5.2476591e-08
8.637034e-08
-7.7380675e-10
1.859387e-08
-1.0487633e-10
5.1807608e-08
8.6265435e-08
-3.5432269e-10
1.8948132e-08
-2.1746025e-10
5.1670698e-08
8.6047954e-08
5.860658e-10
1.8362045e-08
3.4198267e-11
5.2222518e-08
8.6082107e-08
9.1169764e-10
1.7450335e-08
3.5907696e-10
5.2775111e-08
8.6441158e-08
-6.5316666e-11
1.7515605e-08
1.078007e-09
5.1631745e-08
8.7519153e-08
-1.101359e-09
1.8616921e-08
-3.5347197e-11
5.0565681e-08
8.7483772e-08
-5.5092612e-10
1.9167786e-08
-1.0190301e-09
5.1033754e-08
8.6464709e-08
7.8374551e-10
1.8383968e-08
-1.1197441e-09
5.2937191e-08
8.5344924e-08
1.4857576e-09
1.689818e-08
-2.1375043e-10
5.463663e-08
8.5131112e-08
5.7490202e-10
1.6323269e-08
9.273671e-10
5.4284124e-08
8.6058418e-08
-4.5433634e-10
1.6777553e-08
4.2100137e-10
5.3408736e-08
8.6479376e-08
-2.1514009e-10
1.6992641e-08
6.8915763e-10
5.2504382e-08
8.7168486e-08
3.6248305e-10
1.6630137e-08
9.2850398e-10
5.1938339e-08
8.8096947e-08
-2.0519792e-10
1.683531e-08
-6.4233817e-10
5.2375481e-08
8.7454596e-08
-4.3354824e-10
1.7268821e-08
-6.1638995e-10
5.2558305e-08
8.6838196e-08
2.8012189e-10
1.698865e-08
-3.534489e-11
5.2873766e-08
8.6802824e-08
8.6920044e-11
1.690169e-08
-8.1824416e-10
5.3778897e-08
8.5984522e-08
-6.2819249e-10
1.7529854e-08
-1.0232304e-09
5.417388e-08
8.496124e-08
-5.6143622e-10
1.8091333e-08
2.4131536e-10
5.3371192e-08
8.5202551e-08
1.5899539e-09
1.6501622e-08
5.6406212e-09
4.9320651e-08
9.0843175e-08
1.1755626e-08
4.745338e-09
4.94888e-08
1.1585616e-08
1.1439771e-08
1.2888964e-07
5.1252567e-09
-3.804076e-10
1.7867772e-08
-1.1584229e-09
-1.277245e-09
3.0582857e-08
-3.0891541e-10
-7.1463339e-11
-1.2279769e-09
-2.3930491e-10
-3.4301654e-10
-2.1621283e-09
-7.6908262e-11
5.4589957e-12
-3.1761141e-10
1.4315827e-12
-1.6808779e-11
-6.4378285e-10
-6.7448588e-12
1.2205938e-11
-3.7883962e-11
3.2576144e-11
4.5734492e-11
-1.0042081e-10
1.5262429e-12
1.0679864e-11
3.1440507e-12
3.0958775e-11
4.8771827e-11
1.0733238e-13
2.3919171e-12
8.2878372e-12
9.0256838e-12
2.4324746e-11
3.9007477e-11
1.8789556e-11
2.6688083e-12
5.6188597e-12
1.0251519e-11
1.6741574e-11
2.7287481e-11
2.1970776e-11
1.7369011e-12
3.8818542e-12
6.9174229e-12
1.1560767e-11
1.8746311e-11
1.5458125e-11
9.1142336e-13
2.9703947e-12
3.6675633e-12
8.8045273e-12
1.4174441e-11
8.2392652e-12
3.8040355e-13
2.5899924e-12
1.5250973e-12
7.6598383e-12
1.2314031e-11
3.3855158e-12
1.9974136e-13
2.3902603e-12
7.8821783e-13
7.071388e-12
1.1382662e-11
1.719632e-12
2.2514507e-13
2.1651182e-12
8.5348173e-13
6.44306e-12
1.0400965e-11
1.8351958e-12
2.6308874e-13
1.9020252e-12
1.0529884e-12
5.6531472e-12
9.1493268e-12
2.3046051e-12
2.7495941e-13
1.6270572e-12
1.0957165e-12
4.8323651e-12
7.8415136e-12
2.4034882e-12
2.5012332e-13
1.3769245e-12
9.8586479e-13
4.0965965e-12
6.6470402e-12
2.1802935e-12
2.0307049e-13
1.173846e-12
8.1480251e-13
3.484841e-12
5.6265734e-12
1.8352306e-12
1.6804278e-13
1.0057966e-12
6.7009502e-13
2.9827696e-12
4.8222185e-12
1.4744185e-12
1.3955415e-13
8.6623713e-13
5.509298e-13
2.5713782e-12
4.1644478e-12
1.2086747e-12
1.1630071e-13
7.4993189e-13
4.6077748e-13
2.2268881e-12
3.6153137e-12
1.0098898e-12
9.867635e-14
6.5125156e-13
3.917303e-13
1.9338226e-12
3.149547e-12
8.5747804e-13
8.4875024e-14
5.6637301e-13
3.3255879e-13
1.6861285e-12
2.7489711e-12
7.3311809e-13
7.1144057e-14
4.9522583e-13
2.8093142e-13
1.476332e-12
2.404969e-12
6.249188e-13
5.9834206e-14
4.3538892e-13
2.3905962e-13
1.2970987e-12
2.1123946e-12
5.3162136e-13
5.1070034e-14
3.8431654e-13
2.0343999e-13
1.1447219e-12
1.8648453e-12
4.5097823e-13
4.3267191e-14
3.4104737e-13
1.7188254e-13
1.0161008e-12
1.6564645e-12
3.8025402e-13
3.6318905e-14
3.047268e-13
1.4413345e-13
9.0828141e-13
1.4815841e-12
3.1900596e-13
3.0350853e-14
2.7437458e-13
1.2056069e-13
8.1806758e-13
1.3359245e-12
2.662138e-13
2.525191e-14
2.4912155e-13
1.0016196e-13
7.4315429e-13
1.2145008e-12
2.215804e-13
2.0974974e-14
2.281457e-13
8.32974e-14
6.8082926e-13
1.113656e-12
1.8413805e-13
1.743067e-14
2.1071434e-13
6.9178836e-14
6.2907909e-13
1.029893e-12
1.5293856e-13
1.446088e-14
1.9625295e-13
5.7416761e-14
5.8612167e-13
9.6040445e-13
1.2690279e-13
1.20187e-14
1.8423386e-13
4.7754649e-14
5.5038461e-13
9.0249912e-13
1.0565814e-13
1.005642e-14
1.7417719e-13
3.9935942e-14
5.2050431e-13
8.5426076e-13
8.8173039e-14
8.3882546e-15
1.6578878e-13
3.3314656e-14
4.9557743e-13
8.1402682e-13
7.3547776e-14
7.0231861e-15
1.5876552e-13
2.7880801e-14
4.7471954e-13
7.8033833e-13
6.156888e-14
5.9125664e-15
1.5285294e-13
2.3445392e-14
4.5718664e-13
7.5198989e-13
5.179376e-14
5.0019865e-15
1.4785099e-13
1.9815356e-14
4.4237333e-13
7.2809941e-13
4.3706044e-14
4.3177853e-15
1.4353328e-13
1.7130961e-14
4.2956035e-13
7.0728368e-13
3.7947118e-14
3.6989869e-15
1.3983441e-13
1.4652802e-14
4.1860681e-13
6.8972268e-13
3.2214411e-14
3.1834214e-15
1.3665111e-13
1.2640596e-14
4.0915e-13
6.7438564e-13
2.797837e-14
2.7284648e-15
1.339228e-13
1.0822549e-14
4.0105634e-13
6.6127412e-13
2.3934911e-14
2.3228136e-15
1.3160014e-13
9.1935664e-15
3.9418606e-13
6.5016576e-13
2.0302837e-14
1.9595195e-15
1.296408e-13
7.7484748e-15
3.8839761e-13
6.4080829e-13
1.7106915e-14
1.6357215e-15
1.2800526e-13
6.4772964e-15
3.8355657e-13
6.3297324e-13
1.4313335e-14
1.350827e-15
1.2665462e-13
5.3833933e-15
3.7952455e-13
6.2642183e-13
1.1935845e-14
1.1012352e-15
1.2555359e-13
4.4614879e-15
3.761649e-13
6.2093007e-13
9.9543637e-15
8.9718344e-16
1.2465665e-13
3.657695e-15
3.7340508e-13
6.1641132e-13
8.1776634e-15
7.5213803e-16
1.2390478e-13
2.9227152e-15
3.7123523e-13
6.1288288e-13
6.4524667e-15
5.0850206e-16
1.9413883e-15
4.2580176e-15
1.3841928e-07
-9.5349724e-09
-8.8076838e-09
1.4722062e-07
2.2419739e-08
-1.3730906e-09
-1.2977899e-09
1.4909277e-08
-3.1293463e-09
-4.0576471e-10
-4.9014076e-10
-3.9368565e-09
-1.0121942e-09
-3.7306264e-11
-8.7682341e-11
-1.4145955e-09
-1.8867874e-10
5.0961958e-11
4.0416104e-11
-3.1676182e-10
-1.0912997e-11
6.1983853e-11
6.7700998e-11
-3.8194882e-11
2.9770917e-11
5.1001801e-11
5.931696e-11
3.8154232e-11
3.6253805e-11
3.6717736e-11
4.2979927e-11
5.2589526e-11
2.73036e-11
2.487159e-11
3.0009626e-11
4.0273035e-11
1.4363656e-11
1.8746955e-11
2.2407219e-11
2.1965746e-11
5.8402593e-12
1.6292221e-11
1.945022e-11
8.7972662e-12
2.9014869e-12
1.511043e-11
1.8094341e-11
4.2574465e-12
3.0893295e-12
1.3856319e-11
1.6720919e-11
4.4627779e-12
3.9059033e-12
1.2254992e-11
1.4845668e-11
5.7811162e-12
4.1385703e-12
1.0519853e-11
1.2772414e-11
6.2117514e-12
3.7680358e-12
8.9320485e-12
1.0859515e-11
5.6808568e-12
3.1805498e-12
7.5866746e-12
9.2335117e-12
4.8064829e-12
2.5785837e-12
6.4824648e-12
7.9012883e-12
3.9107493e-12
2.0979796e-12
5.5931237e-12
6.8224011e-12
3.1768198e-12
1.7413695e-12
4.8616138e-12
5.9346163e-12
2.6291151e-12
1.476898e-12
4.2421677e-12
5.1862269e-12
2.2252538e-12
1.267134e-12
3.7081289e-12
4.5397381e-12
1.9135937e-12
1.0851857e-12
3.247842e-12
3.9817223e-12
1.6431761e-12
9.2448757e-13
2.8549585e-12
3.504611e-12
1.401577e-12
7.8345903e-13
2.5224627e-12
3.1007469e-12
1.1873042e-12
6.5954044e-13
2.2431634e-12
2.759632e-12
1.0006392e-12
5.538281e-13
2.0083305e-12
2.4758045e-12
8.3764207e-13
4.6108779e-13
1.8134477e-12
2.2383465e-12
6.9853462e-13
3.8424789e-13
1.650773e-12
2.0410794e-12
5.8150588e-13
3.1925453e-13
1.5156508e-12
1.8771113e-12
4.8321548e-13
2.6506716e-13
1.4035177e-12
1.7414106e-12
4.0076225e-13
2.1993807e-13
1.310479e-12
1.6283962e-12
3.3294812e-13
1.8315178e-13
1.2329829e-12
1.5348128e-12
2.7673201e-13
1.5256654e-13
1.1685876e-12
1.4568497e-12
2.3052753e-13
1.2725945e-13
1.1148749e-12
1.3921319e-12
1.9197594e-13
1.0663176e-13
1.0698115e-12
1.3378528e-12
1.6091039e-13
8.9707577e-14
1.0318977e-12
1.2919253e-12
1.3563526e-13
7.5645461e-14
9.9995875e-13
1.2530075e-12
1.1456396e-13
6.4061879e-14
9.7384474e-13
1.22e-12
9.7070436e-14
5.6895856e-14
9.4916427e-13
1.1915997e-12
8.5297501e-14
4.8839155e-14
9.2830465e-13
1.1668755e-12
7.3564958e-14
4.1474114e-14
9.1076673e-13
1.1457147e-12
6.2636686e-14
3.5151064e-14
8.959199e-13
1.1277186e-12
5.3149e-14
2.9634143e-14
8.8339413e-13
1.1125368e-12
4.4817938e-14
2.4815283e-14
8.7289368e-13
1.0998082e-12
3.754583e-14
2.0742766e-14
8.640883e-13
1.0891166e-12
3.1436432e-14
1.7371784e-14
8.5667253e-13
1.080046e-12
2.6444595e-14
1.4294864e-14
8.5055712e-13
1.0725364e-12
2.1806779e-14
1.1243881e-14
8.4576758e-13
1.0666065e-12
1.7176245e-14
7.4182409e-15
1.1358431e-14
7.7886526e-12
-7.7929217e-12
1.5507316e-11
-7.727702e-12
2.2450656e-11
-6.9538985e-12
2.846365e-11
-6.0235878e-12
3.3138075e-11
-4.6844637e-12
3.6380665e-11
-3.2518766e-12
3.790622e-11
-1.5339661e-12
3.6728508e-11
1.1701747e-12
3.2339725e-11
4.382147e-12
2.406903e-11
8.2648954e-12
1.176962e-11
1.2294429e-11
-5.2757818e-12
1.7041132e-11
-2.6629669e-11
2.1350287e-11
-5.1809632e-11
2.5176911e-11
-8.0176369e-11
2.8364192e-11
-1.1093617e-10
3.0757653e-11
-1.4307308e-10
3.2135141e-11
-1.7520471e-10
3.2130148e-11
-2.060184e-10
3.0812476e-11
-2.3430414e-10
2.8284751e-11
-2.5892657e-10
2.462166e-11
-2.7894893e-10
2.0021773e-11
-2.9362859e-10
1.4679252e-11
-3.0225781e-10
8.6289414e-12
2.0994373e-12
-2.9966724e-11
2.2177616e-11
-6.8476411e-11
3.0787901e-11
-1.1638416e-10
4.096079e-11
-1.7372876e-10
5.1328371e-11
-2.4219613e-10
6.3790412e-11
-3.2240957e-10
7.6969083e-11
-4.1604604e-10
9.2109935e-11
-5.2441568e-10
1.0954707e-10
-6.4786689e-10
1.2784032e-10
-7.8541913e-10
1.4582368e-10
-9.3559974e-10
1.624811e-10
-1.0960366e-09
1.7748353e-10
-1.2647063e-09
1.9002484e-10
-1.4392497e-09
1.9972462e-10
-1.6175374e-09
2.0665555e-10
-1.7987911e-09
2.1201438e-10
-1.991915e-09
2.2526135e-10
-2.1768373e-09
2.1705422e-10
-2.346145e-09
2.0012123e-10
-2.4947001e-09
1.7684033e-10
-2.6184556e-09
1.4837714e-10
-2.7143804e-09
1.1594601e-10
-2.7800306e-09
8.0328558e-11
-2.8112334e-09
3.9830464e-11
1.006876e-11
-1.0460514e-10
1.2679137e-10
-2.3215243e-10
1.5834841e-10
-3.8342492e-10
1.9224859e-10
-5.6070601e-10
2.2862532e-10
-7.6730727e-10
2.7040739e-10
-1.0073802e-09
3.1705718e-10
-1.2885194e-09
3.7326326e-10
-1.6815698e-09
5.0261051e-10
-2.1210936e-09
5.6737579e-10
-2.5769372e-09
6.0167735e-10
-3.0325678e-09
6.1812038e-10
-3.4769318e-09
6.2185486e-10
-3.9022301e-09
6.1532905e-10
-4.3026723e-09
6.0017142e-10
-4.6719493e-09
5.7593603e-10
-5.0036813e-09
5.4374876e-10
-5.2830821e-09
5.0466345e-10
-5.5252057e-09
4.5917812e-10
-5.7334174e-09
4.0833233e-10
-5.9096432e-09
3.5306478e-10
-6.0559318e-09
2.9466368e-10
-6.1731174e-09
2.3312878e-10
-6.2613514e-09
1.6855938e-10
-6.3229145e-09
1.0138991e-10
3.3599991e-11
-3.5139877e-10
4.782073e-10
-7.4399593e-10
5.5097083e-10
-1.1909951e-09
6.3927531e-10
-1.9116708e-09
9.4932636e-10
-2.7111368e-09
1.0698955e-09
-3.4931864e-09
1.0991254e-09
-4.2023856e-09
1.0824777e-09
-4.7362477e-09
1.036485e-09
-5.1401662e-09
9.7130447e-10
-5.4319121e-09
8.9343139e-10
-5.6209162e-09
8.0713101e-10
-5.7170117e-09
7.1795539e-10
-5.7288571e-09
6.2717835e-10
-5.6605959e-09
5.3191301e-10
-5.5274909e-09
4.4283304e-10
-5.3462542e-09
3.6251324e-10
-5.1334669e-09
2.9187681e-10
-4.9056106e-09
2.3132193e-10
-4.6782205e-09
1.8094181e-10
-4.4666508e-09
1.4149423e-10
-4.2854346e-09
1.134464e-10
-4.1412396e-09
8.8932257e-11
-4.0395658e-09
6.6883774e-11
-3.9837739e-09
4.559602e-11
2.5105509e-11
-2.1788654e-09
2.6571009e-09
-3.8354681e-09
2.2076044e-09
-5.2223949e-09
2.0262317e-09
-5.843633e-09
1.5705858e-09
-5.8653772e-09
1.0916571e-09
-5.4075654e-09
6.4132766e-10
-4.6569322e-09
3.3185613e-10
-3.6779615e-09
5.7524118e-11
-2.5310171e-09
-1.7563164e-10
-1.3013194e-09
-3.3625936e-10
-7.067258e-11
-4.2351119e-10
1.16002e-09
-5.1273777e-10
2.4413298e-09
-6.5413254e-10
3.8511448e-09
-8.7790176e-10
5.2314382e-09
-9.3745852e-10
6.5416537e-09
-9.4769861e-10
7.7582507e-09
-9.2471476e-10
8.8655617e-09
-8.7598183e-10
9.8524551e-09
-8.0594275e-10
1.0711494e-08
-7.1753397e-10
1.1437348e-08
-6.1239584e-10
1.201934e-08
-4.9304583e-10
1.2447438e-08
-3.6119918e-10
1.2712333e-08
-2.1928433e-10
-6.5630186e-11
1.2875379e-09
1.3696504e-09
4.6398196e-09
-1.1446286e-09
8.4494607e-09
-1.7833424e-09
1.2139599e-08
-2.1195253e-09
1.5804022e-08
-2.5727409e-09
1.942736e-08
-2.9819833e-09
2.2981892e-08
-3.2226439e-09
2.6317689e-08
-3.2782353e-09
2.9346168e-08
-3.2040689e-09
3.2068963e-08
-3.0590083e-09
3.4522673e-08
-2.877172e-09
3.667509e-08
-2.6651024e-09
3.8469695e-08
-2.4486834e-09
3.9832132e-08
-2.2402844e-09
4.0918111e-08
-2.023382e-09
4.1777701e-08
-1.8072333e-09
4.2450427e-08
-1.5973851e-09
4.2969375e-08
-1.3948744e-09
4.3363284e-08
-1.1997973e-09
4.3657191e-08
-1.0113859e-09
4.3872825e-08
-8.2797497e-10
4.4027154e-08
-6.473211e-10
4.413243e-08
-4.6642081e-10
4.4195806e-08
-2.8260648e-10
-8.9775607e-11
1.5083111e-07
-2.2396072e-09
1.4899914e-07
6.8826056e-10
1.4603623e-07
1.1803603e-09
1.4232233e-07
1.5950653e-09
1.3763742e-07
2.1127869e-09
1.3208778e-07
2.5681709e-09
1.2601014e-07
2.8554508e-09
1.1977977e-07
2.9525171e-09
1.1367136e-07
2.9046656e-09
1.0782077e-07
2.7918752e-09
1.0228867e-07
2.6551741e-09
9.7136997e-08
2.4867954e-09
9.2391996e-08
2.2965155e-09
8.8055714e-08
2.0961762e-09
8.4138819e-08
1.8936728e-09
8.0638356e-08
1.6933764e-09
7.7543167e-08
1.4979371e-09
7.48396e-08
1.3088154e-09
7.2513622e-08
1.1262939e-09
7.0552586e-08
9.4975582e-10
6.8946892e-08
7.7781732e-10
6.769119e-08
6.084747e-10
6.6785973e-08
4.3888456e-10
6.6237069e-08
2.6638192e-10
8.509214e-11
1.410078e-08
-1.4309816e-09
1.6365853e-08
-1.576697e-09
1.8901727e-08
-1.3553974e-09
2.1518121e-08
-1.0212173e-09
2.4213193e-08
-5.8217784e-10
2.7058095e-08
-2.7662946e-10
2.9919142e-08
-5.5032899e-12
3.2639091e-08
2.3265704e-10
3.5174196e-08
3.6964853e-10
3.7492695e-08
4.7346359e-10
3.9557118e-08
5.9083793e-10
4.1173763e-08
8.7023533e-10
4.2452393e-08
1.0179683e-09
4.3468049e-08
1.0806019e-09
4.4263224e-08
1.0985759e-09
4.4873336e-08
1.0833419e-09
4.5331768e-08
1.0395789e-09
4.5668015e-08
9.7264087e-10
4.590824e-08
8.8613884e-10
4.6075276e-08
7.8278746e-10
4.6188479e-08
6.6467927e-10
4.6263847e-08
5.3317043e-10
4.6312452e-08
3.9034104e-10
4.6341379e-08
2.3751431e-10
7.1945352e-11
-4.6765829e-09
-6.9126391e-10
-5.3227359e-09
-9.3055164e-10
-5.6527347e-09
-1.0254069e-09
-5.601582e-09
-1.0723782e-09
-5.1065589e-09
-1.0772077e-09
-4.3308751e-09
-1.0523181e-09
-3.3350302e-09
-1.0013506e-09
-2.1729357e-09
-9.2943715e-10
-9.5931575e-10
-8.4396874e-10
2.66175e-10
-7.5202208e-10
1.5127859e-09
-6.5576571e-10
2.9382751e-09
-5.552444e-10
4.4126633e-09
-4.5640814e-10
5.8575277e-09
-3.642486e-10
7.2369696e-09
-2.8085042e-10
8.5291109e-09
-2.0878208e-10
9.7340212e-09
-1.6531279e-10
1.0834986e-08
-1.283039e-10
1.1819186e-08
-9.8040889e-11
1.2676316e-08
-7.4321237e-11
1.3397599e-08
-5.6582995e-11
1.3974609e-08
-4.3817588e-11
1.4399594e-08
-3.4622083e-11
1.4663828e-08
-2.6698511e-11
-1.6763406e-11
-1.9609392e-09
-1.4492003e-10
-2.696001e-09
-1.9549119e-10
-3.4768125e-09
-2.4459925e-10
-4.2486205e-09
-3.0057664e-10
-4.9557163e-09
-3.7012016e-10
-5.4941176e-09
-5.1392644e-10
-5.9161522e-09
-5.7932622e-10
-6.2268162e-09
-6.1878369e-10
-6.4293204e-09
-6.4147518e-10
-6.5299629e-09
-6.5138998e-10
-6.5348144e-09
-6.5092427e-10
-6.4480226e-09
-6.4204571e-10
-6.2795592e-09
-6.2488042e-10
-6.0443767e-09
-5.9943916e-10
-5.7584924e-09
-5.6674207e-10
-5.4397429e-09
-5.2753813e-10
-5.120247e-09
-4.8481451e-10
-4.809866e-09
-4.3869008e-10
-4.5186055e-09
-3.8930593e-10
-4.2561128e-09
-3.3681798e-10
-4.031345e-09
-2.8135445e-10
-3.8521707e-09
-2.2299515e-10
-3.7249498e-09
-1.6184604e-10
-3.6534736e-09
-9.8177597e-11
-3.3274363e-11
-4.8472747e-10
2.3048167e-11
-6.8448604e-10
4.2697846e-12
-9.145061e-10
-1.4577317e-11
-1.1771084e-09
-3.7973135e-11
-1.4903993e-09
-5.6828991e-11
-1.9228002e-09
-8.1526281e-11
-2.3966441e-09
-1.0548423e-10
-2.8852449e-09
-1.3018602e-10
-3.3723422e-09
-1.5438202e-10
-3.8463816e-09
-1.7735556e-10
-4.2988503e-09
-1.9846149e-10
-4.7227522e-09
-2.181503e-10
-5.1047586e-09
-2.4288107e-10
-5.4324461e-09
-2.7175906e-10
-5.723742e-09
-2.7545389e-10
-5.9808838e-09
-2.7040428e-10
-6.2076161e-09
-2.5809031e-10
-6.4060744e-09
-2.4024002e-10
-6.5781586e-09
-2.1722986e-10
-6.7253612e-09
-1.896236e-10
-6.8487694e-09
-1.5795449e-10
-6.9489412e-09
-1.2283147e-10
-7.0256702e-09
-8.5125133e-11
-7.0786477e-09
-4.5208126e-11
-9.9012695e-12
-8.6349558e-11
7.1203885e-11
-1.5285357e-10
7.077485e-11
-2.3592283e-10
6.8492923e-11
-3.3830056e-10
6.4405416e-11
-4.5454971e-10
5.9420785e-11
-5.8709085e-10
5.1015205e-11
-7.3699761e-10
4.4422553e-11
-9.0385416e-10
3.6670185e-11
-1.0856595e-09
2.7422597e-11
-1.2801959e-09
1.7179685e-11
-1.4853136e-09
6.654739e-12
-1.700012e-09
-3.4538201e-12
-1.9304986e-09
-1.2396731e-11
-2.18244e-09
-1.9820341e-11
-2.4321691e-09
-2.5727919e-11
-2.67332e-09
-2.9256785e-11
-2.9015648e-09
-2.9849194e-11
-3.1114213e-09
-3.0387494e-11
-3.2994002e-09
-2.925523e-11
-3.46224e-09
-2.6788235e-11
-3.597007e-09
-2.3192023e-11
-3.7012252e-09
-1.8617798e-11
-3.7730072e-09
-1.3347784e-11
-3.8106097e-09
-7.610211e-12
-1.7832121e-12
4.4250925e-11
6.5106656e-11
4.562121e-11
6.9403973e-11
4.1440196e-11
7.2673312e-11
3.0106806e-11
7.5738163e-11
1.2354041e-11
7.7172892e-11
-1.3275788e-11
7.664436e-11
-4.4449522e-11
7.5595593e-11
-8.1452017e-11
7.3671969e-11
-1.2476816e-10
7.0738002e-11
-1.7440455e-10
6.6815303e-11
-2.2994281e-10
6.2192193e-11
-2.9048015e-10
5.7082672e-11
-3.5452095e-10
5.1643153e-11
-4.207164e-10
4.6374134e-11
-4.8770968e-10
4.1264307e-11
-5.5367661e-10
3.6709015e-11
-6.1629043e-10
3.2763423e-11
-6.7517107e-10
2.8491872e-11
-7.2873674e-10
2.4309125e-11
-7.7572902e-10
2.0202685e-11
-8.150357e-10
1.6113275e-11
-8.4588742e-10
1.2232543e-11
-8.6761057e-10
8.3740016e-12
-8.7993596e-10
4.7138739e-12
1.6390347e-12
7.0145217e-11
4.7550405e-11
8.8127816e-11
5.1420791e-11
1.074159e-10
5.3384651e-11
1.2643218e-10
5.672134e-11
1.4432391e-10
5.9280665e-11
1.6030659e-10
6.0661236e-11
1.746177e-10
6.1284086e-11
1.8712926e-10
6.1160063e-11
1.9744649e-10
6.0420466e-11
2.0534761e-10
5.8913923e-11
2.1102683e-10
5.6512756e-11
2.1477421e-10
5.3335099e-11
2.1688998e-10
4.9527234e-11
2.1787214e-10
4.5391847e-11
2.1798915e-10
4.1147202e-11
2.1769277e-10
3.7005322e-11
2.1742867e-10
3.3027478e-11
2.1695149e-10
2.8969036e-11
2.1632487e-10
2.4935748e-11
2.1556929e-10
2.0958279e-11
2.1468194e-10
1.7000655e-11
2.1381917e-10
1.3095364e-11
2.1297844e-10
9.2147958e-12
2.123091e-10
5.3832896e-12
1.7057367e-12
5.4107349e-11
3.3715819e-11
6.9899577e-11
3.5628279e-11
8.6419032e-11
3.6864914e-11
1.0529781e-10
3.7842298e-11
1.2522049e-10
3.9357759e-11
1.4454769e-10
4.133385e-11
1.6359838e-10
4.2233253e-11
1.8260563e-10
4.2152712e-11
2.0090943e-10
4.2116616e-11
2.1827082e-10
4.1552519e-11
2.3431311e-10
4.0470496e-11
2.4884521e-10
3.8803065e-11
2.6175269e-10
3.6619862e-11
2.7323951e-10
3.390517e-11
2.8339844e-10
3.0988442e-11
2.9242068e-10
2.7983289e-11
3.0053383e-10
2.4914553e-11
3.0767989e-10
2.1823226e-11
3.1383495e-10
1.8780957e-11
3.1898622e-10
1.5807287e-11
3.2312458e-10
1.2862588e-11
3.2625105e-10
9.9691902e-12
3.2833484e-10
7.1313013e-12
3.2942311e-10
4.2953265e-12
1.4193996e-12
3.0339888e-11
2.5341602e-11
3.8732419e-11
2.7235668e-11
4.7003669e-11
2.8593587e-11
5.6180148e-11
2.8665748e-11
6.6023805e-11
2.9514044e-11
7.7227067e-11
3.0130548e-11
8.8751527e-11
3.0708772e-11
9.9692745e-11
3.1211494e-11
1.1030986e-10
3.1499526e-11
1.2052148e-10
3.1340939e-11
1.3007226e-10
3.0919776e-11
1.3877294e-10
3.010247e-11
1.4653679e-10
2.885611e-11
1.5329389e-10
2.7148191e-11
1.5899297e-10
2.5289492e-11
1.63653e-10
2.3323398e-11
1.6747386e-10
2.1093852e-11
1.7053734e-10
1.8759906e-11
1.7297391e-10
1.6344543e-11
1.7489441e-10
1.3886949e-11
1.7634948e-10
1.140768e-11
1.7739243e-10
8.926404e-12
1.7809843e-10
6.4254545e-12
1.7857187e-10
3.8220373e-12
1.1413364e-12
1.2211659e-11
2.19272e-11
1.5599545e-11
2.3847774e-11
1.9151419e-11
2.5041707e-11
2.2638083e-11
2.5179081e-11
2.6251495e-11
2.5900634e-11
3.0208327e-11
2.617372e-11
3.4312679e-11
2.6604428e-11
3.842505e-11
2.7099136e-11
4.2643818e-11
2.7280775e-11
4.6699661e-11
2.7285118e-11
5.047294e-11
2.7146522e-11
5.392774e-11
2.6647698e-11
5.7027098e-11
2.5756782e-11
5.9463718e-11
2.4711604e-11
6.1203579e-11
2.3549664e-11
6.2352973e-11
2.2174038e-11
6.2942456e-11
2.0504402e-11
6.3096499e-11
1.8605895e-11
6.304505e-11
1.639602e-11
6.2778894e-11
1.415313e-11
6.235719e-11
1.1829403e-11
6.1928122e-11
9.3554872e-12
6.15502e-11
6.8033864e-12
6.1058574e-11
4.3136736e-12
1.444537e-12
5.5455379e-12
2.0639083e-11
7.363743e-12
2.2029542e-11
9.2338298e-12
2.3171593e-11
1.0665958e-11
2.3746926e-11
1.217248e-11
2.4394085e-11
1.3548996e-11
2.4797178e-11
1.4898947e-11
2.525445e-11
1.6395852e-11
2.5602204e-11
1.7899217e-11
2.5777384e-11
1.9260444e-11
2.5923864e-11
2.0960577e-11
2.5446362e-11
2.2482773e-11
2.5125475e-11
2.3639429e-11
2.4600099e-11
2.4526328e-11
2.3824678e-11
2.5221771e-11
2.2854195e-11
2.5746845e-11
2.1648937e-11
2.6053016e-11
2.0198202e-11
2.6160395e-11
1.8498487e-11
2.6004609e-11
1.6551774e-11
2.5745905e-11
1.4411799e-11
2.5470184e-11
1.2105087e-11
2.5177315e-11
9.6483149e-12
2.4991253e-11
6.9894051e-12
2.5049822e-11
4.2550635e-12
1.5105547e-12
6.146454e-12
1.8955357e-11
7.6514185e-12
2.0524527e-11
9.4175319e-12
2.1405427e-11
1.0864194e-11
2.2300213e-11
1.2478029e-11
2.2780198e-11
1.3757018e-11
2.3518139e-11
1.4992712e-11
2.4018706e-11
1.6255079e-11
2.433979e-11
1.7549625e-11
2.4482791e-11
1.9255433e-11
2.421801e-11
2.0923802e-11
2.3777949e-11
2.2653976e-11
2.3395258e-11
2.4143074e-11
2.3110959e-11
2.5457273e-11
2.2510441e-11
2.6697014e-11
2.1614417e-11
2.7817864e-11
2.0528052e-11
2.8826166e-11
1.9189867e-11
2.9706534e-11
1.7618084e-11
3.0422559e-11
1.5835715e-11
3.0991303e-11
1.3843019e-11
3.1447875e-11
1.164848e-11
3.1812898e-11
9.2832539e-12
3.2048432e-11
6.7538322e-12
3.2244489e-11
4.0589708e-12
1.2869574e-12
7.8382738e-12
1.6898136e-11
9.9834364e-12
1.8379302e-11
1.223294e-11
1.9155862e-11
1.4346185e-11
2.0186907e-11
1.6396586e-11
2.0729739e-11
1.8542746e-11
2.1371924e-11
2.0635446e-11
2.1925953e-11
2.2745864e-11
2.2229322e-11
2.4913295e-11
2.2315314e-11
2.7022809e-11
2.2108452e-11
2.9224066e-11
2.1576651e-11
3.142582e-11
2.1193468e-11
3.3814968e-11
2.0721779e-11
3.6009013e-11
2.0316367e-11
3.8078288e-11
1.9545117e-11
4.0081163e-11
1.8525156e-11
4.1948026e-11
1.7322985e-11
4.3635732e-11
1.5930362e-11
4.5137067e-11
1.4334365e-11
4.6420549e-11
1.2559522e-11
4.7456707e-11
1.0612306e-11
4.8240237e-11
8.4997068e-12
4.8759436e-11
6.2346162e-12
4.8990968e-11
3.8274257e-12
1.2284846e-12
8.5434236e-12
1.4566397e-11
1.0987747e-11
1.5934914e-11
1.3300763e-11
1.6842785e-11
1.5915185e-11
1.7572427e-11
1.8376476e-11
1.8268392e-11
2.1066139e-11
1.8682209e-11
2.3779102e-11
1.9212942e-11
2.6522289e-11
1.9486091e-11
2.9286413e-11
1.955115e-11
3.1963901e-11
1.9430928e-11
3.4418046e-11
1.9122475e-11
3.701174e-11
1.8599747e-11
3.9644269e-11
1.8089228e-11
4.241524e-11
1.7545379e-11
4.5046611e-11
1.6913734e-11
4.7481345e-11
1.6090415e-11
4.9759868e-11
1.5044458e-11
5.1854381e-11
1.3835847e-11
5.3745086e-11
1.244366e-11
5.5411788e-11
1.0892822e-11
5.6827829e-11
9.1962673e-12
5.7974591e-11
7.3529442e-12
5.8846121e-11
5.3630868e-12
5.9400171e-11
3.2733794e-12
1.1448956e-12
7.8718091e-12
1.2375382e-11
1.0237664e-11
1.3568999e-11
1.2589852e-11
1.449054e-11
1.4979899e-11
1.5182326e-11
1.7513234e-11
1.5735007e-11
2.018799e-11
1.6007407e-11
2.3032987e-11
1.6367902e-11
2.5850737e-11
1.6668301e-11
2.8676441e-11
1.6725411e-11
3.1471599e-11
1.663574e-11
3.4197468e-11
1.639658e-11
3.6792135e-11
1.600506e-11
3.9342156e-11
1.5539191e-11
4.1905807e-11
1.4981718e-11
4.4572739e-11
1.4246797e-11
4.7129016e-11
1.3534136e-11
4.9527514e-11
1.2645963e-11
5.167876e-11
1.1684607e-11
5.3626309e-11
1.0496119e-11
5.5339009e-11
9.1801297e-12
5.6794306e-11
7.7409794e-12
5.7955458e-11
6.1918001e-12
5.8788007e-11
4.5305459e-12
5.9279573e-11
2.7818251e-12
8.8588347e-13
6.6093297e-12
1.0572478e-11
8.5614178e-12
1.1616857e-11
1.0703496e-11
1.2348409e-11
1.2876443e-11
1.300933e-11
1.5149947e-11
1.3461457e-11
1.743648e-11
1.3720831e-11
1.9867775e-11
1.3936568e-11
2.2457856e-11
1.4078184e-11
2.505332e-11
1.4129915e-11
2.7629298e-11
1.4059735e-11
3.0145314e-11
1.3880541e-11
3.2583253e-11
1.3567103e-11
3.4969296e-11
1.3153134e-11
3.7325381e-11
1.2625625e-11
3.9572029e-11
1.2000144e-11
4.1781545e-11
1.132462e-11
4.3863379e-11
1.0564132e-11
4.5860709e-11
9.6872839e-12
4.7703838e-11
8.652998e-12
4.9303487e-11
7.5804892e-12
5.0653026e-11
6.391451e-12
5.1712505e-11
5.1323294e-12
5.2464117e-11
3.7789426e-12
5.2950756e-11
2.2951991e-12
7.3280188e-13
5.4176686e-12
9.0655079e-12
7.0323334e-12
1.0002143e-11
8.7035936e-12
1.0677101e-11
1.0523898e-11
1.1188981e-11
1.2437537e-11
1.1547775e-11
1.4372528e-11
1.1785799e-11
1.6391648e-11
1.1917412e-11
1.849223e-11
1.1977568e-11
2.0647851e-11
1.1974264e-11
2.2846182e-11
1.1861377e-11
2.4988875e-11
1.1737826e-11
2.7106962e-11
1.1448996e-11
2.9178705e-11
1.1081378e-11
3.1167386e-11
1.0636933e-11
3.3074366e-11
1.009316e-11
3.4925084e-11
9.4739001e-12
3.6703562e-11
8.7856571e-12
3.8367072e-11
8.023778e-12
3.9846705e-11
7.1733719e-12
4.1168002e-11
6.2591997e-12
4.2298034e-11
5.2614266e-12
4.3228827e-11
4.201544e-12
4.3998534e-11
3.0092421e-12
4.4424649e-11
1.8690944e-12
6.3568822e-13
4.4039208e-12
7.8383615e-12
5.7528627e-12
8.6531566e-12
7.141451e-12
9.2884705e-12
8.6017012e-12
9.7286899e-12
1.0148721e-11
1.0000716e-11
1.1750813e-11
1.0183671e-11
1.338845e-11
1.027974e-11
1.5079772e-11
1.0286214e-11
1.6841634e-11
1.0212372e-11
1.8593049e-11
1.0109937e-11
2.0335755e-11
9.995097e-12
2.2105214e-11
9.6795189e-12
2.3825564e-11
9.3610136e-12
2.5488685e-11
8.9738023e-12
2.7079893e-11
8.5019458e-12
2.8590132e-11
7.9636586e-12
3.0016122e-11
7.3596682e-12
3.1348368e-11
6.6915352e-12
3.2550444e-11
5.9713006e-12
3.361347e-11
5.1961789e-12
3.4505991e-11
4.3689121e-12
3.5252099e-11
3.4554409e-12
3.5726645e-11
2.5347003e-12
3.6060676e-11
1.5350718e-12
5.2907037e-13
3.6451271e-12
6.8223094e-12
4.761578e-12
7.5366667e-12
5.9639325e-12
8.0860782e-12
7.1990745e-12
8.4935114e-12
8.4558579e-12
8.7438973e-12
9.7714664e-12
8.8680289e-12
1.1130126e-11
8.921049e-12
1.2506928e-11
8.9093824e-12
1.3896122e-11
8.8231522e-12
1.5315877e-11
8.690157e-12
1.681423e-11
8.4967237e-12
1.823869e-11
8.2550427e-12
1.9625988e-11
7.9737018e-12
2.0962615e-11
7.6371663e-12
2.2258886e-11
7.2056691e-12
2.3512227e-11
6.710315e-12
2.46767e-11
6.1951959e-12
2.574282e-11
5.6254172e-12
2.6702904e-11
5.0112204e-12
2.7556393e-11
4.3426951e-12
2.8294759e-11
3.6305504e-12
2.8843289e-11
2.906915e-12
2.9271579e-11
2.1064141e-12
2.9521241e-11
1.2854169e-12
4.117629e-13
3.091091e-12
5.9564375e-12
4.0416482e-12
6.5860756e-12
5.0547879e-12
7.0729056e-12
6.1318426e-12
7.4164251e-12
7.2252004e-12
7.6505091e-12
8.3220588e-12
7.7711416e-12
9.4494435e-12
7.7936371e-12
1.0600979e-11
7.7578214e-12
1.1753751e-11
7.6703571e-12
1.2910436e-11
7.5334509e-12
1.4111037e-11
7.2961046e-12
1.5268861e-11
7.0972047e-12
1.6441212e-11
6.801339e-12
1.7571674e-11
6.5066958e-12
1.8636365e-11
6.1409732e-12
1.9641914e-11
5.7047648e-12
2.0583873e-11
5.2532373e-12
2.1448611e-11
4.7606828e-12
2.2232118e-11
4.227717e-12
2.2924894e-11
3.6499236e-12
2.3496323e-11
3.0591257e-12
2.3969534e-11
2.4337083e-12
2.4288675e-11
1.7872759e-12
2.4497216e-11
1.076882e-12
3.2568743e-13
2.641977e-12
5.2280244e-12
3.4696365e-12
5.7583871e-12
4.3442517e-12
6.1982622e-12
5.2571222e-12
6.5035275e-12
6.2089924e-12
6.6986128e-12
7.17574e-12
6.8043693e-12
8.1272957e-12
6.8420581e-12
9.1021069e-12
6.7829886e-12
1.0084602e-11
6.6878426e-12
1.1070613e-11
6.5474217e-12
1.2011888e-11
6.3548148e-12
1.2981731e-11
6.1273492e-12
1.3923413e-11
5.8596467e-12
1.4845932e-11
5.5841707e-12
1.5767091e-11
5.2198108e-12
1.6598096e-11
4.87376e-12
1.7359819e-11
4.4915158e-12
1.807094e-11
4.0495649e-12
1.8714945e-11
3.5837167e-12
1.9268893e-11
3.0959807e-12
1.9740313e-11
2.5877107e-12
2.0116004e-11
2.0580208e-12
2.0406476e-11
1.4968066e-12
2.0573223e-11
9.1014093e-13
2.7377756e-13
2.2780972e-12
4.5930781e-12
2.9642644e-12
5.0721952e-12
3.7241589e-12
5.4383438e-12
4.5080928e-12
5.7195705e-12
5.3259585e-12
5.8807249e-12
6.1583893e-12
5.9719176e-12
7.0100754e-12
5.9903523e-12
7.8297229e-12
5.9633228e-12
8.6625244e-12
5.8550244e-12
9.4876327e-12
5.7222984e-12
1.0292915e-11
5.5495195e-12
1.1083358e-11
5.3368968e-12
1.1844669e-11
5.0983273e-12
1.2605503e-11
4.8233324e-12
1.334024e-11
4.4850715e-12
1.4011675e-11
4.2023258e-12
1.4651847e-11
3.8513461e-12
1.5229239e-11
3.4721766e-12
1.575457e-11
3.0583901e-12
1.6207015e-11
2.6435415e-12
1.6581875e-11
2.2128546e-12
1.6887044e-11
1.7528559e-12
1.7126781e-11
1.2570731e-12
1.7271876e-11
7.6505137e-13
2.9399508e-13
1.9454294e-12
4.0492045e-12
2.5388463e-12