/*--------------------------------*- C++ -*----------------------------------*\
| =========                 |                                                 |
| \\      /  F ield         | OpenFOAM: The Open Source CFD Toolbox           |
|  \\    /   O peration     | Version:  4.0                                   |
|   \\  /    A nd           | Web:      www.OpenFOAM.org                      |
|    \\/     M anipulation  |                                                 |
\*---------------------------------------------------------------------------*/
FoamFile
{
    version     2.0;
    format      ascii;
    class       volVectorField;
    location    "0.53";
    object      U;
}
// * * * * * * * * * * * * * * * * * * * * * * * * * * * * * * * * * * * * * //

dimensions      [0 1 -1 0 0 0 0];

internalField   nonuniform List<vector> 
1740
(
(1.6017433 0.0059253484 3.9594553e-06)
(1.5185477 -0.0067815323 7.3566316e-07)
(1.6471943 -0.0049812875 2.2852219e-08)
(1.6272954 0.02403933 7.5775514e-06)
(1.5476241 -0.020095059 1.3983162e-06)
(1.658789 -0.025446218 3.0540643e-07)
(1.5020932 0.027000584 1.054403e-05)
(1.6071977 -0.013706784 2.3005635e-06)
(1.5283306 -0.019998911 4.4708235e-07)
(1.4831062 -0.0035219384 1.2982827e-05)
(1.6950057 0.011198773 3.2775326e-06)
(1.6206971 0.00559612 5.2666383e-07)
(1.5361218 -0.016927566 1.4883841e-05)
(1.6043976 0.022713036 4.3298753e-06)
(1.6194045 0.01756039 8.2162068e-07)
(1.5392898 -0.0077743919 1.6070951e-05)
(1.5224926 0.013342245 4.8804728e-06)
(1.6274495 0.0042110387 9.3064491e-07)
(1.5854562 -0.0033117866 1.7077333e-05)
(1.5359745 -0.023030919 5.7436028e-06)
(1.677157 -0.021006615 1.1681219e-06)
(1.5678446 -0.0059591058 1.8071993e-05)
(1.6063689 -0.035337675 6.3446476e-06)
(1.5355984 -0.019640766 1.3541395e-06)
(1.5699983 -0.0094670042 1.8602795e-05)
(1.7034556 -0.0017246892 7.1556902e-06)
(1.5842404 0.0047956403 1.4892114e-06)
(1.6017274 -0.019059275 1.9140581e-05)
(1.6125461 0.0013540219 7.8683625e-06)
(1.6005058 0.0068864159 1.7717704e-06)
(1.6267051 -0.022124682 1.9415195e-05)
(1.5647439 -0.011356324 8.3163222e-06)
(1.544089 -0.0032366151 1.9449187e-06)
(1.7551109 -0.014647229 1.9969626e-05)
(1.5891079 -0.0042083914 8.9465045e-06)
(1.5837381 -0.0024140996 2.0750923e-06)
(1.7559777 0.017908183 2.0477764e-05)
(1.5570851 0.01176854 9.4546089e-06)
(1.5953776 -0.00084520139 2.3328413e-06)
(1.637035 0.033460465 2.010404e-05)
(1.6370859 0.015370951 9.72715e-06)
(1.5536042 0.00023543304 2.4972103e-06)
(1.5464067 -0.0010473458 2.0297113e-05)
(1.6287308 0.016742967 1.042097e-05)
(1.6136751 0.0052440769 2.6489705e-06)
(1.6452898 -0.027857212 2.0404606e-05)
(1.5196842 -0.019319564 1.0843739e-05)
(1.6270355 -0.00498061 2.9026988e-06)
(1.7630471 -0.0076693219 2.0552696e-05)
(1.5507264 -0.027102184 1.1151236e-05)
(1.5708211 -0.012529632 3.0371667e-06)
(1.760597 0.019126474 2.1113568e-05)
(1.5685576 0.0019627481 1.1649824e-05)
(1.5817144 -0.0069374763 3.2607348e-06)
(1.617472 0.033304723 2.1746182e-05)
(1.6417272 0.028749635 1.2054644e-05)
(1.5297179 0.0040311097 3.4407469e-06)
(1.495682 0.015568296 2.1879134e-05)
(1.7221852 0.022438065 1.2428011e-05)
(1.5991863 0.013418957 3.5841559e-06)
(1.4973828 -0.013501373 2.1732481e-05)
(1.6435343 -0.0018378453 1.2832294e-05)
(1.6120039 0.0058925617 3.7584497e-06)
(1.5639554 -0.0097366247 2.1843715e-05)
(1.5984699 0.0065571643 1.3117917e-05)
(1.5355666 0.0056543176 3.9455143e-06)
(1.5558108 0.017453266 2.1984614e-05)
(1.5625703 0.015297292 1.3468398e-05)
(1.6048902 0.005287361 4.10569e-06)
(1.4802454 0.005072522 2.210135e-05)
(1.6220681 -0.02075146 1.3754368e-05)
(1.6639177 -0.015603326 4.2217082e-06)
(1.5966132 -0.010592085 2.2250909e-05)
(1.6032108 -0.019212581 1.4188335e-05)
(1.553322 -0.010817242 4.4143888e-06)
(1.5906312 0.0046658284 2.2357103e-05)
(1.5943276 0.0034285114 1.4409024e-05)
(1.5853624 0.004482941 4.5685352e-06)
(1.4824506 -0.0051296944 2.2489709e-05)
(1.5918732 -0.0052548053 1.479031e-05)
(1.5880281 0.001698992 4.7084309e-06)
(1.4960856 -0.023452419 2.2829706e-05)
(1.605213 -0.020596863 1.5018952e-05)
(1.516276 -0.0067422513 4.8357801e-06)
(1.5295297 -0.013484245 2.2274205e-05)
(1.5648736 -0.0080519402 1.5184523e-05)
(1.51219 0.0013718097 4.8590447e-06)
(1.3982877 0.039139519 2.3866411e-05)
(1.3303354 0.10805695 1.5724803e-05)
(1.4060465 0.059725697 5.5287785e-06)
(0.87159603 0.38623104 1.1610169e-05)
(0.8464471 0.95262636 9.9573854e-06)
(0.77417433 1.2665686 5.4024454e-06)
(0.24707524 0.12105032 1.5201353e-06)
(0.20573076 0.38295795 3.1301143e-06)
(0.097761383 0.52290111 7.2771974e-07)
(-0.021759054 -0.011117929 1.2111606e-06)
(-0.022611664 -0.023564331 1.6726072e-06)
(-0.016094294 -0.027069174 5.7061553e-07)
(-0.0039193771 -0.0022403845 4.4362278e-07)
(-0.0046714593 -0.0063650274 7.2214597e-07)
(-0.0043115829 -0.0087425049 3.1985222e-07)
(0.00080955501 -0.00015138366 1.2532257e-07)
(0.0005194123 -0.00066999648 2.3810928e-07)
(0.00024004963 -0.0011269097 9.6547538e-08)
(0.0010491602 5.4564927e-05 2.5080796e-08)
(0.0009708493 6.9174377e-05 4.6767085e-08)
(0.00086644442 5.6146986e-05 -1.8983575e-08)
(0.00086406692 7.4425247e-05 -5.9240368e-09)
(0.00084478972 0.00016461061 -2.0215946e-08)
(0.00080481088 0.00024911874 -6.3939691e-08)
(0.00064147688 7.739597e-05 -1.556958e-08)
(0.00063662075 0.00018636599 -4.088506e-08)
(0.00061479887 0.00028624525 -7.4844253e-08)
(0.00046240569 5.1031281e-05 -1.5841869e-08)
(0.00045856741 0.0001215021 -4.1680141e-08)
(0.00044409379 0.00019530846 -6.937039e-08)
(0.00034751149 2.6830379e-05 -1.2817735e-08)
(0.00034407257 6.4480399e-05 -3.506781e-08)
(0.00033175376 0.00010519812 -5.7601377e-08)
(0.00027980965 1.1723061e-05 -9.4651404e-09)
(0.00027664234 2.730744e-05 -2.7134546e-08)
(0.00026651076 4.3614968e-05 -4.505953e-08)
(0.0002388097 6.383642e-06 -6.8973414e-09)
(0.00023613293 1.4212692e-05 -2.039077e-08)
(0.00022786969 2.243446e-05 -3.4231979e-08)
(0.00020854697 7.0623808e-06 -5.1712574e-09)
(0.00020629209 1.5612126e-05 -1.5282271e-08)
(0.00019942362 2.3807047e-05 -2.5648469e-08)
(0.00018265176 7.9631728e-06 -3.9376116e-09)
(0.00018072903 1.8847453e-05 -1.143699e-08)
(0.0001749746 3.0008915e-05 -1.9010588e-08)
(0.00015908126 8.2578006e-06 -2.9764944e-09)
(0.0001574446 1.9593885e-05 -8.4467506e-09)
(0.00015260477 3.1349739e-05 -1.3863274e-08)
(0.00013739133 7.5365228e-06 -2.1829725e-09)
(0.00013600228 1.7754441e-05 -6.0885143e-09)
(0.00013192501 2.830195e-05 -9.8793294e-09)
(0.00011800662 6.0701366e-06 -1.5317152e-09)
(0.00011683651 1.4555334e-05 -4.2497991e-09)
(0.00011343394 2.3592737e-05 -6.8457418e-09)
(0.00010118943 5.0146657e-06 -1.0311895e-09)
(0.00010021368 1.2022732e-05 -2.8666741e-09)
(9.7376179e-05 1.9067863e-05 -4.6013251e-09)
(8.6923784e-05 4.169057e-06 -6.7085398e-10)
(8.6114566e-05 9.9036741e-06 -1.8749409e-09)
(8.3741073e-05 1.5683153e-05 -3.0027153e-09)
(7.4925262e-05 3.4819729e-06 -4.262483e-10)
(7.4253515e-05 8.2686559e-06 -1.1960763e-09)
(7.2267972e-05 1.312935e-05 -1.9084743e-09)
(6.4829506e-05 2.9660429e-06 -2.6888754e-10)
(6.4270871e-05 7.0378165e-06 -7.51214e-10)
(6.2604346e-05 1.1169495e-05 -1.1874155e-09)
(5.6307103e-05 2.5379015e-06 -1.7064794e-10)
(5.5841577e-05 5.9820512e-06 -4.6864835e-10)
(5.4437544e-05 9.5147329e-06 -7.2690651e-10)
(4.9095784e-05 2.1200422e-06 -1.1074088e-10)
(4.8706497e-05 5.0442741e-06 -2.935619e-10)
(4.751938e-05 8.0817383e-06 -4.4044804e-10)
(4.2990941e-05 1.7777785e-06 -7.4400192e-11)
(4.2664284e-05 4.27962e-06 -1.8686206e-10)
(4.1656661e-05 6.8769323e-06 -2.6658353e-10)
(3.7830792e-05 1.51406e-06 -5.3008505e-11)
(3.7555997e-05 3.6445334e-06 -1.2293894e-10)
(3.6697004e-05 5.8425596e-06 -1.631856e-10)
(3.3482102e-05 1.280143e-06 -4.0284084e-11)
(3.3250284e-05 3.0816596e-06 -8.4695179e-11)
(3.2514808e-05 4.9301466e-06 -1.0239634e-10)
(2.9829418e-05 1.07231e-06 -3.2712356e-11)
(2.9633309e-05 2.5846984e-06 -6.1841971e-11)
(2.9000779e-05 4.1320298e-06 -6.7081819e-11)
(2.6770573e-05 8.9428076e-07 -2.8421658e-11)
(2.6604292e-05 2.156526e-06 -4.8441967e-11)
(2.6057757e-05 3.4456323e-06 -4.703998e-11)
(2.4215635e-05 7.4180396e-07 -2.5901558e-11)
(2.4074347e-05 1.7987145e-06 -4.0430175e-11)
(2.3599785e-05 2.8715073e-06 -3.5709289e-11)
(2.208597e-05 6.1492224e-07 -2.4323114e-11)
(2.1965665e-05 1.4967542e-06 -3.5387177e-11)
(2.155142e-05 2.3873829e-06 -2.9224478e-11)
(2.0313035e-05 5.0878619e-07 -2.3308156e-11)
(2.0210368e-05 1.243956e-06 -3.2206561e-11)
(1.9846639e-05 1.9834606e-06 -2.5584522e-11)
(1.8837333e-05 4.2085537e-07 -2.2596685e-11)
(1.8749499e-05 1.0330925e-06 -3.0145798e-11)
(1.8428105e-05 1.6475147e-06 -2.3577705e-11)
(1.7607802e-05 3.4820075e-07 -2.2052872e-11)
(1.7532473e-05 8.593013e-07 -2.8759673e-11)
(1.7246625e-05 1.3702076e-06 -2.249348e-11)
(1.6581177e-05 2.894143e-07 -2.1747116e-11)
(1.6516436e-05 7.1912487e-07 -2.7936895e-11)
(1.6260525e-05 1.1445513e-06 -2.1981066e-11)
(1.5721279e-05 2.4008003e-07 -2.1246924e-11)
(1.5665518e-05 6.000376e-07 -2.7109855e-11)
(1.5434873e-05 9.5468246e-07 -2.162023e-11)
(1.4998095e-05 2.0008865e-07 -2.0703292e-11)
(1.4949941e-05 5.0225443e-07 -2.6326672e-11)
(1.474063e-05 7.9841387e-07 -2.1326238e-11)
(1.438686e-05 1.6784878e-07 -2.0166427e-11)
(1.434515e-05 4.2243001e-07 -2.5604524e-11)
(1.4153864e-05 6.6984037e-07 -2.1060235e-11)
(1.3867373e-05 1.4149295e-07 -1.9629477e-11)
(1.3831128e-05 3.568173e-07 -2.4947222e-11)
(1.3655116e-05 5.6557275e-07 -2.0840303e-11)
(1.342337e-05 1.2175023e-07 -1.92834e-11)
(1.3391781e-05 3.0860649e-07 -2.4589692e-11)
(1.3228776e-05 4.9157809e-07 -2.082068e-11)
(1.3042103e-05 1.0402599e-07 -1.8983241e-11)
(1.3014476e-05 2.6407086e-07 -2.4395622e-11)
(1.2862544e-05 4.1857917e-07 -2.0889717e-11)
(1.2713846e-05 8.9338953e-08 -1.8628273e-11)
(1.2689573e-05 2.2766502e-07 -2.4106644e-11)
(1.2547052e-05 3.6278164e-07 -2.0902282e-11)
(1.2431267e-05 7.6514655e-08 -1.8280823e-11)
(1.2409834e-05 1.9500764e-07 -2.3800226e-11)
(1.2275307e-05 3.1060637e-07 -2.0877235e-11)
(1.2188851e-05 6.5126734e-08 -1.8011921e-11)
(1.2169807e-05 1.6579762e-07 -2.3598525e-11)
(1.2042034e-05 2.6363817e-07 -2.0909776e-11)
(1.198233e-05 5.4927681e-08 -1.7838542e-11)
(1.1965276e-05 1.3978565e-07 -2.3525408e-11)
(1.1843155e-05 2.2218918e-07 -2.1015987e-11)
(1.1808165e-05 4.5819768e-08 -1.7768396e-11)
(1.1792743e-05 1.1676829e-07 -2.356476e-11)
(1.1675296e-05 1.8587942e-07 -2.1163419e-11)
(1.1663002e-05 3.7770095e-08 -1.7795053e-11)
(1.1648888e-05 9.6762227e-08 -2.365492e-11)
(1.1535234e-05 1.5482348e-07 -2.1251396e-11)
(1.1544432e-05 3.0713833e-08 -1.786653e-11)
(1.1531332e-05 7.9686762e-08 -2.3624675e-11)
(1.1420663e-05 1.2881064e-07 -2.1039794e-11)
(1.1446225e-05 2.5016361e-08 -1.7855952e-11)
(1.1433842e-05 6.536887e-08 -2.306215e-11)
(1.132543e-05 1.0574854e-07 -2.0031474e-11)
(1.1389631e-05 2.1080874e-08 -1.7346594e-11)
(1.1377737e-05 5.3559006e-08 -2.0982523e-11)
(1.1270757e-05 8.3849753e-08 -1.7315464e-11)
(1.1306499e-05 1.4372853e-08 -1.4582933e-11)
(1.1294611e-05 3.6034601e-08 -1.4915453e-11)
(1.1188757e-05 5.5513611e-08 -1.1274532e-11)
(-0.045785537 1.9795244 -3.6650739e-07)
(-0.033135922 1.7211965 -3.4428476e-06)
(-0.060543254 0.36048263 -2.3985442e-07)
(-0.042921605 0.16473908 -1.0127838e-06)
(-0.013461901 -0.035329701 -2.2883376e-07)
(-0.010349146 -0.038863464 -6.346568e-07)
(-0.00387082 -0.011095183 -1.2079921e-07)
(-0.0037208384 -0.012538149 -4.1796675e-07)
(-8.3735402e-05 -0.0018315172 -1.2048817e-07)
(-0.00043115356 -0.0025524333 -3.0429446e-07)
(0.00073963768 -3.8016514e-05 -1.3127405e-07)
(0.00055067603 -0.00021767432 -2.4165083e-07)
(0.00073182497 0.00031814702 -1.29943e-07)
(0.00063058252 0.00034890133 -1.9873687e-07)
(0.00056681787 0.00037595392 -1.1828336e-07)
(0.00050883039 0.00044988851 -1.6367675e-07)
(0.00041548558 0.00027545077 -1.0051091e-07)
(0.00037942536 0.00034096246 -1.3224107e-07)
(0.00031029024 0.00014471573 -8.1048796e-08)
(0.00028020766 0.00018192716 -1.041825e-07)
(0.00025045139 5.9396511e-05 -6.3012782e-08)
(0.00022981668 7.3696521e-05 -8.030097e-08)
(0.00021531688 2.9748488e-05 -4.7868499e-08)
(0.00019963196 3.6004551e-05 -6.0817433e-08)
(0.00018925448 3.1689571e-05 -3.5805865e-08)
(0.00017676474 3.8288713e-05 -4.5391945e-08)
(0.00016660791 4.0045679e-05 -2.6399033e-08)
(0.00015643192 4.8935609e-05 -3.3362029e-08)
(0.00014564725 4.2152463e-05 -1.9121066e-08)
(0.00013717647 5.2085745e-05 -2.4074169e-08)
(0.00012608286 3.8381154e-05 -1.3543314e-08)
(0.00011896174 4.7526177e-05 -1.6990534e-08)
(0.00010854389 3.2443274e-05 -9.3442939e-09)
(0.00010259895 4.0211901e-05 -1.1689077e-08)
(9.3294971e-05 2.616324e-05 -6.2649128e-09)
(8.8322942e-05 3.2757234e-05 -7.822863e-09)
(8.0331841e-05 2.1319919e-05 -4.0815316e-09)
(7.6157536e-05 2.6608666e-05 -5.0909824e-09)
(6.9407819e-05 1.7748543e-05 -2.5889731e-09)
(6.5890549e-05 2.2043938e-05 -3.2254809e-09)
(6.0197407e-05 1.5077088e-05 -1.6038174e-09)
(5.7223038e-05 1.866935e-05 -1.9936178e-09)
(5.2404427e-05 1.2920204e-05 -9.7344835e-10)
(4.9879891e-05 1.6061185e-05 -1.2048087e-09)
(4.5795184e-05 1.1040301e-05 -5.8075613e-10)
(4.3645038e-05 1.3769561e-05 -7.1331293e-10)
(4.0189169e-05 9.3944635e-06 -3.4225704e-10)
(3.8351483e-05 1.1741702e-05 -4.1473021e-10)
(3.5443319e-05 7.9610663e-06 -2.0065214e-10)
(3.3867125e-05 9.9497959e-06 -2.3748027e-10)
(3.1439315e-05 6.7065531e-06 -1.1811924e-10)
(3.0082165e-05 8.367923e-06 -1.3445603e-10)
(2.8074079e-05 5.6145923e-06 -7.093602e-11)
(2.6900626e-05 7.0066829e-06 -7.5976082e-11)
(2.5255648e-05 4.6937626e-06 -4.461865e-11)
(2.4236639e-05 5.852277e-06 -4.3639803e-11)
(2.2902196e-05 3.9117783e-06 -3.0196803e-11)
(2.2013226e-05 4.8753053e-06 -2.6252435e-11)
(2.0941509e-05 3.2509419e-06 -2.241463e-11)
(2.0161931e-05 4.0503276e-06 -1.7167578e-11)
(1.931025e-05 2.7004257e-06 -1.8404093e-11)
(1.862265e-05 3.3618394e-06 -1.2701236e-11)
(1.795341e-05 2.2448341e-06 -1.6483344e-11)
(1.7343209e-05 2.7928389e-06 -1.0745448e-11)
(1.6823791e-05 1.8652847e-06 -1.5689202e-11)
(1.6278826e-05 2.3188175e-06 -1.0109007e-11)
(1.5881385e-05 1.5536218e-06 -1.5489801e-11)
(1.539149e-05 1.9288171e-06 -1.0132422e-11)
(1.5092613e-05 1.29393e-06 -1.5526231e-11)
(1.4649278e-05 1.608434e-06 -1.0449923e-11)
(1.4429524e-05 1.0827192e-06 -1.5663089e-11)
(1.4025605e-05 1.3485953e-06 -1.0883639e-11)
(1.3869102e-05 9.1049784e-07 -1.5822491e-11)
(1.3498596e-05 1.1368281e-06 -1.1335651e-11)
(1.3392687e-05 7.6846557e-07 -1.5988233e-11)
(1.3050546e-05 9.5957501e-07 -1.1769648e-11)
(1.2985343e-05 6.5868241e-07 -1.6241173e-11)
(1.2667358e-05 8.1255545e-07 -1.2209699e-11)
(1.2635312e-05 5.7516129e-07 -1.6546395e-11)
(1.2337956e-05 7.1799235e-07 -1.2688791e-11)
(1.2333619e-05 4.9596042e-07 -1.6791716e-11)
(1.2053871e-05 6.1810132e-07 -1.3105888e-11)
(1.2073583e-05 4.2214325e-07 -1.6997769e-11)
(1.1808805e-05 5.2525463e-07 -1.3475614e-11)
(1.1850197e-05 3.5784596e-07 -1.7225556e-11)
(1.1598068e-05 4.4541928e-07 -1.3838787e-11)
(1.1659601e-05 3.0164949e-07 -1.7470931e-11)
(1.141808e-05 3.7567603e-07 -1.4179697e-11)
(1.1498597e-05 2.5256292e-07 -1.768878e-11)
(1.1265867e-05 3.1474471e-07 -1.44486e-11)
(1.1364106e-05 2.1096153e-07 -1.7763783e-11)
(1.1138532e-05 2.6342259e-07 -1.4532277e-11)
(1.1253932e-05 1.7643923e-07 -1.7447582e-11)
(1.1034013e-05 2.2117678e-07 -1.4205196e-11)
(1.1162045e-05 1.4510787e-07 -1.6286986e-11)
(1.0946442e-05 1.8224055e-07 -1.309289e-11)
(1.1109478e-05 1.1434683e-07 -1.3594477e-11)
(1.0896581e-05 1.4354521e-07 -1.0698206e-11)
(1.1029156e-05 7.5560496e-08 -8.4157426e-12)
(1.0818443e-05 9.5009109e-08 -6.4375903e-12)
(-0.0028798069 3.9708478e-05 -1.1279064e-07)
(-0.0028185208 7.1521853e-05 -2.6728252e-07)
(-0.002705918 0.00012337689 -3.7798154e-07)
(-0.0025789751 0.00013377307 -4.4776182e-07)
(-0.0024444631 0.00015145974 -4.8535848e-07)
(-0.0023110022 0.00015123022 -5.0069496e-07)
(-0.0021774714 0.00014908471 -5.0125376e-07)
(-0.0020425691 0.00013816839 -4.9229174e-07)
(-0.0019055153 0.00011815165 -4.77473e-07)
(-0.0017671886 8.9916557e-05 -4.5933278e-07)
(-0.0016284954 5.3638164e-05 -4.3963012e-07)
(-0.0014902131 9.6211897e-06 -4.1942488e-07)
(-0.0013534089 -4.1363579e-05 -3.9922656e-07)
(-0.0012192009 -9.7021397e-05 -3.7912751e-07)
(-0.0010885062 -0.0001550317 -3.5898505e-07)
(-0.00096199192 -0.00021328943 -3.3851793e-07)
(-0.00084020105 -0.00027116744 -3.1733058e-07)
(-0.00072360001 -0.0003260228 -2.9485867e-07)
(-0.00061207917 -0.00037459518 -2.7048472e-07)
(-0.00050548771 -0.00041564873 -2.4349079e-07)
(-0.00040377178 -0.00044756214 -2.1310284e-07)
(-0.00030664593 -0.00047006907 -1.7817365e-07)
(-0.00021379657 -0.00048308012 -1.3767732e-07)
(-0.00012507561 -0.00049098362 -9.0934676e-08)
(-4.0323338e-05 -0.00046273079 -3.7314771e-08)
(0.00010264459 -6.264018e-05 -1.2873736e-07)
(0.00011952915 -0.00038515428 -3.0106976e-07)
(0.00013638355 -0.0005278905 -4.1796218e-07)
(0.00015017934 -0.00078944852 -4.8527949e-07)
(0.00016514351 -0.00099948138 -5.168596e-07)
(0.00018840094 -0.0012292567 -5.2611267e-07)
(0.0002179764 -0.0014592053 -5.2156292e-07)
(0.00025059615 -0.0017123805 -5.0868934e-07)
(0.00027976144 -0.0019889275 -4.9094127e-07)
(0.00030244145 -0.0022681435 -4.7056953e-07)
(0.0003168736 -0.0025485909 -4.4929187e-07)
(0.00032235467 -0.0028269657 -4.2803463e-07)
(0.00032003195 -0.0030973341 -4.0718523e-07)
(0.00031102378 -0.0033557494 -3.866828e-07)
(0.00029626023 -0.0035986266 -3.6629656e-07)
(0.000276593 -0.0038262609 -3.4571864e-07)
(0.00025294711 -0.0040480368 -3.2460548e-07)
(0.00022637523 -0.0042541017 -3.0225861e-07)
(0.00019746285 -0.0044199325 -2.7811118e-07)
(0.00016681271 -0.004538119 -2.5137998e-07)
(0.00013502219 -0.0046054726 -2.2158444e-07)
(0.00010281298 -0.0046241735 -1.8688693e-07)
(7.0844783e-05 -0.004597314 -1.4598802e-07)
(3.9751369e-05 -0.0045107208 -9.7171936e-08)
(1.0836716e-05 -0.0043063922 -4.1908176e-08)
(0.00082634608 -0.00024156161 -1.671823e-07)
(0.0008542918 -0.0013416784 -3.7679795e-07)
(0.00089019769 -0.0017739969 -5.0221475e-07)
(0.00094033627 -0.0025658627 -5.5977665e-07)
(0.00099535181 -0.0032083444 -5.7749565e-07)
(0.0010456639 -0.0038877685 -5.742646e-07)
(0.001081945 -0.0045735928 -5.5963609e-07)
(0.0010979452 -0.0054412635 -5.3945109e-07)
(0.0010940929 -0.0064707527 -5.1638069e-07)
(0.0010731374 -0.0074487678 -4.917943e-07)
(0.0010366415 -0.0083189778 -4.6765078e-07)
(0.00098851418 -0.0090679249 -4.4453221e-07)
(0.00093083947 -0.0096878359 -4.2265161e-07)
(0.00086539012 -0.01018519 -4.0157016e-07)
(0.00079383417 -0.010566532 -3.8089039e-07)
(0.0007178108 -0.010832825 -3.6024461e-07)
(0.00063904701 -0.010976162 -3.3967115e-07)
(0.00055899559 -0.011016749 -3.1784039e-07)
(0.00047854616 -0.010983846 -2.94588e-07)
(0.0003986236 -0.010892113 -2.6915673e-07)
(0.00032005613 -0.010751414 -2.4063572e-07)
(0.00024325893 -0.01057073 -2.0754248e-07)
(0.00016859613 -0.010356875 -1.678342e-07)
(9.6696264e-05 -0.010081292 -1.1800771e-07)
(2.9623579e-05 -0.0097014556 -5.7929443e-08)
(0.0031823594 -0.00094246149 -2.4986094e-07)
(0.0031563833 -0.0044406641 -5.1753081e-07)
(0.003125948 -0.0055902715 -6.4115099e-07)
(0.0030039636 -0.0085653395 -6.7294055e-07)
(0.0028599686 -0.011220497 -6.6584649e-07)
(0.0026846762 -0.013671969 -6.4306161e-07)
(0.0024880202 -0.01547729 -6.1349193e-07)
(0.0022764666 -0.016477329 -5.8404032e-07)
(0.0020641065 -0.01681471 -5.5501671e-07)
(0.0018567074 -0.016742898 -5.2447072e-07)
(0.0016544674 -0.016360757 -4.9665481e-07)
(0.0014641049 -0.015778802 -4.7107119e-07)
(0.0012847121 -0.015012252 -4.4816631e-07)
(0.0011110904 -0.0141156 -4.2653656e-07)
(0.00095348102 -0.013144232 -4.0562454e-07)
(0.00081220031 -0.012143584 -3.8516133e-07)
(0.00068616729 -0.011152068 -3.648153e-07)
(0.00057381192 -0.010203111 -3.4406748e-07)
(0.00047381161 -0.0093197454 -3.224252e-07)
(0.00038438917 -0.0085236729 -2.9922217e-07)
(0.00030389287 -0.0078311247 -2.7360731e-07)
(0.00023059072 -0.007247709 -2.4434168e-07)
(0.00016289534 -0.0067731416 -2.0956562e-07)
(9.9022158e-05 -0.0063662451 -1.6615995e-07)
(3.6822531e-05 -0.006080301 -1.0433743e-07)
(0.010782994 -0.0085176531 -4.3837586e-07)
(0.0084479232 -0.025066401 -7.5610506e-07)
(0.0072830223 -0.027029566 -8.4182559e-07)
(0.005675139 -0.031002127 -8.2978839e-07)
(0.004368522 -0.028352458 -7.9039195e-07)
(0.0032339484 -0.02462749 -7.4229488e-07)
(0.0022879356 -0.020098061 -6.9460298e-07)
(0.0015339565 -0.015286126 -6.5014167e-07)
(0.00094466638 -0.010444409 -6.1054272e-07)
(0.0004879517 -0.005977177 -5.7416302e-07)
(0.00014535048 -0.0019398237 -5.4142362e-07)
(-0.00010484287 0.0015466046 -5.1101717e-07)
(-0.00027957647 0.0047764647 -4.8670584e-07)
(-0.00039200977 0.0078707139 -4.6372821e-07)
(-0.00046095912 0.010734633 -4.4159817e-07)
(-0.00049273741 0.013223669 -4.2049007e-07)
(-0.00049493279 0.015303347 -4.0007122e-07)
(-0.00047390223 0.016988657 -3.7991682e-07)
(-0.00043473901 0.018305826 -3.5956094e-07)
(-0.00038181988 0.019283928 -3.3847066e-07)
(-0.00031866151 0.01995046 -3.1598355e-07)
(-0.0002484394 0.020331414 -2.9117165e-07)
(-0.00017362518 0.020423464 -2.6254344e-07)
(-9.7533558e-05 0.020283585 -2.3455143e-07)
(-2.2040761e-05 0.019568423 -2.0666691e-07)
(0.012496807 0.025502809 -7.9853012e-07)
(0.0019459908 0.0015258486 -1.1296898e-06)
(-0.00025393954 0.050951118 -1.1328731e-06)
(-0.0017154607 0.05381626 -1.0602837e-06)
(-0.0030898037 0.067602988 -9.8384119e-07)
(-0.0041493467 0.077520373 -8.9799063e-07)
(-0.0047294938 0.084392821 -8.2095622e-07)
(-0.0048813572 0.090116065 -7.5389322e-07)
(-0.004767703 0.0943021 -6.9539494e-07)
(-0.0045238791 0.096889629 -6.4524043e-07)
(-0.004211323 0.09834274 -6.0291104e-07)
(-0.0038452406 0.098722753 -5.5878343e-07)
(-0.0034781799 0.098386431 -5.3387115e-07)
(-0.0031252382 0.097047587 -5.0689138e-07)
(-0.0027713087 0.094842183 -4.8019231e-07)
(-0.0024281232 0.092379624 -4.5637018e-07)
(-0.0021045376 0.089721022 -4.3430797e-07)
(-0.001801094 0.086948382 -4.1336307e-07)
(-0.0015169175 0.084137663 -3.9302482e-07)
(-0.0012501194 0.081345937 -3.7280419e-07)
(-0.00099837969 0.078609468 -3.5217092e-07)
(-0.00075942129 0.07597021 -3.304775e-07)
(-0.00053073495 0.073399951 -3.0705663e-07)
(-0.00031043869 0.071086267 -2.8278776e-07)
(-9.2902359e-05 0.067587999 -2.589818e-07)
(-0.0029849986 1.1896499 -2.506169e-06)
(-0.0015986403 0.96998199 -1.9952158e-06)
(-0.0015340502 0.8716869 -1.6201228e-06)
(-0.0010690781 0.77719978 -1.3319425e-06)
(-0.00084355421 0.67996537 -1.1164135e-06)
(-0.00068243313 0.58806845 -9.5953037e-07)
(-0.00055191755 0.50939657 -8.4511328e-07)
(-0.00044959736 0.44548765 -7.6102479e-07)
(-0.00036631072 0.39280648 -6.9236688e-07)
(-0.00029670113 0.34786997 -6.3903362e-07)
(-0.00024016911 0.30907923 -5.9753579e-07)
(-0.00019456571 0.27568615 -5.6133583e-07)
(-0.00015936864 0.24713011 -5.3128294e-07)
(-0.00013560403 0.22268194 -5.0494799e-07)
(-0.00011351141 0.20168333 -4.8107375e-07)
(-9.4588832e-05 0.18365338 -4.591216e-07)
(-7.8716725e-05 0.1681608 -4.3852762e-07)
(-6.506278e-05 0.15484198 -4.1884481e-07)
(-5.3152701e-05 0.14339387 -3.9971525e-07)
(-4.262487e-05 0.13356677 -3.8079485e-07)
(-3.3292891e-05 0.12514407 -3.6169391e-07)
(-2.4813078e-05 0.11798342 -3.4187871e-07)
(-1.6965657e-05 0.11184259 -3.2102037e-07)
(-9.6700657e-06 0.10700472 -2.9887391e-07)
(-2.7112959e-06 0.10097329 -2.7487073e-07)
(-0.012389365 0.099391053 -1.234932e-06)
(-0.0018063219 0.1051834 -1.2752277e-06)
(0.0003734408 0.10942026 -1.2299661e-06)
(0.0018485958 0.11004506 -1.1393099e-06)
(0.0032151177 0.11112098 -1.0366443e-06)
(0.0042583036 0.11204959 -9.3695068e-07)
(0.0048246657 0.11319596 -8.4772916e-07)
(0.0049613873 0.11433226 -7.712367e-07)
(0.0048022642 0.1148383 -6.8835318e-07)
(0.004535295 0.11467528 -6.4615993e-07)
(0.0042402005 0.11381475 -6.0414931e-07)
(0.0038914951 0.11203509 -5.6097586e-07)
(0.0035153582 0.10943748 -5.2491982e-07)
(0.0031415685 0.10634597 -4.9400004e-07)
(0.0027801656 0.10301338 -4.6690033e-07)
(0.0024370413 0.099562332 -4.4266023e-07)
(0.0021120654 0.096074359 -4.205364e-07)
(0.0018069099 0.092616043 -3.9991887e-07)
(0.0015210157 0.089237553 -3.8027294e-07)
(0.0012528575 0.085976046 -3.6107734e-07)
(0.0010002923 0.082852478 -3.4174369e-07)
(0.00076098555 0.079896137 -3.2150387e-07)
(0.00053220149 0.077068949 -3.0066927e-07)
(0.000311773 0.074562346 -2.7802572e-07)
(9.3857047e-05 0.07085088 -2.5522205e-07)
(-0.0082618442 -0.037165959 -8.6429731e-07)
(-0.0070288927 -0.035106261 -9.285224e-07)
(-0.0057600508 -0.03364391 -9.1514166e-07)
(-0.0044995382 -0.030503863 -8.6858101e-07)
(-0.0033403546 -0.025915213 -8.0989754e-07)
(-0.0023343385 -0.020710227 -7.4831058e-07)
(-0.001507711 -0.015345027 -6.9108853e-07)
(-0.00085530746 -0.010029613 -6.3895947e-07)
(-0.00035539939 -0.0052570621 -5.9012472e-07)
(2.1216962e-05 -0.0010292303 -5.5372795e-07)
(0.0002948063 0.0026353061 -5.2041346e-07)
(0.0004851173 0.0062427556 -4.8935273e-07)
(0.00060882498 0.0096892198 -4.6145838e-07)
(0.00068085063 0.012784108 -4.364146e-07)
(0.00071096398 0.01544979 -4.1364922e-07)
(0.00070669378 0.017682677 -3.9263795e-07)
(0.00067826387 0.01952045 -3.7295722e-07)
(0.00062992106 0.021000238 -3.5412366e-07)
(0.00056591304 0.022138811 -3.3563727e-07)
(0.00048985917 0.022956413 -3.1692316e-07)
(0.00040484665 0.023473586 -2.9718133e-07)
(0.00031338868 0.023710417 -2.7496943e-07)
(0.00021871047 0.023676124 -2.5330519e-07)
(0.00012375396 0.023414722 -2.2691122e-07)
(3.0032366e-05 0.022548572 -2.0104498e-07)
(-0.0037698889 -0.013929668 -5.9148397e-07)
(-0.0036561248 -0.016287511 -6.6688483e-07)
(-0.0034729753 -0.018991769 -6.8149769e-07)
(-0.0032495702 -0.021009433 -6.6448257e-07)
(-0.0029919555 -0.022339482 -6.3444643e-07)
(-0.0027309946 -0.022887888 -6.0225288e-07)
(-0.0024699909 -0.022803137 -5.6251971e-07)
(-0.002210624 -0.022288826 -5.2555986e-07)
(-0.0019612354 -0.021500288 -4.9188405e-07)
(-0.0017291893 -0.020496402 -4.6320815e-07)
(-0.0015128644 -0.019352324 -4.3719099e-07)
(-0.0013096158 -0.018052407 -4.1321673e-07)
(-0.0011235592 -0.016669252 -3.9125339e-07)
(-0.00095710639 -0.015256383 -3.7111837e-07)
(-0.00081000147 -0.013852845 -3.5227971e-07)
(-0.00068184616 -0.012496711 -3.3432627e-07)
(-0.00056817119 -0.011230849 -3.1713443e-07)
(-0.0004689484 -0.010085749 -3.0013266e-07)
(-0.00038261803 -0.009065719 -2.8278886e-07)
(-0.00030745648 -0.0081731683 -2.64464e-07)
(-0.00024168332 -0.0074094602 -2.4428041e-07)
(-0.00018340027 -0.0067748429 -2.210379e-07)
(-0.00013063266 -0.0062665233 -1.9349906e-07)
(-8.111722e-05 -0.0058447009 -1.5623535e-07)
(-3.2040243e-05 -0.005564111 -1.0024631e-07)
(-0.00071166089 -0.003299395 -4.2992535e-07)
(-0.00086395047 -0.0040946014 -4.9954194e-07)
(-0.00099218147 -0.0049079238 -5.2674004e-07)
(-0.0010989247 -0.0056511388 -5.2745699e-07)
(-0.0011845132 -0.00642816 -5.1347196e-07)
(-0.0012275713 -0.0074408841 -4.9196434e-07)
(-0.0012426024 -0.008622459 -4.6563477e-07)
(-0.0012335255 -0.0097043129 -4.3898446e-07)
(-0.0012030376 -0.010648636 -4.1384094e-07)
(-0.0011562612 -0.011434881 -3.9095666e-07)
(-0.0010968557 -0.012071603 -3.6987447e-07)
(-0.0010283414 -0.012556122 -3.5029178e-07)
(-0.00095321926 -0.012891257 -3.3203497e-07)
(-0.00087416239 -0.013068811 -3.1532982e-07)
(-0.00079266821 -0.013124527 -2.99167e-07)
(-0.00070872388 -0.013092951 -2.8372225e-07)
(-0.0006259184 -0.012996671 -2.6828453e-07)
(-0.0005450129 -0.012849733 -2.5255719e-07)
(-0.00046545031 -0.012661671 -2.3604266e-07)
(-0.00038730185 -0.012440248 -2.1810885e-07)
(-0.00031075232 -0.012191652 -1.9779387e-07)
(-0.00023601554 -0.011921783 -1.736939e-07)
(-0.00016347265 -0.011634416 -1.4373542e-07)
(-9.3761335e-05 -0.01129228 -1.0360736e-07)
(-2.8969685e-05 -0.010857799 -5.2543031e-08)
(0.00037721279 -0.00050511243 -3.2737266e-07)
(0.00023693593 -0.00083939138 -3.8289683e-07)
(0.00013762562 -0.001188793 -4.1153165e-07)
(5.0914627e-05 -0.0015441043 -4.204554e-07)
(-3.7090275e-05 -0.0018983648 -4.1640949e-07)
(-0.00011339818 -0.0022605549 -4.0440265e-07)
(-0.0001818898 -0.0026384254 -3.8769437e-07)
(-0.00023868674 -0.0030112365 -3.6914015e-07)
(-0.0002827307 -0.003381659 -3.5045942e-07)
(-0.00031403625 -0.0037437688 -3.3250435e-07)
(-0.0003330552 -0.0040937424 -3.1546135e-07)
(-0.00034095104 -0.0044284996 -2.9932793e-07)
(-0.00033900967 -0.0047597096 -2.8405288e-07)
(-0.00032968525 -0.0051007268 -2.6958237e-07)
(-0.00031442781 -0.0054308116 -2.5558054e-07)
(-0.00029463717 -0.0057165563 -2.4184034e-07)
(-0.00027139442 -0.005951936 -2.2797229e-07)
(-0.00024361296 -0.0061341461 -2.1360339e-07)
(-0.00021280659 -0.0062616382 -1.9824766e-07)
(-0.00017987608 -0.0063341746 -1.8151598e-07)
(-0.00014550595 -0.0063534292 -1.6245369e-07)
(-0.00011040441 -0.0063223008 -1.3981113e-07)
(-7.5506102e-05 -0.0062459417 -1.1219525e-07)
(-4.1754091e-05 -0.0061071106 -7.7284754e-08)
(-1.1041647e-05 -0.0058351965 -3.5562827e-08)
(0.00053108775 0.00034900426 -2.568617e-07)
(0.00044107321 0.00032320719 -2.9867242e-07)
(0.00037666969 0.00027067177 -3.2398172e-07)
(0.00032791989 0.00019602893 -3.3554013e-07)
(0.00029199155 0.0001043783 -3.3688146e-07)
(0.00025209051 -3.5039945e-07 -3.3120301e-07)
(0.00021446993 -0.00011458702 -3.2104301e-07)
(0.00017906906 -0.00023042866 -3.0845792e-07)
(0.00014517281 -0.00034946765 -2.9486878e-07)
(0.0001134001 -0.00047196176 -2.8112058e-07)
(8.4755715e-05 -0.00059704062 -2.6761709e-07)
(5.9924126e-05 -0.0007215707 -2.5452511e-07)
(3.9356036e-05 -0.00084272724 -2.418853e-07)
(2.3209101e-05 -0.00095970973 -2.2965022e-07)
(1.0778254e-05 -0.0010695041 -2.1765275e-07)
(1.0597689e-06 -0.0011672679 -2.0568945e-07)
(-6.4705972e-06 -0.001250953 -1.934835e-07)
(-1.0435308e-05 -0.0013199873 -1.8071922e-07)
(-1.2186824e-05 -0.0013744386 -1.6702106e-07)
(-1.2345365e-05 -0.0014133201 -1.519683e-07)
(-1.1290905e-05 -0.0014362742 -1.3508405e-07)
(-9.4096381e-06 -0.0014437791 -1.1559139e-07)
(-6.9044252e-06 -0.0014383455 -9.2710282e-08)
(-3.8747453e-06 -0.0014193985 -6.5597695e-08)
(-5.3665404e-07 -0.0013478882 -3.2773581e-08)
(0.00045282647 0.00051072362 -2.0371963e-07)
(0.00040039853 0.0005583338 -2.3460726e-07)
(0.00035740535 0.00059828082 -2.5537292e-07)
(0.00032203592 0.00062877864 -2.6679851e-07)
(0.00029157255 0.0006517749 -2.7061647e-07)
(0.00026312692 0.0006667407 -2.6874442e-07)