/*--------------------------------*- C++ -*----------------------------------*\
| =========                 |                                                 |
| \\      /  F ield         | OpenFOAM: The Open Source CFD Toolbox           |
|  \\    /   O peration     | Version:  4.0                                   |
|   \\  /    A nd           | Web:      www.OpenFOAM.org                      |
|    \\/     M anipulation  |                                                 |
\*---------------------------------------------------------------------------*/
FoamFile
{
    version     2.0;
    format      ascii;
    class       volScalarField;
    location    "0.24";
    object      k;
}
// * * * * * * * * * * * * * * * * * * * * * * * * * * * * * * * * * * * * * //

dimensions      [0 2 -2 0 0 0 0];

internalField   nonuniform List<scalar> 
1740
(
0.0086155077
0.0091022577
0.018491873
0.0090665874
0.0099879374
0.027477788
0.0094826253
0.010582973
0.034506856
0.0097585903
0.010742789
0.041563659
0.0098923438
0.0110771
0.04767099
0.010010198
0.011414304
0.051704568
0.010007797
0.01163817
0.055904362
0.010008888
0.012340002
0.059599936
0.0100442
0.012723436
0.061663612
0.010079083
0.012675635
0.063885472
0.010029514
0.012831289
0.066060874
0.0099185991
0.013060562
0.067467001
0.0098614467
0.013232574
0.068563253
0.0097881964
0.013484344
0.069729195
0.0096838061
0.013815357
0.070469783
0.0095910053
0.013764629
0.070909387
0.0094801186
0.013900478
0.071210143
0.0094034611
0.014063477
0.072346544
0.0093429632
0.014287098
0.072977804
0.0091914505
0.014429653
0.072237259
0.0090415589
0.014519888
0.072842258
0.0088823988
0.014718878
0.073230132
0.0087436761
0.014377043
0.072589884
0.0086471955
0.014254753
0.073070947
0.0086107978
0.014430646
0.073597121
0.0084880602
0.014870806
0.073096429
0.0083617051
0.014850297
0.072779305
0.008295944
0.014924751
0.072618635
0.008310229
0.015061722
0.072133348
0.0089391173
0.016152015
0.066999325
0.012710179
0.01817069
0.047549859
0.023950762
0.031207752
0.039924343
0.010287212
0.012553738
0.013749188
0.0042555262
0.0045880895
0.0046525458
0.0020638705
0.0021065683
0.0020820584
0.001128552
0.0011293783
0.0011109744
0.00066971702
0.00066692345
0.00065818872
0.00041822233
0.00041647558
0.00041281567
0.00026717134
0.00026633131
0.00026486989
0.00017033275
0.00016994052
0.00016932537
0.00010621729
0.00010601372
0.00010569927
6.3887148e-05
6.3763183e-05
6.3558079e-05
3.6852545e-05
3.6770278e-05
3.6622246e-05
2.0487839e-05
2.0434034e-05
2.0331306e-05
1.1182304e-05
1.1149325e-05
1.1084271e-05
6.2236597e-06
6.2054e-06
6.1687195e-06
3.7493606e-06
3.7404723e-06
3.7224615e-06
2.6000482e-06
2.5965116e-06
2.5894046e-06
2.1172631e-06
2.1165414e-06
2.1152429e-06
1.9531654e-06
1.9538026e-06
1.9553251e-06
1.9345226e-06
1.9357475e-06
1.9384889e-06
1.9795134e-06
1.9809455e-06
1.9841099e-06
2.0513553e-06
2.0528192e-06
2.0560391e-06
2.1342703e-06
2.1356912e-06
2.1388097e-06
2.2217752e-06
2.2231242e-06
2.2260814e-06
2.3112875e-06
2.3125554e-06
2.3153332e-06
2.4017686e-06
2.4029546e-06
2.4055518e-06
2.4927463e-06
2.4938525e-06
2.4962743e-06
2.5839291e-06
2.5849586e-06
2.5872122e-06
2.6750622e-06
2.6760184e-06
2.6781113e-06
2.7658771e-06
2.7667635e-06
2.7687033e-06
2.8560744e-06
2.8568942e-06
2.8586883e-06
2.9453175e-06
2.9460741e-06
2.9477296e-06
3.0332266e-06
3.0339232e-06
3.0354472e-06
3.1193662e-06
3.1200058e-06
3.1214053e-06
3.2032174e-06
3.2038032e-06
3.205085e-06
3.2841212e-06
3.2846564e-06
3.2858272e-06
3.3611668e-06
3.3616544e-06
3.3627213e-06
3.4329869e-06
3.4334303e-06
3.4344001e-06
3.4974042e-06
3.4978065e-06
3.4986865e-06
3.5508542e-06
3.5512187e-06
3.5520163e-06
3.5875085e-06
3.5878388e-06
3.5885615e-06
3.5980432e-06
3.5983426e-06
3.5989978e-06
3.5680824e-06
3.5683538e-06
3.5689482e-06
3.4765499e-06
3.4767951e-06
3.4773323e-06
3.2945637e-06
3.2947799e-06
3.2952557e-06
2.9861841e-06
2.9863574e-06
2.9867474e-06
2.513293e-06
2.5133881e-06
2.5136308e-06
1.848169e-06
1.8481414e-06
1.8481608e-06
9.9180028e-07
9.9169026e-07
9.9154803e-07
0.05652557
0.061149232
0.046221451
0.046691444
0.012494208
0.011354474
0.004348611
0.0041174098
0.0019913397
0.0019316686
0.0010804861
0.0010639897
0.00064790484
0.00064424942
0.00040952484
0.00040955328
0.00026390943
0.00026465011
0.00016904
0.00016961289
0.0001055452
0.00010579882
6.3405918e-05
6.3426549e-05
3.6475403e-05
3.6388535e-05
2.0212778e-05
2.0107657e-05
1.1003279e-05
1.0920789e-05
6.1212978e-06
6.0699888e-06
3.6988318e-06
3.672739e-06
2.5802448e-06
2.5704408e-06
2.1139663e-06
2.1133012e-06
1.9579182e-06
1.9617974e-06
1.9427519e-06
1.9485862e-06
1.9889368e-06
1.995405e-06
2.0609165e-06
2.0674016e-06
2.143519e-06
2.149759e-06
2.2305402e-06
2.2364385e-06
2.319518e-06
2.325049e-06
2.4094627e-06
2.4146289e-06
2.4999198e-06
2.5047339e-06
2.5906036e-06
2.5950813e-06
2.6812605e-06
2.6854177e-06
2.7716217e-06
2.7754739e-06
2.8613873e-06
2.8649494e-06
2.95022e-06
2.9535065e-06
3.0377396e-06
3.0407646e-06
3.1235102e-06
3.1262875e-06
3.2070127e-06
3.2095559e-06
3.287588e-06
3.2899109e-06
3.3643256e-06
3.3664419e-06
3.4358586e-06
3.4377823e-06
3.5000099e-06
3.5017554e-06
3.5532158e-06
3.5547977e-06
3.5896483e-06
3.591082e-06
3.5999834e-06
3.6012837e-06
3.5698425e-06
3.571023e-06
3.4781418e-06
3.4792111e-06
3.2959773e-06
3.2969334e-06
2.9873586e-06
2.9881817e-06
2.5140801e-06
2.5147357e-06
1.8483896e-06
1.8488585e-06
9.9158622e-07
9.9187635e-07
4.2698487e-06
2.6918141e-05
0.00013401545
0.00030401385
0.00046064628
0.00057096575
0.00064043883
0.00068300336
0.00071036769
0.00072956828
0.0007444649
0.00075757884
0.00076922993
0.00077907035
0.00078677817
0.00079189601
0.00079365045
0.00079072161
0.00078088893
0.00076052002
0.00072386325
0.00066219611
0.00056320314
0.00041135765
0.0001878713
2.5354948e-06
5.4653485e-05
0.00025056892
0.00051484782
0.00072617368
0.00085702216
0.00093211347
0.00097553074
0.0010026154
0.0010212917
0.0010356425
0.0010478902
0.0010583024
0.0010664987
0.0010720888
0.0010745535
0.0010729841
0.0010658293
0.0010504297
0.0010223671
0.00097451507
0.00089565791
0.0007687724
0.00056982608
0.00026922678
7.9609541e-06
0.00015985266
0.00061542926
0.0010786078
0.0013610455
0.0015031383
0.0015698219
0.0016003607
0.0016146395
0.0016209925
0.0016236934
0.0016239523
0.0016224101
0.0016185478
0.0016118802
0.0016020115
0.0015880713
0.0015685675
0.0015406236
0.0014993305
0.0014365374
0.0013385949
0.0011821052
0.00092589103
0.00049724308
3.7677176e-05
0.00057933212
0.0016852191
0.0024356376
0.0027718178
0.0028851037
0.0028938279
0.0028628488
0.0028217986
0.0027755565
0.0027290836
0.0026842327
0.0026413531
0.0025972539
0.0025512441
0.0025037078
0.0024542383
0.002401616
0.0023434905
0.0022756767
0.0021910508
0.0020773053
0.0019112908
0.0016416978
0.0011155213
0.00028222356
0.0024495328
0.0049169283
0.0060373326
0.0063832253
0.0063211207
0.0060913983
0.0058282533
0.0055778425
0.0053259685
0.0050844219
0.0048584776
0.0046529172
0.0044531931
0.0042584353
0.0040731326
0.0038981686
0.00373301
0.0035760561
0.003424216
0.0032724328
0.0031132614
0.002936579
0.0027348245
0.0025261922
0.002365932
0.010547327
0.016606024
0.018557809
0.018094467
0.016532749
0.014713134
0.013021015
0.011536352
0.010257369
0.0091634268
0.0082318197
0.0074371204
0.0067553613
0.0061685425
0.0056630149
0.0052271592
0.0048505103
0.0045236447
0.0042378824
0.0039847387
0.0037558361
0.0035433133
0.0033472824
0.0031837292
0.045173777
0.034249473
0.02669651
0.021488066
0.017799757
0.015075922
0.012978799
0.011320251
0.0099889722
0.0089070562
0.0080156678
0.0072707022
0.0066393269
0.006097278
0.0056266046
0.0052145275
0.0048520274
0.0045322963
0.0042496899
0.0039990108
0.0037749324
0.003571982
0.0033851098
0.0032164415
0.0030820142
0.037349363
0.031042274
0.02782444
0.025182882
0.022299178
0.019315255
0.016590238
0.014286836
0.012401967
0.010857619
0.0095839772
0.0085242843
0.007635015
0.006886096
0.0062534379
0.0057172741
0.0052610766
0.0048710608
0.0045355613
0.0042442976
0.0039876457
0.0037564549
0.0035422604
0.0033448553
0.0031802191
0.010218235
0.0095446136
0.0092040505
0.0088831072
0.0084198841
0.0078541033
0.0072964387
0.0067984807
0.0063456276
0.0059451676
0.0055942902
0.0052869437
0.0049977495
0.0047295144
0.0044835042
0.0042589409
0.0040538326
0.0038655121
0.0036904584
0.0035241719
0.0033606242
0.003191671
0.0030066057
0.0027973459
0.0025815312
0.003959604
0.0038860273
0.0038628556
0.0038210349
0.003725382
0.0035889226
0.0034475501
0.0033160488
0.0031968326
0.0030919469
0.0030004067
0.0029190686
0.0028422861
0.0027693966
0.0027002484
0.0026341645
0.002569774
0.0025049182
0.0024363965
0.0023594225
0.0022665048
0.0021451314
0.0019719561
0.0016947416
0.0011555405
0.0019137733
0.0019262311
0.0019500097
0.0019632329
0.0019548326
0.0019282717
0.0018944841
0.0018604177
0.0018290338
0.0018015767
0.0017778112
0.0017564873
0.001735958
0.001715573
0.0016952064
0.0016739726
0.0016504495
0.0016224306
0.001586552
0.0015376297
0.0014674611
0.0013625968
0.0012000068
0.00093871161
0.00050568737
0.0010669803
0.0010838649
0.0011056198
0.0011234247
0.0011327248
0.0011341669
0.0011312827
0.0011270007
0.001122995
0.0011199649
0.0011178556
0.0011161206
0.0011140542
0.0011111303
0.0011068969
0.0011005896
0.0010909676
0.0010760996
0.0010530387
0.0010173125
0.00096214147
0.00087728467
0.00074750232
0.00055127466
0.00026222176
0.00064964925
0.00066180734
0.00067664133
0.00069024289
0.0007003936
0.00070696332
0.00071109893
0.00071405187
0.00071666805
0.00071934373
0.00072208716
0.00072464456
0.00072664659
0.00072771834
0.0007274264
0.00072512681
0.00071984022
0.00071008036
0.00069362295
0.00066720476
0.00062617529
0.00056419314
0.00047319033
0.00034384254
0.00016426086
0.00041394053
0.00042175754
0.00043111712
0.00044017168
0.00044776576
0.00045362345
0.00045808127
0.00046164861
0.00046473093
0.00046753737
0.00047008111
0.00047222893
0.00047376679
0.00047443696
0.00047391689
0.00047175121
0.00046726523
0.00045945115
0.00044683053
0.00042731837
0.00039817255
0.00035623853
0.00029901564
0.00022800845
0.00015928469
0.00026754981
0.00027222008
0.00027777089
0.00028328413
0.0002881289
0.00029206052
0.0002951433
0.00029756406
0.00029950342
0.00030106173
0.00030224448
0.00030297718
0.00030313283
0.00030254816
0.00030101606
0.00029825281
0.0002938474
0.00028719559
0.0002774276
0.00026336537
0.00024359459
0.00021683184
0.00018294816
0.00014532287
0.0001152736
0.000171258
0.00017380305
0.00017682466
0.00017985509
0.00018253824
0.00018469601
0.00018630649
0.0001874278
0.00018813316
0.00018846687
0.00018842871
0.00018797731
0.00018704183
0.00018553065
0.00018332979
0.00018028842
0.00017619354
0.00017073452
0.00016346839
0.00015381216
0.00014111791
0.00012492464
0.00010551635
8.4880038e-05
6.5988715e-05
0.00010656616
0.0001077722
0.00010921194
0.00011064586
0.00011187504
0.00011278214
0.0001133286
0.00011352533
0.00011339911
0.00011296907
0.00011223533
0.00011117876
0.00010976578
0.00010795409
0.00010569375
0.00010292196
9.9551187e-05
9.545159e-05
9.0433935e-05
8.4246973e-05
7.6613245e-05
6.7323556e-05
5.6350356e-05
4.3685719e-05
2.7326021e-05
6.3674665e-05
6.4119951e-05
6.4664842e-05
6.5188149e-05
6.5582844e-05
6.5778668e-05
6.5744441e-05
6.5477356e-05
6.4987002e-05
6.4283003e-05
6.3368146e-05
6.2237116e-05
6.0879104e-05
5.9280912e-05
5.742857e-05
5.5305719e-05
5.2888193e-05
5.0135254e-05
4.6980095e-05
4.3325333e-05
3.9050349e-05
3.4026101e-05
2.8089544e-05
2.0821468e-05
1.0812988e-05
3.6390679e-05
3.6471096e-05
3.6585712e-05
3.6675878e-05
3.6686971e-05
3.6580755e-05
3.6337984e-05
3.5954651e-05
3.5434926e-05
3.4784939e-05
3.4009105e-05
3.3108949e-05
3.2084282e-05
3.0934855e-05
2.96614e-05
2.8265045e-05
2.6744613e-05
2.5091962e-05
2.3286261e-05
2.1289121e-05
1.9041911e-05
1.6460535e-05
1.3408853e-05
9.6199837e-06
4.5874765e-06
2.0031403e-05
1.9981374e-05
1.9938997e-05
1.9877608e-05
1.9771278e-05
1.9600894e-05
1.9356455e-05
1.9035653e-05
1.8640875e-05
1.8176402e-05
1.7646311e-05
1.7053857e-05
1.6401926e-05
1.5693655e-05
1.4932875e-05
1.4123763e-05
1.3269332e-05
1.2368791e-05
1.1414118e-05
1.0386331e-05
9.2519389e-06
7.9582035e-06
6.4244266e-06
4.537133e-06
2.2022567e-06
1.0844967e-05
1.0776035e-05
1.0706771e-05
1.0625895e-05
1.052184e-05
1.0385969e-05
1.0213557e-05
1.0003698e-05
9.7579145e-06
9.4788735e-06
9.1694236e-06
8.8322533e-06
8.4698061e-06
8.0847219e-06
7.6798215e-06
7.2577451e-06
6.8200092e-06
6.3654191e-06
5.8879376e-06
5.3743167e-06
4.8019841e-06
4.1372119e-06
3.335664e-06
2.3542469e-06
1.2003517e-06
6.0191314e-06
5.9694879e-06
5.9185247e-06
5.8617411e-06
5.7943598e-06
5.7126397e-06
5.6146086e-06
5.4999251e-06
5.3694715e-06
5.2247074e-06
5.067231e-06
4.8985923e-06
4.7201613e-06
4.5332757e-06
4.3391279e-06
4.1383827e-06
3.9305116e-06
3.7127271e-06
3.4785866e-06
3.2165192e-06
2.9085555e-06
2.5304731e-06
2.0550981e-06
1.4640797e-06
7.7678846e-07
3.6463837e-06
3.6203852e-06
3.5939554e-06
3.5653753e-06
3.5327352e-06
3.494481e-06
3.4497488e-06
3.398396e-06
3.340797e-06
3.2775984e-06
3.2095141e-06
3.1372029e-06
3.0611932e-06
2.9818322e-06
2.8991363e-06
2.8124519e-06
2.7198851e-06
2.6174762e-06
2.4981603e-06
2.3506989e-06
2.1589578e-06
1.902583e-06
1.5608399e-06
1.122192e-06
6.0185241e-07
2.5610153e-06
2.5523534e-06
2.5442151e-06
2.535935e-06
2.526719e-06
2.5158846e-06
2.5029951e-06
2.4878982e-06
2.4706552e-06
2.4514374e-06
2.4304305e-06
2.4077697e-06
2.3834632e-06
2.3572938e-06
2.3286245e-06
2.2960829e-06
2.2570308e-06
2.2068332e-06
2.1379576e-06
2.0390664e-06
1.8945286e-06
1.685201e-06
1.392188e-06
1.0052526e-06
5.3799452e-07
2.1136805e-06
2.1152777e-06
2.1179867e-06
2.1215045e-06
2.1254441e-06
2.1294393e-06
2.1332015e-06
2.1365427e-06
2.1393536e-06
2.1415627e-06
2.1430909e-06
2.1438016e-06
2.1434319e-06
2.141475e-06
2.136976e-06
2.128201e-06
2.1121328e-06
2.0837632e-06
2.0352298e-06
1.9549565e-06
1.8272191e-06
1.6329801e-06
1.3535565e-06
9.7862993e-07
5.2287118e-07
1.9671117e-06
1.9738947e-06
1.9820541e-06
1.9913975e-06
2.0016789e-06
2.0126426e-06
2.0240503e-06
2.0356926e-06
2.0473843e-06
2.0589463e-06
2.0701799e-06
2.080826e-06
2.0904959e-06
2.0985479e-06
2.1038766e-06
2.1045719e-06
2.0974131e-06
2.0771609e-06
2.0356916e-06
1.9611353e-06
1.8374439e-06
1.645249e-06
1.3655509e-06
9.8781393e-07
5.2831143e-07
1.9560085e-06
1.9649781e-06
1.9753901e-06
1.9870844e-06
1.9998646e-06
2.0135175e-06
2.0278263e-06
2.0425779e-06
2.0575615e-06
2.0725595e-06
2.0873281e-06
2.1015598e-06
2.1148134e-06
2.1263874e-06
2.1351033e-06
2.1389569e-06
2.1345974e-06
2.1166117e-06
2.0766404e-06
2.0024988e-06
1.8777337e-06
1.6825021e-06
1.3973004e-06
1.0109945e-06
5.3853007e-07
2.0034729e-06
2.0130651e-06
2.0240678e-06
2.0363322e-06
2.0496838e-06
2.0639309e-06
2.0788725e-06
2.094302e-06
2.1100072e-06
2.125763e-06
2.1413144e-06
2.1563393e-06
2.1703771e-06
2.1826994e-06
2.1920865e-06
2.1964707e-06
2.1923999e-06
2.1743061e-06
2.1336007e-06
2.0577755e-06
1.929951e-06
1.7297831e-06
1.4372373e-06
1.0405003e-06
5.5493352e-07
2.0754293e-06
2.084911e-06
2.095731e-06
2.1077487e-06
2.120803e-06
2.1347182e-06
2.1493074e-06
2.1643756e-06
2.1797185e-06
2.1951166e-06
2.210317e-06
2.224997e-06
2.2386903e-06
2.2506537e-06
2.2596388e-06
2.2635243e-06
2.2587657e-06
2.2396435e-06
2.1973378e-06
2.1190102e-06
1.9873493e-06
1.7815141e-06
1.4809828e-06
1.0734119e-06
5.748785e-07
2.1574574e-06
2.1665224e-06
2.1768415e-06
2.1882821e-06
2.2006949e-06
2.2139172e-06
2.2277758e-06
2.2420882e-06
2.2566616e-06
2.2712858e-06
2.2857153e-06
2.2996312e-06
2.3125663e-06
2.3237675e-06
2.3319607e-06
2.3349735e-06
2.3291703e-06
2.3086773e-06
2.2644373e-06
2.1832724e-06
2.0474316e-06
1.8355879e-06
1.5268416e-06
1.1088513e-06
5.9758438e-07
2.2437032e-06
2.2522446e-06
2.2619556e-06
2.2727119e-06
2.2843747e-06
2.2967935e-06
2.3098071e-06
2.3232454e-06
2.3369273e-06
2.3506528e-06
2.364185e-06
2.3772105e-06
2.3892621e-06
2.3995775e-06
2.4068579e-06
2.4088793e-06
2.4019123e-06
2.3799252e-06
2.3336146e-06
2.2494493e-06
2.1092165e-06
1.8910679e-06
1.5736675e-06
1.1447232e-06
6.2109931e-07
2.3318553e-06
2.3398513e-06
2.3489361e-06
2.3589935e-06
2.3698947e-06
2.3814998e-06
2.3936589e-06
2.4062133e-06
2.4189925e-06
2.4318069e-06
2.4444279e-06
2.4565474e-06
2.4676983e-06
2.4771092e-06
2.4834555e-06
2.4844604e-06
2.4762977e-06
2.4527731e-06
2.404328e-06
2.31706e-06
2.1722609e-06
1.9474904e-06
1.6208165e-06
1.1795606e-06
6.4081799e-07
2.4209831e-06
2.4284447e-06
2.4369189e-06
2.4462974e-06
2.4564604e-06
2.4672776e-06
2.4786095e-06
2.4903078e-06
2.502212e-06
2.5141418e-06
2.5258764e-06
2.5371129e-06
2.5473835e-06
2.5559071e-06
2.5613326e-06
2.5613285e-06
2.5519689e-06
2.5268923e-06
2.4762771e-06
2.385836e-06
2.2363389e-06
2.0047009e-06
1.6682577e-06
1.2134557e-06
6.5626682e-07
2.5106533e-06
2.5176022e-06
2.525492e-06
2.534222e-06
2.5436804e-06
2.5537458e-06
2.5642883e-06
2.5751689e-06
2.5862365e-06
2.5973193e-06
2.6082038e-06
2.6185913e-06
2.6280133e-06
2.6356779e-06
2.6402063e-06
2.6392109e-06
2.6286637e-06
2.602032e-06
2.5492258e-06
2.4555655e-06
2.3012892e-06
2.0626559e-06
1.7162471e-06
1.2475915e-06
6.7199047e-07
2.6005857e-06
2.6070462e-06
2.61438e-06
2.6224934e-06
2.6312821e-06
2.640633e-06
2.6504248e-06
2.6605272e-06
2.6707979e-06
2.6810728e-06
2.6911452e-06
2.70072e-06
2.7093271e-06
2.7161632e-06
2.719821e-06
2.7178551e-06
2.7061332e-06
2.6779487e-06
2.6229407e-06
2.526034e-06
2.3669363e-06
2.1212622e-06
1.7649127e-06
1.2830046e-06
6.9232073e-07
2.6905273e-06
2.6965234e-06
2.7033289e-06
2.7108564e-06
2.7190089e-06
2.7276809e-06
2.7367591e-06
2.7461213e-06
2.7556331e-06
2.765138e-06
2.7744351e-06
2.7832326e-06
2.7910582e-06
2.7970964e-06
2.7999103e-06
2.7969955e-06
2.784114e-06
2.7543835e-06
2.6971703e-06
2.5970048e-06
2.433067e-06
2.1803344e-06
1.8140492e-06
1.3189705e-06
7.152393e-07
2.780208e-06
2.7857627e-06
2.7920661e-06
2.799037e-06
2.8065849e-06
2.8146117e-06
2.8230112e-06
2.8316691e-06
2.8404584e-06
2.8492293e-06
2.8577865e-06
2.8658408e-06
2.8729172e-06
2.8781873e-06
2.8801839e-06
2.8763425e-06
2.8623184e-06
2.8310526e-06
2.7716384e-06
2.6682136e-06
2.4994367e-06
2.2396712e-06
1.8636246e-06
1.3560883e-06
7.3795717e-07
2.8693266e-06
2.8744617e-06
2.8802881e-06
2.88673e-06
2.8937035e-06
2.9011168e-06
2.908871e-06
2.9168588e-06
2.9249601e-06
2.9330317e-06
2.940883e-06
2.9482271e-06
2.9545857e-06
2.9591171e-06
2.960323e-06
2.9555781e-06
2.9404305e-06
2.907644e-06
2.8460401e-06
2.7393658e-06
2.5657617e-06
2.2989804e-06
1.9131874e-06
1.3931442e-06
7.6034707e-07
2.9575446e-06
2.9622813e-06
2.9676546e-06
2.9735942e-06
2.9800219e-06
2.9868524e-06
2.9939933e-06
3.0013438e-06
3.0087905e-06
3.0161962e-06
3.0233747e-06
3.0300409e-06
3.0357126e-06
3.0395344e-06
3.0399764e-06
3.0343524e-06
3.0181027e-06
2.9838149e-06
2.9200398e-06
2.8101377e-06
2.6317391e-06
2.358e-06
1.9625561e-06
1.430086e-06
7.8263024e-07
3.044481e-06
3.0488396e-06
3.053783e-06
3.059246e-06
3.0651559e-06
3.0714333e-06
3.0779919e-06
3.0847372e-06
3.0915619e-06
3.0983343e-06
3.1048724e-06
3.1108924e-06
3.1159079e-06
3.1190493e-06
3.1187549e-06
3.1122775e-06
3.0949501e-06
3.0591852e-06
2.9932655e-06
2.8801705e-06
2.6970321e-06
2.416426e-06
2.0114538e-06
1.4667364e-06
8.0588842e-07
3.1296991e-06
3.1336996e-06
3.138236e-06
3.1432475e-06
3.1486669e-06
3.1544203e-06
3.1604271e-06
3.1665987e-06
3.1728336e-06
3.179005e-06
3.1849349e-06
3.1903402e-06
3.1947302e-06
3.1972208e-06
3.1962183e-06
3.1889148e-06
3.1705371e-06
3.1333244e-06
3.0652957e-06
2.9490574e-06
2.7612597e-06
2.4739286e-06
2.0596734e-06
1.5029428e-06
8.277294e-07
3.2126797e-06
3.216342e-06
3.2204938e-06
3.2250789e-06
3.2300349e-06
3.235293e-06
3.2407783e-06
3.2464075e-06
3.2520844e-06
3.2576871e-06
3.2630409e-06
3.2678633e-06
3.2716587e-06
3.2735285e-06
3.2718473e-06
3.263747e-06
3.2443497e-06
3.2057242e-06
3.1356315e-06
3.0163149e-06
2.8239602e-06
2.5300754e-06
2.1068664e-06
1.5389779e-06
8.4765259e-07
3.2927637e-06
3.2961075e-06
3.2998972e-06
3.3040809e-06
3.3086005e-06
3.3133924e-06
3.3183864e-06
3.3235047e-06
3.3286558e-06
3.3337222e-06
3.3385323e-06
3.3428038e-06
3.3460362e-06
3.3473161e-06
3.3449867e-06
3.3361208e-06
3.315738e-06
3.2757411e-06
3.2036404e-06
3.0813278e-06
2.8845403e-06
2.5842774e-06
2.1523228e-06
1.5735563e-06
8.7073175e-07
3.3690406e-06
3.372086e-06
3.3755363e-06
3.3793437e-06
3.3834545e-06
3.3878094e-06
3.392343e-06
3.3969822e-06
3.4016402e-06
3.4062034e-06
3.4105027e-06
3.414256e-06
3.4169575e-06
3.4176791e-06
3.4147334e-06
3.4051352e-06
3.383805e-06
3.3424855e-06
3.268446e-06
3.1432425e-06
2.9421836e-06
2.6357883e-06
2.1954689e-06
1.606298e-06
8.877588e-07
3.4401441e-06
3.4429114e-06
3.4460457e-06
3.4495026e-06
3.4532326e-06
3.4571805e-06
3.4612854e-06
3.4654783e-06
3.4696767e-06
3.4737705e-06
3.4775931e-06
3.4808618e-06
3.4830654e-06
3.4832614e-06
3.4797322e-06
3.4694373e-06
3.4472018e-06
3.4046168e-06
3.3287242e-06
3.2007645e-06
2.9956441e-06
2.6834236e-06
2.2350682e-06
1.6351987e-06
9.0226964e-07
3.5038981e-06
3.5064082e-06
3.5092503e-06
3.5123835e-06
3.5157618e-06
3.5193339e-06
3.5230428e-06
3.5268235e-06
3.5305972e-06
3.5342569e-06
3.5376378e-06
3.5404566e-06
3.5421963e-06
3.5419004e-06
3.5378221e-06
3.5268681e-06
3.5037744e-06
3.459992e-06
3.3823549e-06
3.2518171e-06
3.0429193e-06
2.7252934e-06
2.2694318e-06
1.6593855e-06
9.1349327e-07
3.5567397e-06
3.5590143e-06
3.5615891e-06
3.5644263e-06
3.5674832e-06
3.570712e-06
3.5740594e-06
3.5774636e-06
3.5808491e-06
3.5841116e-06
3.5870875e-06
3.5894924e-06
3.5908037e-06
3.5900507e-06
3.5854593e-06
3.5738872e-06
3.5499905e-06
3.5050968e-06
3.4258628e-06
3.2930034e-06
3.0807581e-06
2.758403e-06
2.2960074e-06
1.6770562e-06
9.2012304e-07
3.592842e-06
3.5949034e-06
3.5972365e-06
3.5998065e-06
3.6025737e-06
3.6054935e-06
3.6085154e-06
3.6115808e-06
3.6146165e-06
3.6175203e-06
3.6201295e-06
3.6221582e-06
3.623078e-06
3.6219049e-06
3.6168399e-06
3.6046983e-06
3.5800699e-06
3.5341861e-06
3.4535756e-06
3.3187962e-06
3.1039104e-06
2.7780163e-06
2.3110337e-06
1.686315e-06
9.2260491e-07
3.6028804e-06
3.604751e-06
3.6068683e-06
3.6092005e-06
3.6117106e-06
3.6143568e-06
3.6170909e-06
3.6198566e-06
3.6225825e-06
3.6251677e-06
3.6274501e-06
3.6291421e-06
3.6297098e-06
3.6281579e-06
3.6226672e-06
3.6100217e-06
3.5847679e-06
3.5380858e-06
3.456457e-06
3.3204186e-06
3.1040732e-06
2.7766648e-06
2.3084552e-06
1.6834005e-06
9.166072e-07
3.5724732e-06
3.5741733e-06
3.5760993e-06
3.5782221e-06
3.5805073e-06
3.5829152e-06
3.5853995e-06
3.587905e-06
3.5903614e-06
3.5926686e-06
3.5946649e-06
3.5960618e-06
3.5963214e-06
3.5944415e-06
3.588592e-06
3.5755459e-06
3.5498461e-06
3.5026956e-06
3.4206591e-06
3.2844708e-06
3.0686106e-06
2.742937e-06
2.278551e-06
1.6600435e-06
9.0105276e-07
3.480526e-06
3.4820703e-06
3.4838241e-06
3.4857619e-06
3.4878509e-06
3.4900526e-06
3.492322e-06
3.4946041e-06
3.4968284e-06
3.4988955e-06
3.5006453e-06
3.5017905e-06
3.5017944e-06
3.4996566e-06
3.4935556e-06
3.4802891e-06
3.4544644e-06
3.4074294e-06
3.3260382e-06
3.1915524e-06
2.9793235e-06
2.66049e-06
2.2077462e-06
1.607298e-06
8.7414544e-07
3.2981123e-06
3.2995044e-06
3.3010957e-06
3.302865e-06
3.3047779e-06
3.306796e-06
3.3088751e-06
3.31096e-06
3.31298e-06
3.3148354e-06
3.3163716e-06
3.3173087e-06
3.3171216e-06
3.3148329e-06
3.3086634e-06
3.2954979e-06
3.2701208e-06
3.2242199e-06
3.1452553e-06
3.0154974e-06
2.8118559e-06
2.5076397e-06
2.0780917e-06
1.5116156e-06
8.2348893e-07
2.9892101e-06
2.9904469e-06
2.991877e-06
2.9934855e-06
2.9952278e-06
2.9970635e-06
2.9989524e-06
3.0008442e-06
3.0026727e-06
3.0043255e-06
3.0056629e-06
3.0064269e-06
3.0061274e-06
3.0038491e-06
2.9979127e-06
2.9853971e-06
2.9614387e-06
2.9183646e-06
2.8447065e-06
2.7244181e-06
2.5368617e-06
2.2586266e-06
1.8686235e-06
1.3580399e-06
7.4153457e-07
2.5156084e-06
2.5167272e-06
2.5180113e-06
2.519462e-06
2.5210157e-06
2.5226315e-06
2.5242878e-06
2.5259554e-06
2.5276146e-06
2.5290556e-06
2.5301772e-06
2.5307791e-06
2.5304483e-06
2.5283886e-06
2.5230916e-06
2.5120621e-06
2.4910262e-06
2.4533724e-06
2.3893557e-06
2.2855058e-06
2.1246561e-06
1.8879325e-06
1.5590486e-06
1.1325114e-06
6.2191868e-07
1.8496393e-06
1.8508047e-06
1.8519949e-06
1.8532625e-06
1.8545551e-06
1.8558497e-06
1.8571552e-06
1.8583187e-06
1.8599038e-06
1.8611383e-06
1.8619981e-06
1.8624176e-06
1.8621131e-06
1.8604258e-06
1.8560054e-06
1.8474855e-06
1.8313905e-06
1.8026748e-06
1.7541569e-06
1.6760457e-06
1.5554688e-06
1.3793286e-06
1.1369961e-06
8.2636484e-07
4.5879927e-07
9.9257692e-07
9.9379329e-07
9.9477868e-07
9.9566297e-07
9.9648192e-07
9.9724659e-07
9.9777808e-07
9.9572727e-07
9.9697323e-07
9.9791569e-07
9.9843803e-07
9.9864734e-07
9.9840221e-07
9.9709545e-07
9.9337945e-07
9.8834669e-07
9.7943538e-07
9.6366643e-07
9.3731307e-07
8.9540515e-07
8.3000574e-07
7.347492e-07
6.0489299e-07
4.4078966e-07
2.5254292e-07
)
;

boundaryField
{
    Walls
    {
        type            kqRWallFunction;
        value           nonuniform List<scalar> 
38
(
4.2698487e-06
2.5354948e-06
7.9609541e-06
3.7677176e-05
0.00028222356
0.002365932
0.05652557
0.061149232
0.018491873
0.027477788
0.034506856
0.041563659
0.04767099
0.051704568
0.055904362
0.059599936
0.061663612
0.063885472
0.066060874
0.067467001
0.068563253
0.069729195
0.070469783
0.070909387
0.071210143
0.072346544
0.072977804
0.072237259
0.072842258
0.073230132
0.072589884
0.073070947
0.073597121
0.073096429
0.072779305
0.072618635
0.072133348
0.066999325
)
;
    }
    Inlet
    {
        type            turbulentIntensityKineticEnergyInlet;
        intensity       0.05;
        value           nonuniform List<scalar> 3(0.0080856503 0.0082996124 0.0099240396);
    }
    Outlet
    {
        type            inletOutlet;
        inletValue      uniform 0;
        value           nonuniform List<scalar> 
86
(
0
0
0
0
0
0
0
0
0
0
0
0
0
0
0
0
0
0
0
0
0
0
0
0
0
0
0
0
0
0
0.0030820142
0.0031802191
0.0025815312
0
0
0
0
0.00015928469
0.0001152736
6.5988715e-05
0
0
0
2.2022567e-06
1.2003517e-06
7.7678846e-07
6.0185241e-07
5.3799452e-07
5.2287118e-07
5.2831143e-07
5.3853007e-07
5.5493352e-07
5.748785e-07
5.9758438e-07
6.2109931e-07
6.4081799e-07
6.5626682e-07
6.7199047e-07
6.9232073e-07
7.152393e-07
7.3795717e-07
7.6034707e-07
7.8263024e-07
8.0588842e-07
8.277294e-07
0
0
0
0
0
0
0
0
0
0
0
0
0
0
0
0
0
0
0
0.0025261922
0.0031837292
)
;
    }
    Front
    {
        type            wedge;
    }
    Back
    {
        type            wedge;
    }
    defaultFaces
    {
        type            empty;
    }
}


// ************************************************************************* //
