/*--------------------------------*- C++ -*----------------------------------*\
| =========                 |                                                 |
| \\      /  F ield         | OpenFOAM: The Open Source CFD Toolbox           |
|  \\    /   O peration     | Version:  4.0                                   |
|   \\  /    A nd           | Web:      www.OpenFOAM.org                      |
|    \\/     M anipulation  |                                                 |
\*---------------------------------------------------------------------------*/
FoamFile
{
    version     2.0;
    format      ascii;
    class       volScalarField;
    location    "0.24";
    object      nut;
}
// * * * * * * * * * * * * * * * * * * * * * * * * * * * * * * * * * * * * * //

dimensions      [0 2 -1 0 0 0 0];

internalField   nonuniform List<scalar> 
1740
(
3.8070683e-05
1.2734086e-05
1.239328e-06
2.655102e-05
6.6219412e-06
1.8280946e-06
1.4464607e-05
5.2585102e-06
2.2827229e-06
1.033943e-05
4.7268176e-06
2.7342416e-06
1.4049501e-05
4.2977503e-06
3.1208541e-06
1.568174e-05
4.0099996e-06
3.3743529e-06
1.3690208e-05
3.8213829e-06
3.6370255e-06
1.1882643e-05
3.7047035e-06
3.866295e-06
1.0556207e-05
3.6305145e-06
3.9935816e-06
9.4230038e-06
3.5606078e-06
4.1304173e-06
8.5432551e-06
3.5171749e-06
4.2639316e-06
7.9600155e-06
3.5010761e-06
4.3501563e-06
7.3837079e-06
3.4882249e-06
4.4165075e-06
6.8859227e-06
3.48454e-06
4.4884685e-06
6.5127407e-06
3.4977048e-06
4.5338902e-06
6.1780703e-06
3.4891806e-06
4.5599786e-06
5.8877197e-06
3.49537e-06
4.5778691e-06
5.6040756e-06
3.5076101e-06
4.6476769e-06
5.3293276e-06
3.5221432e-06
4.6865819e-06
5.1511213e-06
3.5286607e-06
4.641057e-06
5.0177776e-06
3.5345544e-06
4.6780502e-06
4.8855894e-06
3.5440386e-06
4.7016032e-06
4.7436333e-06
3.512439e-06
4.6621939e-06
4.6015484e-06
3.5022904e-06
4.6916878e-06
4.464683e-06
3.5183831e-06
4.723408e-06
4.3648467e-06
3.5534585e-06
4.6934204e-06
4.2832728e-06
3.5519902e-06
4.6740605e-06
4.2015704e-06
3.559328e-06
4.6643086e-06
4.1578081e-06
3.5766826e-06
4.6347688e-06
2.8028998e-06
3.5768969e-06
4.3212662e-06
1.8594122e-06
2.1514935e-06
4.4342058e-06
7.1878763e-06
7.3641598e-06
6.724552e-06
6.5374594e-06
6.7438164e-06
6.3763918e-06
5.1676146e-06
5.1065418e-06
4.8623694e-06
4.3173903e-06
4.2461784e-06
4.1122062e-06
3.745034e-06
3.702275e-06
3.640657e-06
3.3035482e-06
3.2846016e-06
3.2645132e-06
2.8985139e-06
2.8928313e-06
2.8922606e-06
2.4698615e-06
2.4695913e-06
2.4751954e-06
1.9962345e-06
1.9970362e-06
2.0020175e-06
1.4985173e-06
1.4986833e-06
1.5007902e-06
1.0301864e-06
1.0295676e-06
1.029184e-06
6.4771807e-07
6.467716e-07
6.4523493e-07
3.7798682e-07
3.7712635e-07
3.7553312e-07
2.111617e-07
2.1055071e-07
2.0937699e-07
1.1892737e-07
1.1858619e-07
1.1790945e-07
7.2306795e-08
7.2138622e-08
7.1801852e-08
5.0551761e-08
5.0483193e-08
5.0349106e-08
4.1485853e-08
4.1470019e-08
4.1445357e-08
3.8553499e-08
3.8563482e-08
3.8592715e-08
3.8438225e-08
3.8459919e-08
3.8513114e-08
3.9549809e-08
3.9576232e-08
3.9638382e-08
4.1165612e-08
4.1193404e-08
4.1257383e-08
4.2976081e-08
4.3003654e-08
4.3066249e-08
4.4857193e-08
4.4883816e-08
4.4943672e-08
4.6762867e-08
4.6788218e-08
4.6844822e-08
4.8677154e-08
4.8701104e-08
4.8754316e-08
5.0594357e-08
5.0616869e-08
5.0666706e-08
5.2511364e-08
5.2532445e-08
5.257899e-08
5.4424956e-08
5.4444634e-08
5.4487997e-08
5.6331001e-08
5.6349316e-08
5.6389617e-08
5.8224303e-08
5.8241302e-08
5.8278667e-08
6.0098656e-08
6.0114391e-08
6.0148946e-08
6.1946936e-08
6.1961461e-08
6.1993336e-08
6.3761207e-08
6.3774577e-08
6.3803902e-08
6.5532823e-08
6.5545095e-08
6.5572002e-08
6.7252561e-08
6.7263795e-08
6.7288417e-08
6.8910782e-08
6.8921039e-08
6.8943514e-08
7.0497668e-08
7.0507013e-08
7.0527485e-08
7.200354e-08
7.2012041e-08
7.2030661e-08
7.3419243e-08
7.3426973e-08
7.34439e-08
7.4736512e-08
7.4743548e-08
7.4758954e-08
7.594811e-08
7.5954534e-08
7.5968598e-08
7.7047402e-08
7.7053298e-08
7.7066208e-08
7.8026954e-08
7.803241e-08
7.8044353e-08
7.8875706e-08
7.8880803e-08
7.8891962e-08
7.9572534e-08
7.957734e-08
7.9587865e-08
8.0078609e-08
8.0083162e-08
8.0093157e-08
8.0316788e-08
8.0321084e-08
8.0330573e-08
8.0086611e-08
8.0090568e-08
8.0099455e-08
4.1920998e-06
4.5168687e-06
6.7171788e-06
8.4244267e-06
5.9912744e-06
6.0321992e-06
4.7178542e-06
4.8222838e-06
4.0636299e-06
4.1693428e-06
3.6382812e-06
3.7322729e-06
3.2836536e-06
3.36285e-06
2.9173232e-06
2.9798031e-06
2.497084e-06
2.5420388e-06
2.0166762e-06
2.0450271e-06
1.5079144e-06
1.5225258e-06
1.0308368e-06
1.0360581e-06
6.4416779e-07
6.4448444e-07
3.7380367e-07
3.7245658e-07
2.0795827e-07
2.0657006e-07
1.170498e-07
1.161423e-07
7.1367807e-08
7.0900387e-08
5.0182281e-08
5.0012368e-08
4.1426863e-08
4.142786e-08
3.8648051e-08
3.8735159e-08
3.8600771e-08
3.8724998e-08
3.9737187e-08
3.9873082e-08
4.1357334e-08
4.1492887e-08
4.316299e-08
4.3293115e-08
4.5035505e-08
4.5158372e-08
4.6931225e-08
4.7046405e-08
4.8835245e-08
4.8942854e-08
5.0742304e-08
5.084264e-08
5.2649459e-08
5.2742863e-08
5.4553554e-08
5.4640361e-08
5.645048e-08
5.6531011e-08
5.8335048e-08
5.8409608e-08
6.0201056e-08
6.0269936e-08
6.204138e-08
6.2104862e-08
6.3848084e-08
6.3906445e-08
6.5612527e-08
6.5666042e-08
6.732549e-08
6.7374437e-08
6.8977348e-08
6.9022007e-08
7.0558297e-08
7.059896e-08
7.205868e-08
7.2095651e-08
7.3469369e-08
7.3502971e-08
7.4782131e-08
7.4812704e-08
7.5989754e-08
7.601766e-08
7.7085627e-08
7.7111238e-08
7.8062319e-08
7.8086013e-08
7.8908749e-08
7.8930887e-08
7.9603715e-08
7.9624629e-08
8.0108263e-08
8.0128237e-08
8.0345053e-08
8.0364323e-08
8.0113317e-08
8.0132052e-08
3.5410403e-10
1.3174962e-08
1.924126e-07
8.239087e-07
1.6391458e-06
2.2245405e-06
2.5680669e-06
2.7745359e-06
2.9161585e-06
3.028376e-06
3.1276843e-06
3.2251769e-06
3.3217494e-06
3.4156486e-06
3.5059376e-06
3.5914187e-06
3.670047e-06
3.7383545e-06
3.7905765e-06
3.8173012e-06
3.8033116e-06
3.7240081e-06
3.5389573e-06
3.1747821e-06
2.4046723e-06
2.1027259e-10
2.6829155e-08
3.5915963e-07
1.3744512e-06
2.565577e-06
3.3721653e-06
3.8430807e-06
4.1469781e-06
4.378003e-06
4.5785637e-06
4.7682315e-06
4.9573252e-06
5.1467995e-06
5.3347477e-06
5.5194911e-06
5.6985378e-06
5.8677329e-06
6.0203093e-06
6.1451038e-06
6.223875e-06
6.2268861e-06
6.105011e-06
5.7745606e-06
5.0802224e-06
3.6041264e-06
6.6021196e-10
7.8725861e-08
8.5644887e-07
2.504641e-06
3.7886272e-06
4.5236607e-06
4.9852358e-06
5.3280106e-06
5.6242322e-06
5.9058131e-06
6.1873785e-06
6.4747442e-06
6.7670141e-06
7.062529e-06
7.3595449e-06
7.655007e-06
7.9431314e-06
8.2148508e-06
8.4544162e-06
8.6358151e-06
8.7161946e-06
8.6231449e-06
8.2285601e-06
7.2850944e-06
5.1683714e-06
3.1245256e-09
2.8513099e-07
2.0612395e-06
4.0005076e-06
5.0400862e-06
5.6267721e-06
6.032218e-06
6.3728957e-06
6.6986771e-06
7.0277506e-06
7.3704413e-06
7.7293495e-06
8.1005065e-06
8.4819529e-06
8.8727911e-06
9.2711213e-06
9.6717727e-06
1.0065556e-05
1.0437047e-05
1.0760741e-05
1.0994315e-05
1.1065209e-05
1.0838582e-05
1.002026e-05
7.7135333e-06
2.3398632e-08
1.1388039e-06
3.9879306e-06
5.5955349e-06
6.4469095e-06
6.9676433e-06
7.3507688e-06
7.6964622e-06
8.0447932e-06
8.3975362e-06
8.7678872e-06
9.1621485e-06
9.5698485e-06
9.9856207e-06
1.0411098e-05
1.0849881e-05
1.1300379e-05
1.1757345e-05
1.2210834e-05
1.264363e-05
1.3027139e-05
1.3315669e-05
1.3439222e-05
1.3310213e-05
1.2904459e-05
1.9573651e-07
2.7578144e-06
5.9053765e-06
7.7089252e-06
8.6240736e-06
9.0415971e-06
9.2381015e-06
9.3748267e-06
9.5130383e-06
9.6708001e-06
9.8560405e-06
1.0074915e-05
1.0327785e-05
1.0614354e-05
1.0934986e-05
1.1289593e-05
1.1677016e-05
1.2093909e-05
1.2534052e-05
1.2987036e-05
1.3435801e-05
1.3853959e-05
1.4203052e-05
1.4441395e-05
1.4519686e-05
4.3576158e-06
4.3312453e-06
4.3742694e-06
4.4824029e-06
4.6553209e-06
4.8834645e-06
5.1567998e-06
5.4719025e-06
5.8298894e-06
6.2316447e-06
6.6760864e-06
7.1599801e-06
7.6775848e-06
8.2215968e-06
8.7846812e-06
9.3610084e-06
9.9466174e-06
1.0538406e-05
1.1132776e-05
1.1723953e-05
1.2301586e-05
1.2848334e-05
1.3337577e-05
1.3739212e-05
1.3995688e-05
9.1193734e-06
9.3795239e-06
9.7773185e-06
1.0194337e-05
1.0369338e-05
1.033215e-05
1.0214191e-05
1.0116066e-05
1.007749e-05
1.0099989e-05
1.0179196e-05
1.0310311e-05
1.0490976e-05
1.072026e-05
1.0997089e-05
1.1319721e-05
1.1684934e-05
1.2087623e-05
1.2520011e-05
1.2970054e-05
1.3418905e-05
1.3838307e-05
1.4187834e-05
1.4424723e-05
1.4500852e-05
6.4053457e-06
6.8149873e-06
7.245922e-06
7.645211e-06
7.9461997e-06
8.1619403e-06
8.3522128e-06
8.5564905e-06
8.7827024e-06
9.0451091e-06
9.3399484e-06
9.6579975e-06
9.9933675e-06
1.0351193e-05
1.0734296e-05
1.1142408e-05
1.157211e-05
1.2016379e-05
1.2463047e-05
1.2892291e-05
1.3272493e-05
1.3554555e-05
1.3664972e-05
1.3513563e-05
1.3077356e-05
5.1341094e-06
5.4890454e-06
5.837429e-06
6.1513648e-06
6.4138249e-06
6.6370784e-06
6.8510991e-06
7.0758903e-06
7.3219346e-06
7.5952286e-06
7.8931539e-06
8.2123553e-06
8.5516505e-06
8.9112867e-06
9.29036e-06
9.6853803e-06
1.008931e-05
1.0490203e-05
1.086894e-05
1.119538e-05
1.1421599e-05
1.1468805e-05
1.1195982e-05
1.0301607e-05
7.8676801e-06
4.4083714e-06
4.6933794e-06
4.9782777e-06
5.2422743e-06
5.478895e-06
5.6956061e-06
5.9063988e-06
6.1234585e-06
6.3545797e-06
6.6031734e-06
6.8682522e-06
7.1479094e-06
7.4411332e-06
7.7466515e-06
8.0623633e-06
8.3830535e-06
8.6997037e-06
8.9978244e-06
9.2548561e-06
9.4360557e-06
9.4878288e-06
9.3261375e-06
8.8133667e-06
7.700232e-06
5.3757365e-06
3.9115239e-06
4.130776e-06
4.3570544e-06
4.5738544e-06
4.7765217e-06
4.9688204e-06
5.1581431e-06
5.3514904e-06
5.5537642e-06
5.7670416e-06
5.9908846e-06
6.2238858e-06
6.4646014e-06
6.7109816e-06
6.9596157e-06
7.2047998e-06
7.4373752e-06
7.6431581e-06
7.800675e-06
7.8779274e-06
7.8278253e-06
7.5814324e-06
7.035938e-06
6.0216617e-06
4.0994588e-06
3.4968295e-06
3.6620434e-06
3.8372028e-06
4.0096983e-06
4.1748783e-06
4.3337493e-06
4.4900121e-06
4.6477112e-06
4.8098117e-06
4.9776165e-06
5.1508586e-06
5.3284018e-06
5.5086806e-06
5.6895071e-06
5.8675456e-06
6.0376335e-06
6.1919388e-06
6.3187039e-06
6.4005346e-06
6.412208e-06
6.3180676e-06
6.0689804e-06
5.5975048e-06
4.79997e-06
3.3803571e-06
3.0776535e-06
3.1985912e-06
3.3293107e-06
3.4604882e-06
3.5876389e-06
3.710123e-06
3.8294645e-06
3.9478086e-06
4.0668492e-06
4.1873153e-06
4.3089277e-06
4.4306833e-06
4.551104e-06
4.6681939e-06
4.7791874e-06
4.8801312e-06
4.965284e-06
5.0262371e-06
5.0507513e-06
5.0214001e-06
4.9143516e-06
4.699058e-06
4.3410147e-06
3.8175003e-06
3.2144593e-06
2.6096322e-06
2.6934904e-06
2.7854051e-06
2.8786557e-06
2.969249e-06
3.0557329e-06
3.1383798e-06
3.2181238e-06
3.2958311e-06
3.371829e-06
3.4458018e-06
3.5168922e-06
3.583856e-06
3.6451174e-06
3.6987009e-06
3.7420319e-06
3.7715925e-06
3.7823972e-06
3.767285e-06
3.7161748e-06
3.6156985e-06
3.4502472e-06
3.2073398e-06
2.8971179e-06
2.615179e-06
2.0873682e-06
2.1404363e-06
2.1992813e-06
2.2592282e-06
2.3169808e-06
2.370868e-06
2.4204973e-06
2.4661104e-06
2.5080581e-06
2.5464303e-06
2.580921e-06
2.6108648e-06
2.6353535e-06
2.6533369e-06
2.6636699e-06
2.6650755e-06
2.6560206e-06
2.6344675e-06
2.5975367e-06
2.5412266e-06
2.4605903e-06
2.3512327e-06
2.213946e-06
2.0658147e-06
1.9454927e-06
1.5451705e-06
1.5742744e-06
1.6069444e-06
1.6401116e-06
1.6713144e-06
1.6990526e-06
1.7226972e-06
1.7421563e-06
1.7575087e-06
1.7687451e-06
1.7756456e-06
1.777792e-06
1.774652e-06
1.7656995e-06
1.7505072e-06
1.7287985e-06
1.7004402e-06
1.6653685e-06
1.623482e-06
1.5746361e-06
1.5190367e-06
1.458511e-06
1.3990262e-06
1.3526307e-06
1.3171694e-06
1.0453833e-06
1.0581387e-06
1.072746e-06
1.0873453e-06
1.1003075e-06
1.1105231e-06
1.1174198e-06
1.1208139e-06
1.1206921e-06
1.117045e-06
1.1097776e-06
1.0987075e-06
1.0836334e-06
1.0644294e-06
1.0411331e-06
1.0140051e-06
9.8355198e-07
9.5050902e-07
9.158111e-07
8.8063714e-07
8.4668805e-07
8.1683502e-07
7.9589033e-07
7.8945584e-07
7.8914825e-07
6.4659874e-07
6.5027445e-07
6.5473508e-07
6.589688e-07
6.6202661e-07
6.6321903e-07
6.6215771e-07
6.5869724e-07
6.528239e-07
6.4455831e-07
6.3390187e-07
6.2082893e-07
6.0532796e-07
5.8746935e-07
5.6745891e-07
5.4567336e-07
5.2267137e-07
4.9918013e-07
4.7607005e-07
4.5435875e-07
4.3530691e-07
4.2059039e-07
4.1225669e-07
4.1131164e-07
4.0968061e-07
3.7176389e-07
3.716753e-07
3.7184995e-07
3.7179588e-07
3.7102702e-07
3.6917221e-07
3.6601757e-07
3.6148329e-07
3.555719e-07
3.4832021e-07
3.3976555e-07
3.2994146e-07
3.1889272e-07
3.0672529e-07
2.9362749e-07
2.798844e-07
2.6587819e-07
2.5207357e-07
2.3899078e-07
2.2718331e-07
2.1724553e-07
2.0980417e-07
2.0532044e-07
2.032145e-07
1.9845233e-07
2.0537134e-07
2.0437335e-07
2.0344099e-07
2.0235888e-07
2.0090247e-07
1.9889851e-07
1.9624432e-07
1.9290665e-07
1.8889634e-07
1.8424444e-07
1.7898607e-07
1.7315927e-07
1.6679372e-07
1.5996543e-07
1.5279473e-07
1.4544889e-07
1.3813837e-07
1.3110425e-07
1.2459515e-07
1.1885158e-07
1.1409414e-07
1.1049385e-07
1.0805682e-07
1.0627497e-07
1.03296e-07
1.1527343e-07
1.1446081e-07
1.1365743e-07
1.1277699e-07
1.1172612e-07
1.1042962e-07
1.088447e-07
1.0695865e-07
1.0478121e-07
1.0233218e-07
9.9633227e-08
9.6706366e-08
9.357556e-08
9.0271627e-08
8.6855433e-08
8.3408806e-08
8.0031678e-08
7.6836159e-08
7.3937764e-08
7.1454119e-08
6.9429835e-08
6.788666e-08
6.6783075e-08
6.5897745e-08
6.4710063e-08
7.044463e-08
7.0014683e-08
6.9596679e-08
6.9157873e-08
6.8660936e-08
6.8074523e-08
6.7379737e-08
6.6570645e-08
6.5650159e-08
6.4625323e-08
6.3504123e-08
6.2295135e-08
6.1009441e-08
5.9664266e-08
5.8282279e-08
5.6902102e-08
5.5568298e-08
5.432905e-08
5.3232356e-08
5.2322414e-08
5.1631496e-08
5.111625e-08
5.0752682e-08
5.0457375e-08
5.0076215e-08
4.9861303e-08
4.9738497e-08
4.9640498e-08
4.9554914e-08
4.946619e-08
4.936024e-08
4.9226949e-08
4.9060809e-08
4.8859563e-08
4.8622561e-08
4.8349884e-08
4.8042728e-08
4.7704368e-08
4.7341787e-08
4.6962132e-08
4.6581817e-08
4.6219957e-08
4.589689e-08
4.5632532e-08
4.5444942e-08
4.5349981e-08
4.5304555e-08
4.5289772e-08
4.5260724e-08
4.5129592e-08
4.1458556e-08
4.1524183e-08
4.1623674e-08
4.1751426e-08
4.1899547e-08
4.2059885e-08
4.2225097e-08
4.2389136e-08
4.2547034e-08
4.2694604e-08
4.2828383e-08
4.2945956e-08
4.3046461e-08
4.3131074e-08
4.3202897e-08
4.3266089e-08
4.332955e-08
4.3402574e-08
4.3494284e-08
4.3613124e-08
4.3767444e-08
4.391993e-08
4.4052436e-08
4.412805e-08
4.4067119e-08
3.8858445e-08
3.9020264e-08
3.9219512e-08
3.9452398e-08
3.971345e-08
3.9996429e-08
4.0294928e-08
4.0602742e-08
4.0914046e-08
4.1223501e-08
4.1526428e-08
4.1819072e-08
4.2098897e-08
4.2364868e-08
4.2617722e-08
4.2857934e-08
4.3089915e-08
4.3318785e-08
4.3549708e-08
4.378751e-08
4.4037168e-08
4.4266038e-08
4.4455541e-08
4.4569721e-08
4.4527778e-08
3.8887319e-08
3.9088347e-08
3.9326448e-08
3.9598216e-08
3.9898984e-08
4.022332e-08
4.056541e-08
4.0919372e-08
4.1279484e-08
4.1640386e-08
4.1997285e-08
4.2346163e-08
4.2684006e-08
4.3009015e-08
4.3320762e-08
4.3620058e-08
4.3908311e-08
4.4189419e-08
4.4467175e-08
4.4744916e-08
4.502573e-08
4.5280408e-08
4.5489564e-08
4.5616238e-08
4.5574864e-08
4.0046152e-08
4.0255994e-08
4.0500596e-08
4.0776679e-08
4.1080035e-08
4.1405815e-08
4.1748807e-08
4.210368e-08
4.2465193e-08
4.2828382e-08
4.3188748e-08
4.3542449e-08
4.3886505e-08
4.4219026e-08
4.4539405e-08
4.4848464e-08
4.514706e-08
4.5438565e-08
4.5726245e-08
4.601267e-08
4.6299558e-08
4.6560263e-08
4.6774413e-08
4.6903465e-08
4.6858468e-08
4.1663411e-08
4.1867928e-08
4.2104275e-08
4.2369344e-08
4.2659316e-08
4.2969884e-08
4.3296422e-08
4.363419e-08
4.3978495e-08
4.432486e-08
4.4669184e-08
4.5007939e-08
4.5338371e-08
4.5658741e-08
4.596856e-08
4.6268765e-08
4.6560449e-08
4.6846721e-08
4.7130632e-08
4.7414248e-08
4.7698127e-08
4.7957546e-08
4.8171056e-08
4.8298578e-08
4.8249392e-08
4.3455639e-08
4.364929e-08
4.3871892e-08
4.4120554e-08
4.439183e-08
4.4681878e-08
4.4986605e-08
4.5301797e-08
4.5623268e-08
4.5946992e-08
4.6269267e-08
4.6586894e-08
4.6897399e-08
4.7199278e-08
4.7492232e-08
4.7777278e-08
4.8056518e-08
4.8332405e-08
4.8608019e-08
4.8885051e-08
4.9163011e-08
4.9418587e-08
4.9629118e-08
4.9752816e-08
4.9696691e-08
4.5311124e-08
4.5492353e-08
4.569995e-08
4.5931243e-08
4.6183117e-08
4.6452135e-08
4.6734635e-08
4.7026854e-08
4.7325032e-08
4.7625542e-08
4.7925039e-08
4.8220638e-08
4.8510154e-08
4.8792348e-08
4.9067177e-08
4.9335922e-08
4.9601086e-08
4.9865277e-08
5.0131455e-08
5.0400966e-08
5.0672346e-08
5.092323e-08
5.1129469e-08
5.1246793e-08
5.1177899e-08
4.7189155e-08
4.7358021e-08
4.7550995e-08
4.7765607e-08
4.7999029e-08
4.8248157e-08
4.8509691e-08
4.8780229e-08
4.9056374e-08
4.9334839e-08
4.9612592e-08
4.9887046e-08
5.015629e-08
5.041936e-08
5.0676487e-08
5.0929222e-08
5.1180287e-08
5.1432946e-08
5.1689737e-08
5.1951773e-08
5.2216706e-08
5.2462773e-08
5.2664211e-08
5.2773727e-08
5.2686907e-08
4.9075931e-08
4.9233031e-08
4.9412254e-08
4.9611319e-08
4.9827635e-08
5.0058377e-08
5.0300543e-08
5.0551041e-08
5.0806768e-08
5.1064733e-08
5.1322186e-08
5.157681e-08
5.1826961e-08
5.2071944e-08
5.2312269e-08
5.2549778e-08
5.2787477e-08
5.3028932e-08
5.3276698e-08
5.3531606e-08
5.3790499e-08
5.4032027e-08
5.4228894e-08
5.4330787e-08
5.4224771e-08
5.0966529e-08
5.1112566e-08
5.1278963e-08
5.1463605e-08
5.166411e-08
5.1877883e-08
5.2102177e-08
5.2334158e-08
5.2570987e-08
5.2809924e-08
5.3048471e-08
5.3284563e-08
5.3516809e-08
5.3744778e-08
5.3969256e-08
5.4192375e-08
5.4417423e-08
5.4648203e-08
5.4887414e-08
5.5135617e-08
5.5388943e-08
5.5626328e-08
5.5819117e-08
5.5914457e-08
5.5793295e-08
5.2858061e-08
5.2993704e-08
5.3148114e-08
5.3319329e-08
5.3505146e-08
5.3703175e-08
5.3910885e-08
5.4125667e-08
5.434491e-08
5.4566105e-08
5.4786982e-08
5.5005706e-08
5.5221126e-08
5.5433067e-08
5.5642587e-08
5.5852099e-08
5.6065161e-08
5.6285759e-08
5.6516945e-08
5.6758869e-08
5.7007065e-08
5.7240646e-08
5.7429688e-08
5.7519224e-08
5.7386974e-08
5.4747334e-08
5.4873186e-08
5.5016347e-08
5.5174992e-08
5.5347083e-08
5.5530407e-08
5.5722626e-08
5.5921331e-08
5.6124115e-08
5.6328676e-08
5.6532955e-08
5.6735334e-08
5.693489e-08
5.7131691e-08
5.732706e-08
5.7523689e-08
5.7725409e-08
5.7936432e-08
5.8159957e-08
5.8395968e-08
5.8639407e-08
5.8869425e-08
5.9054869e-08
5.913882e-08
5.8997253e-08
5.6630186e-08
5.6746789e-08
5.687935e-08
5.7026173e-08
5.7185367e-08
5.7354881e-08
5.7532551e-08
5.7716149e-08
5.7903452e-08
5.8092349e-08
5.8280976e-08
5.8467918e-08
5.8652469e-08
5.8834932e-08
5.9016888e-08
5.9201301e-08
5.9392269e-08
5.9594227e-08
5.9810484e-08
6.0040926e-08
6.0279923e-08
6.050655e-08
6.0688469e-08
6.0767029e-08
6.0615299e-08
5.8501382e-08
5.8609227e-08
5.8731772e-08
5.8867439e-08
5.9014471e-08
5.9170967e-08
5.933492e-08
5.9504268e-08
5.9676961e-08
5.9851061e-08
6.0024886e-08
6.0197214e-08
6.0367545e-08
6.0536409e-08
6.0705633e-08
6.0878447e-08
6.1059211e-08
6.1252568e-08
6.1461904e-08
6.1687127e-08
6.1921952e-08
6.2145302e-08
6.2323612e-08
6.2396201e-08
6.2232195e-08
6.0354683e-08
6.0454228e-08
6.0567291e-08
6.0692408e-08
6.0827947e-08
6.0972143e-08
6.1123137e-08
6.1279016e-08
6.143789e-08
6.1597986e-08
6.1757793e-08
6.1916269e-08
6.2073111e-08
6.2229066e-08
6.23862e-08
6.2548e-08
6.2719079e-08
6.290429e-08
6.3107112e-08
6.3327359e-08
6.3558239e-08
6.3778422e-08
6.3953136e-08
6.4019652e-08
6.3843335e-08
6.2182941e-08
6.2274617e-08
6.2378704e-08
6.2493837e-08
6.2618505e-08
6.2751071e-08
6.2889807e-08
6.3032946e-08
6.3178743e-08
6.332558e-08
6.3472106e-08
6.361745e-08
6.3761498e-08
6.3905201e-08
6.4050859e-08
6.4202204e-08
6.4364095e-08
6.4541587e-08
6.4738248e-08
6.4953771e-08
6.5180909e-08
6.5398021e-08
6.5569142e-08
6.5629563e-08
6.5441589e-08
6.3978204e-08
6.4062431e-08
6.4158022e-08
6.4263715e-08
6.4378106e-08
6.4499676e-08
6.4626826e-08
6.4757918e-08
6.4891348e-08
6.5025638e-08
6.515959e-08
6.5292497e-08
6.542442e-08
6.555651e-08
6.5691286e-08
6.5832719e-08
6.5985902e-08
6.6156079e-08
6.6346901e-08
6.6557941e-08
6.6781515e-08
6.6995627e-08
6.7163161e-08
6.7217599e-08
6.7018095e-08
6.5731825e-08
6.5809012e-08
6.5896581e-08
6.5993361e-08
6.6098052e-08
6.6209245e-08
6.6325459e-08
6.6445181e-08
6.6566933e-08
6.6689373e-08
6.6811446e-08
6.6932596e-08
6.7053054e-08
6.7174158e-08
6.7298637e-08
6.7430688e-08
6.7575627e-08
6.7738878e-08
6.7924165e-08
6.8130933e-08
6.835109e-08
6.8562216e-08
6.8726036e-08
6.8774347e-08
6.8564234e-08
6.7434588e-08
6.7505145e-08
6.7585161e-08
6.7673552e-08
6.7769115e-08
6.7870545e-08
6.7976468e-08
6.8085488e-08
6.8196248e-08
6.8307532e-08
6.8418416e-08
6.8528488e-08
6.8638138e-08
6.8748882e-08
6.8863647e-08
6.8986843e-08
6.9123994e-08
6.9280692e-08
6.9460721e-08
6.9663391e-08
6.9880252e-08
7.0088361e-08
7.0248251e-08
7.0289949e-08
7.0068717e-08
6.9076877e-08
6.9141217e-08
6.9214155e-08
6.9294688e-08
6.93817e-08
6.9473983e-08
6.9570268e-08
6.9669263e-08
6.9769724e-08
6.9870551e-08
6.9970945e-08
7.0070629e-08
7.0170138e-08
7.0271155e-08
7.0376792e-08
7.0491658e-08
7.0621471e-08
7.0771974e-08
7.0947004e-08
7.1145745e-08
7.135934e-08
7.156435e-08
7.1720137e-08
7.1754894e-08
7.15169e-08
7.0648908e-08
7.0707459e-08
7.0773806e-08
7.0847023e-08
7.0926077e-08
7.100985e-08
7.1097164e-08
7.1186829e-08
7.1277703e-08
7.1368795e-08
7.145942e-08
7.1549423e-08
7.1639478e-08
7.1731418e-08
7.1828525e-08
7.1935589e-08
7.2058501e-08
7.220314e-08
7.2373382e-08
7.2568277e-08
7.2778556e-08
7.2980248e-08
7.3131453e-08
7.3157889e-08
7.2901187e-08
7.2141054e-08
7.2194261e-08
7.2254526e-08
7.2320994e-08
7.2392707e-08
7.2468629e-08
7.2547671e-08
7.2628731e-08
7.2710761e-08
7.2792871e-08
7.2874478e-08
7.2955542e-08
7.3036856e-08
7.3120393e-08
7.3209584e-08
7.3309376e-08
7.3425812e-08
7.3564877e-08
7.3730469e-08
7.3921493e-08
7.4128268e-08
7.4326265e-08
7.4472284e-08
7.4489516e-08
7.4213816e-08
7.3544227e-08
7.3592559e-08
7.3647278e-08
7.3707593e-08
7.3772616e-08
7.3841385e-08
7.3912888e-08
7.3986107e-08
7.4060079e-08
7.4134e-08
7.4207383e-08
7.4280286e-08
7.4353612e-08
7.4429449e-08
7.4511357e-08
7.4604412e-08
7.4714772e-08
7.4848498e-08
7.5009478e-08
7.5196461e-08
7.5399373e-08
7.5593139e-08
7.573335e-08
7.5740861e-08
7.5445974e-08
7.4850234e-08
7.4894189e-08
7.494393e-08
7.4998723e-08
7.5057744e-08
7.5120098e-08
7.5184841e-08
7.5251028e-08
7.5317771e-08
7.5384345e-08
7.5450345e-08
7.5515913e-08
7.5582042e-08
7.5650917e-08
7.5726195e-08
7.5813045e-08
7.5917698e-08
7.6046245e-08
7.6202523e-08
7.638511e-08
7.6583569e-08
7.6772359e-08
7.6906148e-08
7.6904161e-08
7.6592483e-08
7.605191e-08
7.609201e-08
7.6137371e-08
7.6187309e-08
7.6241054e-08
7.6297768e-08
7.635657e-08
7.6416578e-08
7.6476967e-08
7.6537081e-08
7.659658e-08
7.665568e-08
7.6715442e-08
7.6778123e-08
7.6847441e-08
7.6928613e-08
7.7027886e-08
7.7151321e-08
7.7302652e-08
7.7480257e-08
7.767337e-08
7.7856095e-08
7.7982521e-08
7.7970948e-08
7.7640703e-08
7.7142668e-08
7.7179458e-08
7.7221059e-08
7.726683e-08
7.731605e-08
7.7367931e-08
7.7421642e-08
7.7476353e-08
7.7531295e-08
7.7585865e-08
7.763978e-08
7.7693308e-08
7.7747561e-08
7.7804834e-08
7.7868868e-08
7.7944873e-08
7.8039046e-08
7.8157337e-08
7.8303305e-08
7.8475085e-08
7.8661566e-08
7.8836633e-08
7.8954047e-08
7.8931356e-08
7.8583981e-08
7.8115086e-08
7.8149112e-08
7.8187576e-08
7.8229877e-08
7.8275331e-08
7.832319e-08
7.8372666e-08
7.8422971e-08
7.8473378e-08
7.8523327e-08
7.8572578e-08
7.8621435e-08
7.8671039e-08
7.8723691e-08
7.8783109e-08
7.8854435e-08
7.8943735e-08
7.9056755e-08
7.9196786e-08
7.9361705e-08
7.9539759e-08
7.9705035e-08
7.9811219e-08
7.9776298e-08
7.9419912e-08
7.8958051e-08
7.8989841e-08
7.9025775e-08
7.9065281e-08
7.9107705e-08
7.9152328e-08
7.9198396e-08
7.9245152e-08
7.9291903e-08
7.9338118e-08
7.9383589e-08
7.9428643e-08
7.9474425e-08
7.9523213e-08
7.9578658e-08
7.9645761e-08
7.9730372e-08
7.9837923e-08
7.9971293e-08
8.0127808e-08
8.0295466e-08
8.0448418e-08
8.0540561e-08
8.0490759e-08
8.0120822e-08
7.96503e-08
7.9680358e-08
7.9714339e-08
7.9751699e-08
7.9791795e-08
7.9833928e-08
7.9877372e-08
7.9921397e-08
7.9965335e-08
8.0008662e-08
8.0051195e-08
8.0093271e-08
8.0136024e-08
8.0181683e-08
8.0233776e-08
8.0297101e-08
8.0377183e-08
8.0479032e-08
8.0605014e-08
8.0751909e-08
8.0907315e-08
8.1045395e-08
8.112064e-08
8.1053594e-08
8.0669773e-08
8.01528e-08
8.0181618e-08
8.0214191e-08
8.0250002e-08
8.0288402e-08
8.0328709e-08
8.0370223e-08
8.041225e-08
8.0454162e-08
8.0495368e-08
8.0535709e-08
8.0575538e-08
8.0615971e-08
8.0659167e-08
8.0708476e-08
8.0768475e-08
8.0844268e-08
8.0940354e-08
8.1058518e-08
8.1194941e-08
8.1336617e-08
8.1457784e-08
8.1513939e-08
8.1428498e-08
8.1035071e-08
8.0388168e-08
8.0416305e-08
8.0448004e-08
8.0482795e-08
8.0520033e-08
8.0559053e-08
8.0599201e-08
8.0639733e-08
8.0680412e-08
8.0720192e-08
8.0758963e-08
8.0797142e-08
8.0835834e-08
8.0877075e-08
8.0923903e-08
8.0980979e-08
8.105282e-08
8.1143354e-08
8.1253899e-08
8.1380146e-08
8.1507762e-08
8.1611332e-08
8.1647926e-08
8.1545424e-08
8.1150974e-08
8.0155637e-08
8.0183878e-08
8.0215259e-08
8.0249453e-08
8.02859e-08
8.0323986e-08
8.0362922e-08
8.0399893e-08
8.0440152e-08
8.0479213e-08
8.0516922e-08
8.0553899e-08
8.059124e-08
8.0630583e-08
8.0674115e-08
8.0728341e-08
8.0796587e-08
8.0882125e-08
8.0986942e-08
8.1106808e-08
8.1222276e-08
8.1310059e-08
8.1330071e-08
8.121754e-08
8.0853761e-08
)
;

boundaryField
{
    Walls
    {
        type            nutUWallFunction;
        Cmu             0.09;
        kappa           0.41;
        E               9.8;
        value           uniform 0;
    }
    Inlet
    {
        type            calculated;
        value           nonuniform List<scalar> 3(3.6399726e-05 1.8086728e-05 8.0645865e-07);
    }
    Outlet
    {
        type            calculated;
        value           nonuniform List<scalar> 
86
(
0
0
0
0
0
0
0
0
0
0
0
0
0
0
0
0
0
0
0
0
0
0
0
0
0
0
0
0
0
0
1.3995688e-05
1.4500852e-05
1.3077356e-05
0
0
0
0
3.2144593e-06
2.615179e-06
1.9454927e-06
0
0
0
1.9845233e-07
1.03296e-07
6.4710063e-08
5.0076215e-08
4.5129592e-08
4.4067119e-08
4.4527778e-08
4.5574864e-08
4.6858468e-08
4.8249392e-08
4.9696691e-08
5.1177899e-08
5.2686907e-08
5.4224771e-08
5.5793295e-08
5.7386974e-08
5.8997253e-08
6.0615299e-08
6.2232195e-08
6.3843335e-08
6.5441589e-08
6.7018095e-08
0
0
0
0
0
0
0
0
0
0
0
0
0
0
0
0
0
0
0
1.2904459e-05
1.4519686e-05
)
;
    }
    Front
    {
        type            wedge;
    }
    Back
    {
        type            wedge;
    }
    defaultFaces
    {
        type            empty;
    }
}


// ************************************************************************* //
