/*--------------------------------*- C++ -*----------------------------------*\
| =========                 |                                                 |
| \\      /  F ield         | OpenFOAM: The Open Source CFD Toolbox           |
|  \\    /   O peration     | Version:  4.0                                   |
|   \\  /    A nd           | Web:      www.OpenFOAM.org                      |
|    \\/     M anipulation  |                                                 |
\*---------------------------------------------------------------------------*/
FoamFile
{
    version     2.0;
    format      ascii;
    class       volScalarField;
    location    "0.24";
    object      omega;
}
// * * * * * * * * * * * * * * * * * * * * * * * * * * * * * * * * * * * * * //

dimensions      [0 0 -1 0 0 0 0];

internalField   nonuniform List<scalar> 
1740
(
63.728049
714.79477
14920.886
180.21401
1508.3096
15030.835
313.3747
2012.542
15116.533
430.11128
2272.7318
15201.166
539.68052
2577.4182
15274.982
638.33466
2846.4601
15322.81
731.01865
3045.539
15370.902
842.31165
3330.9014
15415.258
951.49706
3504.5821
15440.679
1069.6252
3559.9639
15467.074
1173.9687
3648.1806
15492.949
1246.0527
3730.4424
15509.098
1335.5684
3793.498
15524.315
1421.4793
3869.7632
15535.186
1486.9018
3949.8349
15542.896
1552.4274
3944.9461
15550.377
1610.1511
3976.8259
15555.303
1677.9683
4009.4185
15566.173
1753.1223
4056.3647
15571.648
1784.3592
4089.2717
15564.829
1801.9051
4107.9826
15571.072
1818.0813
4153.1371
15575.566
1843.2445
4093.1793
15569.898
1879.1926
4070.123
15574.555
1928.6471
4101.4994
15581.36
1944.6411
4184.8824
15574.234
1952.1766
4180.8383
15570.895
1974.4865
4193.1372
15569.003
1998.7043
4211.0872
15563.527
2125.9546
4285.1107
15504.558
3194.2081
4563.1803
10723.422
3332.1054
4237.7885
5937.1009
1573.5795
1861.5183
2156.2646
823.49915
898.47293
956.84747
478.03659
496.10922
506.31177
301.34625
305.0498
305.15767
202.72658
203.04547
201.61926
144.28854
143.96816
142.73115
108.1726
107.84429
107.00969
85.32702
85.096364
84.577367
70.881592
70.737908
70.429075
62.015134
61.932002
61.7558
56.895965
56.85203
56.758003
54.202523
54.183522
54.139848
52.956117
52.953155
52.939298
52.331601
52.328182
52.317433
51.853503
51.851175
51.84353
51.433385
51.433189
51.429009
51.035787
51.03787
51.036908
50.66117
50.664579
50.665653
50.328095
50.331555
50.333216
50.05115
50.053917
50.055269
49.831769
49.833688
49.834453
49.661818
49.663018
49.663246
49.529966
49.530641
49.530474
49.4257
49.42602
49.425595
49.340777
49.340865
49.340285
49.269256
49.269197
49.268534
49.207046
49.206897
49.206197
49.151389
49.151188
49.150483
49.100443
49.100214
49.099522
49.052959
49.052719
49.052054
49.008043
49.007801
49.00717
48.964918
48.964681
48.964089
48.922634
48.922407
48.921856
48.879588
48.879374
48.878864
48.832656
48.832457
48.831989
48.775629
48.775445
48.775019
48.696461
48.696294
48.695911
48.572671
48.572522
48.572185
48.36408
48.363954
48.363667
48.002086
48.001986
48.001761
47.37502
47.374954
47.374809
46.310223
46.310202
46.310157
44.555756
44.555782
44.555848
41.769055
41.769096
41.76922
37.527824
37.527737
37.527674
31.385323
31.384726
31.38384
23.010993
23.009418
23.006942
12.384096
12.38211
12.378961
13483.832
13537.97
5999.4276
5337.8103
2085.4008
1882.3108
921.73494
853.82985
490.03963
463.3029
296.97708
285.07822
197.31218
191.5784
140.37692
137.44307
105.68704
104.10939
83.821092
82.939188
69.994163
69.489019
61.509173
61.219106
56.624071
56.461465
54.073248
53.986579
52.910996
52.86724
52.296524
52.263375
51.827735
51.801396
51.417448
51.396102
51.028875
51.011594
50.660205
50.646427
50.329354
50.318561
50.05228
50.043912
49.831948
49.825445
49.66104
49.655911
49.528481
49.524338
49.423769
49.420333
49.3386
49.335677
49.266974
49.264435
49.204752
49.202511
49.149145
49.147143
49.098285
49.096484
49.050911
49.049282
49.006117
49.00464
48.963121
48.961781
48.92097
48.919752
48.878055
48.876951
48.831253
48.830255
48.774354
48.773457
48.695316
48.694517
48.571663
48.570965
48.363227
48.36264
48.001418
48.000965
47.374589
47.374304
46.310093
46.31002
44.555963
44.556137
41.769479
41.769876
37.527879
37.52836
31.38353
31.383889
23.005642
23.005961
12.377296
12.378023
12058.176
2043.1285
696.50038
368.98973
281.02826
256.66683
249.38557
246.16851
243.59708
240.91073
238.02431
234.89528
231.57374
228.08856
224.41305
220.49671
216.25076
211.51595
206.00796
199.22977
190.32447
177.81812
159.14381
129.57036
78.127609
12058.132
2037.093
697.65335
374.58429
283.04498
254.14595
242.5433
235.23894
229.01204
223.05941
217.19636
211.38217
205.62339
199.91549
194.23688
188.56652
182.86177
177.03896
170.93766
164.26537
156.50119
146.70865
133.13089
112.16558
74.699595
12058.179
2030.4974
718.58261
430.64368
359.24503
332.2836
314.89422
300.3674
287.08621
274.47406
262.42025
250.81336
239.75273
229.17397
219.019
209.2763
199.93013
190.9429
182.22708
173.61771
164.81245
155.2328
143.65882
127.0939
96.208852
12058.527
2031.8104
817.57559
608.83214
549.95443
512.74579
479.72868
449.2226
421.24715
394.94238
370.27411
347.27796
326.07259
306.20943
287.53569
270.05448
253.75268
238.59745
224.53579
211.47956
199.28944
187.73303
176.3414
163.83784
144.61872
12061.541
2150.9698
1232.9523
1078.9554
990.12176
907.21072
828.675
757.26394
693.34815
634.2299
579.89134
530.27711
486.20594
445.96056
409.02844
375.40805
344.95911
317.50451
292.85929
270.82538
251.20118
233.80436
218.50811
205.46812
195.76118
12087.331
3824.5239
2812.0179
2407.3147
2098.1346
1828.5209
1592.6577
1388.934
1212.6884
1060.6536
929.72697
817.06092
720.10799
636.43639
564.11068
501.61373
447.64513
401.0705
360.90841
326.31636
296.57619
271.102
249.47549
231.78387
219.26984
10366.627
7907.5349
6103.0785
4793.8721
3823.5297
3087.1366
2516.832
2068.7962
1713.4068
1429.3267
1200.6537
1015.464
864.76764
741.61725
640.50185
557.04763
487.80677
430.07418
381.7278
341.09748
306.8655
278.01129
253.80245
234.10668
220.21169
4095.6063
3309.5788
2845.8151
2470.2816
2150.492
1869.4322
1624.2341
1412.2917
1230.6603
1075.0129
941.52596
826.77278
727.76972
642.34415
568.64486
505.072
450.24444
402.9792
362.26495
327.23823
297.16624
271.45336
249.66887
231.88351
219.31257
1595.2668
1400.5329
1270.2387
1161.9179
1059.6114
962.28384
873.59348
794.54079
722.51425
657.27981
598.96372
547.41613
500.10664
456.90523
417.6803
382.22805
350.3106
321.68693
296.11204
273.35498
253.20219
235.46851
220.02282
207.00284
197.40468
771.23483
707.96049
661.73919
621.16864
580.83625
540.73831
503.21125
468.6405
436.61038
407.0907
380.12773
355.4484
332.36696
310.77404
290.65057
271.97326
254.70265
238.78644
224.16137
210.74966
198.44023
187.04054
176.13069
164.51235
146.87182
434.12252
410.41452
391.70369
374.50023
356.79322
338.55426
320.75113
303.81812
287.82924
272.83499
258.84478
245.73441
233.29215
221.45995
210.26172
199.6853
189.7133
180.31365
171.42914
162.95259
154.66774
146.10516
136.15759
121.90693
94.068482
272.77867
262.38771
253.75395
245.61882
237.14429
228.25676
219.31976
210.59567
202.2043
194.20093
186.59275
179.32859
172.33147
165.56897
159.0457
152.75783
146.68717
140.79253
134.99328
129.13453
122.913
115.7149
106.24061
91.548594
63.96497
185.78237
180.72078
176.33713
172.14335
167.76384
163.12972
158.3735
153.63516
149.00127
144.5157
140.18773
135.99661
131.90937
127.90534
123.97456
120.10117
116.25441
112.37753
108.36953
104.05226
99.108672
92.963414
84.535939
71.634309
48.592754
134.49874
131.85728
129.49141
127.1993
124.80793
122.26642
119.62019
116.93794
114.27297
111.65564
109.09468
106.58151
104.09931
101.6318
99.162652
96.667731
94.106446
91.41056
88.468131
85.099446
81.022399
75.810628
68.881508
59.72716
49.55256
102.52395
101.06592
99.723694
98.408481
97.037633
95.577894
94.043205
92.465075
90.873413
89.287365
87.713832
86.149125
84.582872
83.000937
81.384266
79.70344
77.910699
75.929518
73.641256
70.870015
67.371376
62.845307
57.040467
50.161188
44.078666
82.044942
81.199825
80.401112
79.609088
78.782804
77.902274
76.970336
76.001383
75.011486
74.012182
73.008321
71.9981
70.974097
69.923518
68.826017
67.648524
66.337416
64.807982
62.932082
60.52674
57.351243
53.131551
47.659856
41.087923
33.918768
68.96725
68.458331
67.962492
67.462399
66.938359
66.379428
65.785559
65.163685
64.522645
63.869618
63.20818
62.537553
61.852001
61.139562
60.378928
59.533811
58.544361
57.315599
55.703689
53.502503
50.435414
46.159102
40.278272
32.296855
20.746019
60.910355
60.596923
60.279731
59.951652
59.604103
59.232147
58.835935
58.419474
57.988275
57.547372
57.099861
56.645752
56.180535
55.692668
55.159683
54.541854
53.772646
52.745689
51.298893
49.197713
46.121295
41.656026
35.293235
26.374455
13.7021
56.280158
56.085698
55.878649
55.65647
55.416157
55.156372
54.878142
54.584487
54.279456
53.967094
53.650426
53.330229
53.003139
52.65782
52.270569
51.798469
51.16908
50.266348
48.913518
46.855311
43.743644
39.136736
32.525494
23.388552
11.19769
53.882057
53.760295
53.621082
53.463766
53.287972
53.094176
52.883951
52.659841
52.425052
52.183023
51.936728
51.687524
51.433994
51.16518
50.856529
50.462845
49.907561
49.06818
47.759656
45.717842
42.587476
37.931579
31.289757
22.326817
11.097157
52.806622
52.727204
52.628388
52.510147
52.372877
52.217429
52.045111
51.857711
51.65751
51.447269
51.229817
51.006529
50.780125
50.540431
50.262345
49.898937
49.370852
48.552346
47.256556
45.218721
42.087913
37.442914
30.869536
22.152412
11.620506
52.216123
52.153118
52.073364
51.976393
51.862174
51.731046
51.583663
51.421042
51.244601
51.056348
50.858847
50.65429
50.442245
50.218168
49.958048
49.615657
49.111948
48.32005
47.047495
45.015169
41.892012
37.274968
30.772738
22.217447
12.004137
51.762408
51.708942
51.639755
51.554149
51.451893
51.333169
51.198608
51.049467
50.887874
50.716936
50.540247
50.360319
50.175729
49.976853
49.743016
49.426152
48.946706
48.178206
46.929358
44.927188
41.814744
37.220709
30.75384
22.240397
12.018728
51.362784
51.315452
51.252812
51.174239
51.079717
50.969862
50.846034
50.7105
50.566463
50.417693
50.267556
50.117257
49.963208
49.793089
49.585154
49.2914
48.832386
48.082413
46.851609
44.868941
41.775731
37.197164
30.739568
22.210263
11.921103
50.982975
50.940863
50.884184
50.812744
50.727138
50.628748
50.519754
50.403073
50.282084
50.160033
50.039033
49.918591
49.793451
49.650399
49.463721
49.188663
48.745783
48.01013
46.79304
44.824958
41.748362
37.180846
30.726032
22.177049
11.865336
50.6225
50.586401
50.537449
50.475955
50.403047
50.320557
50.230895
50.136826
50.041109
49.945935
49.852106
49.757824
49.656786
49.535097
49.366237
49.10577
48.675266
47.950581
46.744092
44.787551
41.724842
37.167297
30.717226
22.163341
11.864761
50.299391
50.270177
50.230575
50.181159
50.123195
50.05846
49.989049
49.917137
49.844652
49.772821
49.701501
49.628104
49.545804
49.440505
49.285913
49.036086
48.614883
47.898609
46.700525
44.75366
41.70357
37.157397
30.716943
22.16304
11.816384
50.029097
50.006593
49.976248
49.938647
49.894888
49.846403
49.794778
49.741544
49.687922
49.634445
49.580376
49.522691
49.454317
49.361091
49.216789
48.975384
48.5613
47.851557
46.66031
44.721931
41.684005
37.151489
30.726999
22.183869
11.842759
49.814197
49.79733
49.774781
49.747023
49.714885
49.679404
49.641688
49.602745
49.563281
49.523374
49.481921
49.435657
49.377386
49.292942
49.156179
48.921217
48.512541
47.807903
46.622287
44.691423
41.665144
37.147732
30.744247
22.224503
11.91473
49.647352
49.634769
49.618135
49.597792
49.574322
49.548436
49.520869
49.492257
49.462954
49.432741
49.400291
49.362192
49.311185
49.233115
49.101939
48.872051
48.467314
47.766655
46.585673
44.661351
41.645773
37.143675
30.765035
22.287207
12.024631
49.517711
49.508203
49.4958
49.480739
49.463416
49.444304
49.423882
49.402528
49.380364
49.356977
49.330895
49.298612
49.252824
49.179381
49.0523
48.826073
48.424592
47.727102
46.549907
44.631076
41.624608
37.135663
30.778092
22.33746
12.136084
49.415067
49.407709
49.398253
49.386863
49.373805
49.359393
49.343933
49.327633
49.310462
49.291879
49.270312
49.242191
49.200177
49.130119
49.006071
48.782611
48.383819
47.688755
46.51461
44.600211
41.60088
37.121376
30.776431
22.351285
12.162756
49.331374
49.325517
49.318108
49.30926
49.299156
49.288005
49.275999
49.263235
49.24958
49.234405
49.216073
49.190961
49.151706
49.08415
48.962368
48.740995
48.34421
47.651201
46.479552
44.568737
41.57498
37.102085
30.763262
22.334587
12.102713
49.260825
49.256032
49.25006
49.242994
49.23496
49.2261
49.216529
49.206273
49.195129
49.18241
49.166428
49.143526
49.106315
49.040632
48.920562
48.70078
48.305553
47.614228
46.444633
44.536828
41.547808
37.080569
30.746584
22.312504
12.044287
49.199416
49.195395
49.190457
49.184666
49.178112
49.170892
49.163074
49.154632
49.145317
49.1344
49.120158
49.098906
49.063235
48.998971
48.880205
48.661646
48.267644
47.577732
46.40981
44.504657
41.520052
37.058671
30.731713
22.305667
12.064075
49.144444
49.141002
49.136829
49.131975
49.126507
49.120492
49.113965
49.106866
49.098914
49.089349
49.076422
49.056424
49.02193
48.958754
48.840989
48.623367
48.230304
47.541477
46.37504
44.47233
41.492012
37.036788
30.718029
22.302956
12.123265
49.0941
49.091107
49.087518
49.083374
49.078726
49.073621
49.06807
49.061991
49.055078
49.04655
49.034638
49.015613
48.982033
48.919701
48.802707
48.585799
48.193452
47.505484
46.340345
44.439914
41.463834
37.015351
30.70805
22.316186
12.174438
49.047159
49.044524
49.041395
49.037806
49.033795
49.029396
49.024605
49.01932
49.013221
49.005508
48.994396
48.976139
48.943281
48.88161
48.76521
48.548842
48.157034
47.469749
46.305759
44.407414
41.435414
36.993631
30.697634
22.327389
12.217905
49.002736
49.000399
48.997644
48.9945
48.990999
48.987164
48.982979
48.97833
48.972882
48.965824
48.955356
48.937718
48.905436
48.844288
48.728347
48.512381
48.120967
47.434204
46.271169
44.374782
41.406735
36.971752
30.68741
22.338235
12.258605
48.960068
48.957981
48.955538
48.952763
48.949681
48.946308
48.942619
48.93849
48.933577
48.927057
48.917117
48.899986
48.868174
48.807441
48.691852
48.476178
48.08504
47.398667
46.236431
44.341852
41.377639
36.949527
30.676836
22.348716
12.314622
48.918208
48.91634
48.914163
48.9117
48.908972
48.905987
48.902713
48.89902
48.894555
48.888486
48.878989
48.862279
48.830853
48.770454
48.655133
48.439664
48.048705
47.362607
46.201038
44.308122
41.347665
36.926719
30.666713
22.359365
12.350835
48.875559
48.873884
48.87194
48.869747
48.867323
48.864671
48.861754
48.858434
48.854353
48.848669
48.839549
48.823196
48.792092
48.731962
48.616844
48.401508
48.010648
47.324731
46.16371
44.272326
41.315511
36.901891
30.656015
22.377208
12.362897
48.829002
48.827501
48.825766
48.823813
48.821657
48.819298
48.816694
48.813701
48.809955
48.804607
48.795815
48.779769
48.748936
48.689026
48.574057
48.358798
47.967974
47.282165
46.121611
44.231666
41.278333
36.871706
30.63881
22.386648
12.426826
48.772335
48.770995
48.769451
48.767717
48.765806
48.763713
48.761391
48.758693
48.755248
48.7502
48.741699
48.725923
48.695323
48.635591
48.52073
48.305506
47.914677
47.228943
46.068837
44.18033
41.230533
36.831024
30.61161
22.385902
12.413273
48.693522
48.692337
48.690975
48.689451
48.687771
48.685929
48.683874
48.681453
48.67829
48.673521
48.665286
48.649753
48.619357
48.559774
48.444991
48.229776
47.838933
47.153306
45.993763
44.106938
41.161082
36.769176
30.562338
22.351639
12.376611
48.570099
48.569072
48.567896
48.566583
48.565138
48.56355
48.561763
48.559619
48.556735
48.55224
48.544263
48.52896
48.498752
48.439297
48.324577
48.109372
47.718566
47.033205
45.874588
43.990145
41.049378
36.666627
30.473508
22.276766
12.308938
48.361916
48.361063
48.360091
48.359011
48.357824
48.356515
48.355023
48.353181
48.350599
48.346394
48.338687
48.32362
48.293601
48.234277
48.119634
47.904502
47.513905
46.829219
45.672399
43.792
40.859201
36.490124
30.316992
22.142027
12.195787
48.000411
47.999765
47.999038
47.998237
47.997362
47.99639
47.995253
47.993774
47.991549
47.987686
47.980291
47.965496
47.935698
47.87655
47.762071
47.547204
47.15725
46.474169
45.321015
43.448208
40.529717
36.185111
30.050051
21.927487
12.045633
47.373964
47.37358
47.373166
47.372726
47.372255
47.371724
47.37105
47.370044
47.368281
47.364855
47.35786
47.343421
47.31394
47.255101
47.141026
46.926905
46.538572
45.859044
44.713305
42.855028
39.963158
35.664065
29.602213
21.5901
11.805756
46.309952
46.309905
46.309898
46.309938
46.310014
46.310081
46.310042
46.309679
46.308544
46.305711
46.299267
46.285347
46.256389
46.198176
46.085067
45.872753
45.488077
44.815954
43.684736
41.853677
39.010291
34.79267
28.859204
21.031483
11.466112
44.556387
44.556748
44.55726
44.557937
44.558749
44.559633
44.560459
44.560975
44.560697
44.558676
44.553015
44.539895
44.511861
44.454936
44.343967
44.135616
43.758563
43.101052
41.997136
40.215271
37.457034
33.379197
27.662104
20.147563
11.006628
41.770437
41.77125
41.772393
41.773899
41.775677
41.777622
41.779572
41.78123
41.782072
41.78112
41.776539
41.76464
41.738228
41.68384
41.577271
41.37694
41.014744
40.384567
39.329804
37.633594
35.018863
31.170777
25.801803
18.779989
10.278089
37.529175
37.530541
37.532482
37.535068
37.538043
37.541226
37.544455
37.547444
37.54968
37.550003
37.546758
37.536573
37.51281
37.463034
37.364721
37.179388
36.844271
36.262422
35.29193
33.738127
31.355159
27.868661
23.035118
16.754839
9.1922234
31.385159
31.387832
31.391095
31.395164
31.399501
31.40386
31.408246
31.41257
31.416828
31.418648
31.416837
31.408778
31.38892
31.346575
31.261792
31.102013
30.812651
30.310869
29.476924
28.148377
26.121767
23.176821
19.126159
13.908048
7.6746855
23.008849
23.015292
23.021018
23.026816
23.03222
23.037134
23.041856
23.044703
23.052731
23.056663
23.056241
23.050538
23.035738
23.003129
22.935193
22.813821
22.595025
22.215927
21.588587
20.595265
19.083689
16.90119
13.925597
10.133798
5.6536508
12.383121
12.393929
12.401365
12.4071
12.411668
12.415303
12.415901
12.384684
12.393975
12.39967
12.40035
12.397256
12.388471
12.366219
12.313484
12.242871
12.122237
11.914455
11.573632
11.039827
10.218942
9.0363875
7.4375072
5.4272717
3.123453
)
;

boundaryField
{
    Walls
    {
        Cmu             0.09;
        kappa           0.41;
        E               9.8;
        beta1           0.075;
        type            omegaWallFunction;
        value           nonuniform List<scalar> 
38
(
12058.176
12058.132
12058.179
12058.527
12061.541
12087.331
13483.832
13537.97
14920.886
15030.835
15116.533
15201.166
15274.982
15322.81
15370.902
15415.258
15440.679
15467.074
15492.949
15509.098
15524.315
15535.186
15542.896
15550.377
15555.303
15566.173
15571.648
15564.829
15571.072
15575.566
15569.898
15574.555
15581.36
15574.234
15570.895
15569.003
15563.527
15504.558
)
;
    }
    Inlet
    {
        type            turbulentMixingLengthDissipationRateInlet;
        mixingLength    0.03;
        phi             phi;
        k               k;
        value           nonuniform List<scalar> 3(0.0046279754 0.0050128058 0.0046794747);
    }
    Outlet
    {
        type            inletOutlet;
        inletValue      uniform 1e-05;
        value           nonuniform List<scalar> 
86
(
1e-05
1e-05
1e-05
1e-05
1e-05
1e-05
1e-05
1e-05
1e-05
1e-05
1e-05
1e-05
1e-05
1e-05
1e-05
1e-05
1e-05
1e-05
1e-05
1e-05
1e-05
1e-05
1e-05
1e-05
1e-05
1e-05
1e-05
1e-05
1e-05
1e-05
220.21169
219.31257
197.40468
1e-05
1e-05
1e-05
1e-05
49.55256
44.078666
33.918768
1e-05
1e-05
1e-05
11.097157
11.620506
12.004137
12.018728
11.921103
11.865336
11.864761
11.816384
11.842759
11.91473
12.024631
12.136084
12.162756
12.102713
12.044287
12.064075
12.123265
12.174438
12.217905
12.258605
12.314622
12.350835
1e-05
1e-05
1e-05
1e-05
1e-05
1e-05
1e-05
1e-05
1e-05
1e-05
1e-05
1e-05
1e-05
1e-05
1e-05
1e-05
1e-05
1e-05
1e-05
195.76118
219.26984
)
;
    }
    Front
    {
        type            wedge;
    }
    Back
    {
        type            wedge;
    }
    defaultFaces
    {
        type            empty;
    }
}


// ************************************************************************* //
