/*--------------------------------*- C++ -*----------------------------------*\
| =========                 |                                                 |
| \\      /  F ield         | OpenFOAM: The Open Source CFD Toolbox           |
|  \\    /   O peration     | Version:  4.0                                   |
|   \\  /    A nd           | Web:      www.OpenFOAM.org                      |
|    \\/     M anipulation  |                                                 |
\*---------------------------------------------------------------------------*/
FoamFile
{
    version     2.0;
    format      ascii;
    class       volScalarField;
    location    "0.24";
    object      p;
}
// * * * * * * * * * * * * * * * * * * * * * * * * * * * * * * * * * * * * * //

dimensions      [0 2 -2 0 0 0 0];

internalField   nonuniform List<scalar> 
1740
(
491.68335
491.65604
491.64147
474.83467
474.73868
474.94784
457.99278
457.87049
458.22478
441.88459
441.88204
441.9219
425.74224
426.09004
425.95733
409.10188
409.49081
409.43513
392.6054
392.69729
392.79555
376.20445
376.17237
376.4138
359.78001
359.71645
359.94363
343.07529
343.13768
343.10586
326.20466
326.16746
326.06192
309.58895
309.37018
309.32286
293.01902
292.8433
292.58911
276.2061
276.11101
275.90978
259.21182
259.47081
259.64132
242.48378
242.92594
243.09593
226.21944
226.35175
226.21799
209.83645
209.66843
209.52974
193.1713
192.85186
192.91304
176.41816
176.13473
176.24507
159.75318
159.70046
159.77956
143.41751
143.4712
143.52861
127.14407
127.18849
127.13755
110.71646
110.74711
110.70393
94.560833
94.46237
94.385486
78.742315
78.575648
78.35577
62.790033
62.732213
62.610503
46.510604
46.656265
46.811549
30.643183
30.78973
31.078066
16.120492
16.078043
15.750443
4.2453826
3.6919406
1.6790176
-0.50043142
-0.44392674
-0.33380405
-0.073087422
-0.068639975
-0.072105049
0.039719424
0.034522235
0.017189017
0.03739814
0.03402563
0.025768664
0.029053972
0.02665613
0.022395734
0.021866985
0.020316717
0.017951437
0.016617547
0.015640139
0.014263239
0.013164824
0.012558411
0.011590808
0.010930398
0.010569912
0.0099028237
0.0093421996
0.0091171751
0.0086758438
0.0079830183
0.0078150002
0.0074787479
0.0066968104
0.0065774168
0.0063418663
0.0055430515
0.0054591985
0.0052923109
0.004520249
0.0044607296
0.0043437214
0.0036329929
0.0035895685
0.0035027718
0.0028663907
0.002834112
0.0027686463
0.0022064649
0.0021822081
0.0021325025
0.0016400765
0.0016217034
0.0015837313
0.001156405
0.0011424266
0.0011133338
0.00074676276
0.00073612184
0.00071386047
0.00040392405
0.00039586316
0.00037894146
0.0001215141
0.00011548458
0.00010280279
-0.00010641738
-0.00011083123
-0.00012011585
-0.00028562495
-0.0002887487
-0.00029530208
-0.0004217379
-0.00042382943
-0.00042818496
-0.00052021323
-0.00052148107
-0.0005240769
-0.00058628414
-0.00058689863
-0.00058809966
-0.00062494083
-0.00062503646
-0.00062513833
-0.00064096184
-0.00064067216
-0.00063994676
-0.0006385789
-0.00063802374
-0.00063671305
-0.0006213077
-0.00062055736
-0.00061883274
-0.00059264208
-0.00059175748
-0.00058976218
-0.00055582508
-0.00055487604
-0.00055274636
-0.00051352756
-0.00051256171
-0.00051039995
-0.00046799959
-0.00046705267
-0.00046493532
-0.00042110183
-0.00042020108
-0.00041818502
-0.00037433104
-0.00037349667
-0.00037162192
-0.00032883879
-0.00032807934
-0.00032637442
-0.00028545244
-0.00028477192
-0.00028325396
-0.00024477421
-0.00024417497
-0.00024284514
-0.00020724746
-0.00020672738
-0.00020557609
-0.00017310093
-0.00017265697
-0.000171676
-0.00014232726
-0.00014195668
-0.00014113949
-0.00011475279
-0.00011445133
-0.00011378733
-9.0079571e-05
-8.9841562e-05
-8.931746e-05
-6.7882775e-05
-6.7702627e-05
-6.7305682e-05
-4.7584765e-05
-4.7457776e-05
-4.7177697e-05
-2.8451443e-05
-2.8375029e-05
-2.8206009e-05
-9.6176636e-06
-9.5919792e-06
-9.5342575e-06
-1.2599924
-0.88614317
-0.26783229
-0.20943436
-0.070812518
-0.067260537
0.0071393751
0.0028622785
0.020314492
0.01781926
0.01929895
0.017808508
0.016102734
0.015052542
0.012990763
0.012190222
0.010685047
0.010048212
0.009199313
0.0086487582
0.0081411928
0.0076572184
0.0070838905
0.0067071462
0.0060535059
0.0057660611
0.0050803951
0.004859752
0.0041864906
0.0040161954
0.0033854188
0.0032537395
0.0026798784
0.0025776788
0.0020644039
0.0019845257
0.001531105
0.001468516
0.0010726377
0.0010236995
0.00068250998
0.00064449762
0.0003550056
0.0003258375
8.4817727e-05
6.287912e-05
-0.0001332808
-0.00014929288
-0.00030455389
-0.00031571405
-0.00043426706
-0.00044147449
-0.00052761365
-0.00053163154
-0.00058961826
-0.00059110297
-0.00062507052
-0.00062457206
-0.00063868058
-0.00063668718
-0.00063458097
-0.00063147286
-0.00061610408
-0.00061226197
-0.00058665554
-0.00058236392
-0.00054945702
-0.00054495829
-0.00050707674
-0.00050256027
-0.00046169103
-0.00045730116
-0.00041510382
-0.00041094792
-0.00036876333
-0.00036491675
-0.00032377842
-0.00032029174
-0.00028094388
-0.00027784597
-0.00024082233
-0.00023811257
-0.00020382578
-0.00020148304
-0.00017018557
-0.00016819305
-0.00013989877
-0.00013824199
-0.00011277962
-0.00011143461
-8.8521934e-05
-8.7460047e-05
-6.6702917e-05
-6.5898219e-05
-4.6752422e-05
-4.6184743e-05
-2.7949606e-05
-2.7607428e-05
-9.4466387e-06
-9.3296702e-06
0.015683862
0.015625316
0.0154768
0.015215964
0.014828526
0.014322201
0.013700302
0.01296794
0.012136852
0.011226602
0.010254708
0.009248519
0.0082438406
0.0072778954
0.0063759526
0.0055388215
0.0047559116
0.0040260619
0.0033492154
0.0027238646
0.0021475522
0.0016127474
0.0011125656
0.00064304747
0.0002040457
0.015556202
0.015519782
0.015350634
0.015030333
0.014547318
0.013916006
0.013149214
0.012261612
0.011276735
0.010234275
0.0091846298
0.00816478
0.0071943169
0.0062766442
0.0054143447
0.0046175787
0.0038991364
0.0032599224
0.0026851996
0.002166913
0.0016976578
0.0012684555
0.00087271503
0.00050770937
0.00016952984
0.011752342
0.011622197
0.011222983
0.01056518
0.009605723
0.0083855669
0.0069834803
0.0055284851
0.0042071161
0.0030596953
0.0020963484
0.0013105373
0.00068279754
0.00018970684
-0.00018224727
-0.00044363055
-0.00060746681
-0.000691087
-0.00070110842
-0.00064981268
-0.00055238965
-0.00042792414
-0.00028757618
-0.00014234142
-1.1636553e-05
-0.0033838167
-0.0038774566
-0.0051194242
-0.0069789549
-0.0089940212
-0.010763356
-0.012074856
-0.012883041
-0.013299508
-0.013380712
-0.013185099
-0.012772514
-0.01218978
-0.011458814
-0.010613883
-0.0096831687
-0.0086881771
-0.0076468334
-0.0065749182
-0.0054893455
-0.004408796
-0.0033545863
-0.0023237858
-0.0013267136
-0.00039396625
-0.053565881
-0.054313179
-0.055152539
-0.053988
-0.052044579
-0.049160945
-0.045853139
-0.042302888
-0.038638401
-0.034974217
-0.03149983
-0.028219473
-0.025106966
-0.021960968
-0.019057926
-0.016413079
-0.014014091
-0.011841797
-0.0098715968
-0.0080744204
-0.0064179537
-0.004866392
-0.0034106823
-0.0020290159
-0.00070555589
-0.21615529
-0.17439566
-0.155436
-0.12567974
-0.10120138
-0.079770131
-0.061568372
-0.046774383
-0.034958493
-0.025607801
-0.01820415
-0.012458301
-0.0080718376
-0.0049082702
-0.0025339206
-0.00083629511
0.00032168787
0.0010510359
0.001439372
0.0015585472
0.001470437
0.0012343937
0.00089237681
0.00048717054
1.5928154e-05
-0.31718029
-0.11762753
-0.069484179
-0.033865705
-0.0013715683
0.024285905
0.040283626
0.047710418
0.049823295
0.049209973
0.04712767
0.04414937
0.040641513
0.036871508
0.033030594
0.029237158
0.025559249
0.022031172
0.018663088
0.01544963
0.012376192
0.0094264265
0.0065739569
0.0038071656
0.0010368948
-0.1748518
-0.15452565
-0.13266648
-0.10984845
-0.088038366
-0.068660503
-0.052309663
-0.039071355
-0.02856064
-0.020308461
-0.013917577
-0.0090414861
-0.0053803794
-0.0026520139
-0.0006745249
0.00069795582
0.0015855793
0.0020889612
0.0022871142
0.002244031
0.0020132381
0.0016427457
0.0011732305
0.00064753932
6.0449866e-05
-0.065927123
-0.065435642
-0.064162619
-0.061853586
-0.058559418
-0.054552196
-0.050287761
-0.045941299
-0.041628763
-0.037512011
-0.033614045
-0.029810182
-0.026211286
-0.022900972
-0.019881593
-0.017133569
-0.014626747
-0.012340263
-0.010258483
-0.0083599193
-0.0066206857
-0.0050152073
-0.003518868
-0.0021020746
-0.00074016507
-0.0014657566
-0.0057555105
-0.0097764251
-0.013260335
-0.015992922
-0.017902018
-0.019063083
-0.019561816
-0.019529928
-0.019101556
-0.018388673
-0.017473989
-0.016389129
-0.015173943
-0.013868716
-0.012508947
-0.011128896
-0.0097452646
-0.0083618912
-0.006984867
-0.0056211417
-0.0042786481
-0.0029671225
-0.0016991872
-0.00051038875
0.016911935
0.015461123
0.013431173
0.010808913
0.0078978293
0.0050906304
0.0027091578
0.00079550734
-0.00068577468
-0.0018080506
-0.0026378527
-0.0032127313
-0.0035656597
-0.0037319916
-0.0037473508
-0.0036358
-0.0034201819
-0.003124308
-0.0027663641
-0.0023615835
-0.0019239968
-0.0014675512
-0.0010063676
-0.00055372844
-0.00013587141
0.01736886
0.016947872
0.016225842
0.015413959
0.014297961
0.012937052
0.011412954
0.0098573086
0.0083972875
0.0070489037
0.0058144358
0.004749002
0.0038480892
0.0030949806
0.0024745685
0.0019659566
0.0015525983
0.0012178099
0.00094643935
0.00072561333
0.00054439632
0.00039332774
0.00026480931
0.00015518432
6.1513915e-05
0.014651541
0.014406307
0.014056217
0.013506761
0.012916471
0.012198797
0.011341924
0.010391508
0.0093997192
0.0084216499
0.0074953423
0.0066150867
0.0057932448
0.0050367779
0.0043463082
0.0037216422
0.0031600294
0.0026544422
0.0021968737
0.0017799046
0.0013970748
0.0010433389
0.00071484133
0.00040978704
0.00012966729
0.011798583
0.011585847
0.011381955
0.011117155
0.010785505
0.010365254
0.0098465077
0.0092210915
0.0084919478
0.0077394821
0.0070125073
0.0063020807
0.0056118688
0.004952937
0.0043259813
0.0037419388
0.003207135
0.0027153961
0.0022619239
0.0018427631
0.00145434
0.0010929676
0.00075505696
0.00043730507
0.00013775667
0.00967797
0.009464939
0.0093072836
0.0091465053
0.0089469348
0.0086908657
0.0083634847
0.0079544712
0.0074729679
0.0069488787
0.006404083
0.0058459151
0.0052798725
0.0047157484
0.0041802481
0.0036760404
0.0031900932
0.0027284277
0.0022922541
0.0018812814
0.0014945039
0.0011300811
0.00078558281
0.0004582243
0.00014521096
0.0082780096
0.0080352701
0.0078606752
0.0077173304
0.0075705366
0.0073964787
0.0071799346
0.0069106559
0.0065876972
0.0062230118
0.0058263082
0.0054051336
0.0049689541
0.0045226854
0.0040660267
0.0036119679
0.0031674826
0.0027383536
0.0023223027
0.001921118
0.0015363292
0.0011678103
0.00081485361
0.0004767542
0.00015184896
0.0072925584
0.0070309926
0.0068377649
0.0066826857
0.0065430848
0.0064000795
0.0062370428
0.0060448852
0.0058170638
0.0055549199
0.0052627958
0.0049433689
0.0046011054
0.0042432846
0.0038730664
0.0034855464
0.0030917666
0.0026941086
0.0023009074
0.0019148385
0.0015401073
0.0011769211
0.0008252964
0.00048528475
0.00015571188
0.0063928814
0.0061456653
0.0059563536
0.0058023138
0.0056678336
0.005538372
0.0054028865
0.0052524107
0.0050797984
0.0048824459
0.0046599532
0.0044131359
0.0041426894
0.0038510806
0.0035411085
0.0032138912
0.0028738816
0.0025257756
0.0021750463
0.0018254459
0.001477426
0.0011338976
0.0007968554
0.00046785572
0.00014916325
0.0055106865
0.0052971144
0.005123355
0.0049790862
0.0048534238
0.0047358241
0.004617681
0.004491759
0.0043527702
0.0041969235
0.0040219555
0.0038270251
0.0036118289
0.0033771296
0.0031236621
0.002852715
0.0025668905
0.0022695683
0.0019648575
0.0016561563
0.0013456639
0.0010361134
0.00072992606
0.000429606
0.00013737096
0.0046563181
0.0044758175
0.0043226192
0.0041925358
0.0040775544
0.0039717074
0.0038679492
0.0037606812
0.0036457009
0.0035195165
0.0033796208
0.0032244771
0.0030532116
0.0028653528
0.0026610734
0.0024407586
0.002206151
0.0019597486
0.001703998
0.0014416379
0.0011751373
0.00090711679
0.00063991993
0.00037730644
0.00012237726
0.0038520297
0.0037024313
0.0035707881
0.0034557597
0.0033535686
0.0032587237
0.0031679194
0.003076409
0.0029806346
0.0028777296
0.0027651904
0.0026414364
0.0025054275
0.0023565134
0.0021942744
0.0020187487
0.0018306313
0.0016314263
0.0014229922
0.0012073511
0.00098663684
0.00076312414
0.00053917468
0.00031857452
0.00010455143
0.0031217941
0.0029979464
0.0028857707
0.0027855458
0.0026952865
0.0026120005
0.0025324206
0.0024541667
0.0023741308
0.0022898875
0.0021994463
0.0021012811
0.0019943332
0.0018778216
0.0017510369
0.0016137285
0.0014663582
0.001309696
0.001144904
0.00097347026
0.00079710826
0.00061771848
0.00043737587
0.00025882594
8.3989612e-05
0.002471755
0.0023696355
0.0022747794
0.0021882287
0.0021093592
0.0020366252
0.0019678676
0.0019011031
0.0018342993
0.0017655431
0.0016932481
0.0016161875
0.0015333155
0.0014437541
0.0013468086
0.0012421744
0.0011299714
0.0010105855
0.00088473683
0.00075341847
0.00061788905
0.00047963861
0.00034028151
0.00020155655
6.4675295e-05
0.0018998988
0.0018161969
0.001736717
0.0016629516
0.0015950728
0.0015323839
0.0014736812
0.0014175143
0.0013624347
0.0013070651
0.0012502076
0.0011908312
0.0011280238
0.0010610053
0.00098917904
0.00091220782
0.00083000202
0.00074271147
0.00065072959
0.00055467286
0.00045538668
0.00035390328
0.00025128529
0.00014881377
4.7572046e-05
0.0014011541
0.0013330956
0.0012673739
0.0012055816
0.0011483049
0.0010953908
0.0010462843
0.0010000712
0.00095572738
0.00091227098
0.00086883353
0.00082460069
0.00077882925
0.00073088381
0.00068026156
0.00062662612
0.00056979585
0.0005097629
0.00044668711
0.00038090065
0.00031289977
0.00024331581
0.00017280661
0.00010228723
3.2611095e-05
0.0009703273
0.00091563898
0.00086213583
0.00081141734
0.00076423487
0.0007208032
0.00068091659
0.00064410505
0.00060969634
0.00057700869
0.00054545213
0.00051440176
0.00048328923
0.00045161014
0.00041894707
0.00038497577
0.00034947531
0.00031232983
0.00027353676
0.00023321716
0.00019160744
0.00014902949
0.00010583646
6.25979e-05
1.9870841e-05
0.000602627
0.00055937045
0.00051667216
0.00047607108
0.00043833935
0.00040389717
0.00037279102
0.00034483729
0.00031964913
0.00029675579
0.00027581005
0.00025632865
0.00023788201
0.00022007914
0.00020257131
0.00018506095
0.00016730588
0.00014912506
0.00013040456
0.00011110445
9.1254061e-05
7.0952697e-05
5.0305424e-05
2.9712774e-05
9.357117e-06
0.00029352371
0.00026000563
0.00022689403
0.00019533819
0.00016630231
0.00014024016
0.00011735938
9.7653405e-05
8.0965572e-05
6.6954111e-05
5.5420633e-05
4.6047512e-05
3.8497364e-05
3.2450581e-05
2.7616148e-05
2.3722901e-05
2.0519081e-05
1.778057e-05
1.5321715e-05
1.2986502e-05
1.0662525e-05
8.2784e-06
5.7626296e-06
3.2710663e-06
7.9485293e-07
3.85409e-05
1.3312378e-05
-1.1510281e-05
-3.4932286e-05
-5.6130639e-05
-7.454578e-05
-8.98908e-05
-0.00010206078
-0.00011109346
-0.00011716278
-0.00012044975
-0.00012110746
-0.00011941337
-0.00011563104
-0.00011002399
-0.00010284962
-9.4355288e-05
-8.4787894e-05
-7.4389594e-05
-6.3388411e-05
-5.2002428e-05
-4.042757e-05
-2.8852807e-05
-1.7235175e-05
-5.777646e-06
-0.00016699318
-0.00018521221
-0.00020290421
-0.00021919345
-0.00023338702
-0.00024497536
-0.00025358818
-0.00025905271
-0.00026133343
-0.00026048657
-0.00025666551
-0.00024998418
-0.00024062124
-0.00022881108
-0.00021479974
-0.00019883302
-0.00018117082
-0.00016207527
-0.00014181787
-0.00012067775
-9.8932544e-05
-7.6851949e-05
-5.4707154e-05
-3.2498065e-05
-1.0605212e-05
-0.00032791816
-0.00034025143
-0.00035186583
-0.00036202053
-0.0003701216
-0.00037570683
-0.00037845947
-0.00037811775
-0.0003746165
-0.00036794628
-0.00035819121
-0.00034547506
-0.00032993802
-0.00031177347
-0.00029120878
-0.00026849806
-0.00024390107
-0.00021769526
-0.00019017281
-0.00016163639
-0.00013239932
-0.00010276937
-7.3061085e-05
-4.3301571e-05
-1.3983738e-05
-0.0004491603
-0.00045660218
-0.00046311729
-0.00046809753
-0.00047103385
-0.00047151864
-0.00046925005
-0.00046403767
-0.00045572892
-0.00044430526
-0.00042980001
-0.00041232582
-0.00039201147
-0.00036903622
-0.00034360262
-0.00031596796
-0.0002863904
-0.00025516025
-0.00022257953
-0.00018896077
-0.00015463082
-0.0001199215
-8.5167441e-05
-5.0411161e-05
-1.618976e-05
-0.00053564222
-0.00053907902
-0.00054139672
-0.00054210385
-0.00054077309
-0.00053705218
-0.00053067608
-0.0005214715
-0.00050931155
-0.00049415277
-0.00047601135
-0.00045498632
-0.00043119517
-0.00040479878
-0.000376009
-0.00034505462
-0.00031218959
-0.00027771738
-0.00024193859
-0.00020516327
-0.00016772143
-0.00012995123
-9.2206389e-05
-5.4534114e-05
-1.7465543e-05
-0.00059217463
-0.00059239909
-0.00059134428
-0.0005886158
-0.0005838682
-0.00057680584
-0.00056719885
-0.00055489062
-0.00053978149
-0.00052182976
-0.00050107316
-0.00047757888
-0.00045146366
-0.00042288798
-0.00039204055
-0.00035913716
-0.00032444809
-0.00028824141
-0.00025081837
-0.00021247123
-0.00017353176
-0.00013433784
-9.525379e-05
-5.6295935e-05
-1.8034942e-05
-0.00062335359
-0.00062107701
-0.00061740095
-0.00061201306
-0.00060463713
-0.00059503367
-0.0005830125
-0.00056843631
-0.00055123015
-0.00053137307
-0.00050890272
-0.00048388386
-0.00045644299
-0.00042672727
-0.00039492185
-0.00036122964
-0.00032590243
-0.00028919479
-0.00025138031
-0.00021275799
-0.00017363359
-0.00013432241
-9.5313587e-05
-5.6167242e-05
-1.7729065e-05
-0.00063373134
-0.00062956029
-0.00062389495
-0.00061649039
-0.00060716499
-0.00059571938
-0.00058200468
-0.00056591063
-0.00054737992
-0.00052640537
-0.00050302787
-0.00047731884
-0.00044939785
-0.00041940892
-0.00038753534
-0.0003539744
-0.00031894965
-0.00028270088
-0.00024546826
-0.0002075489
-0.0001692261
-0.00013077173
-9.2379263e-05
-5.4567879e-05
-1.7322483e-05
-0.00062722137
-0.00062163778
-0.0006145499
-0.00060577349
-0.00059510882
-0.00058243564
-0.00056765088
-0.00055069112
-0.00053151613
-0.00051012267
-0.00048654343
-0.00046085719
-0.00043317573
-0.00040364217
-0.00037241961
-0.00033971161
-0.00030571656
-0.0002706584
-0.0002347904
-0.00019836561
-0.00016163418
-0.0001248523
-8.8338807e-05
-5.2071204e-05
-1.641947e-05
-0.00060717366
-0.00060070323
-0.00059271339
-0.00058306835
-0.00057164632
-0.00055834991
-0.00054310601
-0.00052586724
-0.00050661986
-0.00048537576
-0.00046217593
-0.00043709585
-0.00041024184
-0.0003817492
-0.00035177421
-0.00032049634
-0.00028811306
-0.00025483598
-0.00022089147
-0.00018650985
-0.00015192232
-0.00011736436
-8.311542e-05
-4.8938663e-05
-1.5299164e-05
-0.00057679282
-0.00056983893
-0.00056140511
-0.00055139186
-0.00053970813
-0.00052628532
-0.00051107628
-0.00049405567
-0.00047522314
-0.00045460599
-0.00043225254
-0.00040824087
-0.00038267119
-0.00035566986
-0.00032738204
-0.00029797289
-0.00026762543
-0.00023653225
-0.00020489874
-0.00017293248
-0.00014084091
-0.00010882829
-7.7135134e-05
-4.538727e-05
-1.4082428e-05
-0.0005391832
-0.00053205851
-0.00052351711
-0.000513489
-0.00050191326
-0.00048874416
-0.00047395533
-0.0004575389
-0.00043950612
-0.00041988926
-0.00039874532
-0.0003761505
-0.000352202
-0.00032701433
-0.00030072397
-0.00027348088
-0.00024544901
-0.00021680298
-0.00018772489
-0.00015839989
-0.00012901318
-9.9738805e-05
-7.0790166e-05
-4.1637065e-05
-1.2797953e-05
-0.00049680542
-0.0004897602
-0.00048137755
-0.00047161884
-0.00046044427
-0.00044782652
-0.00043375505
-0.00041823442
-0.00040128613
-0.00038294797
-0.00036327596
-0.00034234488
-0.0003202468
-0.00029708715
-0.00027298959
-0.00024808897
-0.0002225313
-0.00019647114
-0.00017007152
-0.00014349754
-0.00011691598
-9.0476401e-05
-6.4382007e-05
-3.7860554e-05
-1.146577e-05
-0.00045173693
-0.00044496506
-0.00043695066
-0.00042767829
-0.00041712486
-0.00040527995
-0.00039214225
-0.00037772589
-0.00036205996
-0.00034518545
-0.00032715755
-0.00030804618
-0.00028793389
-0.00026691914
-0.00024511229
-0.00022263207
-0.00019960763
-0.00017617569
-0.00015248022
-0.0001286713
-0.00010490545
-8.1314982e-05
-5.8161477e-05
-3.4192019e-05
-1.0069106e-05
-0.00040570041
-0.00039934164
-0.00039185026
-0.00038321499
-0.00037344099
-0.00036252303
-0.00035046374
-0.00033728733
-0.0003230261
-0.00030772195
-0.00029142815
-0.0002742092
-0.0002561403
-0.00023730868
-0.00021780963
-0.00019774919
-0.00017723993
-0.00015640073
-0.0001353575
-0.00011424615
-9.3231583e-05
-7.2394022e-05
-5.2334169e-05
-3.0714973e-05
-8.5189803e-06
-0.0003600737
-0.00035422578
-0.00034736342
-0.00033945784
-0.00033056667
-0.00032066591
-0.00030977124
-0.00029790786
-0.00028510963
-0.00027141816
-0.00025688312
-0.00024156379
-0.0002255277
-0.00020885056
-0.00019161545
-0.00017391338
-0.00015584121
-0.00013750075
-0.00011899753
-0.00010043749
-8.2081832e-05
-6.3601439e-05
-4.6753086e-05
-2.7128507e-05
-7.1063318e-06
-0.00031591105
-0.0003106322
-0.00030445117
-0.00029736543
-0.00028939721
-0.00028055409
-0.00027085347
-0.0002603221
-0.00024899316
-0.00023690528
-0.00022410244
-0.00021063893
-0.00019657413
-0.00018197355
-0.00016690849
-0.00015145598
-0.00013569786
-0.00011972169
-0.0001036156
-8.7475033e-05
-7.1415854e-05
-5.545858e-05
-4.0111771e-05
-2.3496323e-05
-6.391988e-06
-0.00027396053
-0.0002692863
-0.00026382194
-0.00025757023
-0.00025054544
-0.00024277012
-0.00023426142
-0.00022504579
-0.00021515326
-0.00020461791
-0.00019348122
-0.0001817911
-0.00016959915
-0.00015696092
-0.00014393684
-0.00013059194
-0.00011699497
-0.0001032175
-8.9331711e-05
-7.5411554e-05
-6.1526852e-05
-4.7715419e-05
-3.4130674e-05
-1.9985861e-05
-5.6102444e-06
-0.00023471881
-0.00023064349
-0.00022589005
-0.00022046535
-0.00021438229
-0.00020766087
-0.00020032106
-0.00019238216
-0.0001838684
-0.00017481219
-0.00016525241
-0.00015522961
-0.00014478766
-0.00013397375
-0.00012283977
-0.00011144034
-9.9831557e-05
-8.8071547e-05
-7.6219182e-05
-6.4331179e-05
-5.2456857e-05
-4.0616304e-05
-2.8904969e-05
-1.6838479e-05
-4.6961066e-06
-0.00019855306
-0.00019504317
-0.00019096348
-0.00018632642
-0.00018114306
-0.00017542261
-0.00016918708
-0.00016245188
-0.00015523838
-0.00014757528
-0.00013949423
-0.00013102372
-0.00012220039
-0.00011306563
-0.0001036636
-9.4039403e-05
-8.4239237e-05
-7.4311029e-05
-6.4302044e-05
-5.4256893e-05
-4.4215388e-05
-3.4187963e-05
-2.4280663e-05
-1.4067916e-05
-3.8308278e-06
-0.00016570501
-0.00016273013
-0.00015927977
-0.00015536629
-0.00015100003
-0.00014619058
-0.000140955
-0.00013531378
-0.00012928881
-0.00012290127
-0.00011617236
-0.00010912489
-0.00010178709
-9.4190608e-05
-8.6368017e-05
-7.8354785e-05
-7.0190028e-05
-6.191299e-05
-5.3562091e-05
-4.5172752e-05
-3.6775787e-05
-2.8387006e-05
-2.007709e-05
-1.162095e-05
-3.1466073e-06
-0.0001361757
-0.0001337071
-0.00013084372
-0.0001275937
-0.00012396784
-0.00011998166
-0.00011564851
-0.00011098866
-0.00010602135
-0.00010076375
-9.5234277e-05
-8.9456039e-05
-8.345075e-05
-7.7239061e-05
-7.0842668e-05
-6.428627e-05
-5.7597522e-05
-5.0806158e-05
-4.39425e-05
-3.7035814e-05
-3.0110923e-05
-2.3189378e-05
-1.6312181e-05
-9.4611577e-06
-2.6319525e-06
-0.00010975771
-0.00010775432
-0.00010542991
-0.00010279129
-9.984899e-05
-9.6617223e-05
-9.3108442e-05
-8.9335833e-05
-8.531402e-05
-8.1059467e-05
-7.659116e-05
-7.1929471e-05
-6.7092128e-05
-6.2095941e-05
-5.6959155e-05
-5.1699175e-05
-4.6331833e-05
-4.0875158e-05
-3.5349087e-05
-2.9776291e-05
-2.4178442e-05
-1.857855e-05
-1.3033722e-05
-7.5569755e-06
-2.140743e-06
-8.6135984e-05
-8.4554123e-05
-8.2719561e-05
-8.0638951e-05
-7.8321079e-05
-7.5776123e-05
-7.3013674e-05
-7.0044049e-05
-6.6878794e-05
-6.3531753e-05
-6.0017652e-05
-5.6350471e-05
-5.2544689e-05
-4.8616299e-05
-4.4581958e-05
-4.0456735e-05
-3.6253488e-05
-3.1983679e-05
-2.7658633e-05
-2.3291493e-05
-1.8899885e-05
-1.4507524e-05
-1.0173192e-05
-5.8957309e-06
-1.6712473e-06
-6.4894859e-05
-6.3696466e-05
-6.2307491e-05
-6.0733502e-05
-5.8981085e-05
-5.7057364e-05
-5.4969801e-05
-5.2726789e-05
-5.0337698e-05
-4.7812956e-05
-4.5161721e-05
-4.2393829e-05
-3.9520155e-05
-3.6552733e-05
-3.3503425e-05
-3.0384595e-05
-2.7210039e-05
-2.399102e-05
-2.0737445e-05
-1.7457415e-05
-1.4163266e-05
-1.0872604e-05
-7.6304721e-06
-4.4202787e-06
-1.240106e-06
-4.5477093e-05
-4.463225e-05
-4.3653657e-05
-4.2545459e-05
-4.1312302e-05
-3.995916e-05
-3.8491382e-05
-3.6914898e-05
-3.5236773e-05
-3.346387e-05
-3.1602363e-05
-2.9658485e-05
-2.7640223e-05
-2.5555602e-05
-2.34121e-05
-2.1218223e-05
-1.8983755e-05
-1.6719203e-05
-1.4434911e-05
-1.2141047e-05
-9.8474069e-06
-7.565389e-06
-5.3255926e-06
-3.0778952e-06
-8.3796823e-07
-2.718102e-05
-2.6672203e-05
-2.6083216e-05
-2.5416692e-05
-2.467555e-05
-2.3862941e-05
-2.2982249e-05
-2.2036767e-05
-2.1030558e-05
-1.9966715e-05
-1.8849828e-05
-1.7684159e-05
-1.6474211e-05
-1.5224617e-05
-1.3939972e-05
-1.2625163e-05
-1.1285244e-05
-9.926721e-06
-8.5571602e-06
-7.1860958e-06
-5.8229175e-06
-4.4758829e-06
-3.1666897e-06
-1.8197437e-06
-4.6854957e-07
-9.1839269e-06
-9.0101234e-06
-8.8090953e-06
-8.581809e-06
-8.3293531e-06
-8.0529697e-06
-7.7541064e-06
-7.4326481e-06
-7.0909779e-06
-6.7292262e-06
-6.3496238e-06
-5.9539033e-06
-5.5434835e-06
-5.119789e-06
-4.6844156e-06
-4.2390394e-06
-3.7852521e-06
-3.3250197e-06
-2.8609161e-06
-2.396649e-06
-1.9377623e-06
-1.4879249e-06
-1.0754935e-06
-6.2366855e-07
-1.3512169e-07
)
;

boundaryField
{
    Walls
    {
        type            zeroGradient;
    }
    Inlet
    {
        type            fixedValue;
        value           uniform 500;
    }
    Outlet
    {
        type            fixedValue;
        value           uniform 0;
    }
    Front
    {
        type            wedge;
    }
    Back
    {
        type            wedge;
    }
    defaultFaces
    {
        type            empty;
    }
}


// ************************************************************************* //
