/*--------------------------------*- C++ -*----------------------------------*\
| =========                 |                                                 |
| \\      /  F ield         | OpenFOAM: The Open Source CFD Toolbox           |
|  \\    /   O peration     | Version:  4.0                                   |
|   \\  /    A nd           | Web:      www.OpenFOAM.org                      |
|    \\/     M anipulation  |                                                 |
\*---------------------------------------------------------------------------*/
FoamFile
{
    version     2.0;
    format      ascii;
    class       surfaceScalarField;
    location    "0.24";
    object      phi;
}
// * * * * * * * * * * * * * * * * * * * * * * * * * * * * * * * * * * * * * //

dimensions      [0 3 -1 0 0 0 0];

internalField   nonuniform List<scalar> 
3364
(
-4.6386687e-11
1.6061465e-08
-5.2771923e-10
4.9158191e-08
8.8185157e-08
-8.1941899e-12
1.6069632e-08
-1.9094412e-09
5.105948e-08
8.6275738e-08
2.1800412e-11
1.6047807e-08
-2.1473898e-09
5.3228718e-08
8.4128346e-08
-3.5311476e-10
1.6400912e-08
5.1579992e-11
5.2824022e-08
8.4179892e-08
-6.9090855e-10
1.7091803e-08
1.0645721e-09
5.1068478e-08
8.5244421e-08
-3.0919664e-10
1.7400955e-08
6.2274657e-10
5.0136469e-08
8.5867139e-08
1.179896e-10
1.7282904e-08
3.9866428e-10
4.9855718e-08
8.6265765e-08
8.446944e-11
1.7198369e-08
-1.2627661e-09
5.1202888e-08
8.5002977e-08
2.199731e-10
1.6978345e-08
-1.3021681e-09
5.2724997e-08
8.3700803e-08
-2.0192211e-10
1.7180218e-08
1.9031826e-10
5.2332733e-08
8.3891109e-08
-1.9690678e-10
1.737711e-08
2.0826498e-10
5.1927516e-08
8.4099323e-08
4.4520756e-10
1.6931895e-08
-1.3101368e-10
5.2503685e-08
8.3968265e-08
3.4353704e-10
1.6588315e-08
1.0536394e-09
5.1793549e-08
8.5021875e-08
1.5902476e-11
1.6572387e-08
5.3132245e-10
5.1278095e-08
8.5553166e-08
-5.0850902e-10
1.7080878e-08
-1.1924868e-09
5.1962064e-08
8.4360648e-08
-8.1018631e-10
1.7890995e-08
-3.4724107e-11
5.1186544e-08
8.4325893e-08
-3.6908389e-11
1.7927839e-08
1.433777e-09
4.9715786e-08
8.5759632e-08
6.8328995e-10
1.7244508e-08
1.0355875e-09
4.9363432e-08
8.6795179e-08
4.3005253e-10
1.6814434e-08
-5.0944601e-10
5.0302892e-08
8.6285688e-08
3.5986865e-10
1.6454562e-08
-7.1444144e-10
5.1377179e-08
8.5571202e-08
4.0089859e-10
1.6053628e-08
-2.7201054e-10
5.2050053e-08
8.5299149e-08
2.3907332e-11
1.6029657e-08
-7.2140368e-10
5.2795307e-08
8.4577703e-08
-1.3137474e-10
1.6160979e-08
-1.7093676e-11
5.2680986e-08
8.4560575e-08
-2.5918862e-10
1.6420139e-08
7.945815e-10
5.1627171e-08
8.5355105e-08
-2.7886312e-10
1.6698994e-08
3.2061523e-10
5.1027626e-08
8.567566e-08
1.6495013e-10
1.653403e-08
8.811505e-11
5.1104444e-08
8.5763735e-08
6.5778478e-11
1.6468235e-08
-1.1728636e-10
5.128751e-08
8.5646429e-08
-2.6090199e-10
1.6729099e-08
-8.0363769e-10
5.1830221e-08
8.4842767e-08
-3.4274585e-10
1.7071861e-08
-1.0504722e-09
5.2538027e-08
8.3792299e-08
1.3294157e-09
1.5742654e-08
4.8118456e-09
4.9055716e-08
8.8604131e-08
1.1380998e-08
4.3610005e-09
4.9315909e-08
1.1118924e-08
1.0671137e-08
1.2724633e-07
4.8435823e-09
-4.8305604e-10
1.723117e-08
-1.2701533e-09
-1.4752596e-09
2.9375684e-08
-3.8721993e-10
-9.5803145e-11
-1.3997248e-09
-2.5758042e-10
-4.1476985e-10
-2.4601163e-09
-9.8798118e-11
3.0102007e-12
-3.5894522e-10
2.6031375e-12
-4.933863e-11
-7.243355e-10
-8.2868838e-12
1.129909e-11
-3.170487e-11
2.6026426e-11
1.9712147e-11
-1.007487e-10
2.2932512e-12
9.0060681e-12
6.0763042e-12
2.224399e-11
2.9613694e-11
-3.8248946e-12
2.6734175e-12
6.3324841e-12
8.5325774e-12
1.6384548e-11
2.4098612e-11
1.4047309e-11
2.5039324e-12
3.8285956e-12
8.0969723e-12
1.0791381e-11
1.5650759e-11
1.6544829e-11
1.3961327e-12
2.4325736e-12
5.2217991e-12
6.9658858e-12
9.8308757e-12
1.1041881e-11
6.6649919e-13
1.7661875e-12
2.544201e-12
5.0883917e-12
7.1508771e-12
5.224493e-12
1.8706007e-13
1.5792337e-12
7.210495e-13
4.5545952e-12
6.5914488e-12
1.2807701e-12
7.014053e-14
1.5091786e-12
2.6929222e-13
4.3555951e-12
6.7147762e-12
1.4618957e-13
9.8521625e-14
1.4107176e-12
3.2670143e-13
4.1275178e-12
6.4738726e-12
5.6774925e-13
1.4750728e-13
1.2632502e-12
5.4861213e-13
3.7264754e-12
5.9148151e-12
1.1077498e-12
1.78331e-13
1.0849447e-12
6.8814049e-13
3.2167019e-12
5.1670919e-12
1.4359e-12
1.6235229e-13
9.2260896e-13
6.3425763e-13
2.7448178e-12
4.4492588e-12
1.3521066e-12
1.3808708e-13
7.8453261e-13
5.466023e-13
2.3363152e-12
3.8045082e-12
1.1913589e-12
1.1456769e-13
6.6997168e-13
4.546927e-13
1.9961968e-12
3.2601398e-12
9.9906137e-13
9.8002895e-14
5.7197272e-13
3.8842488e-13
1.7057765e-12
2.7909317e-12
8.5762856e-13
8.7077615e-14
4.8489694e-13
3.4507404e-13
1.447778e-12
2.3734255e-12
7.6257158e-13
7.8595206e-14
4.063021e-13
3.1206781e-13
1.2143004e-12
1.9933929e-12
6.9208832e-13
7.1272432e-14
3.3502899e-13
2.8367e-13
1.001896e-12
1.6459407e-12
6.3110782e-13
6.4540078e-14
2.7048752e-13
2.5739995e-13
8.0902798e-13
1.3290811e-12
5.7424381e-13
5.7897054e-14
2.1258862e-13
2.3115567e-13
6.3576051e-13
1.0440813e-12
5.1613901e-13
5.1085932e-14
1.6150058e-13
2.0400305e-13
4.8283432e-13
7.9203121e-13
4.5603662e-13
4.4535243e-14
1.1696309e-13
1.7792702e-13
3.4943351e-13
5.7227598e-13
3.9766614e-13
3.8396505e-14
7.8564313e-14
1.5347677e-13
2.3434448e-13
3.8276911e-13
3.4296821e-13
3.2404246e-14
4.6157831e-14
1.2932545e-13
1.3741496e-13
2.2264683e-13
2.8943322e-13
2.6982821e-14
1.9172859e-14
1.0781428e-13
5.6575715e-14
8.9035902e-14
2.4141173e-13
2.1764125e-14
-2.5932923e-15
8.7451945e-14
-9.1193018e-15
-1.9017861e-14
1.9549335e-13
1.7605212e-14
-2.0200379e-14
6.9664802e-14
-6.1185452e-14
-1.0480943e-13
1.5544519e-13
1.3420564e-14
-3.3622643e-14
5.3273427e-14
-1.010442e-13
-1.7013101e-13
1.1858503e-13
9.780642e-15
-4.3404802e-14
3.9267516e-14
-1.3053629e-13
-2.1821173e-13
8.7339443e-14
6.5685265e-15
-4.9974646e-14
2.6437361e-14
-1.5040965e-13
-2.5084351e-13
5.9061528e-14
3.8772666e-15
-5.385303e-14
1.5543782e-14
-1.6208002e-13
-2.6998071e-13
3.4674518e-14
1.6430311e-15
-5.5496984e-14
6.5462631e-15
-1.6698648e-13
-2.7786953e-13
1.4429715e-14
-1.5596053e-16
-5.5341765e-14
-6.7153007e-16
-1.6647354e-13
-2.7678265e-13
-1.7627998e-15
-1.5553284e-15
-5.3787014e-14
-6.2543133e-15
-1.6177666e-13
-2.6879076e-13
-1.4249701e-14
-2.5777138e-15
-5.1209733e-14
-1.0379051e-14
-1.5397696e-13
-2.5571911e-13
-2.345342e-14
-3.2595221e-15
-4.7950518e-14
-1.3204962e-14
-1.4403275e-13
-2.3917827e-13
-2.9747825e-14
-3.7162136e-15
-4.4234504e-14
-1.4819418e-14
-1.3293042e-13
-2.2065415e-13
-3.3344965e-14
-3.9509614e-15
-4.0283654e-14
-1.5788786e-14
-1.2109317e-13
-2.0091001e-13
-3.553386e-14
-3.9469467e-15
-3.6336745e-14
-1.5830464e-14
-1.0920999e-13
-1.8113858e-13
-3.5602413e-14
-3.7482e-15
-3.2588533e-14
-1.5034786e-14
-9.7923543e-14
-1.6238537e-13
-3.3788207e-14
-3.3796958e-15
-2.920879e-14
-1.3539453e-14
-8.7763804e-14
-1.4552501e-13
-3.03998e-14
-2.8698208e-15
-2.6338911e-14
-1.1452827e-14
-7.9180736e-14
-1.3130519e-13
-2.5672513e-14
-2.2404461e-15
-2.4098407e-14
-8.8683972e-15
-7.2552685e-14
-1.2034967e-13
-1.9823706e-14
-1.4971293e-15
-2.2601211e-14
-5.8875442e-15
-6.8162114e-14
-1.1308042e-13
-1.3156474e-14
-6.5485706e-16
-2.1946245e-14
-2.7359432e-15
-6.6080729e-14
-1.0958489e-13
-6.230895e-15
4.6033925e-17
4.6197901e-17
1.7128514e-17
1.3682496e-07
-9.5839197e-09
-8.7690322e-09
1.4558771e-07
2.1354231e-08
-1.5636735e-09
-1.4135088e-09
1.3998169e-08
-3.5025236e-09
-5.2113827e-10
-5.95538e-10
-4.3203489e-09
-1.1388212e-09
-1.0660178e-10
-1.5518972e-10
-1.5791077e-09
-2.1543818e-10
8.0974667e-12
-9.3203863e-14
-3.7051896e-10
-2.9212008e-11
3.3486927e-11
3.8644031e-11
-6.7945363e-11
1.7717836e-11
2.9816997e-11
3.5317428e-11
2.1045131e-11
2.7194024e-11
1.9167884e-11
2.2318111e-11
4.0193275e-11
1.9532074e-11
1.0677848e-11
1.2334366e-11
2.9515893e-11
7.8659201e-12
8.0367669e-12
8.7929352e-12
1.1407723e-11
1.4342261e-12
7.8836994e-12
8.8957973e-12
1.3318277e-12
-3.4614653e-13
8.3763371e-12
9.8405021e-12
-1.2904833e-12
5.8871757e-13
8.3555502e-12
1.0085943e-11
3.4349297e-13
1.8595308e-12
7.6038548e-12
9.5127009e-12
2.4328667e-12
2.2167931e-12
6.8229979e-12
8.389476e-12
3.3400456e-12
2.1884305e-12
5.9866829e-12
7.1665757e-12
3.4113283e-12
2.0306766e-12
5.1473607e-12
6.3118829e-12
2.8853549e-12
1.7104734e-12
4.4359393e-12
5.5218924e-12
2.5004443e-12
1.4850889e-12
3.8084656e-12
4.7502575e-12
2.2567001e-12
1.3255015e-12
3.2455184e-12
4.0564036e-12
2.0193281e-12
1.2068689e-12
2.7307172e-12
3.4176541e-12
1.8455881e-12
1.1069563e-12
2.2548456e-12
2.8224988e-12
1.7020792e-12
1.0083458e-12
1.8207192e-12
2.2774973e-12
1.553314e-12
9.069053e-13
1.4299282e-12
1.7866257e-12
1.3977436e-12
8.0359124e-13
1.0823492e-12
1.3509619e-12
1.2392225e-12
6.9944149e-13
7.8055031e-13
9.6915764e-13
1.0812148e-12
6.0359117e-13
5.1990501e-13
6.4136278e-13
9.3135683e-13
5.1036116e-13
2.9895622e-13
3.6094842e-13
7.9074838e-13
4.2632293e-13
1.1402578e-13
1.3010174e-13
6.571447e-13
3.4403956e-13
-3.4537947e-14
-5.7258606e-14
5.3137731e-13
2.7344496e-13
-1.5255348e-13
-2.0431802e-13
4.2048412e-13
2.0768188e-13
-2.4166434e-13
-3.1575848e-13
3.1910444e-13
1.5240034e-13
-3.0673751e-13
-3.9676454e-13
2.3339075e-13
1.0363173e-13
-3.513183e-13
-4.5175285e-13
1.5860658e-13
6.0678555e-14
-3.7733129e-13
-4.8375147e-13
9.2665821e-14
2.4789994e-14
-3.8769901e-13
-4.9592511e-13
3.695422e-14
-3.7853499e-15
-3.8568252e-13
-4.925688e-13
-7.1493149e-15
-2.5752241e-14
-3.741848e-13
-4.7728431e-13
-4.104281e-14
-4.1888259e-14
-3.5575369e-13
-4.5333167e-13
-6.5845583e-14
-5.2860938e-14
-3.3264335e-13
-4.2362398e-13
-8.2572105e-14
-5.9255635e-14
-3.0673462e-13
-3.9046368e-13
-9.2418366e-14
-6.3182576e-14
-2.7908715e-13
-3.5493793e-13
-9.8709869e-14
-6.3194227e-14
-2.5149602e-13
-3.1966898e-13
-9.8464005e-14
-5.9882492e-14
-2.2540198e-13
-2.8643247e-13
-9.3119295e-14
-5.3826582e-14
-2.0197516e-13
-2.5662873e-13
-8.3630249e-14
-4.5412355e-14
-1.822351e-13
-2.3152712e-13
-7.0513678e-14
-3.5021045e-14
-1.6703744e-13
-2.1220984e-13
-5.4337908e-14
-2.3256832e-14
-1.5693659e-13
-1.9936362e-13
-3.6102398e-14
-1.1119239e-14
-1.5204739e-13
-1.9311639e-13
-1.736535e-14
-3.521173e-17
-1.366227e-16
-1.6257131e-12
1.6220181e-12
-3.2139162e-12
1.5803398e-12
-5.3987938e-12
2.1759212e-12
-9.0373829e-12
3.6316669e-12
-1.5198468e-11
6.1564179e-12
-2.5038165e-11
9.8367635e-12
-3.9664786e-11
1.4625097e-11
-6.0050744e-11
2.038554e-11
-8.6871873e-11
2.6821611e-11
-1.2011566e-10
3.3244912e-11
-1.5844553e-10
3.8331479e-11
-1.9978042e-10
4.1336786e-11
-2.4224916e-10
4.2470822e-11
-2.8508944e-10
4.2842388e-11
-3.2848449e-10
4.3397126e-11
-3.7222786e-10
4.3745291e-11
-4.1491556e-10
4.2689438e-11
-4.5487203e-10
3.9957927e-11
-4.9104351e-10
3.617265e-11
-5.226718e-10
3.1629133e-11
-5.4926177e-10
2.6590515e-11
-5.7040922e-10
2.1147696e-11
-5.8569974e-10
1.5290541e-11
-5.9464412e-10
8.9442398e-12
2.3609639e-12
-4.0253328e-11
4.1879153e-11
-8.8676745e-11
5.000972e-11
-1.4654888e-10
6.0055022e-11
-2.1598507e-10
7.3075193e-11
-2.9918576e-10
8.9364496e-11
-3.9788144e-10
1.0853969e-10
-5.1356493e-10
1.3031555e-10
-6.4714311e-10
1.5397028e-10
-7.9646949e-10
1.7615401e-10
-9.5827533e-10
1.9505618e-10
-1.129941e-09
2.1000198e-10
-1.3094314e-09
2.2083135e-10
-1.4947931e-09
2.2783617e-10
-1.6832057e-09
2.3125793e-10
-1.8712623e-09
2.3145619e-10
-2.0573761e-09
2.2986103e-10
-2.2507696e-09
2.3608428e-10
-2.4367569e-09
2.2594617e-10
-2.6064176e-09
2.0583377e-10
-2.7547081e-09
1.7991962e-10
-2.8778278e-09
1.4970981e-10
-2.9731207e-09
1.1643981e-10
-3.038332e-09
8.0500699e-11
-3.0697794e-09
4.0390287e-11
1.0337817e-11
-1.1765967e-10
1.5954682e-10
-2.5870949e-10
1.9107202e-10
-4.2733971e-10
2.286997e-10
-6.2809125e-10
2.7384155e-10
-8.6487957e-10
3.2616723e-10
-1.1405987e-09
3.8427235e-10
-1.4601698e-09
4.4989897e-10
-1.8855408e-09
5.7935212e-10
-2.3453059e-09
6.3592841e-10
-2.8133893e-09
6.6314736e-10
-3.2755964e-09
6.7221542e-10
-3.7235166e-09
6.6875652e-10
-4.15105e-09
6.5537322e-10
-4.5529393e-09
6.3314984e-10
-4.9234812e-09
6.0199963e-10
-5.2571128e-09
5.6349325e-10
-5.5398586e-09
5.1882985e-10
-5.7824253e-09
4.6851191e-10
-5.9903962e-09
4.1380308e-10
-6.1662138e-09
3.5573493e-10
-6.3119793e-09
2.9547258e-10
-6.4287387e-09
2.3319601e-10
-6.5166035e-09
1.6836188e-10
-6.5774911e-09
1.012739e-10
3.3585376e-11
-3.65432e-10
5.2499448e-10
-7.799334e-10
6.0559686e-10
-1.2637613e-09
7.1255318e-10
-2.0563562e-09
1.0664594e-09
-2.9187564e-09
1.1885868e-09
-3.7428356e-09
1.2083671e-09
-4.4745161e-09
1.1815918e-09
-5.019123e-09
1.1239684e-09
-5.4281101e-09
1.0449228e-09
-5.7168812e-09
9.5192386e-10
-5.9001497e-09
8.5548773e-10
-5.9901655e-09
7.5877493e-10
-5.9974722e-09
6.626816e-10
-5.9243748e-09
5.6005332e-10
-5.7870791e-09
4.6470405e-10
-5.6029008e-09
3.7931463e-10
-5.3889475e-09
3.0487582e-10
-5.1622182e-09
2.4178156e-10
-4.9384293e-09
1.9001273e-10
-4.7314248e-09
1.4872892e-10
-4.5535502e-09
1.1759612e-10
-4.4123087e-09
9.195241e-11
-4.3125219e-09
6.8572853e-11
-4.2576787e-09
4.6428284e-11
2.4810182e-11
-2.2122962e-09
2.7373158e-09
-3.9610347e-09
2.3543631e-09
-5.4650733e-09
2.2166182e-09
-6.1500805e-09
1.7514848e-09
-6.2239833e-09
1.2625043e-09
-5.7552191e-09
7.3961463e-10
-4.9894704e-09
4.1585279e-10
-3.994113e-09
1.2861908e-10
-2.8349731e-09
-1.1420987e-10
-1.5790069e-09
-3.0403641e-10
-3.3381264e-10
-3.8970248e-10
9.053802e-10
-4.8041872e-10
2.2095912e-09
-6.4153023e-10
3.6250865e-09
-8.5544153e-10
5.0078473e-09
-9.1805455e-10
6.3176785e-09
-9.3051255e-10
7.5320905e-09
-9.0953047e-10
8.6365999e-09
-8.6272043e-10
9.6211779e-09
-7.9455625e-10
1.0477758e-08
-7.0784038e-10
1.1199689e-08
-6.0432268e-10
1.1777957e-08
-4.8630268e-10
1.220261e-08
-3.5606533e-10
1.2465054e-08
-2.1600011e-10
-6.4576512e-11
1.0389624e-09
1.6984391e-09
4.2434428e-09
-8.5006599e-10
7.9667126e-09
-1.5065807e-09
1.1663406e-08
-1.9451779e-09
1.5397179e-08
-2.4712436e-09
1.9062815e-08
-2.9259935e-09
2.2669676e-08
-3.1909747e-09
2.6056228e-08
-3.2578957e-09
2.9131116e-08
-3.1890546e-09
3.1876079e-08
-3.0489527e-09
3.4354363e-08
-2.8679365e-09
3.6528182e-08
-2.6541846e-09
3.8320793e-08
-2.4340861e-09
3.9690885e-08
-2.2254786e-09
4.078165e-08
-2.0087631e-09
4.1644098e-08
-1.7929051e-09
4.2318261e-08
-1.5836369e-09
4.2837645e-08
-1.3820484e-09
4.3231368e-08
-1.1882238e-09
4.3524894e-08
-1.0013115e-09
4.3740091e-08
-8.1946514e-10
4.3894159e-08
-6.4031582e-10
4.3999198e-08
-4.6105051e-10
4.4062393e-08
-2.7914127e-10
-8.8606253e-11
1.4963248e-07
-2.3451145e-09
1.482331e-07
5.502451e-10
1.4563801e-07
1.089295e-09
1.4214578e-07
1.5477529e-09
1.3756645e-07
2.1086913e-09
1.3205341e-07
2.5875759e-09
1.2598028e-07
2.8825963e-09
1.1974375e-07
2.9790235e-09
1.1361608e-07
2.9389426e-09
1.0775014e-07
2.8172769e-09
1.0221558e-07
2.6668747e-09
9.7062032e-08
2.4995867e-09
9.2319265e-08
2.3088801e-09
8.7986769e-08
2.1071952e-09
8.4074948e-08
1.9032189e-09
8.0580792e-08
1.7013966e-09
7.7492849e-08
1.5044402e-09
7.4797205e-08
1.3137182e-09
7.2479496e-08
1.1295998e-09
7.0526731e-08
9.5155944e-10
6.8929006e-08
7.7835839e-10
6.768063e-08
6.0815432e-10
6.6781554e-08
4.3811369e-10
6.6236889e-08
2.6560823e-10
8.4782203e-11
1.324702e-08
-1.5938415e-09
1.5557106e-08
-1.7597269e-09
1.8180759e-08
-1.5342441e-09
2.0903514e-08
-1.1748915e-09
2.3724334e-08
-7.1202151e-10
2.6652696e-08
-3.4068523e-10
2.9588979e-08
-5.3593785e-11
3.2370799e-08
1.9729214e-10
3.4958993e-08
3.5083706e-10
3.7317721e-08
4.5863737e-10
3.9404415e-08
5.8026697e-10
4.1033373e-08
8.7071392e-10
4.232665e-08
1.0156862e-09
4.3354672e-08
1.0792545e-09
4.4159976e-08
1.0979949e-09
4.4778829e-08
1.0826201e-09
4.5244748e-08
1.038596e-09
4.5587484e-08
9.710544e-10
4.5833161e-08
8.8399292e-10
4.6004554e-08
7.8023499e-10
4.6121041e-08
6.6193722e-10
4.6198625e-08
5.3063361e-10
4.6248581e-08
3.882196e-10
4.6278138e-08
2.3611044e-10
7.1643913e-11
-5.1125703e-09
-8.0163138e-10
-5.8221493e-09
-1.050158e-09
-6.1955251e-09
-1.1608789e-09
-6.1551842e-09
-1.2152424e-09
-5.6525574e-09
-1.2146567e-09
-4.8240731e-09
-1.1691756e-09
-3.7806784e-09
-1.0969919e-09
-2.5773503e-09
-1.0060365e-09
-1.3223766e-09
-9.041345e-10
-6.409418e-11
-7.9964044e-10
1.2113742e-09
-6.9519458e-10
2.6685094e-09
-5.8641204e-10
4.1649176e-09
-4.8071049e-10
5.6277421e-09
-3.8355637e-10
7.0221798e-09
-2.9642732e-10
8.3241954e-09
-2.193784e-10
9.5355618e-09
-1.7275202e-10
1.0640718e-08
-1.3408199e-10
1.1627051e-08
-1.0232012e-10
1.2484625e-08
-7.7318207e-11
1.3205068e-08
-5.8484029e-11
1.3780488e-08
-4.4765751e-11
1.4203518e-08
-3.4789011e-11
1.4465986e-08
-2.6336687e-11
-1.6098144e-11
-2.1884446e-09
-1.9229594e-10
-2.9872086e-09
-2.5139678e-10
-3.8260566e-09
-3.2203629e-10
-4.6436966e-09
-3.9761029e-10
-5.3776046e-09
-4.8075837e-10
-5.9246709e-09
-6.2212017e-10
-6.3421119e-09
-6.7956237e-10
-6.6378213e-09
-7.1033883e-10
-6.8182183e-09
-7.2374927e-10
-6.8946953e-09
-7.2317478e-10
-6.8783881e-09
-7.1151268e-10
-6.7722643e-09
-6.9254619e-10
-6.5873663e-09
-6.6561807e-10
-6.3393862e-09
-6.3154516e-10
-6.0443935e-09
-5.9142806e-10
-5.7170359e-09
-5.467431e-10
-5.3902364e-09
-4.9955786e-10
-5.0743254e-09
-4.4999867e-10
-4.7788151e-09
-3.9783548e-10
-4.5130584e-09
-3.4307941e-10
-4.2857753e-09
-2.8577113e-10
-4.1046189e-09
-2.2592584e-10
-3.9758245e-09
-1.6358683e-10
-3.9031922e-09
-9.89723e-11
-3.3328564e-11
-5.5696217e-10
-5.8504506e-12
-7.8613179e-10
-2.2225058e-11
-1.0600792e-09
-4.8087443e-11
-1.3780334e-09
-7.9655443e-11
-1.7475024e-09
-1.1128977e-10
-2.2214153e-09
-1.4820879e-10
-2.7166519e-09
-1.8432852e-10
-3.2120682e-09
-2.1492645e-10
-3.6969645e-09
-2.3885793e-10
-4.1642152e-09
-2.5592987e-10
-4.6084906e-09
-2.6724393e-10
-5.0250466e-09
-2.7599742e-10
-5.4056482e-09
-2.8502411e-10
-5.7270636e-09
-3.101379e-10
-6.0091495e-09
-3.0935046e-10
-6.2567523e-09
-2.9914882e-10
-6.4740679e-09
-2.8225086e-10
-6.6638872e-09
-2.6018797e-10
-6.8281184e-09
-2.3361299e-10
-6.9682469e-09
-2.0295952e-10
-7.0853697e-09
-1.6865693e-10
-7.1800725e-09
-1.3123147e-10
-7.2522801e-09
-9.1387661e-11
-7.3018013e-09
-4.9459444e-11
-1.1260695e-11
-1.2029906e-10
4.6504534e-11
-1.9276984e-10
5.0247096e-11
-2.8760113e-10
4.6745125e-11
-4.04754e-10
3.7498495e-11
-5.4646956e-10
3.0426539e-11
-7.1274395e-10
1.8065955e-11
-8.9915765e-10
2.0850849e-12
-1.098894e-09
-1.5190619e-11
-1.3067696e-09
-3.0983379e-11
-1.5185984e-09
-4.4102476e-11
-1.7340573e-09
-5.178688e-11
-1.9515099e-09
-5.8547073e-11
-2.1730166e-09
-6.3519948e-11
-2.4167167e-09
-6.6440788e-11
-2.6588431e-09
-6.7227323e-11
-2.891823e-09
-6.617252e-11
-3.1105772e-09
-6.350064e-11
-3.3113799e-09
-5.9389362e-11
-3.4909987e-09
-5.3998586e-11
-3.6464831e-09
-4.7479636e-11
-3.7751611e-09
-3.9983476e-11
-3.8747088e-09
-3.1688476e-11
-3.9433247e-09
-2.2776407e-11
-3.97943e-09
-1.3358734e-11
-3.7112943e-12
2.4215332e-11
4.3334808e-11
2.3645878e-11
5.0816959e-11
1.4785383e-11
5.5605942e-11
-4.7194609e-12
5.7003575e-11
-3.1962545e-11
5.766977e-11
-6.9114835e-11
5.5218294e-11
-1.1593855e-10
4.8908745e-11
-1.7172179e-10
4.0592458e-11
-2.3405514e-10
3.1349703e-11
-3.0111255e-10
2.2954553e-11
-3.7030241e-10
1.7402492e-11
-4.4089632e-10
1.2046238e-11
-5.1185855e-10
7.4415895e-12
-5.8198403e-10
3.6839031e-12
-6.5022204e-10
1.009789e-12
-7.1552089e-10
-8.7464553e-13
-7.7675964e-10
-2.2629581e-12
-8.3304797e-10
-3.1021746e-12
-8.8357188e-10
-3.4758675e-12
-9.2754034e-10
-3.5124025e-12
-9.6418715e-10
-3.337916e-12
-9.9286476e-10
-3.0121174e-12
-1.0131046e-09
-2.5377949e-12
-1.0246615e-09
-1.8030092e-12
-5.5047944e-13
5.7586897e-11
2.5941568e-11
7.4582701e-11
3.3821492e-11
9.1361394e-11
3.8827541e-11
1.0665957e-10
4.170566e-11
1.2018677e-10
4.4142809e-11
1.3106742e-10
4.4337875e-11
1.3676353e-10
4.3212866e-11
1.3687084e-10
4.0485357e-11
1.3281371e-10
3.5407044e-11
1.2627885e-10
2.9489604e-11
1.1960813e-10
2.4073391e-11
1.124015e-10
1.9253043e-11
1.0482833e-10
1.5014911e-11
9.8261213e-11
1.0251173e-11
9.2598028e-11
6.6731158e-12
8.7902655e-11
3.8208648e-12
8.4537425e-11
1.1024074e-12
8.2205531e-11
-7.7014581e-13
8.0617868e-11
-1.8880674e-12
7.9573195e-11
-2.4675905e-12
7.8825157e-11
-2.5897349e-12
7.8198067e-11
-2.384878e-12
7.7550044e-11
-1.8896174e-12
7.706994e-11
-1.3227507e-12
-6.3813736e-13
4.0374602e-11
1.508321e-11
5.5540756e-11
1.8655691e-11
7.1740782e-11
2.2627859e-11
8.7583753e-11
2.5863026e-11
1.0357849e-10
2.8148407e-11
1.1856595e-10
2.9350752e-11
1.3211877e-10
2.9660382e-11
1.4392389e-10
2.8680584e-11
1.5310666e-10
2.6224631e-11
1.5925989e-10
2.3336727e-11
1.634365e-10
1.9897131e-11
1.6693061e-10
1.5759276e-11
1.7027117e-10
1.1674699e-11
1.7219954e-10
8.323147e-12
1.7366103e-10
5.211966e-12
1.7567071e-10
1.8115201e-12
1.7742712e-10
-6.5366908e-13
1.7921283e-10
-2.5555296e-12
1.8105832e-10
-3.7332337e-12
1.8285829e-10
-4.2672379e-12
1.8452974e-10
-4.2608638e-12
1.8592533e-10
-3.7801589e-12
1.8695653e-10
-2.9205241e-12
1.8746667e-10
-1.8326047e-12
-6.4973479e-13
1.6028898e-11
1.0462273e-11
2.194694e-11
1.27379e-11
2.9424446e-11
1.5150609e-11
3.7538799e-11
1.7748931e-11
4.5493225e-11
2.0194239e-11
5.3021445e-11
2.1822789e-11
5.9729538e-11
2.2952544e-11
6.5488933e-11
2.2921441e-11
6.9659598e-11
2.2054213e-11
7.1866032e-11
2.1130534e-11
7.2693011e-11
1.9070385e-11
7.1443046e-11
1.7009464e-11
6.9076432e-11
1.4041524e-11
6.6440359e-11
1.0959419e-11
6.2889819e-11
8.7626914e-12
5.8656761e-11
6.0447492e-12
5.4193587e-11
3.8096625e-12
5.0139052e-11
1.4991503e-12
4.640853e-11
-2.5799943e-15
4.3060458e-11
-9.1904656e-13
4.025508e-11
-1.4553784e-12
3.8123263e-11
-1.648244e-12
3.6737148e-11
-1.5343243e-12
3.6046187e-11
-1.1415712e-12
-4.8247348e-13
1.5540331e-12
1.0240172e-11
1.855262e-12
1.2436789e-11
2.9150423e-12
1.4090951e-11
4.5341232e-12
1.6129974e-11
6.6742987e-12
1.8054186e-11
8.1754178e-12
2.0321789e-11
9.5603586e-12
2.1567717e-11
9.8757646e-12
2.2606142e-11
8.8885931e-12
2.3041484e-11
7.6841264e-12
2.233509e-11
5.2811962e-12
2.1473393e-11
1.986388e-12
2.0304338e-11
-3.0656993e-12
1.9093663e-11
-9.0858122e-12
1.697957e-11
-1.5116807e-11
1.4793709e-11
-2.18805e-11
1.280845e-11
-2.8608895e-11
1.0538051e-11
-3.5348179e-11
8.2384134e-12
-4.1768145e-11
6.4173534e-12
-4.7739687e-11
5.0524503e-12
-5.292156e-11
3.72644e-12
-5.7229721e-11
2.6598546e-12
-6.0589679e-11
1.8255607e-12
-6.2890741e-11
1.1594122e-12
4.8236525e-13
-2.2557106e-12
1.1205396e-11
-2.8319538e-12
1.3013046e-11
-3.7979906e-12
1.505701e-11
-4.1101754e-12
1.6442184e-11
-4.408062e-12
1.8352097e-11
-4.3294907e-12
2.0243241e-11
-4.5599603e-12
2.1798207e-11
-5.2816604e-12
2.3327858e-11
-6.1065646e-12
2.3866397e-11
-7.9468432e-12
2.4175371e-11
-1.0642228e-11
2.416877e-11
-1.3935042e-11
2.3597136e-11
-1.7652146e-11
2.281074e-11
-2.2216297e-11
2.1543683e-11
-2.7358454e-11
1.9935819e-11
-3.2689534e-11
1.813947e-11
-3.8287247e-11
1.6135695e-11
-4.410863e-11
1.4059716e-11
-4.975842e-11
1.2067055e-11
-5.4665731e-11
9.9596639e-12
-5.8952965e-11
8.0135708e-12
-6.2438819e-11
6.1456011e-12
-6.4954455e-11
4.3410835e-12
-6.6342027e-11
2.5468676e-12
8.1582883e-13
-1.0842807e-13
1.165724e-11
-3.4772654e-13
1.3252289e-11
-2.8693564e-13
1.4996178e-11
-2.7058137e-13
1.6425797e-11
-1.5677603e-13
1.8238264e-11
1.9208899e-13
1.989435e-11
6.0064003e-13
2.138963e-11
1.2440014e-12
2.2684469e-11
1.4476276e-12
2.3662741e-11
1.2704248e-12
2.4352541e-11
7.06632e-13
2.4732527e-11
-4.5704583e-13
2.4760773e-11
-2.0023817e-12
2.4356029e-11
-4.0747452e-12
2.3615994e-11
-6.4926122e-12
2.2353627e-11
-9.2338802e-12
2.0880672e-11
-1.2410973e-11
1.9312716e-11
-1.572343e-11
1.7372095e-11
-1.8932335e-11
1.5275877e-11
-2.2016147e-11
1.3043389e-11
-2.4750604e-11
1.0747938e-11
-2.7021604e-11
8.4165085e-12
-2.8713974e-11
6.0333597e-12
-2.9709922e-11
3.5427209e-12
1.0818725e-12
2.9890776e-12
1.1100911e-11
3.6396539e-12
1.2601614e-11
4.5529676e-12
1.4082782e-11
5.3393734e-12
1.563932e-11
6.6685051e-12
1.690907e-11
7.948747e-12
1.8614052e-11
9.3749183e-12
1.9963406e-11
1.098148e-11
2.1077858e-11
1.2625625e-11
2.2018548e-11
1.4157184e-11
2.2820936e-11
1.5432507e-11
2.3457158e-11
1.6409566e-11
2.3783667e-11
1.6996637e-11
2.3768911e-11
1.7253517e-11
2.3359064e-11
1.7025967e-11
2.2581125e-11
1.6445199e-11
2.1461386e-11
1.5690306e-11
2.0067551e-11
1.4638598e-11
1.8423745e-11
1.3449994e-11
1.646442e-11
1.2197511e-11
1.4295809e-11
1.1001739e-11
1.1943647e-11
9.9552416e-12
9.4629439e-12
9.0402691e-12
6.9482693e-12
8.3077344e-12
4.2751942e-12
1.1864619e-12
4.5163866e-12
9.924444e-12
5.7870286e-12
1.1330858e-11
7.1558892e-12
1.271382e-11
8.7576359e-12
1.4037483e-11
1.029068e-11
1.5375943e-11
1.2411053e-11
1.6493605e-11
1.4462093e-11
1.7912298e-11
1.6668939e-11
1.8870948e-11
1.902355e-11
1.9663879e-11
2.1251633e-11
2.0592797e-11
2.3413081e-11
2.1295658e-11
2.5466081e-11
2.1730617e-11
2.7367682e-11
2.1867261e-11
2.9035971e-11
2.1690728e-11
3.0424563e-11
2.1192488e-11
3.1388799e-11
2.0497105e-11
3.2091152e-11
1.9365153e-11
3.2612127e-11
1.7902725e-11
3.2920595e-11
1.6155907e-11
3.3060307e-11
1.4156053e-11
3.3079608e-11
1.1924303e-11
3.306684e-11
9.4756712e-12
3.3159151e-11
6.855918e-12
3.3312899e-11
4.1214072e-12
1.5598471e-12
4.6462351e-12
8.6894199e-12
6.0475497e-12
9.9294322e-12
7.6263606e-12
1.1134906e-11
9.3330844e-12
1.2330664e-11
1.1207481e-11
1.3501459e-11
1.3093988e-11
1.4607017e-11
1.5407604e-11
1.5598608e-11
1.7773591e-11
1.6504892e-11
2.0284099e-11
1.7153308e-11
2.2716812e-11
1.8160024e-11
2.5100796e-11
1.891162e-11
2.7473675e-11
1.9357686e-11
2.9802955e-11
1.9537933e-11
3.2006943e-11
1.9486695e-11
3.4012691e-11
1.9186696e-11
3.591758e-11
1.8592174e-11
3.7604705e-11
1.7677989e-11
3.9036361e-11
1.6471031e-11
4.0244601e-11
1.4947631e-11
4.1239392e-11
1.3161227e-11
4.2002306e-11
1.1161355e-11
4.254216e-11
8.9357873e-12
4.2895415e-11
6.5026338e-12
4.3062217e-11
3.9545773e-12
1.4186006e-12
4.0948053e-12
7.4798619e-12
5.4111518e-12
8.6129829e-12
6.8711619e-12
9.6747984e-12
8.4979987e-12
1.0703736e-11
1.0302107e-11
1.1697267e-11
1.222349e-11
1.2685555e-11
1.424594e-11
1.3576086e-11
1.6424868e-11
1.4325895e-11
1.8747083e-11
1.483103e-11
2.1055089e-11
1.5851961e-11
2.3497064e-11
1.646959e-11
2.5971421e-11
1.6883279e-11
2.8410471e-11
1.7098836e-11
3.07897e-11
1.7107423e-11
3.3095364e-11
1.688099e-11
3.5292627e-11
1.6394872e-11
3.7319674e-11
1.5650904e-11
3.915391e-11
1.463676e-11
4.0750406e-11
1.3351101e-11
4.2092548e-11
1.1819054e-11
4.3186395e-11
1.006748e-11
4.403007e-11
8.0920867e-12
4.4566252e-11
5.9664263e-12
4.4842448e-11
3.6783583e-12
1.1868664e-12
3.5614019e-12
6.4188082e-12
4.6953755e-12
7.478915e-12
5.9843032e-12
8.3857803e-12
7.4294704e-12
9.2584839e-12
9.0280541e-12
1.0098603e-11
1.0770892e-11
1.0942643e-11
1.2633404e-11
1.1713503e-11
1.4593912e-11
1.2365323e-11
1.6662011e-11
1.276287e-11
1.8863695e-11
1.3650221e-11
2.1162135e-11
1.4171097e-11
2.3524144e-11
1.4521221e-11
2.5913801e-11
1.4709133e-11
2.8301394e-11
1.4719787e-11
3.0645025e-11
1.4537319e-11
3.2898424e-11
1.4141435e-11
3.5022219e-11
1.3527073e-11
3.6976855e-11
1.2682091e-11
3.8719146e-11
1.160878e-11
4.0225835e-11
1.0312336e-11
4.1483531e-11
8.8097574e-12
4.2460549e-11
7.1150463e-12
4.3188724e-11
5.2382303e-12
4.3635326e-11
3.2317359e-12
1.0808133e-12
3.0796855e-12
5.5957381e-12
4.1244953e-12
6.4340219e-12
5.2846974e-12
7.2254977e-12
6.5706138e-12
7.9724903e-12
7.9798033e-12
8.6893404e-12
9.5648605e-12
9.3575169e-12
1.1270439e-11
1.000786e-11
1.3076364e-11
1.0559337e-11
1.4989999e-11
1.0849179e-11
1.7051617e-11
1.158855e-11
1.9211226e-11
1.201144e-11
2.1430707e-11
1.2301694e-11
2.3686722e-11
1.2453076e-11
2.5949905e-11
1.2456564e-11
2.8191434e-11
1.2295753e-11
3.0370616e-11
1.1962219e-11
3.2454571e-11
1.1443086e-11
3.4399116e-11
1.0737516e-11
3.6162256e-11
9.8456133e-12
3.7707287e-11
8.7672789e-12
3.9016365e-11
7.5006571e-12
4.0068877e-11
6.0625151e-12
4.0849727e-11
4.4573615e-12
4.1345534e-11
2.7359109e-12
9.1628295e-13
2.8070939e-12
4.8078969e-12
3.7477733e-12
5.4932687e-12
4.8189345e-12
6.1542651e-12
6.0048615e-12
6.7864949e-12
7.316593e-12
7.377544e-12
8.7447727e-12
7.9292758e-12
1.0304979e-11
8.4475963e-12
1.1965476e-11
8.8987867e-12
1.3730145e-11
9.0844588e-12
1.5647873e-11
9.6707759e-12
1.7653347e-11
1.0005923e-11
1.9728816e-11
1.0226185e-11
2.1843005e-11
1.033885e-11
2.3970079e-11
1.0329455e-11
2.6075261e-11
1.0190539e-11
2.8129152e-11
9.9082984e-12
3.0096114e-11
9.4760955e-12
3.1944245e-11
8.8893599e-12
3.364466e-11
8.1451755e-12
3.5163984e-11
7.2479334e-12
3.6454367e-11
6.2102544e-12
3.7484983e-11
5.0318829e-12
3.8181479e-11
3.7608505e-12
3.8633968e-11
2.2834068e-12
6.8225974e-13
2.5975006e-12
4.0559169e-12
3.4452658e-12
4.6454377e-12
4.4898567e-12
5.1096108e-12
5.576119e-12
5.7001721e-12
6.7829313e-12
6.1706744e-12
8.1022871e-12
6.609866e-12
9.5404342e-12
7.0093987e-12
1.1072311e-11
7.3668632e-12
1.2648286e-11
7.5084393e-12
1.4455428e-11
7.8635939e-12
1.6295617e-11
8.1656963e-12
1.8195728e-11
8.3260401e-12
2.0141573e-11
8.3929726e-12
2.2103435e-11
8.3675632e-12
2.4053743e-11
8.2402034e-12
2.5963506e-11
7.99851e-12
2.7801043e-11
7.6385349e-12
2.9530978e-11
7.1594035e-12
3.1122307e-11
6.5538275e-12
3.2541499e-11
5.8287236e-12
3.3771706e-11
4.9800319e-12
3.478377e-11
4.0198059e-12
3.561447e-11
2.9301383e-12
3.6076411e-11
1.8214545e-12
6.6078125e-13
2.4118371e-12
3.3460982e-12
3.2332724e-12
3.8239437e-12
4.0945233e-12
4.2483035e-12
5.1436042e-12
4.6510376e-12
6.2680493e-12
5.0461788e-12
7.4888954e-12
5.3889726e-12
8.8059222e-12
5.6923278e-12
1.0223335e-11
5.9494093e-12
1.1597594e-11
6.1341427e-12
1.3284612e-11
6.1765412e-12
1.4956776e-11
6.4935e-12
1.667601e-11
6.606777e-12
1.8427037e-11
6.6419192e-12
2.0200039e-11
6.5945367e-12
2.1968431e-11
6.4717883e-12
2.3697358e-11
6.2695617e-12
2.5358873e-11
5.9770009e-12
2.6930863e-11
5.5873965e-12
2.8376593e-11
5.108081e-12
2.9673539e-11
4.5317632e-12
3.0787604e-11
3.8659546e-12
3.1684029e-11
3.1233715e-12
3.2323597e-11
2.2905604e-12
3.2735053e-11
1.4099895e-12
4.8131031e-13
2.2027628e-12
2.6965944e-12
2.9486685e-12
3.0779853e-12
3.7726244e-12
3.4242975e-12
4.6931444e-12
3.73047e-12
5.7326324e-12
4.0066462e-12
6.8496859e-12
4.2718776e-12
8.0439879e-12
4.4979873e-12
9.3084897e-12
4.6848721e-12
1.0617015e-11
4.8255848e-12
1.1968312e-11
4.8252142e-12
1.3527655e-11
4.9341306e-12
1.5071323e-11
5.0630846e-12
1.6634602e-11
5.0786177e-12
1.8199082e-11
5.0300362e-12
1.974916e-11
4.9216912e-12