/*--------------------------------*- C++ -*----------------------------------*\
| =========                 |                                                 |
| \\      /  F ield         | OpenFOAM: The Open Source CFD Toolbox           |
|  \\    /   O peration     | Version:  4.0                                   |
|   \\  /    A nd           | Web:      www.OpenFOAM.org                      |
|    \\/     M anipulation  |                                                 |
\*---------------------------------------------------------------------------*/
FoamFile
{
    version     2.0;
    format      ascii;
    class       volScalarField;
    location    "0.62";
    object      k;
}
// * * * * * * * * * * * * * * * * * * * * * * * * * * * * * * * * * * * * * //

dimensions      [0 2 -2 0 0 0 0];

internalField   nonuniform List<scalar> 
1740
(
0.0087048003
0.0091687624
0.018384109
0.0091725905
0.010034464
0.027260165
0.0096621171
0.010667923
0.034365869
0.010042958
0.010839639
0.041145028
0.010181219
0.011064076
0.047465033
0.010237999
0.011506323
0.052402605
0.010221225
0.011969178
0.056218562
0.010196866
0.012295217
0.059573729
0.01017248
0.012632338
0.061984723
0.0101285
0.01267797
0.064250252
0.010134426
0.012907272
0.066486825
0.010044665
0.013192628
0.067266262
0.0099655013
0.013274338
0.068794
0.0098347481
0.01345232
0.070168222
0.0097516132
0.013587264
0.07012194
0.0096191934
0.013667237
0.071353584
0.0095037061
0.01406919
0.072334306
0.0094274635
0.014368072
0.071726938
0.0093563172
0.014382321
0.072288107
0.0092041612
0.014585762
0.072782459
0.0090630216
0.014663675
0.072338005
0.0089243036
0.014532892
0.07274038
0.0088393149
0.014623577
0.072961351
0.0087419941
0.01460839
0.072478703
0.0086407098
0.01449696
0.072866935
0.0085222374
0.014604989
0.073363749
0.0084074099
0.015042857
0.07324814
0.0084285152
0.015306916
0.072903649
0.0084517245
0.015371105
0.07199706
0.0090241894
0.01635731
0.06700835
0.012829585
0.018217883
0.047528622
0.023968325
0.031139562
0.039842827
0.010281327
0.012543275
0.013745154
0.0042741294
0.0046107202
0.0046691442
0.0020792272
0.0021220536
0.0020950321
0.0011429703
0.0011438894
0.001125652
0.00069151734
0.00068907473
0.00068119061
0.00045090128
0.0004496474
0.00044707867
0.00031119975
0.00031090939
0.00031064074
0.00022391962
0.00022408344
0.0002246761
0.0001658343
0.00016615362
0.00016697528
0.00012504101
0.00012537635
0.00012617086
9.511131e-05
9.5407572e-05
9.6085023e-05
7.2426303e-05
7.2667408e-05
7.3208891e-05
5.4870341e-05
5.5056821e-05
5.5471545e-05
4.1154328e-05
4.1293089e-05
4.1599986e-05
3.0448293e-05
3.054807e-05
3.0768025e-05
2.2173994e-05
2.2243396e-05
2.2396073e-05
1.5887302e-05
1.5934e-05
1.6036584e-05
1.1215756e-05
1.1246163e-05
1.1312879e-05
7.8314063e-06
7.8505761e-06
7.8925995e-06
5.4445692e-06
5.4562767e-06
5.4819473e-06
3.8083443e-06
3.8153194e-06
3.8306095e-06
2.7194622e-06
2.7235557e-06
2.7325144e-06
2.0162519e-06
2.0186415e-06
2.0238642e-06
1.5766478e-06
1.5780622e-06
1.5811508e-06
1.3125735e-06
1.3134466e-06
1.3153523e-06
1.1625321e-06
1.163112e-06
1.1643777e-06
1.0848049e-06
1.085228e-06
1.0861517e-06
1.0518067e-06
1.0521447e-06
1.0528832e-06
1.0457012e-06
1.0459903e-06
1.0466225e-06
1.0551636e-06
1.0554215e-06
1.0559855e-06
1.0730836e-06
1.0733183e-06
1.0738319e-06
1.0949851e-06
1.0952005e-06
1.0956717e-06
1.1179664e-06
1.1181644e-06
1.1185973e-06
1.1399992e-06
1.140181e-06
1.1405782e-06
1.1594678e-06
1.1596344e-06
1.159998e-06
1.1748631e-06
1.1750153e-06
1.1753475e-06
1.1845747e-06
1.1847136e-06
1.1850165e-06
1.1867482e-06
1.1868746e-06
1.1871502e-06
1.1791878e-06
1.1793027e-06
1.1795528e-06
1.1593053e-06
1.1594094e-06
1.1596358e-06
1.1241249e-06
1.1242189e-06
1.1244231e-06
1.0703659e-06
1.0704502e-06
1.0706332e-06
9.9464489e-07
9.9471977e-07
9.9488238e-07
8.938472e-07
8.9391273e-07
8.9405517e-07
7.6569019e-07
7.6574623e-07
7.6586844e-07
6.0949101e-07
6.0953696e-07
6.0963785e-07
4.271524e-07
4.2718657e-07
4.2726234e-07
2.2500613e-07
2.2502537e-07
2.2506844e-07
0.056325616
0.060949477
0.046185181
0.046672313
0.01248989
0.011353363
0.0043562338
0.0041202188
0.002001521
0.0019411
0.0010959863
0.0010806953
0.0006723692
0.00067058317
0.0004454507
0.00044761214
0.00031145316
0.00031446974
0.00022617455
0.00022904694
0.00016850581
0.00017094586
0.00012750778
0.00012947333
9.7173036e-05
9.8706466e-05
7.4057454e-05
7.522555e-05
5.6112479e-05
5.6982795e-05
4.2070343e-05
4.2703824e-05
3.1103374e-05
3.15527e-05
2.2628048e-05
2.2937788e-05
1.6192072e-05
1.639915e-05
1.1413813e-05
1.1547952e-05
7.9560876e-06
8.0403085e-06
5.5206999e-06
5.5720298e-06
3.8536676e-06
3.8841564e-06
2.7459997e-06
2.7637933e-06
2.031712e-06
2.0420441e-06
1.5857849e-06
1.5918735e-06
1.3182086e-06
1.321956e-06
1.1662744e-06
1.1687615e-06
1.0875365e-06
1.0893532e-06
1.0539912e-06
1.0554462e-06
1.0475719e-06
1.0488194e-06
1.0568328e-06
1.0579465e-06
1.0746031e-06
1.0756167e-06
1.0963789e-06
1.0973076e-06
1.1192466e-06
1.1200981e-06
1.1411734e-06
1.1419527e-06
1.1605423e-06
1.1612538e-06
1.175844e-06
1.1764918e-06
1.1854685e-06
1.1860568e-06
1.1875608e-06
1.1880939e-06
1.179925e-06
1.1804069e-06
1.1599722e-06
1.1604066e-06
1.1247259e-06
1.1251159e-06
1.0709043e-06
1.0712524e-06
9.9512291e-07
9.9543113e-07
8.9426604e-07
8.9453584e-07
7.6605e-07
7.6628216e-07
6.0978887e-07
6.0998181e-07
4.2737695e-07
4.2752306e-07
2.2513421e-07
2.2521791e-07
5.640428e-06
2.7085775e-05
0.00013451957
0.0003051821
0.00046250812
0.00057351652
0.00064382987
0.00068745491
0.00071617715
0.00073713208
0.00075436786
0.0007709268
0.00078643661
0.00080066353
0.00081329895
0.00082379401
0.00083116452
0.00083374297
0.00082880893
0.0008120773
0.00077699024
0.00071385304
0.0006091664
0.0004459074
0.00020362933
2.5936049e-06
5.4770538e-05
0.00025113863
0.00051613837
0.00072817239
0.00085972646
0.00093566369
0.00098015884
0.0010086567
0.0010291966
0.0010460324
0.0010617124
0.0010760875
0.0010888963
0.0010997456
0.0011080123
0.0011125638
0.0011114834
0.0011015672
0.0010776858
0.0010318321
0.00095173466
0.00081911279
0.00060841616
0.00028826448
7.9782917e-06
0.00015993799
0.00061589182
0.0010796503
0.0013626317
0.0015053551
0.0015728157
0.0016043997
0.0016200777
0.0016283261
0.0016335301
0.0016365968
0.0016387556
0.0016393525
0.0016378989
0.0016339218
0.0016263626
0.0016134246
0.0015916831
0.001555534
0.0014959446
0.0013981922
0.001237565
0.00097110718
0.0005230742
3.759459e-05
0.0005789735
0.0016847509
0.0024354294
0.002772087
0.002885957
0.0028954095
0.0028653241
0.0028253859
0.0027806004
0.0027360543
0.0026936281
0.0026538196
0.0026134454
0.0025719945
0.0025298773
0.0024865954
0.0024407266
0.0023895128
0.002328168
0.0022487727
0.0021380334
0.0019716181
0.0016965695
0.0011558212
0.00028132637
0.0024457507
0.0049116928
0.0060318659
0.0063778069
0.0063162409
0.0060873386
0.0058249487
0.0055758786
0.0053253239
0.0050854236
0.0048614592
0.0046583117
0.00446127
0.004269971
0.0040890913
0.0039195451
0.0037607802
0.0036109721
0.0034666114
0.0033220265
0.0031689463
0.0029963377
0.0027958291
0.0025857612
0.0023617996
0.010533207
0.016576667
0.018523986
0.01806255
0.016505035
0.014689728
0.013001932
0.011520772
0.010244963
0.0091538725
0.0082249578
0.0074327963
0.0067535546
0.0061695619
0.005667485
0.0052359537
0.0048646776
0.0045442844
0.0042659497
0.0040208111
0.0037998701
0.0035945024
0.003403987
0.0032437467
0.045033266
0.034150764
0.026631932
0.021451102
0.017779238
0.015061546
0.012965399
0.011306937
0.0099763817
0.0088958748
0.0080064612
0.0072639668
0.0066353836
0.0060962507
0.0056285818
0.0052197667
0.0048610825
0.0045460297
0.0042691752
0.0040253393
0.003808957
0.0036140409
0.0034348401
0.003272686
0.0031427323
0.037317525
0.030998055
0.027779438
0.025142054
0.022264938
0.01928666
0.016567291
0.014269025
0.012389039
0.010849077
0.0095794247
0.0085234018
0.0076376185
0.0068922423
0.0062634649
0.005731783
0.0052808739
0.0048970552
0.0045686076
0.004285004
0.0040361567
0.003812247
0.0036040881
0.0034108239
0.0032483191
0.010214544
0.009540148
0.0091995472
0.0088790357
0.0084167845
0.0078524668
0.0072966465
0.0068011432
0.0063510024
0.0059536499
0.0056061826
0.0053024275
0.0050171621
0.0047535157
0.0045129516
0.0042947121
0.0040967086
0.003916012
0.0037487264
0.0035897879
0.0034324419
0.003267712
0.0030841099
0.0028730761
0.0026532088
0.0039629712
0.0038905132
0.0038683138
0.0038279017
0.0037339974
0.0035996776
0.0034607687
0.0033320119
0.0032160223
0.0031149182
0.003027739
0.0029513462
0.0028801679
0.0028136419
0.0027515888
0.0026931626
0.0026366697
0.0025794868
0.0025178117
0.002446123
0.0023560902
0.0022342901
0.0020563746
0.0017686543
0.0012087068
0.0019238628
0.0019375819
0.0019630047
0.0019781425
0.0019720826
0.0019483624
0.001917912
0.0018877059
0.0018608268
0.0018385787
0.0018207415
0.0018060577
0.001792855
0.0017804613
0.001768492
0.001755711
0.0017402157
0.0017191902
0.0016885527
0.0016423206
0.0015714367
0.0014615215
0.0012883827
0.001009096
0.00054620108
0.0010851475
0.0011037956
0.001127712
0.0011480762
0.0011603989
0.0011654448
0.0011668174
0.0011674888
0.0011691892
0.0011726556
0.0011778365
0.0011841497
0.001190794
0.0011970675
0.0012021841
0.001204904
0.0012033792
0.0011949606
0.0011759104
0.0011409392
0.0010824572
0.00098938484
0.0008454091
0.0006270746
0.00030346936
0.00067811313
0.00069267398
0.00071024288
0.00072701496
0.00074088695
0.00075181527
0.00076102242
0.00076979537
0.00077901994
0.00078911143
0.00080006215
0.00081155241
0.00082307526
0.00083400862
0.00084352858
0.00085045555
0.00085314095
0.00084932892
0.00083598256
0.00080905503
0.00076320886
0.0006915237
0.00058528938
0.00043370696
0.00021909484
0.00045449092
0.00046513943
0.00047772581
0.00049048603
0.00050235161
0.00051313067
0.00052322191
0.00053317163
0.00054340499
0.00055412868
0.00056531913
0.00057675404
0.0005880486
0.0005986659
0.00060787078
0.0006146535
0.00061765671
0.00061510129
0.00060471844
0.00058371235
0.00054882848
0.00049672576
0.00042518843
0.00033682597
0.00024890731
0.00032007485
0.00032785594
0.00033695404
0.00034650978
0.00035595777
0.00036511634
0.00037409325
0.00038310508
0.00039233814
0.0004018735
0.0004116596
0.00042151122
0.00043111317
0.00044001108
0.00044758373
0.00045300293
0.0004551961
0.00045281932
0.00044425849
0.00042769545
0.00040132473
0.00036390871
0.00031607629
0.00026322704
0.00022123652
0.00023345513
0.00023920175
0.00024587324
0.00025303461
0.00026037344
0.00026775207
0.00027517566
0.00028271518
0.00029043564
0.00029834687
0.00030637715
0.00031436159
0.0003220341
0.0003290156
0.00033479595
0.000338714
0.00033994282
0.00033748922
0.00033022327
0.00031696624
0.00029668822
0.00026890615
0.00023442999
0.00019668977
0.0001612642
0.00017435842
0.00017864307
0.00018359196
0.0001889761
0.00019461695
0.00020041626
0.00020634585
0.00021241362
0.0002186255
0.00022495431
0.00023131937
0.00023757349
0.00024349195
0.00024876293
0.00025297589
0.00025561237
0.00025604259
0.00025353474
0.00024728547
0.0002364818
0.00022040339
0.00019854555
0.00017061372
0.00013569403
8.6807543e-05
0.00013208811
0.00013529727
0.00013899051
0.00014304213
0.0001473466
0.0001518347
0.00015647095
0.00016123753
0.00016611388
0.00017105674
0.00017598589
0.00018077247
0.00018522962
0.00018910481
0.00019207264
0.00019373104
0.00019360237
0.00019114305
0.00018576417
0.00017686199
0.00016384644
0.0001461227
0.00012288776
9.2347151e-05
4.9404372e-05
0.00010069003
0.00010309062
0.00010584644
0.00010888547
0.00011214294
0.00011557001
0.00011913317
0.00012280631
0.00012655923
0.00013034493
0.00013408976
0.00013768434
0.00014097633
0.00014376443
0.00014579425
0.00014675668
0.00014628992
0.00014398668
0.00013940553
0.00013208276
0.00012153267
0.00010720959
8.8382062e-05
6.3851034e-05
3.1532443e-05
7.6711666e-05
7.8494898e-05
8.0538561e-05
8.2799667e-05
8.5236963e-05
8.7815681e-05
9.0507377e-05
9.328562e-05
9.6119039e-05
9.8963683e-05
0.00010175591
0.00010440584
0.00010679195
0.00010875675
0.00011010413
0.00011059862
0.00010996729
0.00010790441
0.00010407789
9.8134783e-05
8.9700417e-05
7.8364529e-05
6.365529e-05
4.5046574e-05
2.2070918e-05
5.8078752e-05
5.9386958e-05
6.0884458e-05
6.2544611e-05
6.4340384e-05
6.6246889e-05
6.8241212e-05
7.029992e-05
7.2394813e-05
7.4488113e-05
7.6527469e-05
7.8441442e-05
8.0135461e-05
8.1488837e-05
8.2352887e-05
8.2550589e-05
8.1877963e-05
8.0107288e-05
7.6991697e-05
7.227041e-05
6.567431e-05
5.6934438e-05
4.5804744e-05
3.214654e-05
1.6247259e-05
4.3496424e-05
4.4439141e-05
4.5517396e-05
4.6714071e-05
4.8011079e-05
4.939061e-05
5.0834912e-05
5.232468e-05
5.383661e-05
5.5340131e-05
5.6794072e-05
5.8143494e-05
5.9316822e-05
6.0223775e-05
6.0753928e-05
6.0776531e-05
6.0141493e-05
5.868185e-05
5.6217781e-05
5.2562805e-05
4.7533902e-05
4.0969549e-05
3.2762137e-05
2.2924843e-05
1.1747429e-05
3.2112557e-05
3.2776635e-05
3.3535684e-05
3.4378364e-05
3.5292468e-05
3.6265327e-05
3.7283618e-05
3.8332345e-05
3.9393285e-05
4.0442938e-05
4.1450216e-05
4.2374311e-05
4.3162693e-05
4.3749631e-05
4.4055112e-05
4.3984714e-05
4.3430308e-05
4.227202e-05
4.0381889e-05
3.7630218e-05
3.3896542e-05
2.9087868e-05
2.316528e-05
1.6183566e-05
8.3846614e-06
2.3322599e-05
2.377807e-05
2.4298182e-05
2.4875418e-05
2.55015e-05
2.6167522e-05
2.6863781e-05
2.7579145e-05
2.8300046e-05
2.9009159e-05
2.9683923e-05
3.0295092e-05
3.0805338e-05
3.1168193e-05
3.1327283e-05
3.1216169e-05
3.0758863e-05
2.9871357e-05
2.8464732e-05
2.6450709e-05
2.3751096e-05
2.0312225e-05
1.6122708e-05
1.1233581e-05
5.8110447e-06
1.6655831e-05
1.6959084e-05
1.7304887e-05
1.7688327e-05
1.8103775e-05
1.8545079e-05
1.9005374e-05
1.9476706e-05
1.9949374e-05
2.0411108e-05
2.084613e-05
2.123418e-05
2.1549583e-05
2.1760487e-05
2.1828302e-05
2.1707557e-05
2.1346233e-05
2.0686929e-05
1.9669254e-05
1.8234166e-05
1.6331094e-05
1.3928179e-05
1.1023552e-05
7.6561647e-06
3.9404273e-06
1.1713893e-05
1.190958e-05
1.2132337e-05
1.2378917e-05
1.2645583e-05
1.2928135e-05
1.3221851e-05
1.3521225e-05
1.3819566e-05
1.4108488e-05
1.4377316e-05
1.461245e-05
1.4796751e-05
1.4909004e-05
1.4923516e-05
1.4809975e-05
1.4533664e-05
1.4056277e-05
1.333765e-05
1.233888e-05
1.1027293e-05
9.3833318e-06
7.4078762e-06
5.129153e-06
2.6351083e-06
8.144302e-06
8.2667035e-06
8.4057459e-06
8.5592978e-06
8.724899e-06
8.8997408e-06
9.0806497e-06
9.2639173e-06
9.4450621e-06
9.6185154e-06
9.7772492e-06
9.9123678e-06
1.0012706e-05
1.0064459e-05
1.0050907e-05
9.9522945e-06
9.7459425e-06
9.4067656e-06
8.908491e-06
8.2257916e-06
7.3376014e-06
6.2316251e-06
4.9092268e-06
3.3902694e-06
1.7338141e-06
5.6352935e-06
5.7096095e-06
5.7938308e-06
5.8865775e-06
5.9862435e-06
6.091006e-06
6.1987637e-06
6.3070775e-06
6.4130114e-06
6.5129429e-06
6.602332e-06
6.6754556e-06
6.7251355e-06
6.7424881e-06
6.7167585e-06
6.6352577e-06
6.4833959e-06
6.2449371e-06
5.902839e-06
5.4407173e-06
4.8450104e-06
4.1078921e-06
3.2304913e-06
2.226215e-06
1.1344271e-06
3.9216512e-06
3.9655858e-06
4.0152261e-06
4.0696903e-06
4.1279479e-06
4.1888198e-06
4.2509586e-06
4.3127786e-06
4.3723876e-06
4.427464e-06
4.4751157e-06
4.5117126e-06
4.5327035e-06
4.5324186e-06
4.5038719e-06
4.438699e-06
4.3274671e-06
4.1597613e-06
3.9245083e-06
3.6110775e-06
3.2107012e-06
2.7183592e-06
2.1349379e-06
1.4696548e-06
7.4875297e-07
2.7856161e-06
2.8111032e-06
2.8397875e-06
2.8711073e-06
2.9044039e-06
2.9389205e-06
2.9737863e-06
3.0079807e-06
3.040277e-06
3.0691792e-06
3.0928278e-06
3.108894e-06
3.1144616e-06
3.1058869e-06
3.0786413e-06
3.0272015e-06
2.9450965e-06
2.8254253e-06
2.6608933e-06
2.4444861e-06
2.1704301e-06
1.8354355e-06
1.4401623e-06
9.9105121e-07
5.0591174e-07
2.0546804e-06
2.0693853e-06
2.085862e-06
2.1037511e-06
2.1226291e-06
2.1420052e-06
2.1613088e-06
2.1798652e-06
2.1968618e-06
2.2112988e-06
2.2219303e-06
2.2271905e-06
2.2251121e-06
2.2132367e-06
2.1885323e-06
2.1473101e-06
2.085069e-06
1.9968514e-06
1.877619e-06
1.7225423e-06
1.5276547e-06
1.2906972e-06
1.0121191e-06
6.9641934e-07
3.5597307e-07
1.5993006e-06
1.6079134e-06
1.6175204e-06
1.6278881e-06
1.6387384e-06
1.6497438e-06
1.6605174e-06
1.6705946e-06
1.6794076e-06
1.6862511e-06
1.6902364e-06
1.690238e-06
1.6848331e-06
1.6722353e-06
1.650233e-06
1.616142e-06
1.5667628e-06
1.4983571e-06
1.4071551e-06
1.2895857e-06
1.1427298e-06
9.6492626e-07
7.5647304e-07
5.2053338e-07
2.6579103e-07
1.3265177e-06
1.3317936e-06
1.3376555e-06
1.3439464e-06
1.3504758e-06
1.357014e-06
1.3632828e-06
1.3689408e-06
1.3735618e-06
1.3766069e-06
1.3773883e-06
1.375026e-06
1.3683989e-06
1.356093e-06
1.3363515e-06
1.3070382e-06
1.265635e-06
1.2091967e-06
1.134671e-06
1.0391856e-06
9.2040371e-07
7.7699889e-07
6.0919276e-07
4.1947852e-07
2.1491145e-07
1.1717863e-06
1.1752798e-06
1.1791525e-06
1.1832923e-06
1.1875599e-06
1.1917826e-06
1.195745e-06
1.1991749e-06
1.201725e-06
1.2029473e-06
1.2022617e-06
1.1989185e-06
1.1919564e-06
1.1801578e-06
1.162007e-06
1.1356602e-06
1.0989449e-06
1.0493611e-06
9.842602e-07
9.0114393e-07
7.9798434e-07
6.7363483e-07
5.2828239e-07
3.6402702e-07
1.8682811e-07
1.0915636e-06
1.0941168e-06
1.0969457e-06
1.0999644e-06
1.1030628e-06
1.1061005e-06
1.1088967e-06
1.1112175e-06
1.112757e-06
1.1131141e-06
1.1117633e-06
1.1080196e-06
1.1010001e-06
1.0895832e-06
1.0723716e-06
1.0476655e-06
1.0134621e-06
9.6748367e-07
9.0729339e-07
8.3057947e-07
7.3546529e-07
6.2089761e-07
4.8707831e-07
3.3602088e-07
1.7326524e-07
1.0572184e-06
1.0592672e-06
1.0615386e-06
1.0639612e-06
1.0664413e-06
1.0688563e-06
1.0710441e-06
1.0727904e-06
1.0738099e-06
1.073724e-06
1.0720318e-06
1.0680765e-06
1.0610085e-06
1.0497466e-06
1.0329428e-06
1.008958e-06
9.7586193e-07
9.3147289e-07
8.7345087e-07
7.9956366e-07
7.0799678e-07
5.9773752e-07
4.6899375e-07
3.2363152e-07
1.6587901e-07
1.0503402e-06
1.0520998e-06
1.0540511e-06
1.0561311e-06
1.0582551e-06
1.0603098e-06
1.0621427e-06
1.063549e-06
1.0642528e-06
1.0638842e-06
1.0619508e-06
1.0578045e-06
1.0506045e-06
1.0392796e-06
1.0224938e-06
9.9862311e-07
9.6575596e-07
9.2173858e-07
8.6426233e-07
7.9111523e-07
7.0049628e-07
5.9140629e-07
4.6407372e-07
3.2035197e-07
1.6426302e-07
1.0593043e-06
1.0608753e-06
1.0626164e-06
1.064469e-06
1.0663534e-06
1.0681611e-06
1.0697443e-06
1.0709022e-06
1.071362e-06
1.0707554e-06
1.0685903e-06
1.0642168e-06
1.0567901e-06
1.045233e-06
1.0282017e-06
1.0040634e-06
9.708967e-07
9.265402e-07
8.6868105e-07
7.9509601e-07
7.039722e-07
5.9431046e-07
4.663714e-07
3.2208275e-07
1.6605708e-07
1.0768517e-06
1.078279e-06
1.0798581e-06
1.0815329e-06
1.0832261e-06
1.0848319e-06
1.0862044e-06
1.0871439e-06
1.0873775e-06
1.0865351e-06
1.0841204e-06
1.0794763e-06
1.0717481e-06
1.0598443e-06
1.0424036e-06
1.0177721e-06
9.8400474e-07
9.3891518e-07
8.8016814e-07
8.0551371e-07
7.1311481e-07
6.0196718e-07
4.7238129e-07
3.264354e-07
1.6881505e-07
1.0984379e-06
1.0997417e-06
1.1011798e-06
1.1026976e-06
1.1042195e-06
1.1056405e-06
1.1068157e-06
1.1075448e-06
1.1075533e-06
1.1064673e-06
1.1037843e-06
1.098838e-06
1.0907602e-06
1.0784422e-06
1.0605006e-06
1.0352554e-06
1.0007321e-06
9.5471235e-07
8.9483069e-07
8.1880465e-07
7.2476782e-07
6.1170485e-07
4.7996784e-07
3.3180113e-07
1.72131e-07
1.1211326e-06
1.1223229e-06
1.1236304e-06
1.1250017e-06
1.1263617e-06
1.1276063e-06
1.1285901e-06
1.1291119e-06
1.1288947e-06
1.1275601e-06
1.1245985e-06
1.1193334e-06
1.1108826e-06
1.0981189e-06
1.0796361e-06
1.0537268e-06
1.0183862e-06
9.7136322e-07
9.1026138e-07
8.3276645e-07
7.3698428e-07
6.2188823e-07
4.8785791e-07
3.3722869e-07
1.7504581e-07
1.1428974e-06
1.1439808e-06
1.145165e-06
1.1463971e-06
1.1476026e-06
1.1486773e-06
1.1494755e-06
1.1497947e-06
1.1493547e-06
1.1477727e-06
1.1445318e-06
1.1389454e-06
1.1301175e-06
1.1169032e-06
1.0978746e-06
1.0712989e-06
1.0351432e-06
9.8712698e-07
9.2482683e-07
8.4590282e-07
7.4844032e-07
6.3140722e-07
4.9520466e-07
3.4221247e-07
1.7752024e-07
1.1621139e-06
1.1630964e-06
1.164164e-06
1.1652642e-06
1.1663227e-06
1.1672354e-06
1.1678558e-06
1.1679798e-06
1.1673245e-06
1.1655023e-06
1.1619897e-06
1.1560907e-06
1.1468967e-06
1.1332473e-06
1.1136955e-06
1.0864871e-06
1.0495662e-06
1.0006294e-06
9.3723417e-07
8.5702474e-07
7.5807677e-07
6.3935913e-07
5.0127898e-07
3.4617113e-07
1.7933129e-07
1.1772726e-06
1.1781605e-06
1.1791186e-06
1.1800947e-06
1.1810149e-06
1.1817746e-06
1.1822269e-06
1.1821661e-06
1.1813065e-06
1.1792566e-06
1.175487e-06
1.1692936e-06
1.1597576e-06
1.145706e-06
1.1256773e-06
1.0979016e-06
1.0603082e-06
1.01058e-06
9.4626656e-07
8.6501009e-07
7.6489081e-07
6.4489189e-07
5.0543829e-07
3.4885888e-07
1.804585e-07
1.1867636e-06
1.1875633e-06
1.1884193e-06
1.1892797e-06
1.1900707e-06
1.1906878e-06
1.1909833e-06
1.1907503e-06
1.189701e-06
1.1874406e-06
1.1834352e-06
1.1769749e-06
1.1671338e-06
1.1527308e-06
1.132296e-06
1.1040523e-06
1.0659245e-06
1.0155946e-06
9.5061934e-07
8.6865617e-07
7.6780735e-07
6.4708633e-07
5.0694548e-07
3.4968926e-07
1.8057674e-07
1.188732e-06
1.1894499e-06
1.1902112e-06
1.1909645e-06
1.1916361e-06
1.1921216e-06
1.192273e-06
1.1918826e-06
1.1906614e-06
1.1882127e-06
1.1840002e-06
1.1773112e-06
1.1672171e-06
1.1525348e-06
1.1317945e-06
1.1032224e-06
1.0647528e-06
1.0140835e-06
9.487979e-07
8.6658995e-07
7.6560512e-07
6.4490641e-07
5.0499458e-07
3.4818583e-07
1.7968196e-07
1.1809814e-06
1.1816236e-06
1.1822976e-06
1.1829523e-06
1.1835146e-06
1.1838802e-06
1.1839016e-06
1.1833711e-06
1.1819998e-06
1.1793914e-06
1.1750099e-06
1.1681441e-06
1.1578687e-06
1.1430069e-06
1.1220995e-06
1.0933902e-06
1.0548406e-06
1.0041855e-06
9.3905902e-07
8.5721799e-07
7.5687609e-07
6.3716762e-07
4.9866778e-07
3.4377919e-07
1.7768312e-07
1.1609222e-06
1.1614944e-06
1.162088e-06
1.1626526e-06
1.1631157e-06
1.1633741e-06
1.1632813e-06
1.1626312e-06
1.1611371e-06
1.1584057e-06
1.1539059e-06
1.1469337e-06
1.136575e-06
1.1216696e-06
1.1007833e-06
1.0721958e-06
1.0339165e-06
9.8374336e-07
9.193924e-07
8.3871294e-07
7.4001561e-07
6.2252487e-07
4.8688216e-07
3.3550603e-07
1.7343595e-07
1.1255766e-06
1.1260841e-06
1.1266039e-06
1.1270865e-06
1.127461e-06
1.1276258e-06
1.127437e-06
1.1266922e-06
1.1251097e-06
1.1223033e-06
1.1177525e-06
1.1107685e-06
1.1004587e-06
1.0856936e-06
1.0650813e-06
1.036959e-06
9.9941049e-07
9.5033029e-07
8.8754927e-07
8.0904364e-07
7.1325166e-07
5.9950584e-07
4.6850435e-07
3.2262872e-07
1.6670766e-07
1.0716617e-06
1.072109e-06
1.0725609e-06
1.0729695e-06
1.0732662e-06
1.0733526e-06
1.0730892e-06
1.0722799e-06
1.0706521e-06
1.0678329e-06
1.0633197e-06
1.056449e-06
1.0463636e-06
1.0319818e-06
1.0119761e-06
9.8476731e-07
9.4854705e-07
9.0134134e-07
8.4113321e-07
7.6606303e-07
6.7472757e-07
5.6658036e-07
4.4235228e-07
3.043089e-07
1.5700522e-07
9.9579175e-07
9.9618246e-07
9.9657156e-07
9.9691382e-07
9.9714411e-07
9.9716888e-07
9.9685531e-07
9.9601753e-07
9.9439825e-07
9.9164472e-07
9.8728248e-07
9.8068668e-07
9.7105207e-07
9.5736668e-07
9.3839402e-07
9.1267097e-07
8.7853238e-07
8.3417459e-07
7.7777286e-07
7.0766954e-07
6.2264864e-07
5.2229447e-07
4.0735251e-07
2.7993308e-07
1.4423983e-07
8.948497e-07
8.9518608e-07
8.9551578e-07
8.9579782e-07
8.9597229e-07
8.9595243e-07
8.9561474e-07
8.9478868e-07
8.9324059e-07
8.9064802e-07
8.8657619e-07
8.8045519e-07
8.7155212e-07
8.5895075e-07
8.4153791e-07
8.180028e-07
7.8686302e-07
7.4652585e-07
6.9539822e-07
6.3205946e-07
5.555051e-07
4.6545579e-07
3.626545e-07
2.4901151e-07
1.2767952e-07
7.6654972e-07
7.6683145e-07
7.6710201e-07
7.6732722e-07
7.6745157e-07
7.6739918e-07
7.6705963e-07
7.6628357e-07
7.6487448e-07
7.6255282e-07
7.5893466e-07
7.5352463e-07
7.4568308e-07
7.3462051e-07
7.1938537e-07
6.9885979e-07
6.7178555e-07
6.3682032e-07
5.9263776e-07
5.3808244e-07
4.723769e-07
3.9537421e-07
3.0779073e-07
2.1129645e-07
1.0895416e-07
6.1020036e-07
6.104236e-07
6.1063375e-07
6.1080619e-07
6.1086816e-07
6.10773e-07
6.1044129e-07
6.097463e-07
6.0854818e-07
6.0662666e-07
6.0365097e-07
5.992249e-07
5.928125e-07
5.8378835e-07
5.7140833e-07
5.5479075e-07
5.3294327e-07
5.0480936e-07
4.69357e-07
4.25714e-07
3.7333223e-07
3.1217667e-07
2.4290061e-07
1.6693211e-07
8.6714843e-08
4.2768454e-07
4.2784502e-07
4.2800574e-07
4.281516e-07
4.2808814e-07
4.2786691e-07
4.275353e-07
4.2695919e-07
4.2606548e-07
4.2471187e-07
4.2260569e-07
4.1948469e-07
4.1489333e-07
4.0841643e-07
3.9956739e-07
3.8774231e-07
3.7225778e-07
3.5237302e-07
3.2737142e-07
2.9667085e-07
2.5993793e-07
2.1720628e-07
1.689965e-07
1.1643152e-07
6.1233514e-08
2.2530932e-07
2.2540599e-07
2.255411e-07
2.2570295e-07
2.2543747e-07
2.2496614e-07
2.2465129e-07
2.2428188e-07
2.2381082e-07
2.2329752e-07
2.222648e-07
2.2073161e-07
2.1831326e-07
2.1483456e-07
2.1008185e-07
2.0375158e-07
1.9552459e-07
1.8499324e-07
1.7177373e-07
1.5557017e-07
1.3623126e-07
1.1380145e-07
8.8588673e-08
6.1306518e-08
3.3040481e-08
)
;

boundaryField
{
    Walls
    {
        type            kqRWallFunction;
        value           nonuniform List<scalar> 
38
(
5.640428e-06
2.5936049e-06
7.9782917e-06
3.759459e-05
0.00028132637
0.0023617996
0.056325616
0.060949477
0.018384109
0.027260165
0.034365869
0.041145028
0.047465033
0.052402605
0.056218562
0.059573729
0.061984723
0.064250252
0.066486825
0.067266262
0.068794
0.070168222
0.07012194
0.071353584
0.072334306
0.071726938
0.072288107
0.072782459
0.072338005
0.07274038
0.072961351
0.072478703
0.072866935
0.073363749
0.07324814
0.072903649
0.07199706
0.06700835
)
;
    }
    Inlet
    {
        type            turbulentIntensityKineticEnergyInlet;
        intensity       0.05;
        value           nonuniform List<scalar> 3(0.0084439031 0.0084916678 0.0096912345);
    }
    Outlet
    {
        type            inletOutlet;
        inletValue      uniform 0;
        value           nonuniform List<scalar> 
86
(
0
0
0
0
0
0
0
0
0
0
0
0
0
0
0
0
0
0
0
0
0
0
0
0
0
0
0
0
0
0
0.0031427323
0.0032483191
0.0026532088
0
0
0
0
0.00024890731
0.00022123652
0.0001612642
0
0
0
0
1.6247259e-05
1.1747429e-05
8.3846614e-06
5.8110447e-06
3.9404273e-06
2.6351083e-06
1.7338141e-06
1.1344271e-06
7.4875297e-07
5.0591174e-07
3.5597307e-07
2.6579103e-07
2.1491145e-07
1.8682811e-07
1.7326524e-07
1.6587901e-07
1.6426302e-07
1.6605708e-07
1.6881505e-07
1.72131e-07
1.7504581e-07
1.7752024e-07
1.7933129e-07
1.804585e-07
1.8057674e-07
1.7968196e-07
1.7768312e-07
1.7343595e-07
1.6670766e-07
1.5700522e-07
1.4423983e-07
0
1.0895416e-07
8.6714843e-08
6.1233514e-08
3.3040481e-08
0
0
0
0
0.0025857612
0.0032437467
)
;
    }
    Front
    {
        type            wedge;
    }
    Back
    {
        type            wedge;
    }
    defaultFaces
    {
        type            empty;
    }
}


// ************************************************************************* //
