/*--------------------------------*- C++ -*----------------------------------*\
| =========                 |                                                 |
| \\      /  F ield         | OpenFOAM: The Open Source CFD Toolbox           |
|  \\    /   O peration     | Version:  4.0                                   |
|   \\  /    A nd           | Web:      www.OpenFOAM.org                      |
|    \\/     M anipulation  |                                                 |
\*---------------------------------------------------------------------------*/
FoamFile
{
    version     2.0;
    format      ascii;
    class       volScalarField;
    location    "0.62";
    object      nut;
}
// * * * * * * * * * * * * * * * * * * * * * * * * * * * * * * * * * * * * * //

dimensions      [0 2 -1 0 0 0 0];

internalField   nonuniform List<scalar> 
1740
(
6.0133653e-05
1.3468935e-05
1.2321786e-06
2.062276e-05
6.8301965e-06
1.8139145e-06
1.1695008e-05
5.3681534e-06
2.2736712e-06
9.1092453e-06
4.8392105e-06
2.7074653e-06
1.5288264e-05
4.4309528e-06
3.1082243e-06
1.6373953e-05
4.0943451e-06
3.4182227e-06
1.3568705e-05
3.8659613e-06
3.6565309e-06
1.1716892e-05
3.7258796e-06
3.8655103e-06
1.0442841e-05
3.6315345e-06
4.0139442e-06
9.3694554e-06
3.5599544e-06
4.1530154e-06
8.4928529e-06
3.5219772e-06
4.2902941e-06
7.9431821e-06
3.5068827e-06
4.3381407e-06
7.4396652e-06
3.4883467e-06
4.4316967e-06
7.0043309e-06
3.4838675e-06
4.5156001e-06
6.6239029e-06
3.4842515e-06
4.5123283e-06
6.2823704e-06
3.483644e-06
4.5875997e-06
5.9270372e-06
3.5081464e-06
4.6471679e-06
5.6283767e-06
3.5255394e-06
4.610086e-06
5.382149e-06
3.5256884e-06
4.6438098e-06
5.2138802e-06
3.5436169e-06
4.6736017e-06
5.0541644e-06
3.552407e-06
4.6471667e-06
4.8799852e-06
3.5401246e-06
4.6713288e-06
4.7124086e-06
3.541894e-06
4.6846045e-06
4.5813943e-06
3.5362957e-06
4.6551772e-06
4.4801799e-06
3.5283848e-06
4.6786652e-06
4.3942104e-06
3.5400776e-06
4.7098053e-06
4.3023579e-06
3.574589e-06
4.7032412e-06
4.1995001e-06
3.5933696e-06
4.6814677e-06
4.1351947e-06
3.604012e-06
4.626075e-06
3.1892875e-06
3.5247274e-06
4.32215e-06
1.9334175e-06
2.2110096e-06
4.4219258e-06
7.1674544e-06
7.3480409e-06
6.7094486e-06
6.537428e-06
6.743326e-06
6.3768983e-06
5.181727e-06
5.1218818e-06
4.873152e-06
4.341056e-06
4.2690911e-06
4.1329973e-06
3.7994932e-06
3.7567295e-06
3.6968843e-06
3.4376887e-06
3.4205503e-06
3.4062713e-06
3.1824474e-06
3.181117e-06
3.1914325e-06
2.9851028e-06
2.992019e-06
3.0141231e-06
2.8121282e-06
2.8226157e-06
2.8490941e-06
2.6398812e-06
2.6513039e-06
2.6780464e-06
2.4522368e-06
2.463203e-06
2.4880585e-06
2.2398471e-06
2.2496818e-06
2.2716273e-06
2.0000961e-06
2.0085202e-06
2.0271696e-06
1.7370827e-06
1.744031e-06
1.7593501e-06
1.4610163e-06
1.4665422e-06
1.4786995e-06
1.1864581e-06
1.1906866e-06
1.1999797e-06
9.2925827e-07
9.3236173e-07
9.3917886e-07
7.0288588e-07
7.0506515e-07
7.0985152e-07
5.1554046e-07
5.1700367e-07
5.2021833e-07
3.692117e-07
3.7015201e-07
3.7222076e-07
2.6078113e-07
2.6136186e-07
2.6264341e-07
1.8430331e-07
1.8465536e-07
1.8543001e-07
1.3264018e-07
1.3285001e-07
1.3331027e-07
9.8964563e-08
9.9088863e-08
9.9361135e-08
7.7808612e-08
7.788341e-08
7.8047212e-08
6.5097966e-08
6.5144989e-08
6.5248079e-08
5.7930601e-08
5.7962352e-08
5.8032193e-08
5.4311895e-08
5.4335262e-08
5.4386996e-08
5.2910079e-08
5.2928714e-08
5.2970357e-08
5.2856527e-08
5.287232e-08
5.290797e-08
5.3595212e-08
5.3609143e-08
5.3640849e-08
5.4775815e-08
5.47884e-08
5.4817178e-08
5.6180926e-08
5.6192443e-08
5.6218814e-08
5.7677674e-08
5.768828e-08
5.7712531e-08
5.9186007e-08
5.9195799e-08
5.9218125e-08
6.0658193e-08
6.0667242e-08
6.0687803e-08
6.2065855e-08
6.2074222e-08
6.2093169e-08
6.3392054e-08
6.3399801e-08
6.3417286e-08
6.4626731e-08
6.4633918e-08
6.4650094e-08
6.5764386e-08
6.5771078e-08
6.5786101e-08
6.6803417e-08
6.680969e-08
6.6823725e-08
6.7746573e-08
6.7752542e-08
6.7765783e-08
6.8576495e-08
6.8582195e-08
6.8594747e-08
6.9275949e-08
6.9281387e-08
6.9293331e-08
6.9839075e-08
6.9844286e-08
6.985572e-08
7.0255053e-08
7.0260079e-08
7.02711e-08
7.050264e-08
7.0507518e-08
7.0518215e-08
7.0535674e-08
7.0540435e-08
7.0550874e-08
7.0217586e-08
7.0222236e-08
7.0232434e-08
4.1781413e-06
4.5029293e-06
6.7090091e-06
8.4211483e-06
5.9925539e-06
6.0333571e-06
4.7248637e-06
4.8281072e-06
4.0846178e-06
4.1931503e-06
3.6999737e-06
3.8021844e-06
3.4364727e-06
3.5310412e-06
3.23452e-06
3.3211439e-06
3.0616713e-06
3.1402201e-06
2.8961878e-06
2.9665515e-06
2.7219198e-06
2.7840372e-06
2.527277e-06
2.5812063e-06
2.3055778e-06
2.3515264e-06
2.0557276e-06
2.0940512e-06
1.7826841e-06
1.8138603e-06
1.4971658e-06
1.5217854e-06
1.2140741e-06
1.2328464e-06
9.4950957e-07
9.6326261e-07
7.1710187e-07
7.2675154e-07
5.2508767e-07
5.3156716e-07
3.7535613e-07
3.7952805e-07
2.6458768e-07
2.6717422e-07
1.8660274e-07
1.8816005e-07
1.3400541e-07
1.3492678e-07
9.9771805e-08
1.0031538e-07
7.8294202e-08
7.8621004e-08
6.5403706e-08
6.5609876e-08
5.8137981e-08
5.8278594e-08
5.4465814e-08
5.4571136e-08
5.3034277e-08
5.312022e-08
5.2963099e-08
5.3037633e-08
5.3690155e-08
5.3757077e-08
5.486207e-08
5.492312e-08
5.6259976e-08
5.6315966e-08
5.7750344e-08
5.7801726e-08
5.9252859e-08
5.9299977e-08
6.0719704e-08
6.0762892e-08
6.2122486e-08
6.2162094e-08
6.3444271e-08
6.3480658e-08
6.4675003e-08
6.4708528e-08
6.5809184e-08
6.5840198e-08
6.6845231e-08
6.6874068e-08
6.7785966e-08
6.7812944e-08
6.8613786e-08
6.8639154e-08
6.9311402e-08
6.9335432e-08
6.9872997e-08
6.9895941e-08
7.0287743e-08
7.0309829e-08
7.0534365e-08
7.0555783e-08
7.0566634e-08
7.0587527e-08
7.024783e-08
7.0268234e-08
4.677672e-10
1.325365e-08
1.9309532e-07
8.2675166e-07
1.6441923e-06
2.2309428e-06
2.5759138e-06
2.7842454e-06
2.9282861e-06
3.0436401e-06
3.1474511e-06
3.25373e-06
3.359239e-06
3.4628992e-06
3.563926e-06
3.6609708e-06
3.7515778e-06
3.831605e-06
3.8943482e-06
3.929213e-06
3.9195724e-06
3.8391668e-06
3.6454943e-06
3.2619653e-06
2.4535411e-06
2.1509175e-10
2.6880505e-08
3.5990246e-07
1.3774782e-06
2.5709734e-06
3.3795775e-06
3.8527594e-06
4.1594116e-06
4.394053e-06
4.5994414e-06
4.7961652e-06
4.996749e-06
5.1988925e-06
5.4015976e-06
5.6032039e-06
5.8009712e-06
5.9901492e-06
6.162948e-06
6.3066374e-06
6.4008928e-06
6.4133405e-06
6.2915764e-06
5.9477743e-06
5.221027e-06
3.6828706e-06
6.6164978e-10
7.8766544e-08
8.5705074e-07
2.5068567e-06
3.7925165e-06
4.5292033e-06
4.9929636e-06
5.3387381e-06
5.639101e-06
5.9264544e-06
6.2161216e-06
6.5148496e-06
6.8211901e-06
7.1339983e-06
7.4518554e-06
7.7716947e-06
8.0872899e-06
8.3886628e-06
8.6580998e-06
8.8668338e-06
8.9681532e-06
8.8843612e-06
8.4799143e-06
7.4961864e-06
5.2895617e-06
3.117677e-09
2.8494347e-07
2.0606715e-06
4.0006791e-06
5.0413657e-06
5.6293258e-06
6.0364119e-06
6.3792794e-06
6.7080658e-06
7.041409e-06
7.3901353e-06
7.757278e-06
8.1394005e-06
8.5352389e-06
8.9446816e-06
9.3663836e-06
9.7953867e-06
1.0222155e-05
1.0629985e-05
1.0990907e-05
1.1258597e-05
1.1354484e-05
1.1134721e-05
1.0290016e-05
7.890361e-06
2.332427e-08
1.1369287e-06
3.9848582e-06
5.5925256e-06
6.4439035e-06
6.9649765e-06
7.348892e-06
7.6957173e-06
8.0458561e-06
8.4010341e-06
8.7748423e-06
9.1739683e-06
9.5880441e-06
1.0012581e-05
1.0450359e-05
1.0906064e-05
1.1379062e-05
1.1864805e-05
1.2353371e-05
1.2826476e-05
1.3252908e-05
1.3582331e-05
1.3737933e-05
1.3623778e-05
1.321147e-05
1.9539543e-07
2.75338e-06
5.8982568e-06
7.701493e-06
8.6159378e-06
9.0327491e-06
9.2289042e-06
9.3659614e-06
9.5051394e-06
9.6645181e-06
9.8520491e-06
1.007398e-05
1.0330733e-05
1.0622394e-05
1.0950114e-05
1.1314925e-05
1.171706e-05
1.2154687e-05
1.262291e-05
1.3111954e-05
1.3604098e-05
1.4070367e-05
1.4467452e-05
1.4746534e-05
1.485008e-05
4.3439018e-06
4.3194486e-06
4.366292e-06
4.479108e-06
4.6552703e-06
4.883955e-06
5.1557639e-06
5.4687445e-06
5.8250778e-06
6.2261235e-06
6.6711105e-06
7.1570798e-06
7.6783882e-06
8.2277063e-06
8.7978441e-06
9.3835984e-06
9.9822466e-06
1.059241e-05
1.121233e-05
1.1837599e-05
1.245804e-05
1.3054542e-05
1.3596309e-05
1.4046432e-05
1.4337167e-05
9.1158311e-06
9.3706628e-06
9.768692e-06
1.0186684e-05
1.0361883e-05
1.0324412e-05
1.0206596e-05
1.0109604e-05
1.0073341e-05
1.0099182e-05
1.0182823e-05
1.0319593e-05
1.0507426e-05
1.0745951e-05
1.1034973e-05
1.1373924e-05
1.1760948e-05
1.2192252e-05
1.2660909e-05
1.3154736e-05
1.3653137e-05
1.4123961e-05
1.4520737e-05
1.4793269e-05
1.4887653e-05
6.4048624e-06
6.814435e-06
7.2455724e-06
7.6454211e-06
7.9474157e-06
8.1650588e-06
8.3582327e-06
8.5666129e-06
8.7983465e-06
9.0680256e-06
9.372223e-06
9.7018346e-06
1.0052106e-05
1.0429298e-05
1.0837327e-05
1.1276836e-05
1.1744929e-05
1.2234373e-05
1.2731653e-05
1.3213938e-05
1.3644542e-05
1.3967052e-05
1.409889e-05
1.3941201e-05
1.3472988e-05
5.1412362e-06
5.4982965e-06
5.8492333e-06
6.1665842e-06
6.4336501e-06
6.6630261e-06
6.8848147e-06
7.1193633e-06
7.3778063e-06
7.6667416e-06
7.984109e-06
8.327269e-06
8.696104e-06
9.0917552e-06
9.513787e-06
9.9585266e-06
1.0417812e-05
1.0877302e-05
1.1313865e-05
1.1691436e-05
1.1954085e-05
1.2012826e-05
1.1713849e-05
1.0737533e-05
8.1281046e-06
4.4367402e-06
4.7274191e-06
5.0189705e-06
5.2910461e-06
5.5379532e-06
5.7678167e-06
5.9950563e-06
6.2324516e-06
6.4885601e-06
6.7675356e-06
7.0690568e-06
7.3919329e-06
7.7358242e-06
8.0996924e-06
8.4806241e-06
8.8716146e-06
9.260483e-06
9.6279766e-06
9.9450473e-06
1.0168745e-05
1.0235661e-05
1.0050397e-05
9.4621008e-06
8.2048521e-06
5.6421156e-06
3.991723e-06
4.222774e-06
4.4625562e-06
4.6954059e-06
4.9177303e-06
5.1342719e-06
5.3531849e-06
5.5821971e-06
5.8269938e-06
6.0904055e-06
6.3726407e-06
6.6728021e-06
6.9895992e-06
7.3202686e-06
7.6593865e-06
7.9977819e-06
8.3211559e-06
8.6084627e-06
8.8298113e-06
8.9436137e-06
8.8925014e-06
8.5967799e-06
7.9413803e-06
6.7378784e-06
4.5012323e-06
3.6835939e-06
3.8698355e-06
4.0686996e-06
4.2687219e-06
4.4666903e-06
4.6648148e-06
4.8677146e-06
5.0801742e-06
5.3058802e-06
5.5467644e-06
5.8030216e-06
6.0736587e-06
6.3566543e-06
6.6482494e-06
6.9420028e-06
7.2279119e-06
7.49146e-06
7.7124988e-06
7.864018e-06
7.9107968e-06
7.8079004e-06
7.4985209e-06
6.9081952e-06
5.9175818e-06
4.1513251e-06
3.4478232e-06
3.6013521e-06
3.7686707e-06
3.9416804e-06
4.1174472e-06
4.2966985e-06
4.4819379e-06
4.6760134e-06
4.8811773e-06
5.09855e-06
5.3279911e-06
5.5681959e-06
5.8165859e-06
6.0688163e-06
6.3181189e-06
6.5546595e-06
6.764909e-06
6.9310583e-06
7.0305971e-06
7.0362655e-06
6.9167865e-06
6.6392588e-06
6.1758318e-06
5.5267639e-06
4.8107382e-06
3.2477434e-06
3.3768173e-06
3.5193896e-06
3.6698548e-06
3.8257056e-06
3.986828e-06
4.1544276e-06
4.3300616e-06
4.5149501e-06
4.7095214e-06
4.913219e-06
5.1243905e-06
5.3401061e-06
5.5557854e-06
5.7647573e-06
5.957847e-06
6.1230431e-06
6.2453247e-06
6.3068052e-06
6.2874704e-06
6.1670822e-06
5.9295533e-06
5.5732966e-06
5.1381282e-06
4.771154e-06
3.0588597e-06
3.1687418e-06
3.291171e-06
3.422284e-06
3.5600084e-06
3.7038109e-06
3.8540902e-06
4.0115413e-06
4.1766429e-06
4.3492865e-06
4.5285481e-06
4.7125222e-06
4.8981186e-06
5.080799e-06
5.2542908e-06
5.4103569e-06
5.5386798e-06
5.6269353e-06
5.6611859e-06
5.6268082e-06
5.5103257e-06
5.3028978e-06
5.0072029e-06
4.6523806e-06
4.2991486e-06
2.8634185e-06
2.9573659e-06
3.0626566e-06
3.1765916e-06
3.2974843e-06
3.4246137e-06
3.5578905e-06
3.697444e-06
3.8432442e-06
3.9948007e-06
4.150944e-06
4.3096473e-06
4.4678487e-06
4.6212677e-06
4.7642314e-06
4.889571e-06
4.9886247e-06
5.0514068e-06
5.0670055e-06
5.0242615e-06
4.9127266e-06
4.7235643e-06
4.4485183e-06
4.0675392e-06
3.4517035e-06
2.649074e-06
2.7291336e-06
2.8192474e-06
2.9174908e-06
3.0224987e-06
3.1334933e-06
3.2501084e-06
3.3721212e-06
3.4991809e-06
3.6305644e-06
3.764987e-06
3.900442e-06
4.0340544e-06
4.1619575e-06
4.2791945e-06
4.379686e-06
4.456284e-06
4.5009383e-06
4.504972e-06
4.4593981e-06
4.3550191e-06
4.1814669e-06
3.9223176e-06
3.5346611e-06
2.8382909e-06
2.4088693e-06
2.4764226e-06
2.5527226e-06
2.6363714e-06
2.7262675e-06
2.8216548e-06
2.9220331e-06
3.0269868e-06
3.1359918e-06
3.2482217e-06
3.362398e-06
3.4766524e-06
3.5884158e-06
3.6943323e-06
3.7902109e-06
3.8710252e-06
3.9309744e-06
3.9636043e-06
3.9619466e-06
3.9185586e-06
3.8251495e-06
3.6709985e-06
3.4378869e-06
3.0830854e-06
2.4518514e-06
2.141674e-06
2.1977746e-06
2.2613256e-06
2.3313013e-06
2.4068204e-06
2.4871965e-06
2.5718939e-06
2.6604201e-06
2.7521868e-06
2.8463714e-06
2.9417944e-06
3.0368131e-06
3.1292384e-06
3.2162764e-06
3.2945045e-06
3.3598833e-06
3.4078041e-06
3.4331573e-06
3.4303706e-06
3.393301e-06
3.3147293e-06
3.1849062e-06
2.9877345e-06
2.6896309e-06
2.1825943e-06
1.8525235e-06
1.8981048e-06
1.9498714e-06
2.0070716e-06
2.0690133e-06
2.1351071e-06
2.2048459e-06
2.2777386e-06
2.3532157e-06
2.4305308e-06
2.5086673e-06
2.5862602e-06
2.6615343e-06
2.7322657e-06
2.7957698e-06
2.8489119e-06
2.8881361e-06
2.9094916e-06
2.9086104e-06
2.8805499e-06
2.8193356e-06
2.7168757e-06
2.5604192e-06
2.3257006e-06
1.9458537e-06
1.5522946e-06
1.5882986e-06
1.6292812e-06
1.6746956e-06
1.7240118e-06
1.7767491e-06
1.832467e-06
1.890725e-06
1.9510248e-06
2.0127397e-06
2.0750493e-06
2.136883e-06
2.1968769e-06
2.2533503e-06
2.3042943e-06
2.347381e-06
2.3799736e-06
2.3991262e-06
2.4015344e-06
2.3833818e-06
2.3399894e-06
2.2650816e-06
2.149144e-06
1.9748933e-06
1.6951102e-06
1.2561072e-06
1.283581e-06
1.3149158e-06
1.3497177e-06
1.387594e-06
1.4281707e-06
1.4710909e-06
1.5159917e-06
1.5624693e-06
1.6100341e-06
1.6580653e-06
1.7057741e-06
1.7521741e-06
1.7960664e-06
1.8360297e-06
1.8704246e-06
1.897393e-06
1.9148441e-06
1.9204017e-06
1.9112792e-06
1.8840338e-06
1.8340904e-06
1.7546663e-06
1.6335855e-06
1.4378523e-06
9.8030611e-07
1.0004508e-06
1.0234594e-06
1.0490566e-06
1.0769601e-06
1.1068915e-06
1.1385782e-06
1.1717414e-06
1.2060759e-06
1.2412228e-06
1.2767426e-06
1.3120916e-06
1.346602e-06
1.3794719e-06
1.4097571e-06
1.4363705e-06
1.4580777e-06
1.473481e-06
1.4809777e-06
1.4786706e-06
1.4642055e-06
1.434466e-06
1.3848411e-06
1.3068797e-06
1.1767815e-06
7.3871127e-07
7.5285405e-07
7.6901999e-07
7.87024e-07
8.0666763e-07
8.2775227e-07
8.5007969e-07
8.7344786e-07
8.9763938e-07
9.2240745e-07
9.4746051e-07
9.7244841e-07
9.9695042e-07
1.0204665e-06
1.0424096e-06
1.0621016e-06
1.0787693e-06
1.0915351e-06
1.0993912e-06
1.101144e-06
1.0953122e-06
1.0799337e-06
1.0520672e-06
1.0061189e-06
9.257816e-07
5.39598e-07
5.4909664e-07
5.5995706e-07
5.7205581e-07
5.852591e-07
5.9942892e-07
6.1442742e-07
6.3011483e-07
6.4634448e-07
6.6295599e-07
6.7976802e-07
6.965707e-07
7.1311848e-07
7.2912249e-07
7.442413e-07
7.5807382e-07
7.7015655e-07
7.7996446e-07
7.8690298e-07
7.9027715e-07
7.8923067e-07
7.8262605e-07
7.6872649e-07
7.4410672e-07
6.9880789e-07
3.8469831e-07
3.9081348e-07
3.9780439e-07
4.0559005e-07
4.1408212e-07
4.2318788e-07
4.3281477e-07
4.4286984e-07
4.5325836e-07
4.6388141e-07
4.7463302e-07
4.8539693e-07
4.9604254e-07
5.064176e-07
5.1633688e-07
5.2557087e-07
5.3384365e-07
5.408444e-07
5.4623551e-07
5.4963764e-07
5.5059114e-07
5.484826e-07
5.423594e-07
5.3030501e-07
5.0665553e-07
2.7037817e-07
2.7416626e-07
2.7849431e-07
2.833105e-07
2.8855778e-07
2.9417696e-07
3.0010761e-07
3.0629045e-07
3.1266678e-07
3.1917839e-07
3.2576745e-07
3.3237589e-07
3.3894324e-07
3.4539964e-07
3.5165198e-07
3.5756901e-07
3.6297681e-07
3.676812e-07
3.7149072e-07
3.7420805e-07
3.7560082e-07
3.7535512e-07
3.7297486e-07
3.6745674e-07
3.5582011e-07
1.9008545e-07
1.9235722e-07
1.9494718e-07
1.9782261e-07
2.0094754e-07
2.0428465e-07
2.0779691e-07
2.1144787e-07
2.1520325e-07
2.1903141e-07
2.2290475e-07
2.2680142e-07
2.3070596e-07
2.3460219e-07
2.3845085e-07
2.4216543e-07
2.4561271e-07
2.4865505e-07
2.5118221e-07
2.5309776e-07
2.542915e-07
2.5460891e-07
2.5379902e-07
2.5135065e-07
2.4573497e-07
1.3606352e-07
1.3740156e-07
1.3892312e-07
1.4060765e-07
1.424326e-07
1.4437466e-07
1.4641076e-07
1.4851884e-07
1.5067833e-07
1.5287138e-07
1.5508366e-07
1.5730586e-07
1.595355e-07
1.6177837e-07
1.6404904e-07
1.6634668e-07
1.6854716e-07
1.7049394e-07
1.7212089e-07
1.7338746e-07
1.7424657e-07
1.7462453e-07
1.7439609e-07
1.7330888e-07
1.706104e-07
1.0098501e-07
1.0177178e-07
1.0266467e-07
1.0365094e-07
1.0471663e-07
1.0584736e-07
1.0702894e-07
1.0824794e-07
1.0949231e-07
1.1075185e-07
1.1201909e-07
1.1329013e-07
1.1456593e-07
1.158539e-07
1.1717031e-07
1.1854189e-07
1.1994994e-07
1.2121347e-07
1.2226608e-07
1.2309283e-07
1.2367649e-07
1.2398203e-07
1.2394409e-07
1.2343363e-07
1.2208371e-07
7.9023424e-08
7.9495953e-08
8.0031853e-08
8.0623299e-08
8.1261731e-08
8.1938307e-08
8.2644336e-08
8.3371674e-08
8.4113143e-08
8.4862963e-08
8.5617188e-08
8.6374337e-08
8.7136278e-08
8.7909404e-08
8.8706439e-08
8.9548959e-08
9.0463191e-08
9.1318172e-08
9.2029213e-08
9.2589665e-08
9.2994556e-08
9.322642e-08
9.3247074e-08
9.297829e-08
9.2194795e-08
6.586408e-08
6.6163034e-08
6.6502614e-08
6.687804e-08
6.728404e-08
6.771513e-08
6.8165909e-08
6.8631339e-08
6.9107011e-08
6.9589439e-08
7.007638e-08
7.0567257e-08
7.1063782e-08
7.1570926e-08
7.209847e-08
7.266367e-08
7.3294455e-08
7.3916092e-08
7.4435072e-08
7.484644e-08
7.5149578e-08
7.5334828e-08
7.537716e-08
7.5221898e-08
7.4706417e-08
5.8452596e-08
5.865806e-08
5.8892486e-08
5.9152906e-08
5.9435997e-08
5.9738255e-08
6.0056183e-08
6.038648e-08
6.0726225e-08
6.1073067e-08
6.1425464e-08
6.1783005e-08
6.2146915e-08
6.2520841e-08
6.2912186e-08
6.3334565e-08
6.3811821e-08
6.4305671e-08
6.4720464e-08
6.5052044e-08
6.5301132e-08
6.5461278e-08
6.5513676e-08
6.5415385e-08
6.50401e-08
5.4702189e-08
5.4857878e-08
5.503667e-08
5.5236653e-08
5.545562e-08
5.5691188e-08
5.5940915e-08
5.620243e-08
5.6473563e-08
5.675248e-08
5.703788e-08
5.732926e-08
5.7627346e-08
5.7934758e-08
5.8257116e-08
5.8605139e-08
5.8998681e-08
5.9421837e-08
5.9779406e-08
6.0067835e-08
6.0288048e-08
6.0434563e-08
6.0491311e-08
6.0421315e-08
6.0116499e-08
5.322781e-08
5.3356459e-08
5.3505187e-08
5.3672675e-08
5.3857332e-08
5.4057381e-08
5.4270942e-08
5.4496131e-08
5.4731147e-08
5.4974401e-08
5.522467e-08
5.5481339e-08
5.5744769e-08
5.601687e-08
5.6302004e-08
5.66087e-08
5.6953382e-08
5.7333757e-08
5.7656669e-08
5.7919351e-08
5.812225e-08
5.8259668e-08
5.8316334e-08
5.8258085e-08
5.7982789e-08
5.3131423e-08
5.3244178e-08
5.337522e-08
5.3523551e-08
5.3687908e-08
5.3866839e-08
5.4058771e-08
5.4262087e-08
5.4475208e-08
5.4696697e-08
5.4925404e-08
5.5160672e-08
5.5402658e-08
5.5652816e-08
5.5914645e-08
5.6195051e-08
5.6507553e-08
5.6857398e-08
5.7155659e-08
5.7400115e-08
5.7590323e-08
5.7719754e-08
5.7772817e-08
5.7715776e-08
5.744738e-08
5.384158e-08
5.3943527e-08
5.4062402e-08
5.4197375e-08
5.4347368e-08
5.4511121e-08
5.4687256e-08
5.4874348e-08
5.5070998e-08
5.5275928e-08
5.5488105e-08
5.5706919e-08
5.5932445e-08
5.6165855e-08
5.6410036e-08
5.6670684e-08
5.6958922e-08
5.7283338e-08
5.7561238e-08
5.7790541e-08
5.796965e-08
5.8090936e-08
5.8137974e-08
5.8076577e-08
5.7807212e-08
5.5000334e-08
5.5093642e-08
5.5202607e-08
5.53265e-08
5.5464366e-08
5.5615089e-08
5.5777453e-08
5.5950211e-08
5.6132156e-08
5.6322198e-08
5.6519469e-08
5.6723467e-08
5.6934271e-08
5.7152871e-08
5.738169e-08
5.7625476e-08
5.7893401e-08
5.8194851e-08
5.84545e-08
5.8670001e-08
5.8838519e-08
5.8951239e-08
5.8990667e-08
5.8921658e-08
5.8643448e-08
5.6386791e-08
5.6472392e-08
5.6572377e-08
5.6686088e-08
5.6812675e-08
5.6951154e-08
5.7100473e-08
5.7259573e-08
5.742745e-08
5.7603226e-08
5.7786229e-08
5.7976101e-08
5.8172968e-08
5.8377699e-08
5.8592339e-08
5.8820844e-08
5.9070784e-08
5.9351048e-08
5.959388e-08
5.9796418e-08
5.9954613e-08
6.005849e-08
6.008938e-08
6.0010691e-08
5.9719083e-08
5.7866662e-08
5.7945082e-08
5.8036621e-08
5.8140687e-08
5.825653e-08
5.83833e-08
5.8520113e-08
5.86661e-08
5.8820473e-08
5.898257e-08
5.9151923e-08
5.932833e-08
5.9511983e-08
5.9703667e-08
5.9905105e-08
6.011957e-08
6.0353302e-08
6.0614091e-08
6.084139e-08
6.1031714e-08
6.1179898e-08
6.1274903e-08
6.1296912e-08
6.1207603e-08
6.0899107e-08
5.9359434e-08
5.943114e-08
5.9514752e-08
5.9609742e-08
5.971546e-08
5.9831192e-08
5.9956216e-08
6.0089855e-08
6.0231524e-08
6.0380774e-08
6.0537331e-08
6.0701148e-08
6.0872485e-08
6.1052062e-08
6.1241328e-08
6.1442972e-08
6.1662161e-08
6.1905172e-08
6.2118173e-08
6.2297021e-08
6.2435554e-08
6.2521781e-08
6.2534794e-08
6.2434401e-08
6.2107281e-08
6.0817294e-08
6.0882799e-08
6.0959088e-08
6.1045697e-08
6.1142071e-08
6.1247625e-08
6.1361791e-08
6.148407e-08
6.1614068e-08
6.1751529e-08
6.1896356e-08
6.2048642e-08
6.2208715e-08
6.2377245e-08
6.255545e-08
6.2745547e-08
6.2951946e-08
6.3178675e-08
6.3378487e-08
6.3546531e-08
6.3675752e-08
6.3753304e-08
6.3757246e-08
6.3645427e-08
6.3298937e-08
6.2211895e-08
6.2271766e-08
6.2341413e-08
6.2420429e-08
6.2508351e-08
6.260471e-08
6.2709081e-08
6.2821123e-08
6.2940611e-08
6.306746e-08
6.3201731e-08
6.334364e-08
6.3493577e-08
6.3652178e-08
6.3820492e-08
6.4000435e-08
6.4196079e-08
6.4407493e-08
6.459491e-08
6.4752659e-08
6.4872823e-08
6.4941786e-08
6.4936703e-08
6.4813841e-08
6.4449568e-08
6.3526332e-08
6.3581161e-08
6.3644876e-08
6.3717126e-08
6.3797527e-08
6.3885717e-08
6.3981393e-08
6.4084353e-08
6.419452e-08
6.4311957e-08
6.4436862e-08
6.4569558e-08
6.4710495e-08
6.4860297e-08
6.501994e-08
6.5191269e-08
6.5378369e-08
6.5574783e-08
6.575012e-08
6.5897817e-08
6.6009051e-08
6.6069472e-08
6.6055427e-08
6.5921737e-08
6.5539988e-08
6.4750546e-08
6.480092e-08
6.4859404e-08
6.4925697e-08
6.4999488e-08
6.5080503e-08
6.5168548e-08
6.5263539e-08
6.5365529e-08
6.5474707e-08
6.5591391e-08
6.5715999e-08
6.5849036e-08
6.5991142e-08
6.6143303e-08
6.6307426e-08
6.6487476e-08
6.6669018e-08
6.6832262e-08
6.6969905e-08
6.7072207e-08
6.7124118e-08
6.7101329e-08
6.6957674e-08
6.6561528e-08
6.5879012e-08
6.5925486e-08
6.5979396e-08
6.6040486e-08
6.6108505e-08
6.618326e-08
6.6264648e-08
6.6352689e-08
6.6447548e-08
6.6549528e-08
6.6659053e-08
6.6776625e-08
6.6902791e-08
6.7038201e-08
6.7183897e-08
6.7341863e-08
6.751405e-08
6.7681097e-08
6.783228e-08
6.7959803e-08
6.80531e-08
6.8096529e-08
6.806537e-08
6.7913206e-08
6.7508015e-08
6.6910097e-08
6.6953174e-08
6.7003095e-08
6.7059638e-08
6.712261e-08
6.7191885e-08
6.7267443e-08
6.73494e-08
6.7438021e-08
6.7533717e-08
6.7637013e-08
6.774848e-08
6.7868673e-08
6.7998184e-08
6.8138161e-08
6.8292231e-08
6.8450437e-08
6.8603208e-08
6.8742557e-08
6.8859977e-08
6.8944195e-08
6.8979125e-08
6.8939926e-08
6.8781054e-08
6.8379752e-08
6.7846566e-08
6.7886671e-08
6.7933068e-08
6.7985571e-08
6.8044035e-08
6.81084e-08
6.8178723e-08
6.8255208e-08
6.8338224e-08
6.8428288e-08
6.8526027e-08
6.8632079e-08
6.8746945e-08
6.8870847e-08
6.9003633e-08
6.914439e-08
6.9288156e-08
6.942798e-08
6.955617e-08
6.9663691e-08
6.9738786e-08
6.9765065e-08
6.971758e-08
6.955098e-08
6.9144015e-08
6.8670689e-08
6.8708212e-08
6.8751542e-08
6.8800515e-08
6.8855022e-08
6.8915043e-08
6.8980683e-08
6.905219e-08
6.9129967e-08
6.9214552e-08
6.9306562e-08
6.9406584e-08
6.9515006e-08
6.9631812e-08
6.9756335e-08
6.9886807e-08
7.0019396e-08
7.0148355e-08
7.0266401e-08
7.03644e-08
7.0430391e-08
7.0447828e-08
7.0391637e-08
7.0216087e-08
6.9798108e-08
6.9365248e-08
6.9400668e-08
6.9441515e-08
6.9487643e-08
6.9538968e-08
6.9595498e-08
6.9657364e-08
6.9724839e-08
6.9798341e-08
6.9878405e-08
6.9965615e-08
7.0060495e-08
7.0163331e-08
7.0273949e-08
7.0391436e-08
7.0513787e-08
7.0637463e-08
7.0757222e-08
7.0866085e-08
7.095499e-08
7.1011965e-08
7.1020459e-08
7.0955376e-08
7.077071e-08
7.0341806e-08
6.9924375e-08
6.9958111e-08
6.999698e-08
7.0040848e-08
7.0089649e-08
7.0143406e-08
7.0202263e-08
7.0266507e-08
7.0336562e-08
7.0412948e-08
7.0496209e-08
7.0586807e-08
7.0684946e-08
7.0790342e-08
7.0901954e-08
7.1017657e-08
7.113394e-08
7.1245737e-08
7.1346238e-08
7.1426499e-08
7.147465e-08
7.1474279e-08
7.140047e-08
7.1207318e-08
7.076911e-08
7.0337171e-08
7.0369579e-08
7.0406887e-08
7.0448977e-08
7.0495784e-08
7.0547341e-08
7.0603796e-08
7.0665438e-08
7.0732707e-08
7.0806106e-08
7.0886132e-08
7.0973201e-08
7.1067451e-08
7.1168549e-08
7.1275391e-08
7.1385726e-08
7.1495882e-08
7.1600782e-08
7.1693709e-08
7.176586e-08
7.180556e-08
7.1796672e-08
7.1714702e-08
7.1514417e-08
7.1071334e-08
7.0582274e-08
7.061364e-08
7.0649726e-08
7.0690429e-08
7.0735626e-08
7.078538e-08
7.0839863e-08
7.0899357e-08
7.0964342e-08
7.1035315e-08
7.1112694e-08
7.1196881e-08
7.128797e-08
7.1385698e-08
7.1489058e-08
7.1595618e-08
7.1701082e-08
7.1800243e-08
7.1886507e-08
7.1951291e-08
7.1983213e-08
7.1966555e-08
7.1877512e-08
7.1672493e-08
7.1232521e-08
7.0613343e-08
7.0643881e-08
7.0679036e-08
7.0718719e-08
7.076244e-08
7.0810437e-08
7.0863141e-08
7.0920751e-08
7.0983829e-08
7.1052912e-08
7.1128178e-08
7.1210103e-08
7.1298712e-08
7.1394168e-08
7.1496269e-08
7.1602405e-08
7.1705466e-08
7.1800397e-08
7.1881162e-08
7.1939647e-08
7.1964924e-08
7.1941823e-08
7.1847461e-08
7.1640847e-08
7.1211843e-08
7.0293427e-08
7.0323251e-08
7.035779e-08
7.0396958e-08
7.0438626e-08
7.0483788e-08
7.0534386e-08
7.0590091e-08
7.0651553e-08
7.0720125e-08
7.0793861e-08
7.0874209e-08
7.0960908e-08
7.1055644e-08
7.1163828e-08
7.1284244e-08
7.1390275e-08
7.1483039e-08
7.1559673e-08
7.1613279e-08
7.1633631e-08
7.1606261e-08
7.1509513e-08
7.1306747e-08
7.0906586e-08
)
;

boundaryField
{
    Walls
    {
        type            nutUWallFunction;
        Cmu             0.09;
        kappa           0.41;
        E               9.8;
        value           uniform 0;
    }
    Inlet
    {
        type            calculated;
        value           nonuniform List<scalar> 3(5.7461294e-05 2.4134806e-05 7.9293864e-07);
    }
    Outlet
    {
        type            calculated;
        value           nonuniform List<scalar> 
86
(
0
0
0
0
0
0
0
0
0
0
0
0
0
0
0
0
0
0
0
0
0
0
0
0
0
0
0
0
0
0
1.4337167e-05
1.4887653e-05
1.3472988e-05
0
0
0
0
4.8107382e-06
4.771154e-06
4.2991486e-06
0
0
0
0
1.9458537e-06
1.6951102e-06
1.4378523e-06
1.1767815e-06
9.257816e-07
6.9880789e-07
5.0665553e-07
3.5582011e-07
2.4573497e-07
1.706104e-07
1.2208371e-07
9.2194795e-08
7.4706417e-08
6.50401e-08
6.0116499e-08
5.7982789e-08
5.744738e-08
5.7807212e-08
5.8643448e-08
5.9719083e-08
6.0899107e-08
6.2107281e-08
6.3298937e-08
6.4449568e-08
6.5539988e-08
6.6561528e-08
6.7508015e-08
6.8379752e-08
6.9144015e-08
6.9798108e-08
7.0341806e-08
0
7.1071334e-08
7.1232521e-08
7.1211843e-08
7.0906586e-08
0
0
0
0
1.321147e-05
1.485008e-05
)
;
    }
    Front
    {
        type            wedge;
    }
    Back
    {
        type            wedge;
    }
    defaultFaces
    {
        type            empty;
    }
}


// ************************************************************************* //
