/*--------------------------------*- C++ -*----------------------------------*\
| =========                 |                                                 |
| \\      /  F ield         | OpenFOAM: The Open Source CFD Toolbox           |
|  \\    /   O peration     | Version:  4.0                                   |
|   \\  /    A nd           | Web:      www.OpenFOAM.org                      |
|    \\/     M anipulation  |                                                 |
\*---------------------------------------------------------------------------*/
FoamFile
{
    version     2.0;
    format      ascii;
    class       surfaceScalarField;
    location    "0.62";
    object      phi;
}
// * * * * * * * * * * * * * * * * * * * * * * * * * * * * * * * * * * * * * //

dimensions      [0 3 -1 0 0 0 0];

internalField   nonuniform List<scalar> 
3364
(
5.4551601e-11
1.6311476e-08
-3.4221163e-10
4.9633587e-08
8.7323937e-08
1.9472881e-10
1.6116716e-08
-1.4306888e-09
5.1259031e-08
8.5893264e-08
4.8516722e-10
1.5631516e-08
-1.3424753e-09
5.3086729e-08
8.4550795e-08
1.6543758e-10
1.5466064e-08
1.3492229e-09
5.190296e-08
8.5899989e-08
-3.5203879e-10
1.5818081e-08
1.9634707e-09
4.9587374e-08
8.7863401e-08
-3.516433e-10
1.616968e-08
5.2121182e-10
4.871442e-08
8.8384566e-08
-9.010873e-11
1.6259739e-08
3.2142979e-10
4.8302854e-08
8.8705966e-08
-6.1810014e-12
1.6265889e-08
-2.3512409e-10
4.8531784e-08
8.8470813e-08
-1.88627e-10
1.6454479e-08
-1.640984e-09
4.9984107e-08
8.6829801e-08
-2.1242997e-10
1.6666867e-08
-7.6599619e-10
5.0537611e-08
8.6063757e-08
-5.0309433e-10
1.7169951e-08
-8.9941782e-11
5.0124418e-08
8.5973776e-08
-2.7703605e-10
1.7446973e-08
4.1612266e-10
4.9431245e-08
8.6389873e-08
2.4529313e-10
1.7201651e-08
3.0261825e-10
4.9373905e-08
8.6692474e-08
-2.6280185e-11
1.7227896e-08
-4.153526e-10
4.9762923e-08
8.6277079e-08
-1.2616126e-10
1.7354015e-08
-5.6468495e-10
5.0201384e-08
8.5712352e-08
1.234492e-10
1.7230514e-08
-1.1710868e-10
5.0441878e-08
8.5595194e-08
-3.8000193e-10
1.7610464e-08
-4.8260982e-10
5.054443e-08
8.511254e-08
-1.0765747e-10
1.7718081e-08
-1.1441904e-09
5.1580927e-08
8.3968321e-08
2.3725052e-10
1.7480826e-08
-7.4147337e-10
5.2559613e-08
8.3226817e-08
-2.0788529e-10
1.7688711e-08
4.124092e-10
5.1939286e-08
8.3639183e-08
-7.473185e-11
1.7763391e-08
5.6744344e-11
5.1807789e-08
8.3695899e-08
2.1550622e-10
1.7547813e-08
-2.7591233e-10
5.2299158e-08
8.3419958e-08
-1.7668369e-10
1.7724452e-08
7.9999027e-10
5.1322417e-08
8.4219904e-08
-1.3748435e-10
1.7861916e-08
1.4531655e-09
4.9731747e-08
8.5673031e-08
-4.6314088e-11
1.7908232e-08
1.6496472e-09
4.8035753e-08
8.7322641e-08
1.9253589e-10
1.7715651e-08
4.4389609e-10
4.7784319e-08
8.7766496e-08
8.4480154e-10
1.6870754e-08
-1.6791553e-09
5.0308189e-08
8.6087305e-08
3.3791956e-10
1.6532801e-08
-1.8916267e-09
5.2537681e-08
8.4195644e-08
-1.9570186e-10
1.6728558e-08
1.0905913e-10
5.2232981e-08
8.43047e-08
1.1820481e-09
1.5546726e-08
5.1169157e-09
4.8298242e-08
8.9421638e-08
1.1222768e-08
4.3233098e-09
4.8516793e-08
1.1002374e-08
1.0727906e-08
1.2720797e-07
4.8146255e-09
-4.9179043e-10
1.7124439e-08
-1.3089227e-09
-1.5227749e-09
2.9373238e-08
-3.969764e-10
-9.47799e-11
-1.4327763e-09
-2.7305184e-10
-4.4953031e-10
-2.5059218e-09
-9.3824048e-11
-9.4122416e-13
-3.534625e-10
-1.3378748e-11
-6.6456999e-11
-7.3649766e-10
-3.7381408e-12
2.7981645e-12
-2.4630597e-11
7.5172463e-12
2.7563536e-12
-9.3840364e-11
1.1703568e-12
1.6277565e-12
3.1289828e-12
5.5585096e-12
9.1565875e-12
-3.2710342e-12
1.3533131e-12
2.7441859e-13
5.119088e-12
1.7926926e-12
4.4622211e-12
9.8140885e-12
1.3909456e-12
-1.1164265e-12
5.6674627e-12
-2.4837506e-12
-1.9917727e-12
1.2121382e-11
9.8026486e-13
-2.0966505e-12
3.6843939e-12
-5.1878908e-12
-6.5327712e-12
8.2253092e-12
2.0314284e-13
-2.2997364e-12
1.1057771e-12
-6.090453e-12
-7.411914e-12
1.9850101e-12
-2.7066674e-13
-2.029001e-12
-8.4282306e-13
-5.518171e-12
-6.7614509e-12
-1.4930984e-12
-4.0227069e-13
-1.6266714e-12
-1.4492741e-12
-4.4710516e-12
-5.7106534e-12
-2.4998964e-12
-3.1508505e-13
-1.3115468e-12
-1.1658361e-12
-3.6202231e-12
-4.8882598e-12
-1.9881104e-12
-2.0224371e-13
-1.1092797e-12
-6.9813693e-13
-3.1242876e-12
-4.2376703e-12
-1.3486602e-12
-1.2444596e-13
-9.8482083e-13
-4.4405488e-13
-2.8046594e-12
-3.8623755e-12
-8.1931954e-13
-8.884837e-14
-8.9596532e-13
-3.2924892e-13
-2.5642516e-12
-3.6169834e-12
-5.7462986e-13
-7.2700074e-14
-8.2326093e-13
-2.8749409e-13
-2.3494556e-12
-3.4297636e-12
-4.7471123e-13
-6.5563689e-14
-7.5769455e-13
-2.4183716e-13
-2.1731827e-12
-3.2463109e-12
-4.252914e-13
-5.5607464e-14
-7.0208572e-13
-2.0090677e-13
-2.0278863e-12
-3.0780989e-12
-3.6912391e-13
-4.3850678e-14
-6.5823493e-13
-1.5914522e-13
-1.9125971e-12
-2.9380395e-12
-2.9921344e-13
-3.3643395e-14
-6.2459247e-13
-1.2311121e-13
-1.8231367e-12
-2.8330009e-12
-2.2816212e-13
-2.4736921e-14
-5.9985735e-13
-9.0160955e-14
-1.7577219e-12
-2.7582856e-12
-1.6489144e-13
-1.7600005e-14
-5.822598e-13
-6.3482261e-14
-1.7118502e-12
-2.7087464e-12
-1.1303903e-13
-1.1666462e-14
-5.7059629e-13
-4.0506713e-14
-1.6830215e-12
-2.6768987e-12
-7.2373555e-14
-9.9711496e-15
-5.6062841e-13
-3.5363364e-14
-1.6576413e-12
-2.6570805e-12
-5.5201671e-14
-7.8386376e-15
-5.5279322e-13
-2.7142356e-14
-1.6383497e-12
-2.6397875e-12
-4.4455875e-14
-6.4399568e-15
-5.4635679e-13
-2.2769542e-14
-1.6220322e-12
-2.6242089e-12
-3.8368563e-14
-5.796829e-15
-5.4056349e-13
-2.0723218e-14
-1.6071177e-12
-2.608989e-12
-3.5963252e-14
-5.6021106e-15
-5.3496485e-13
-2.0375975e-14
-1.5923554e-12
-2.592152e-12
-3.7232324e-14
-5.6920204e-15
-5.2927619e-13
-2.1088017e-14
-1.5769704e-12
-2.5727673e-12
-4.0491257e-14
-6.1148308e-15
-5.2316458e-13
-2.2764854e-14
-1.5603308e-12
-2.5499943e-12
-4.5555387e-14
-7.2630706e-15
-5.1590456e-13
-2.5865342e-14
-1.5417384e-12
-2.5240322e-12
-5.1844003e-14
-7.7316206e-15
-5.0817582e-13
-3.0522144e-14
-1.5189571e-12
-2.4957275e-12
-5.8842298e-14
-7.561118e-15
-5.006174e-13
-2.9593788e-14
-1.4969331e-12
-2.4606444e-12
-6.4691342e-14
-7.8386148e-15
-4.9278131e-13
-3.0612758e-14
-1.474167e-12
-2.4253289e-12
-6.5941655e-14
-8.0541773e-15
-4.8472949e-13
-3.1522923e-14
-1.4507058e-12
-2.3886972e-12
-6.8167087e-14
-8.1727612e-15
-4.7655892e-13
-3.206128e-14
-1.4268242e-12
-2.3512627e-12
-6.9507196e-14
-8.1130181e-15
-4.6844794e-13
-3.1912994e-14
-1.4030307e-12
-2.3136006e-12
-6.9585679e-14
-7.9178005e-15
-4.6053203e-13
-3.1248616e-14
-1.3797058e-12
-2.2763079e-12
-6.8551005e-14
-7.5985611e-15
-4.5293521e-13
-3.0024666e-14
-1.3572852e-12
-2.2398854e-12
-6.6456124e-14
-7.2311147e-15
-4.4570572e-13
-2.860319e-14
-1.3359182e-12
-2.2060785e-12
-6.2418274e-14
-6.7088135e-15
-4.3899843e-13
-2.6560803e-14
-1.316071e-12
-2.1742577e-12
-5.8389366e-14
-6.0961483e-15
-4.329037e-13
-2.4179597e-14
-1.297992e-12
-2.1450608e-12
-5.3383671e-14
-5.408114e-15
-4.2749691e-13
-2.1470769e-14
-1.2819334e-12
-2.1190753e-12
-4.7462989e-14
-4.6396667e-15
-4.2285848e-13
-1.8408758e-14
-1.2681682e-12
-2.0967877e-12
-4.0702525e-14
-3.7933477e-15
-4.1906629e-13
-1.4996197e-14
-1.256969e-12
-2.0786671e-12
-3.3122661e-14
-2.8823476e-15
-4.1618504e-13
-1.1310093e-14
-1.2485447e-12
-2.0650686e-12
-2.4914193e-14
-1.9053962e-15
-4.1428071e-13
-7.4460046e-15
-1.2430074e-12
-2.0561371e-12
-1.6382994e-14
-8.6716449e-16
-4.1341465e-13
-3.574583e-15
-1.2403035e-12
-2.0517419e-12
-7.9753647e-15
-8.2372082e-18
-2.2236612e-16
-5.8115202e-16
1.368202e-07
-9.6175242e-09
-8.7977262e-09
1.4561164e-07
2.1330736e-08
-1.5762285e-09
-1.4455437e-09
1.3978014e-08
-3.5069767e-09
-5.7504658e-10
-5.9950613e-10
-4.3528711e-09
-1.1922885e-09
-1.1920312e-10
-1.5103789e-10
-1.6406936e-09
-2.1248999e-10
-5.430886e-13
3.9665754e-12
-3.6747959e-10
-2.1805662e-11
1.7993529e-11
3.2714481e-11
-5.0551229e-11
1.5823815e-11
1.198369e-11
2.5835314e-11
2.2702571e-11
2.3835399e-11
2.6923029e-13
1.140624e-11
3.8263716e-11
1.4090918e-11
-5.5966017e-12
-2.6241137e-14
2.5523011e-11
3.6909946e-12
-7.3025112e-12
-4.6834926e-12
8.3482814e-12
-1.6787772e-12
-7.1166073e-12
-4.6732468e-12
-1.6887694e-12
-3.5610518e-12
-6.0552269e-12
-3.3357641e-12
-4.8982619e-12
-3.2759368e-12
-4.7672406e-12
-2.9688878e-12
-3.6426166e-12
-1.9219333e-12
-4.1938779e-12
-2.8514706e-12
-2.0392395e-12
-1.0530962e-12
-3.9600611e-12
-3.0015979e-12
-9.0291949e-13
-6.1560646e-13
-3.9190707e-12
-3.3165522e-12
-3.0063563e-13
-5.1137816e-13
-3.8824012e-12
-3.5717937e-12
-2.561342e-13
-5.0469825e-13
-3.8029972e-12
-3.7214219e-12
-3.5507421e-13
-4.6682742e-13
-3.7053011e-12
-3.809071e-12
-3.7918806e-13
-3.8745327e-13
-3.6170735e-12
-3.8632756e-12
-3.332643e-13
-2.9139593e-13
-3.5538566e-12
-3.9148107e-12
-2.3988201e-13
-2.0231598e-13
-3.5164529e-12
-3.979901e-12
-1.3725175e-13
-1.2067291e-13
-3.5088431e-12
-4.0299385e-12
-7.0665493e-14
-8.2865096e-14
-3.4983779e-12
-4.0939463e-12
-1.8890213e-14
-4.7924865e-14
-3.5056823e-12
-4.1603899e-12
1.8484066e-14
-3.9486499e-14
-3.5106803e-12
-4.2114548e-12
1.1542364e-14
-3.6127356e-14
-3.5129502e-12
-4.2532036e-12
5.5850059e-15
-3.8490772e-14
-3.5104508e-12
-4.2823016e-12
-9.4284628e-15
-4.4021908e-14
-3.5036883e-12
-4.2991292e-12
-2.7228854e-14
-5.3866825e-14
-3.4903386e-12
-4.3040542e-12
-4.8974628e-14
-6.6164394e-14
-3.469754e-12
-4.2965089e-12
-7.3740737e-14
-7.9402392e-14
-3.4422186e-12
-4.277231e-12
-9.8709397e-14
-9.1142841e-14
-3.4099395e-12
-4.248857e-12
-1.1954411e-13
-1.0001436e-13
-3.3746365e-12
-4.211811e-12
-1.370856e-13
-1.11186e-13
-3.3294107e-12
-4.1684944e-12
-1.5452589e-13
-1.1474113e-13
-3.2828537e-12
-4.1175734e-12
-1.6568358e-13
-1.1721474e-13
-3.2351618e-12
-4.0640082e-12
-1.7079961e-13
-1.1811324e-13
-3.1866487e-12
-4.0084358e-12
-1.7370373e-13
-1.1702445e-13
-3.1381885e-12
-3.9519566e-12
-1.735203e-13
-1.1372407e-13
-3.0909328e-12
-3.8960226e-12
-1.6967346e-13
-1.0785736e-13
-3.045505e-12
-3.8417611e-12
-1.6213301e-13
-1.0092697e-13
-3.0029779e-12
-3.7911663e-12
-1.5153486e-13
-9.2337507e-14
-2.9640339e-12
-3.7443893e-12
-1.3912678e-13
-8.2200138e-14
-2.9293058e-12
-3.7024658e-12
-1.2413501e-13
-7.0553438e-14
-2.8994634e-12
-3.6663651e-12
-1.0666474e-13
-5.7412297e-14
-2.8751817e-12
-3.6369577e-12
-8.6829558e-14
-4.3120631e-14
-2.8569828e-12
-3.6149298e-12
-6.515798e-14
-2.8313244e-14
-2.84506e-12
-3.6005459e-12
-4.2706355e-14
-1.3850306e-14
-2.8391927e-12
-3.5934936e-12
-2.0912087e-14
-1.0072538e-15
-1.384425e-15
-5.3553193e-12
5.3469048e-12
-9.100202e-12
3.7352329e-12
-1.1949873e-11
2.8427193e-12
-1.5181774e-11
3.2279426e-12
-2.1402726e-11
6.2192977e-12
-3.2674169e-11
1.1271563e-11
-4.9681649e-11
1.7008905e-11
-7.2309739e-11
2.2630429e-11
-1.0007329e-10
2.7766491e-11
-1.3229087e-10
3.2220878e-11
-1.6814209e-10
3.5854656e-11
-2.0673056e-10
3.8591886e-11
-2.4713259e-10
4.0405265e-11
-2.8848569e-10
4.1356068e-11
-3.3002952e-10
4.1546414e-11
-3.7107239e-10
4.1045047e-11
-4.1082251e-10
3.9751824e-11
-4.4830698e-10
3.7485721e-11
-4.8264939e-10
3.4343235e-11
-5.1299406e-10
3.0345145e-11
-5.3866526e-10
2.5671376e-11
-5.5915814e-10
2.0492851e-11
-5.7403813e-10
1.4879851e-11
-5.8281837e-10
8.7800356e-12
2.3475805e-12
-4.2930551e-11
4.8282284e-11
-9.2392169e-11
5.3204359e-11
-1.5146401e-10
6.1923291e-11
-2.2069165e-10
7.2464736e-11
-3.0386432e-10
8.940115e-11
-4.0364624e-10
1.1106247e-10
-5.2049493e-10
1.3386624e-10
-6.5424846e-10
1.5639217e-10
-8.0264393e-10
1.7616962e-10
-9.6318115e-10
1.9276514e-10
-1.1334152e-09
2.0609512e-10
-1.3109284e-09
2.1611076e-10
-1.4933119e-09
2.2279371e-10
-1.6785853e-09
2.2663382e-10
-1.8649154e-09
2.278801e-10
-2.0515787e-09
2.2771136e-10
-2.2482953e-09
2.3647077e-10
-2.435812e-09
2.2500404e-10
-2.6066731e-09
2.0520537e-10
-2.7557828e-09
1.7945532e-10
-2.8796842e-09
1.4957275e-10
-2.975646e-09
1.1645409e-10
-3.0412433e-09
8.0476223e-11
-3.0725049e-09
4.0040441e-11
1.0272926e-11
-1.2499646e-10
1.7328844e-10
-2.6782309e-10
1.960462e-10
-4.3328403e-10
2.2740189e-10
-6.3359472e-10
2.7279361e-10
-8.7127735e-10
3.2710157e-10
-1.1455176e-09
3.8531956e-10
-1.4596403e-09
4.4800457e-10
-1.8778631e-09
5.7462894e-10
-2.3327366e-09
6.3105556e-10
-2.7972788e-09
6.5731801e-10
-3.2574041e-09
6.6622947e-10
-3.7042723e-09
6.6298653e-10
-4.1313239e-09
6.498514e-10
-4.5327553e-09
6.2807005e-10
-4.9025506e-09
5.9767885e-10
-5.2348827e-09
5.6004587e-10
-5.5146259e-09
5.1621518e-10
-5.7564354e-09
4.6681388e-10
-5.9642795e-09
4.1304891e-10
-6.1402544e-09
3.5542889e-10
-6.2865357e-09
2.9585195e-10
-6.403883e-09
2.337987e-10
-6.4923306e-09
1.6892051e-10
-6.5539096e-09
1.0161584e-10
3.3743595e-11
-3.6787299e-10
5.4117944e-10
-7.8052645e-10
6.0872676e-10
-1.2663771e-09
7.1328221e-10
-2.0534443e-09
1.059888e-09
-2.906039e-09
1.1797199e-09
-3.7188922e-09
1.1981926e-09
-4.4422371e-09
1.1713657e-09
-4.9820528e-09
1.1144577e-09
-5.3874856e-09
1.036499e-09
-5.6735647e-09
9.4340569e-10
-5.8556767e-09
8.4834821e-10
-5.9450678e-09
7.5238289e-10
-5.9510541e-09
6.5584162e-10
-5.8765207e-09
5.5353962e-10
-5.7374203e-09
4.5858038e-10
-5.5509113e-09
3.7353811e-10
-5.3340831e-09
2.9938762e-10
-5.1038267e-09
2.3655764e-10
-4.8758286e-09
1.8505038e-10
-4.6657948e-09
1.4539435e-10
-4.4854099e-09
1.1546581e-10
-4.3418978e-09
9.028518e-11
-4.2405134e-09
6.7534312e-11
-4.1847552e-09
4.5855682e-11
2.4825666e-11
-2.2098669e-09
2.7510745e-09
-3.9548429e-09
2.3537343e-09
-5.4420633e-09
2.2005331e-09
-6.1144106e-09
1.7322574e-09
-6.1771255e-09
1.2424529e-09
-5.7072239e-09
7.2830571e-10
-4.9428035e-09
4.0695737e-10
-3.9502662e-09
1.2193048e-10
-2.7948037e-09
-1.1895484e-10
-1.5433564e-09
-3.0803472e-10
-3.0301697e-10
-3.9198696e-10
9.3277768e-10
-4.8341293e-10
2.2374971e-09
-6.488791e-10
3.653893e-09
-8.6285643e-10
5.0384693e-09
-9.259943e-10
6.3512177e-09
-9.392069e-10
7.5693967e-09
-9.1878611e-10
8.678149e-09
-8.7218767e-10
9.6669063e-09
-8.0369821e-10
1.0528936e-08
-7.1662517e-10
1.1256432e-08
-6.1201835e-10
1.1839538e-08
-4.9280652e-10
1.2268175e-08
-3.6108815e-10
1.2533286e-08
-2.1923948e-10
-6.5655065e-11
1.0527292e-09
1.6984318e-09
4.2662539e-09
-8.597385e-10
8.0029433e-09
-1.536086e-09
1.1700085e-08
-1.9648554e-09
1.542195e-08
-2.4793874e-09
1.9075329e-08
-2.9250457e-09
2.2667755e-08
-3.1854364e-09
2.6040773e-08
-3.2510512e-09
2.9104777e-08
-3.1829173e-09
3.1842456e-08
-3.045668e-09
3.4316969e-08
-2.8664505e-09
3.6488368e-08
-2.6547609e-09
3.8277129e-08
-2.4375858e-09
3.9645062e-08
-2.2307348e-09
4.0734454e-08
-2.0153316e-09
4.159581e-08
-1.8005078e-09
4.2268974e-08
-1.5918947e-09
4.2787349e-08
-1.3905073e-09
4.3180232e-08
-1.1965272e-09
4.3472921e-08
-1.0092588e-09
4.3687558e-08
-8.2660086e-10
4.3841164e-08
-6.4635843e-10
4.3945863e-08
-4.6573324e-10
4.4008822e-08
-2.8214533e-10
-8.9629699e-11
1.4963294e-07
-2.3216509e-09
1.4818673e-07
5.8739871e-10
1.4553584e-07
1.1155907e-09
1.4200037e-07
1.5713094e-09
1.3739988e-07
2.1217195e-09
1.3188512e-07
2.5902296e-09
1.2582068e-07
2.87945e-09
1.1959641e-07
2.9736122e-09
1.1348303e-07
2.9307863e-09
1.0762619e-07
2.8114643e-09
1.020954e-07
2.6645864e-09
9.6943086e-08
2.4977768e-09
9.219806e-08
2.307639e-09
8.7861002e-08
2.1065015e-09
8.3942865e-08
1.9029656e-09
8.044117e-08
1.7013331e-09
7.7344802e-08
1.5046066e-09
7.4640101e-08
1.3143158e-09
7.231306e-08
1.130628e-09
7.0350984e-08
9.5292195e-10
6.8744472e-08
7.8001018e-10
6.7488257e-08
6.0995013e-10
6.6582799e-08
4.3981258e-10
6.6033857e-08
2.668811e-10
8.5304783e-11
1.3251722e-08
-1.5952343e-09
1.5588331e-08
-1.7490963e-09
1.8216486e-08
-1.5124491e-09
2.0935821e-08
-1.1479147e-09
2.3737376e-08
-6.7972798e-10
2.6651222e-08
-3.2351561e-10
2.9570219e-08
-3.945434e-11
3.2335053e-08
2.0886713e-10
3.4912007e-08
3.5392054e-10
3.7260286e-08
4.6327275e-10
3.9339005e-08
5.8595386e-10
4.0962624e-08
8.7424282e-10
4.2250903e-08
1.0194434e-09
4.327409e-08
1.0833958e-09
4.4074594e-08
1.1025405e-09
4.468901e-08
1.0869941e-09
4.5150634e-08
1.0430563e-09
4.5489091e-08
9.7593134e-10
4.5730781e-08
8.8900783e-10
4.5898654e-08
7.8511675e-10
4.6012281e-08
6.66449e-10
4.608768e-08
5.3461366e-10
4.6136238e-08
3.913158e-10
4.6165116e-08
2.3806264e-10
7.2314493e-11
-5.1372534e-09
-8.1086206e-10
-5.8349883e-09
-1.0513703e-09
-6.189302e-09
-1.1581448e-09
-6.1297368e-09
-1.207489e-09
-5.6086194e-09
-1.2008527e-09
-4.7792008e-09
-1.1529394e-09
-3.7379992e-09
-1.0806587e-09
-2.5379893e-09
-9.9114264e-10
-1.2918798e-09
-8.9218632e-10
-4.0794402e-11
-7.8780763e-10
1.2325443e-09
-6.8737761e-10
2.6862899e-09
-5.7949324e-10
4.1805265e-09
-4.7478138e-10
5.6422607e-09
-3.7832456e-10
7.0359786e-09
-2.911617e-10
8.3421115e-09
-2.1912144e-10
9.5563023e-09
-1.7111587e-10
1.0664698e-08
-1.3244492e-10
1.1654812e-08
-1.010854e-10
1.2516506e-08
-7.6555653e-11
1.3241177e-08
-5.8200649e-11
1.3820745e-08
-4.4932544e-11
1.4247389e-08
-3.530737e-11
1.4512479e-08
-2.7006359e-11
-1.6535893e-11
-2.2377498e-09
-2.1380615e-10
-3.0338334e-09
-2.5528847e-10
-3.8588942e-09
-3.3308841e-10
-4.6555139e-09
-4.1087593e-10
-5.3686612e-09
-4.8771405e-10
-5.8987625e-09
-6.2284785e-10
-6.3028964e-09
-6.7653526e-10
-6.5890046e-09
-7.0504517e-10
-6.7635982e-09
-7.1760338e-10
-6.8344528e-09
-7.1696351e-10
-6.8148265e-09
-7.0701394e-10
-6.7052265e-09
-6.8910276e-10
-6.517046e-09
-6.6297067e-10
-6.2657085e-09
-6.2967003e-10
-5.9664997e-09
-5.9037775e-10
-5.6385332e-09
-5.4709451e-10
-5.3086948e-09
-5.0095996e-10
-4.9893807e-09
-4.5176409e-10
-4.6905689e-09
-3.9990174e-10
-4.421798e-09
-3.4533051e-10
-4.1919572e-09
-2.8804498e-10
-4.0088478e-09
-2.2804523e-10
-3.8787949e-09
-1.6536322e-10
-3.8055989e-09
-1.0020523e-10
-3.3822624e-11
-5.6918487e-10
-1.2097521e-11
-8.0436959e-10
-2.010068e-11
-1.0847799e-09
-5.2675716e-11
-1.3996084e-09
-9.6045973e-11
-1.762715e-09
-1.2460698e-10
-2.2248412e-09
-1.6072228e-10
-2.7079626e-09
-1.9341578e-10
-3.1926326e-09
-2.203782e-10
-3.6684791e-09
-2.4176096e-10
-4.1280086e-09
-2.5743898e-10
-4.5660718e-09
-2.689565e-10
-4.9774307e-09
-2.7775031e-10
-5.3523275e-09
-2.880809e-10
-5.6689554e-09
-3.1304949e-10
-5.9480797e-09
-3.1126112e-10
-6.194015e-09
-3.0116713e-10
-6.4103129e-09
-2.8467005e-10
-6.5995108e-09
-2.6257433e-10
-6.7636059e-09
-2.3581483e-10
-6.9040855e-09
-2.0485912e-10
-7.0220089e-09
-1.7012967e-10
-7.1178895e-09
-1.3217272e-10
-7.1915116e-09
-9.1749198e-11
-7.2427213e-09
-4.9003561e-11
-1.1196257e-11
-1.074465e-10
4.4799663e-11
-1.8121843e-10
5.3673211e-11
-2.8260042e-10
4.8708111e-11
-4.0938899e-10
3.0744171e-11
-5.5507906e-10
2.1084316e-11
-7.2242936e-10
6.6288633e-12
-9.0686388e-10
-8.9808731e-12
-1.1031006e-09
-2.414161e-11
-1.3068384e-09
-3.8023664e-11
-1.5152393e-09
-4.9039007e-11
-1.7261827e-09
-5.8014527e-11
-1.9410377e-09
-6.2897097e-11
-2.1633881e-09
-6.573277e-11
-2.408984e-09
-6.74562e-11
-2.6525295e-09
-6.7718577e-11
-2.8871807e-09
-6.6519264e-11
-3.1079932e-09
-6.3861307e-11
-3.310943e-09
-5.9628527e-11
-3.4926593e-09
-5.410264e-11
-3.6500541e-09
-4.7468724e-11
-3.7803048e-09
-3.9883463e-11
-3.8809648e-09
-3.1517366e-11
-3.9501546e-09
-2.2564058e-11
-3.9860175e-09
-1.3145174e-11
-3.6347286e-12
2.723882e-11
4.0263929e-11
2.9460712e-11
5.1451742e-11
2.0695441e-11
5.74737e-11
-4.9304803e-12
5.6370303e-11
-3.7766923e-11
5.3920857e-11
-7.9739302e-11
4.8601229e-11
-1.3009679e-10
4.137649e-11
-1.8723429e-10
3.2995654e-11
-2.4843546e-10
2.3177171e-11
-3.1456255e-10
1.7087639e-11
-3.8432233e-10
1.1744697e-11
-4.549693e-10
7.7492352e-12
-5.2548934e-10
4.7865222e-12
-5.954296e-10
2.483215e-12
-6.639265e-10
7.7737875e-13
-7.3003307e-10
-4.1374297e-13
-7.9262665e-10
-1.2688576e-12
-8.5050955e-10
-1.7468415e-12
-9.0267746e-10
-1.9360159e-12
-9.4814279e-10
-2.0047268e-12
-9.8602804e-10
-1.9995655e-12
-1.0156273e-09
-1.9194816e-12
-1.0364516e-09
-1.7411136e-12
-1.0482256e-09
-1.3724389e-12
-4.4331816e-13
5.622872e-11
2.2299162e-11
7.5038314e-11
3.2642309e-11
9.3034234e-11
3.9477877e-11
1.0810902e-10
4.1295569e-11
1.1862241e-10
4.3407489e-11
1.2468145e-10
4.2542195e-11
1.2709053e-10
3.8967405e-11
1.2604485e-10
3.4041329e-11
1.2029883e-10
2.8923175e-11
1.1350346e-10
2.388299e-11
1.0603701e-10
1.9211121e-11
9.8574944e-11
1.5211282e-11
9.1606147e-11
1.1755301e-11
8.5426561e-11
8.6627867e-12
8.0161893e-11
6.0420383e-12
7.5794975e-11
3.9531753e-12
7.2391882e-11
2.1342462e-12
6.9709865e-11
9.3519663e-13
6.7631397e-11
1.4248383e-13
6.6054744e-11
-4.2803111e-13
6.4840439e-11
-7.8520775e-13
6.3865841e-11
-9.4482244e-13
6.3066462e-11
-9.4166024e-13
6.2452502e-11
-7.5838776e-13
-2.9869369e-13
4.0322863e-11
7.4995296e-12
5.7488564e-11
1.5476799e-11
7.5397995e-11
2.1568609e-11
9.1505513e-11
2.5188196e-11
1.0739477e-10
2.7518368e-11
1.2194177e-10
2.799533e-11
1.3422855e-10
2.6680769e-11
1.4406128e-10
2.420875e-11
1.5180473e-10
2.1179887e-11
1.5729699e-10
1.8390911e-11
1.6217723e-10
1.4331065e-11
1.6654628e-10
1.0842426e-11
1.7019518e-10
8.1066204e-12
1.7366549e-10
5.1927044e-12
1.7693775e-10
2.7700121e-12
1.798491e-10
1.0420811e-12
1.8281105e-10
-8.2743763e-13
1.8588679e-10
-2.140265e-12
1.8892902e-10
-2.8994555e-12
1.9186316e-10
-3.361873e-12
1.9450562e-10
-3.4273664e-12
1.9661426e-10
-3.0531575e-12
1.9805365e-10
-2.3807444e-12
1.9885549e-10
-1.5599223e-12
-5.2421215e-13
1.5272423e-11
5.7556646e-13
2.4177375e-11
6.5720208e-12
3.3752888e-11
1.1993265e-11
4.2816457e-11
1.6124791e-11
5.1627532e-11
1.8707454e-11
5.972462e-11
1.9898401e-11
6.6511685e-11
1.9893864e-11
7.1782612e-11
1.8937986e-11
7.5630659e-11
1.7332004e-11
7.7995651e-11
1.6026086e-11
7.8724617e-11
1.3602268e-11
7.8349272e-11
1.1217941e-11
7.7778543e-11
8.6775214e-12
7.6357528e-11
6.6138912e-12
7.4668165e-11
4.459548e-12
7.2889255e-11
2.8211628e-12
7.0515797e-11
1.5461926e-12
6.8437302e-11
-6.160005e-14
6.6668232e-11
-1.1302176e-12
6.5119145e-11
-1.8126199e-12
6.3826237e-11
-2.134297e-12
6.2881378e-11
-2.108144e-12
6.229386e-11
-1.7930769e-12
6.1983467e-11
-1.2493831e-12
-5.2465852e-13
-2.8928128e-13
-8.2379602e-13
2.1840992e-12
4.0987694e-12
5.2046384e-12
8.9728563e-12
8.1871085e-12
1.3142451e-11
1.0717429e-11
1.6177261e-11
1.2623413e-11
1.799254e-11
1.3719802e-11
1.8797593e-11
1.3889483e-11
1.8768418e-11
1.3098456e-11
1.8123137e-11
1.210249e-11
1.7022152e-11
9.9032352e-12
1.5801615e-11
6.2523288e-12
1.4868932e-11
1.8464821e-12
1.3083443e-11
-2.8341981e-12
1.1294638e-11
-7.8269183e-12
9.4523257e-12
-1.2839944e-11
7.8342376e-12
-1.7935996e-11
6.6422854e-12
-2.3043651e-11
5.0460884e-12
-2.7877192e-11
3.7033502e-12
-3.2310337e-11
2.6205446e-12
-3.6214864e-11
1.7702435e-12
-3.948138e-11
1.1583775e-12
-4.2034118e-11
7.5966336e-13
-4.3827936e-11
5.444339e-13
3.3756089e-13
-5.2132058e-12
-5.0877876e-13
-5.0256985e-12
3.9113401e-12
-4.515081e-12
8.4623184e-12
-3.9261572e-12
1.2553606e-11
-3.6152133e-12
1.5866392e-11
-3.9226867e-12
1.8300083e-11
-4.8018816e-12
1.9676851e-11
-6.2007075e-12
2.0167298e-11
-8.2125917e-12
2.0135067e-11
-1.0893193e-11
1.970279e-11
-1.4064345e-11
1.8972794e-11
-1.7356472e-11
1.8161076e-11
-2.1255339e-11
1.6982318e-11
-2.5543052e-11
1.558235e-11
-3.023075e-11
1.4140014e-11
-3.5416011e-11
1.3019482e-11
-4.0274327e-11
1.1500577e-11
-4.5162309e-11
9.93404e-12
-4.9749639e-11
8.2906437e-12
-5.3870303e-11
6.7411669e-12
-5.7462756e-11
5.3626497e-12
-6.0384228e-11
4.0797976e-12
-6.248278e-11
2.8581622e-12
-6.3609099e-11
1.6707003e-12
5.9326876e-13
-4.0934656e-12
-5.7892633e-14
-4.0633398e-12
3.8812572e-12
-3.6721404e-12
8.0711642e-12
-3.1428404e-12
1.202435e-11
-2.6752067e-12
1.5398801e-11
-2.3808151e-12
1.800573e-11
-2.4681502e-12
1.9764219e-11
-3.1342454e-12
2.083342e-11
-4.3296106e-12
2.1330451e-11
-5.9270904e-12
2.1300281e-11
-7.8905655e-12
2.0936273e-11
-1.0009292e-11
2.0279799e-11
-1.242477e-11
1.9397785e-11
-1.5174808e-11
1.8332371e-11
-1.8197563e-11
1.7162747e-11
-2.1088915e-11
1.5910805e-11
-2.4073672e-11
1.44853e-11
-2.7072478e-11
1.2932809e-11
-3.0044765e-11
1.126289e-11
-3.2847361e-11
9.5437192e-12
-3.5300414e-11
7.8156559e-12
-3.7298171e-11
6.077506e-12
-3.8769117e-11
4.3290579e-12
-3.9655881e-11
2.5574148e-12
7.8339408e-13
-1.7102716e-12
-3.8684581e-13
-9.4892305e-13
3.1199313e-12
2.3686447e-13
6.8854039e-12
1.6662761e-12
1.0594968e-11
3.1496254e-12
1.3915481e-11
4.5397377e-12
1.6615644e-11
5.7740946e-12
1.8529886e-11
6.5735879e-12
2.0033946e-11
7.001978e-12
2.0902076e-11
7.0471155e-12
2.1255152e-11
6.7965267e-12
2.1186865e-11
6.2956529e-12
2.0780672e-11
5.5789009e-12
2.0114531e-11
4.6763733e-12
1.9234888e-11
3.6457848e-12
1.8193321e-11
2.533453e-12
1.702312e-11
1.3048342e-12
1.5713899e-11
-1.7963435e-14
1.4255585e-11
-1.416618e-12
1.2661521e-11
-2.8041365e-12
1.0931213e-11
-4.093464e-12
9.1049562e-12
-5.205689e-12
7.1897017e-12
-6.0744772e-12
5.1978161e-12
-6.6245007e-12
3.1074102e-12
9.2804874e-13
-1.7114669e-13
-1.1186193e-12
1.1852072e-12
1.7635856e-12
3.0047414e-12
5.0658845e-12
5.1595263e-12
8.4402019e-12
7.4733019e-12
1.1601726e-11
9.7558715e-12
1.4333096e-11
1.1785194e-11
1.6500583e-11
1.3776518e-11
1.804264e-11
1.5442701e-11
1.9235908e-11
1.6805623e-11
1.9892241e-11
1.7887075e-11
2.0105422e-11
1.8689296e-11
1.9978456e-11
1.9263313e-11
1.9540516e-11
1.9707461e-11
1.8790739e-11
2.0078636e-11
1.7822144e-11
2.0246261e-11
1.685549e-11
2.0249307e-11
1.5710848e-11
2.0106825e-11
1.4398059e-11
1.9859209e-11
1.2909128e-11
1.9539727e-11
1.1250685e-11
1.9220344e-11
9.4243286e-12
1.8939023e-11
7.4710096e-12
1.87376e-11
5.3992255e-12
1.8578018e-11
3.266981e-12
1.1529087e-12
4.2299439e-13
-1.8422626e-12
1.8341516e-12
3.5242401e-13
3.7274615e-12
3.1725777e-12
6.0393435e-12
6.1283284e-12
8.6127748e-12
9.0283073e-12
1.1278684e-11
1.1667201e-11
1.3880627e-11
1.3898655e-11
1.6270194e-11
1.5653087e-11
1.8632469e-11
1.6873645e-11
2.0727821e-11
1.77969e-11
2.2564618e-11
1.8268634e-11
2.4179209e-11
1.8363873e-11
2.558427e-11
1.8135459e-11
2.674892e-11
1.7626093e-11
2.7818458e-11
1.6752608e-11
2.875944e-11
1.5914509e-11
2.9573447e-11
1.4896841e-11
3.0176879e-11
1.3794627e-11
3.0648156e-11
1.2437851e-11
3.1018179e-11
1.088066e-11
3.1264888e-11
9.1776159e-12
3.1426858e-11
7.3090351e-12
3.1513707e-11
5.312371e-12
3.1563627e-11
3.2170573e-12
1.0264935e-12
3.9992508e-13
-2.4983465e-12
1.5334098e-12
-7.8107666e-13
3.2048156e-12
1.5011637e-12
5.305972e-12
4.0271696e-12
7.728488e-12
6.6057934e-12
1.0344949e-11
9.0507445e-12
1.3020118e-11
1.1223493e-11
1.5645314e-11
1.3027899e-11
1.8105709e-11
1.4413257e-11
2.0471214e-11
1.5431401e-11
2.267794e-11
1.6061915e-11
2.4680798e-11
1.6361019e-11
2.6474203e-11
1.6342058e-11
2.8068812e-11
1.6031488e-11
2.9388407e-11
1.5433015e-11
3.0723435e-11
1.4579482e-11
3.1933856e-11
1.3686422e-11
3.2951996e-11
1.2776487e-11
3.3832925e-11
1.1556922e-11
3.4568098e-11
1.0145486e-11
3.5183894e-11
8.5618186e-12
3.5657732e-11
6.8351941e-12
3.6007024e-11
4.9630749e-12
3.6206479e-11
3.0176002e-12
1.0236705e-12
1.2134834e-13
-2.9748035e-12
1.0195658e-12
-1.6793202e-12
2.3833678e-12
1.3734301e-13
4.1575702e-12
2.2529547e-12
6.2709273e-12
4.4924288e-12
8.6257422e-12
6.6959259e-12
1.1120393e-11
8.728841e-12
1.3650616e-11
1.0497677e-11
1.6121631e-11
1.1942244e-11
1.8514367e-11
1.3038667e-11
2.0780603e-11
1.3795681e-11
2.2896971e-11
1.4244652e-11
2.4866122e-11
1.4372908e-11
2.665911e-11
1.42385e-11
2.8244424e-11
1.3847701e-11
2.9613018e-11
1.3210889e-11
3.0963515e-11
1.2335924e-11
3.2240165e-11
1.1499837e-11
3.3337398e-11
1.0459688e-11
3.4264154e-11
9.2187291e-12
3.5013874e-11
7.8120964e-12
3.5581245e-11
6.2678198e-12
3.5976596e-11
4.5677187e-12
3.620788e-11
2.7863142e-12
8.7832278e-13
-4.0885972e-15
-3.3499452e-12
6.8369425e-13
-2.3671371e-12
1.7540432e-12
-9.3303286e-13
3.2259672e-12
7.8100998e-13
5.0256913e-12
2.6926892e-12
7.0807219e-12
4.6408841e-12
9.3112062e-12
6.4983489e-12
1.1640035e-11
8.1688428e-12
1.3991657e-11
9.590618e-12
1.6308677e-11
1.0721645e-11
1.8550276e-11
1.1554079e-11
2.0697562e-11
1.2097364e-11
2.2708475e-11
1.2361994e-11
2.4550869e-11
1.2396105e-11
2.6263128e-11
1.2135441e-11
2.7790159e-11
1.1683856e-11
2.9105095e-11
1.1020988e-11
3.0465693e-11
1.0139237e-11
3.1690086e-11
9.2352937e-12
3.2729001e-11
8.179813e-12
3.359564e-11
6.9454537e-12
3.4281586e-11
5.5818703e-12
3.4726706e-11
4.1225941e-12
3.5010309e-11
2.5027088e-12
7.7102931e-13
-5.3816421e-14
-3.6294405e-12
5.1478168e-13
-2.935775e-12
1.4165358e-12
-1.8348198e-12
2.6372194e-12
-4.3970024e-13
4.1659222e-12
1.1639653e-12
5.9609093e-12
2.8458803e-12
7.957225e-12
4.5020204e-12
1.0087319e-11
6.0387393e-12
1.2286441e-11
7.3914882e-12
1.4492948e-11
8.5151329e-12
1.6659616e-11
9.3874069e-12
1.8757304e-11
9.9996725e-12
2.0757248e-11
1.0362047e-11
2.266537e-11
1.0487981e-11
2.4412313e-11
1.0388496e-11
2.6021751e-11
1.0074416e-11
2.7478925e-11
9.5638127e-12
2.8748298e-11
8.869863e-12
2.9943661e-11
8.0399299e-12
3.1063468e-11
7.0600045e-12
3.1999004e-11
6.0099158e-12
3.2727208e-11
4.8536621e-12
3.341744e-11
3.4323582e-12
3.3755105e-11
2.1650437e-12
7.5887928e-13
-9.2942632e-15
-3.8600786e-12
4.8147527e-13
-3.4265877e-12
1.2310718e-12
-2.584453e-12
2.2890745e-12
-1.4977334e-12
3.6137279e-12
-1.6071324e-13
5.1962471e-12
1.2633409e-12
6.998871e-12
2.6993803e-12
8.9435221e-12
4.0940755e-12
1.0979024e-11
5.3559761e-12
1.3054732e-11
6.4394179e-12
1.512853e-11
7.3136025e-12
1.7162016e-11
7.9661822e-12
1.9125611e-11
8.3984491e-12
2.1002926e-11
8.6106638e-12
2.2773138e-11
8.6182829e-12
2.4416361e-11
8.431192e-12
2.591347e-11
8.0667034e-12
2.7248692e-11
7.5346412e-12
2.843673e-11
6.8518915e-12
2.9461959e-11
6.0347755e-12
3.0353779e-11
5.1180955e-12
3.1118679e-11
4.0887602e-12
3.1564165e-11
2.9868694e-12
3.189552e-11
1.8336895e-12
6.1578982e-13
7.5944354e-14
-4.073326e-12
4.7743335e-13
-3.8281216e-12
1.1400271e-12
-3.2470853e-12
2.039867e-12
-2.3976061e-12
3.2109515e-12
-1.3318251e-12
4.6140786e-12
-1.3980859e-13
6.2488043e-12
1.0646363e-12
8.0091175e-12
2.3337478e-12
9.8845007e-12
3.4805815e-12
1.1820639e-11
4.5032704e-12
1.3771888e-11
5.3623477e-12
1.5703691e-11
6.0343746e-12
1.7593865e-11
6.5082717e-12
1.9411244e-11
6.7932827e-12
2.1137909e-11
6.8916172e-12
2.275405e-11
6.8150506e-12
2.4245025e-11
6.5757297e-12
2.5593481e-11
6.1861863e-12
2.678197e-11
5.6634034e-12
2.7800083e-11
5.0166644e-12
2.8653483e-11
4.2646959e-12
2.9319962e-11
3.4222811e-12
2.9784717e-11
2.5221129e-12
3.008603e-11
1.5323794e-12
4.9381364e-13
1.201814e-13
-4.2642238e-12
4.8056754e-13
-4.1885527e-12
1.0618452e-12
-3.8284022e-12
1.8634899e-12
-3.1992845e-12
2.8874695e-12
-2.3558332e-12