/*--------------------------------*- C++ -*----------------------------------*\
| =========                 |                                                 |
| \\      /  F ield         | OpenFOAM: The Open Source CFD Toolbox           |
|  \\    /   O peration     | Version:  4.0                                   |
|   \\  /    A nd           | Web:      www.OpenFOAM.org                      |
|    \\/     M anipulation  |                                                 |
\*---------------------------------------------------------------------------*/
FoamFile
{
    version     2.0;
    format      ascii;
    class       volVectorField;
    location    "0.62";
    object      U;
}
// * * * * * * * * * * * * * * * * * * * * * * * * * * * * * * * * * * * * * //

dimensions      [0 1 -1 0 0 0 0];

internalField   nonuniform List<vector> 
1740
(
(1.4998985 0.0045493467 4.8504981e-06)
(1.5085236 -0.0052339864 8.1793172e-07)
(1.6074012 -0.0043225287 5.0411024e-08)
(1.5054774 0.012285701 8.598127e-06)
(1.5387849 -0.02118049 1.6031423e-06)
(1.6157454 -0.022705309 3.1031661e-07)
(1.4487432 0.017225503 1.119872e-05)
(1.5900774 -0.012442472 2.4243282e-06)
(1.5105343 -0.015802238 4.4400993e-07)
(1.4218237 -0.004350044 1.3392101e-05)
(1.6673539 0.023653012 3.33584e-06)
(1.5570124 0.016633459 5.6409605e-07)
(1.4417438 -0.015536721 1.5002432e-05)
(1.5461146 0.026522235 4.2714406e-06)
(1.6737862 0.017736147 7.6478158e-07)
(1.4655608 -0.0087958513 1.6140628e-05)
(1.4828064 0.006584313 4.8779537e-06)
(1.5944641 -0.0001563617 9.7224263e-07)
(1.5043984 0.0018042674 1.707556e-05)
(1.4955199 0.0012758321 5.8568758e-06)
(1.5927939 0.0024747506 1.1552188e-06)
(1.498335 0.00082436493 1.7977615e-05)
(1.4675295 -0.0043888891 6.4601274e-06)
(1.67829 -0.0012749812 1.3177287e-06)
(1.4736219 -0.0042034635 1.856056e-05)
(1.4946406 -0.024177546 7.0612789e-06)
(1.5912127 -0.018165829 1.5565496e-06)
(1.5214583 -0.011842778 1.9238201e-05)
(1.5481615 -0.012163671 7.7257276e-06)
(1.562723 -0.0043211188 1.6855476e-06)
(1.5279623 -0.024043183 1.9854324e-05)
(1.5345331 -0.009241515 8.3320249e-06)
(1.5887377 0.00028710397 1.9237797e-06)
(1.6115304 -0.0030139949 2.0001588e-05)
(1.5162183 -0.0015522104 8.8530247e-06)
(1.5471685 -0.00045305176 2.1200538e-06)
(1.6181747 0.0062555254 2.0422073e-05)
(1.5162069 0.0097528751 9.4148332e-06)
(1.614164 6.3518344e-05 2.2283421e-06)
(1.5266792 -0.0029427172 2.0522368e-05)
(1.5163902 -0.0041596706 9.9339114e-06)
(1.6201793 -0.0028804383 2.5296637e-06)
(1.6052167 -0.0034046202 2.0398958e-05)
(1.4999479 -0.0069621295 1.0348765e-05)
(1.5083741 -0.0052483634 2.708827e-06)
(1.5866544 0.0048744367 2.0624698e-05)
(1.5603226 0.0027071527 1.0800074e-05)
(1.6098105 0.00018510762 2.8132544e-06)
(1.5969494 -0.0088185149 2.0883523e-05)
(1.5709277 -0.014213828 1.1222828e-05)
(1.6056522 -0.0073212964 3.0989739e-06)
(1.6298139 -0.0087540482 2.1289517e-05)
(1.514279 -0.014281414 1.1674869e-05)
(1.5060629 -0.0086203657 3.2519973e-06)
(1.6105654 -0.0051480948 2.1683597e-05)
(1.6093878 0.0011252459 1.1966044e-05)
(1.5369784 -0.002056194 3.3856247e-06)
(1.6025337 -0.0057646962 2.1544409e-05)
(1.6174881 0.0011508731 1.2324086e-05)
(1.5347466 0.0040552158 3.6247651e-06)
(1.6247012 0.0071224029 2.1231755e-05)
(1.5350862 -0.0048883096 1.2641766e-05)
(1.5189543 -0.0052712668 3.783496e-06)
(1.6139654 0.0062181361 2.1514519e-05)
(1.6166596 0.00043945535 1.3042809e-05)
(1.539555 -0.0034465791 3.8988516e-06)
(1.6280108 -0.006851938 2.19969e-05)
(1.6125355 0.007540548 1.3330491e-05)
(1.5486892 0.0071407842 4.1192212e-06)
(1.6367095 -0.0040213594 2.269389e-05)
(1.5200354 0.016107338 1.3703095e-05)
(1.5188541 0.014340732 4.2544264e-06)
(1.5885664 -0.0034867894 2.2582633e-05)
(1.4744753 0.024279738 1.3950767e-05)
(1.5651384 0.017583132 4.402828e-06)
(1.6486912 0.011902094 2.1876955e-05)
(1.4332348 0.0082974909 1.4181822e-05)
(1.620668 0.0047610497 4.574524e-06)
(1.5980945 0.024825893 2.1751634e-05)
(1.4787531 -0.0056498419 1.4476372e-05)
(1.6117247 -0.015033281 4.6859553e-06)
(1.4708047 0.0070309996 2.2709987e-05)
(1.5710312 -0.015378834 1.4888017e-05)
(1.5252014 -0.016434866 4.8430894e-06)
(1.372694 -0.0047305494 2.2633217e-05)
(1.4952682 -0.0066250395 1.5079515e-05)
(1.4667402 -0.0011599575 4.8616608e-06)
(1.2797123 0.027955082 2.3757454e-05)
(1.302975 0.093727584 1.5643543e-05)
(1.3908203 0.050612076 5.5071872e-06)
(0.83964301 0.36808427 1.1895201e-05)
(0.81721529 0.92550871 9.9966104e-06)
(0.74295904 1.2506677 5.3839296e-06)
(0.22145333 0.11213272 1.4524565e-06)
(0.19178686 0.36627518 3.0730491e-06)
(0.088977028 0.50401557 6.8623183e-07)
(-0.026991566 -0.013784432 1.2188537e-06)
(-0.024386956 -0.027882917 1.6693228e-06)
(-0.01829892 -0.032417409 5.6401023e-07)
(-0.0044018459 -0.0027660364 4.5006764e-07)
(-0.0043903508 -0.0069763255 7.2297808e-07)
(-0.0047385095 -0.0096593022 3.1530889e-07)
(-2.2718136e-05 -6.2613956e-05 1.1553976e-07)
(-0.00024327792 -0.00039775806 2.3076563e-07)
(-0.00079798431 -0.00091674023 8.8695684e-08)
(5.2212499e-05 3.6613274e-05 1.9959031e-08)
(-1.4308461e-05 7.9798332e-05 4.169821e-08)
(-0.00018676357 4.1859269e-05 -2.6542832e-08)
(2.5265606e-05 3.8710425e-05 -8.8218218e-09)
(2.2751019e-05 8.5445326e-05 -2.4805362e-08)
(9.6203287e-06 0.00013756228 -7.1252214e-08)
(-5.9839069e-05 4.0071726e-05 -1.763023e-08)
(-4.6043831e-05 0.00010840246 -4.5177818e-08)
(-1.6875486e-05 0.00015807783 -8.1953724e-08)
(-0.00013432574 2.7850591e-05 -1.7807002e-08)
(-0.00011543883 7.0822111e-05 -4.5970128e-08)
(-7.4359835e-05 0.00010944845 -7.6345037e-08)
(-0.0001696005 4.6725141e-06 -1.4545224e-08)
(-0.00015067722 2.2110352e-05 -3.9219217e-08)
(-0.00011032521 3.0054588e-05 -6.4334236e-08)
(-0.0001713563 -8.7673552e-06 -1.099077e-08)
(-0.00015530786 -1.5690943e-05 -3.1078485e-08)
(-0.00012104844 -2.4406287e-05 -5.1463632e-08)
(-0.00015603744 -1.2275203e-05 -8.3002394e-09)
(-0.00014308908 -2.6366214e-05 -2.4071881e-08)
(-0.00011509495 -3.3668834e-05 -4.0202041e-08)
(-0.00013506391 -9.6511434e-06 -6.4538633e-09)
(-0.00012473487 -2.0983925e-05 -1.862464e-08)
(-0.00010217892 -2.7418034e-05 -3.1078992e-08)
(-0.000115414 -6.4112188e-06 -5.0740423e-09)
(-0.00010717764 -1.2719785e-05 -1.4388356e-08)
(-8.9136462e-05 -1.827824e-05 -2.3826196e-08)
(-9.9918814e-05 -4.1539018e-06 -3.9644385e-09)
(-9.3342669e-05 -8.0674703e-06 -1.1010878e-08)
(-7.8878607e-05 -1.2085854e-05 -1.8050963e-08)
(-8.8406589e-05 -3.0030663e-06 -3.0275284e-09)
(-8.3137989e-05 -6.2114166e-06 -8.2697314e-09)
(-7.150554e-05 -8.6728588e-06 -1.3438332e-08)
(-7.9618699e-05 -2.4500928e-06 -2.2350824e-09)
(-7.5410051e-05 -5.293142e-06 -6.0523017e-09)
(-6.6048081e-05 -7.2583687e-06 -9.7822062e-09)
(-7.2615343e-05 -2.2392584e-06 -1.5925928e-09)
(-6.9255325e-05 -4.5448876e-06 -4.3048091e-09)
(-6.1692063e-05 -6.3051074e-06 -6.9449262e-09)
(-6.6950882e-05 -1.8947511e-06 -1.1045823e-09)
(-6.4253269e-05 -3.7998874e-06 -2.9826373e-09)
(-5.8108978e-05 -5.3578924e-06 -4.8096101e-09)
(-6.2431516e-05 -1.4997683e-06 -7.5351857e-10)
(-6.0253001e-05 -2.9971663e-06 -2.023656e-09)
(-5.5229981e-05 -4.2851475e-06 -3.2558159e-09)
(-5.8921155e-05 -1.1669296e-06 -5.0746128e-10)
(-5.7152507e-05 -2.2458926e-06 -1.3497209e-09)
(-5.3016361e-05 -3.2284003e-06 -2.1601881e-09)
(-5.6263339e-05 -8.7834956e-07 -3.4029309e-10)
(-5.4819917e-05 -1.6115681e-06 -8.8986885e-10)
(-5.1386957e-05 -2.3201302e-06 -1.4093614e-09)
(-5.429079e-05 -6.4503244e-07 -2.2750692e-10)
(-5.3106579e-05 -1.1267578e-06 -5.8071298e-10)
(-5.0233181e-05 -1.6103046e-06 -9.0559772e-10)
(-5.284637e-05 -4.5277723e-07 -1.5376159e-10)
(-5.1869569e-05 -7.1357485e-07 -3.7822762e-10)
(-4.9442832e-05 -1.0248992e-06 -5.7544747e-10)
(-5.1784923e-05 -3.8972543e-07 -1.0477856e-10)
(-5.0976446e-05 -6.2170809e-07 -2.467887e-10)
(-4.8910773e-05 -8.3042192e-07 -3.6261221e-10)
(-5.0980124e-05 -3.1607418e-07 -7.2870388e-11)
(-5.030997e-05 -4.7602171e-07 -1.6232975e-10)
(-4.8539811e-05 -6.5500907e-07 -2.2755065e-10)
(-5.0331156e-05 -2.6335214e-07 -5.300464e-11)
(-4.9774208e-05 -3.9353951e-07 -1.0917963e-10)
(-4.8245749e-05 -5.6068671e-07 -1.4349777e-10)
(-4.9761154e-05 -2.3617802e-07 -4.073657e-11)
(-4.9296755e-05 -3.5702122e-07 -7.671217e-11)
(-4.7966205e-05 -5.1764812e-07 -9.2577283e-11)
(-4.9217192e-05 -2.2475502e-07 -3.3565796e-11)
(-4.8828885e-05 -3.4776111e-07 -5.7571074e-11)
(-4.7661716e-05 -5.2376862e-07 -6.255904e-11)
(-4.8664911e-05 -2.2326583e-07 -2.9255087e-11)
(-4.8340172e-05 -3.6055252e-07 -4.6110531e-11)
(-4.7309416e-05 -5.5527542e-07 -4.5130529e-11)
(-4.8081939e-05 -2.3232988e-07 -2.6504524e-11)
(-4.7811168e-05 -3.9269197e-07 -3.9021982e-11)
(-4.6896499e-05 -6.1300836e-07 -3.4957517e-11)
(-4.7461151e-05 -2.6328805e-07 -2.4706512e-11)
(-4.7235134e-05 -4.5605511e-07 -3.4585911e-11)
(-4.6419058e-05 -6.9743141e-07 -2.901959e-11)
(-4.6808499e-05 -2.7198071e-07 -2.3657533e-11)
(-4.6618607e-05 -5.2844735e-07 -3.1879477e-11)
(-4.5883726e-05 -8.0498267e-07 -2.57088e-11)
(-4.6128539e-05 -2.6699051e-07 -2.3125017e-11)
(-4.5968897e-05 -5.1766602e-07 -3.0405839e-11)
(-4.5301586e-05 -8.4275142e-07 -2.4269861e-11)
(-4.5419889e-05 -2.7297359e-07 -2.259378e-11)
(-4.5286681e-05 -5.3750727e-07 -2.9091511e-11)
(-4.4678859e-05 -8.6286913e-07 -2.3137231e-11)
(-4.4685908e-05 -2.7652763e-07 -2.2209952e-11)
(-4.4575424e-05 -5.5464374e-07 -2.8099018e-11)
(-4.4020271e-05 -8.9157248e-07 -2.2444904e-11)
(-4.3938586e-05 -2.7694063e-07 -2.1770583e-11)
(-4.3847135e-05 -5.6603536e-07 -2.7205084e-11)
(-4.3337303e-05 -9.1179877e-07 -2.1991168e-11)
(-4.3191989e-05 -2.7241945e-07 -2.1585923e-11)
(-4.3116564e-05 -5.6363455e-07 -2.6691958e-11)
(-4.264564e-05 -9.090369e-07 -2.1831431e-11)
(-4.2458625e-05 -2.6438574e-07 -2.1438338e-11)
(-4.2396778e-05 -5.5157308e-07 -2.6287983e-11)
(-4.1959522e-05 -8.9258469e-07 -2.1748571e-11)
(-4.1749594e-05 -2.5233734e-07 -2.1289968e-11)
(-4.169925e-05 -5.3030541e-07 -2.5920888e-11)
(-4.1291166e-05 -8.623081e-07 -2.1691843e-11)
(-4.1074843e-05 -2.3896068e-07 -2.1084321e-11)
(-4.1034246e-05 -5.059445e-07 -2.5593911e-11)
(-4.0651415e-05 -8.1364593e-07 -2.1695236e-11)
(-4.0443164e-05 -2.2077439e-07 -2.0956365e-11)
(-4.0410798e-05 -4.7002254e-07 -2.5318649e-11)
(-4.0049746e-05 -7.5920043e-07 -2.16894e-11)
(-3.9862127e-05 -1.9994247e-07 -2.0876932e-11)
(-3.983666e-05 -4.2778835e-07 -2.5122871e-11)
(-3.9494258e-05 -6.9305299e-07 -2.1726969e-11)
(-3.9338234e-05 -1.7693426e-07 -2.0847548e-11)
(-3.9318497e-05 -3.799132e-07 -2.5022388e-11)
(-3.8991906e-05 -6.1591182e-07 -2.1814071e-11)
(-3.8877856e-05 -1.5162268e-07 -2.0912225e-11)
(-3.8862818e-05 -3.2590223e-07 -2.5069166e-11)
(-3.8549425e-05 -5.2813157e-07 -2.1973848e-11)
(-3.8488498e-05 -1.2409912e-07 -2.1066857e-11)
(-3.8477228e-05 -2.6583859e-07 -2.5208583e-11)
(-3.8174583e-05 -4.2995624e-07 -2.2111297e-11)
(-3.8180321e-05 -9.4709708e-08 -2.1216555e-11)
(-3.8171975e-05 -2.008651e-07 -2.5189209e-11)
(-3.787773e-05 -3.2379168e-07 -2.1904366e-11)
(-3.7966923e-05 -6.3328782e-08 -2.1176059e-11)
(-3.7960717e-05 -1.32023e-07 -2.4533136e-11)
(-3.767256e-05 -2.130375e-07 -2.0802349e-11)
(-3.7877178e-05 -3.0024848e-08 -2.0501366e-11)
(-3.7872425e-05 -6.1811737e-08 -2.2260246e-11)
(-3.7587927e-05 -1.0310574e-07 -1.7920001e-11)
(-3.7836169e-05 -1.9083636e-09 -1.7583231e-11)
(-3.7831863e-05 -2.0718201e-09 -1.6269228e-11)
(-3.7548985e-05 -6.9647174e-09 -1.1852487e-11)
(-0.046966654 1.955204 -3.7292274e-07)
(-0.033379471 1.700706 -3.4639378e-06)
(-0.061864599 0.34590605 -2.6330009e-07)
(-0.043120519 0.15429584 -1.0205743e-06)
(-0.014191077 -0.040205609 -2.2290885e-07)
(-0.011052661 -0.042787668 -6.4459107e-07)
(-0.0045548168 -0.012790972 -1.2761512e-07)
(-0.0044572274 -0.014603251 -4.2670592e-07)
(-0.00099441543 -0.0018963315 -1.3004835e-07)
(-0.00089440022 -0.0028833984 -3.1565595e-07)
(-0.00019110968 -0.0001230843 -1.4143451e-07)
(-5.7785266e-05 -0.00032303265 -2.5390197e-07)
(6.5679684e-05 0.00018269701 -1.3997189e-07)
(0.0001570042 0.00020496339 -2.1106271e-07)
(5.3338775e-05 0.00022900177 -1.2803472e-07)
(0.0001408371 0.00031263224 -1.757748e-07)
(-9.1914478e-06 0.00014301013 -1.1003444e-07)
(6.5477774e-05 0.00019538746 -1.4403863e-07)
(-5.427e-05 3.922472e-05 -9.0240376e-08)
(7.648688e-06 6.0967143e-05 -1.1559008e-07)
(-7.4200808e-05 -2.2241885e-05 -7.1744542e-08)
(-2.2787326e-05 -1.6843053e-05 -9.1151127e-08)
(-7.6729486e-05 -3.7499867e-05 -5.6002216e-08)
(-3.399262e-05 -4.2961778e-05 -7.0939339e-08)
(-7.1273698e-05 -3.3568837e-05 -4.3212261e-08)
(-3.6277822e-05 -3.5324908e-05 -5.4628519e-08)
(-6.4366266e-05 -2.1923307e-05 -3.2995475e-08)
(-3.5898095e-05 -2.08019e-05 -4.1610945e-08)
(-5.8909714e-05 -1.2774737e-05 -2.4870043e-08)
(-3.5698563e-05 -8.9369773e-06 -3.127523e-08)
(-5.5346297e-05 -7.8878814e-06 -1.8429214e-08)
(-3.6308959e-05 -4.3507549e-06 -2.3115119e-08)
(-5.293834e-05 -6.4866065e-06 -1.3374221e-08)
(-3.7285851e-05 -3.800963e-06 -1.6743513e-08)
(-5.1024778e-05 -6.1383528e-06 -9.482084e-09)
(-3.8143313e-05 -4.3758657e-06 -1.1859576e-08)
(-4.9392324e-05 -5.533874e-06 -6.5639168e-09)
(-3.8769418e-05 -4.3288923e-06 -8.2068297e-09)
(-4.8069179e-05 -4.5190223e-06 -4.4405141e-09)
(-3.9271487e-05 -3.6886097e-06 -5.5499367e-09)
(-4.7093644e-05 -3.3984495e-06 -2.9405939e-09)
(-3.9764426e-05 -2.7220204e-06 -3.67167e-09)
(-4.6451063e-05 -2.3912715e-06 -1.9100193e-09)
(-4.0303031e-05 -1.7440539e-06 -2.3794185e-09)
(-4.6086228e-05 -1.5155392e-06 -1.2188695e-09)
(-4.0890454e-05 -9.7163073e-07 -1.5126825e-09)
(-4.5929276e-05 -1.0066429e-06 -7.6568187e-10)
(-4.1505143e-05 -5.1426273e-07 -9.444758e-10)
(-4.5910521e-05 -6.7138259e-07 -4.7435216e-10)
(-4.2115787e-05 -1.4357534e-07 -5.7964398e-10)
(-4.5959399e-05 -5.4551635e-07 -2.9043656e-10)
(-4.2680626e-05 -1.4941101e-07 -3.4992593e-10)
(-4.6009845e-05 -4.8481959e-07 -1.7675606e-10)
(-4.3156052e-05 -1.6291762e-07 -2.0846652e-10)
(-4.6013784e-05 -4.8323306e-07 -1.0810035e-10)
(-4.3512215e-05 -2.4746867e-07 -1.232509e-10)
(-4.5944154e-05 -5.2973471e-07 -6.7670869e-11)
(-4.3735941e-05 -3.617499e-07 -7.3176122e-11)
(-4.5788026e-05 -6.1527168e-07 -4.4372063e-11)
(-4.3825737e-05 -5.2276836e-07 -4.4429422e-11)
(-4.5540945e-05 -7.2801769e-07 -3.1147064e-11)
(-4.3786698e-05 -7.1019986e-07 -2.8328014e-11)
(-4.5205004e-05 -8.5542595e-07 -2.3767981e-11)
(-4.3628121e-05 -9.0180978e-07 -1.9570616e-11)
(-4.4789043e-05 -9.7752869e-07 -1.9888107e-11)
(-4.3363318e-05 -1.0650981e-06 -1.5089876e-11)
(-4.4306212e-05 -1.0690829e-06 -1.8194739e-11)
(-4.3008467e-05 -1.1997615e-06 -1.3037663e-11)
(-4.3768598e-05 -1.1467226e-06 -1.7195882e-11)
(-4.257986e-05 -1.3474452e-06 -1.2081546e-11)
(-4.3185675e-05 -1.185304e-06 -1.6795839e-11)
(-4.2092213e-05 -1.4238173e-06 -1.1881159e-11)
(-4.2569144e-05 -1.2132775e-06 -1.6735384e-11)
(-4.156005e-05 -1.4612868e-06 -1.2098774e-11)
(-4.1934626e-05 -1.2164657e-06 -1.6879326e-11)
(-4.0999196e-05 -1.4782437e-06 -1.2460657e-11)
(-4.1297829e-05 -1.2016766e-06 -1.7073412e-11)
(-4.0426032e-05 -1.4709157e-06 -1.2861648e-11)
(-4.0672304e-05 -1.1662309e-06 -1.7287824e-11)
(-3.9855687e-05 -1.4342984e-06 -1.3278416e-11)
(-4.0069674e-05 -1.1013096e-06 -1.753826e-11)
(-3.9300971e-05 -1.3660455e-06 -1.3703786e-11)
(-3.9500046e-05 -1.0306753e-06 -1.77626e-11)
(-3.8772771e-05 -1.2772088e-06 -1.4105309e-11)
(-3.8972061e-05 -9.4273781e-07 -1.7991363e-11)
(-3.8280388e-05 -1.1709409e-06 -1.4470024e-11)
(-3.8493074e-05 -8.3878212e-07 -1.8218417e-11)
(-3.7831683e-05 -1.0437679e-06 -1.4796128e-11)
(-3.8070121e-05 -7.1972749e-07 -1.8438157e-11)
(-3.7434071e-05 -8.9642634e-07 -1.5060719e-11)
(-3.7711196e-05 -5.8565951e-07 -1.854806e-11)
(-3.7095818e-05 -7.2942205e-07 -1.5164628e-11)
(-3.7426783e-05 -4.4014412e-07 -1.8235986e-11)
(-3.6827564e-05 -5.4740694e-07 -1.4840131e-11)
(-3.7230615e-05 -2.8917695e-07 -1.6998747e-11)
(-3.6643085e-05 -3.5906886e-07 -1.3670536e-11)
(-3.7151342e-05 -1.4107049e-07 -1.4160278e-11)
(-3.6570747e-05 -1.7565984e-07 -1.115905e-11)
(-3.7114795e-05 -1.0184705e-08 -8.894996e-12)
(-3.6537297e-05 -1.209122e-08 -6.8176473e-12)
(7.4186645e-05 -4.7414069e-06 -1.1786889e-07)
(-2.1026236e-05 -6.3504733e-05 -2.7956985e-07)
(-0.00017607952 -5.4003287e-05 -3.957636e-07)
(-0.00032750259 -7.1061362e-05 -4.6937415e-07)
(-0.00044013386 -7.9380515e-05 -5.0948705e-07)
(-0.00050670637 -0.00011645973 -5.2641772e-07)
(-0.00053418898 -0.00016332223 -5.2790194e-07)
(-0.00053236504 -0.00022291635 -5.1935143e-07)
(-0.00051008029 -0.00029217436 -5.0454431e-07)
(-0.00047450964 -0.000366405 -4.8610075e-07)
(-0.00043116712 -0.00044326406 -4.658455e-07)
(-0.00038413585 -0.000519908 -4.4488966e-07)
(-0.00033647138 -0.00059380741 -4.2378041e-07)
(-0.00029032551 -0.00066320597 -4.0263487e-07)
(-0.00024706139 -0.00072670316 -3.813241e-07)
(-0.00020747326 -0.00078336428 -3.5957131e-07)
(-0.000172052 -0.00083381409 -3.3697845e-07)
(-0.00014094359 -0.00087687596 -3.1297395e-07)
(-0.0001137667 -0.0009105926 -2.8692228e-07)
(-9.0094888e-05 -0.00093481304 -2.5809049e-07)
(-6.9283113e-05 -0.00094831432 -2.2569134e-07)
(-5.072128e-05 -0.00095287825 -1.8853942e-07)
(-3.4006289e-05 -0.00094827913 -1.4561383e-07)
(-1.9019939e-05 -0.00093918557 -9.6335322e-08)
(-6.128708e-06 -0.00089271571 -4.0139048e-08)
(0.00022351792 -0.00011829875 -1.3380072e-07)
(0.00020080345 -0.00049894614 -3.1316251e-07)
(0.00019798092 -0.00070387382 -4.3525889e-07)
(0.00022986976 -0.0010080125 -5.0607215e-07)
(0.00028033698 -0.0012572847 -5.3990005e-07)
(0.00033083347 -0.0015408059 -5.5055794e-07)
(0.00037271727 -0.0018294657 -5.4679869e-07)
(0.00040388705 -0.002141784 -5.3424371e-07)
(0.00042094342 -0.0024717978 -5.16453e-07)
(0.00042614416 -0.0027934673 -4.9575865e-07)
(0.00042176552 -0.0031036748 -4.739362e-07)
(0.00040967589 -0.0033999794 -4.5195928e-07)
(0.00039138503 -0.0036779443 -4.3024897e-07)
(0.00036832342 -0.0039352685 -4.0876771e-07)
(0.00034150278 -0.0041705264 -3.8729653e-07)
(0.00031180331 -0.0043852838 -3.655292e-07)
(0.00028007632 -0.0045906325 -3.4312073e-07)
(0.00024701251 -0.0047789217 -3.1936713e-07)
(0.0002127907 -0.0049264809 -2.9367499e-07)
(0.00017763115 -0.005025911 -2.6523783e-07)
(0.00014253432 -0.0050748159 -2.3360463e-07)
(0.00010797148 -0.0050759326 -1.9685254e-07)
(7.4210345e-05 -0.0050326221 -1.5363233e-07)
(4.1666054e-05 -0.0049304021 -1.022416e-07)
(1.143366e-05 -0.0047067602 -4.4211278e-08)
(0.00092340459 -0.00032861917 -1.7200213e-07)
(0.00093895458 -0.0015258573 -3.8823263e-07)
(0.0010251265 -0.0020252806 -5.1818838e-07)
(0.0011497806 -0.0028991292 -5.7864699e-07)
(0.0012557991 -0.0036344436 -5.9822024e-07)
(0.0013217745 -0.0044159363 -5.9611662e-07)
(0.0013445256 -0.0051900656 -5.8207932e-07)
(0.0013312972 -0.0061148952 -5.6208247e-07)
(0.00129329 -0.0071629452 -5.3891721e-07)
(0.0012371298 -0.0081312835 -5.1402914e-07)
(0.0011694182 -0.0089770096 -4.8940737e-07)
(0.0010938253 -0.0096958472 -4.6567455e-07)
(0.0010126107 -0.01028543 -4.4306747e-07)
(0.0009271122 -0.010753861 -4.2117153e-07)
(0.00083918594 -0.011107812 -3.9959711e-07)
(0.00075023303 -0.011348822 -3.7796528e-07)
(0.00066159718 -0.011469208 -3.5634934e-07)
(0.00057414386 -0.011487942 -3.3335339e-07)
(0.00048822894 -0.011434373 -3.0882855e-07)
(0.00040370258 -0.011323701 -2.8199166e-07)
(0.00032264586 -0.011165867 -2.519119e-07)
(0.00024466473 -0.010969673 -2.1706214e-07)
(0.00016936695 -0.010741587 -1.7533784e-07)
(9.7179294e-05 -0.010452236 -1.2314432e-07)
(2.9894017e-05 -0.010055345 -6.0398294e-08)
(0.0032990343 -0.0010229648 -2.5426387e-07)
(0.0034170816 -0.0046345542 -5.2744628e-07)
(0.0034800978 -0.0059348454 -6.5455415e-07)
(0.0033975532 -0.0091526435 -6.8845311e-07)
(0.0032453414 -0.012030561 -6.8275531e-07)
(0.003025932 -0.014588904 -6.6075922e-07)
(0.0027721227 -0.016404609 -6.315453e-07)
(0.002505141 -0.017366427 -6.0215626e-07)
(0.0022434798 -0.017651587 -5.7292673e-07)
(0.0019895601 -0.017515176 -5.4221696e-07)
(0.0017575379 -0.01706519 -5.1410883e-07)
(0.0015447341 -0.016422171 -4.8815896e-07)
(0.0013474313 -0.015601726 -4.6480127e-07)
(0.0011564913 -0.014657923 -4.4267141e-07)
(0.00098503632 -0.013644463 -4.2121728e-07)
(0.000833036 -0.012606872 -4.0015363e-07)
(0.00069903539 -0.011584039 -3.7913533e-07)
(0.0005812424 -0.010609234 -3.5763849e-07)
(0.00047810599 -0.009705715 -3.3513547e-07)
(0.00038818381 -0.008894776 -3.1095413e-07)
(0.00030683531 -0.0081898161 -2.8422195e-07)
(0.00023239892 -0.0075942002 -2.5366503e-07)
(0.00016379026 -0.0071078767 -2.1737383e-07)
(9.9210775e-05 -0.006689139 -1.7216223e-07)
(3.6691344e-05 -0.0063876407 -1.0796871e-07)
(0.011263202 -0.0086915173 -4.4189875e-07)
(0.0090907848 -0.02560384 -7.63017e-07)
(0.0079282111 -0.028073193 -8.5092499e-07)
(0.0062239525 -0.032324568 -8.3978147e-07)
(0.0048247905 -0.029753141 -8.0103804e-07)
(0.0035996978 -0.02596149 -7.5331842e-07)
(0.0025776369 -0.021265734 -7.0588921e-07)
(0.0017613077 -0.016307336 -6.6163639e-07)
(0.0011224294 -0.011353122 -6.221063e-07)
(0.00063253635 -0.0067773411 -5.857873e-07)
(0.00025371748 -0.0026446701 -5.530998e-07)
(-2.810662e-05 0.0009027558 -5.2277114e-07)
(-0.00022811904 0.0042137959 -4.9841877e-07)
(-0.00035663561 0.0073739958 -4.7539934e-07)
(-0.00043741635 0.010276311 -4.5324337e-07)
(-0.00047781887 0.012795179 -4.3207107e-07)
(-0.00048615626 0.014898842 -4.1151973e-07)
(-0.00046912638 0.016605161 -3.9114318e-07)
(-0.00043205989 0.017941951 -3.7045834e-07)
(-0.00037892768 0.018939454 -3.4892198e-07)
(-0.00031618293 0.019623716 -3.2585755e-07)
(-0.00024685151 0.020019416 -3.0031276e-07)
(-0.00017285017 0.020124131 -2.7075174e-07)
(-9.7436813e-05 0.019995531 -2.4181433e-07)
(-2.2267504e-05 0.019292841 -2.1296374e-07)
(0.014190169 0.023577501 -8.0072256e-07)
(0.0033794749 -0.001056548 -1.1336446e-06)
(0.00075542734 0.048564754 -1.1370425e-06)
(-0.0010826741 0.051446613 -1.0646089e-06)
(-0.0026889193 0.065645955 -9.8773791e-07)
(-0.0038884748 0.075907772 -9.0163035e-07)
(-0.0045487445 0.083061556 -8.2444551e-07)
(-0.0047488809 0.089030077 -7.5746996e-07)
(-0.0046654267 0.093421337 -6.9933891e-07)
(-0.0044367068 0.096148084 -6.4966592e-07)
(-0.0041460702 0.097702093 -6.077969e-07)
(-0.0037993966 0.098174619 -5.6441927e-07)
(-0.0034468859 0.097894591 -5.3980081e-07)
(-0.0031023972 0.096573941 -5.1326943e-07)
(-0.0027549434 0.094405483 -4.8720769e-07)
(-0.0024164104 0.091970669 -4.6396208e-07)
(-0.0020964173 0.089333303 -4.4240764e-07)
(-0.0017956137 0.086577781 -4.2185951e-07)
(-0.0015134278 0.083781337 -4.0177762e-07)
(-0.0012488631 0.081002104 -3.8166309e-07)
(-0.00099806348 0.078277192 -3.6098459e-07)
(-0.00075931982 0.075648994 -3.3908945e-07)
(-0.00053070293 0.07308942 -3.1529831e-07)
(-0.0003103939 0.070785806 -2.9053765e-07)
(-9.2911508e-05 0.067300353 -2.6620459e-07)
(-0.0018473034 1.1777262 -2.5264412e-06)
(-0.00095219853 0.96381901 -2.0077393e-06)
(-0.0011189038 0.86762447 -1.6275442e-06)
(-0.00077713856 0.77496662 -1.3373457e-06)
(-0.00066925446 0.67865999 -1.1215148e-06)
(-0.00058106867 0.58711337 -9.6368751e-07)
(-0.00049477508 0.50859795 -8.4708122e-07)
(-0.00041799035 0.44478407 -7.6089637e-07)
(-0.00035490749 0.39216676 -6.9176367e-07)
(-0.00029755315 0.34726238 -6.3906951e-07)
(-0.00023991509 0.30850234 -5.9832695e-07)
(-0.00019256588 0.27514506 -5.6279676e-07)
(-0.00015441735 0.24662017 -5.3343183e-07)
(-0.00013072414 0.22219829 -5.0790711e-07)
(-0.00010900118 0.20122299 -4.8493299e-07)
(-9.1376788e-05 0.18321341 -4.6391222e-07)
(-7.6647947e-05 0.167739 -4.442233e-07)
(-6.3624059e-05 0.15443665 -4.2534509e-07)
(-5.2347931e-05 0.14300366 -4.0685949e-07)
(-4.2696214e-05 0.1331905 -3.8839755e-07)
(-3.382417e-05 0.12478089 -3.6957202e-07)
(-2.5399478e-05 0.11763273 -3.498561e-07)
(-1.7435417e-05 0.11150425 -3.2892349e-07)
(-9.9422398e-06 0.10667768 -3.0653467e-07)
(-2.775372e-06 0.100661 -2.8218173e-07)
(-0.012965347 0.091989854 -1.2367483e-06)
(-0.0025488861 0.099419791 -1.2777546e-06)
(-0.00014187808 0.10508392 -1.2322468e-06)
(0.0015842802 0.10663266 -1.1415615e-06)
(0.0030775364 0.10855878 -1.038775e-06)
(0.0041861682 0.11012059 -9.3877325e-07)
(0.0047829334 0.11168242 -8.4948182e-07)
(0.0049348861 0.11312747 -7.7257701e-07)
(0.0048171491 0.11386828 -6.9131402e-07)
(0.0045411919 0.11388912 -6.4810674e-07)
(0.0042310602 0.11314436 -6.0723211e-07)
(0.003891929 0.11144159 -5.6462516e-07)
(0.0035196468 0.10889631 -5.2908987e-07)
(0.0031474248 0.10585486 -4.9879227e-07)
(0.0027867301 0.10256306 -4.7235273e-07)
(0.0024415199 0.099145133 -4.4877154e-07)
(0.0021150401 0.095684573 -4.2725965e-07)
(0.0018094479 0.092249024 -4.0715948e-07)
(0.0015229856 0.088889746 -3.8790332e-07)
(0.0012541076 0.085644609 -3.689564e-07)
(0.0010009369 0.082535213 -3.4972619e-07)
(0.00076122627 0.079591211 -3.294346e-07)
(0.00053225606 0.076775252 -3.0840217e-07)
(0.00031180261 0.074278762 -2.8538896e-07)
(9.4036457e-05 0.070579716 -2.6215195e-07)
(-0.0091525026 -0.040741291 -8.6887409e-07)
(-0.0078020761 -0.038553177 -9.3435016e-07)
(-0.0064208677 -0.036848876 -9.2148374e-07)
(-0.0050326746 -0.033372151 -8.7528096e-07)
(-0.0037333944 -0.028398102 -8.1678471e-07)
(-0.0026150618 -0.022787381 -7.5534219e-07)
(-0.0017042365 -0.01703602 -6.9821095e-07)
(-0.00099173228 -0.011439256 -6.4598372e-07)
(-0.00044477523 -0.0064409608 -5.9766899e-07)
(-4.3420522e-05 -0.0020180962 -5.6145116e-07)
(0.00024715647 0.0017871507 -5.2822342e-07)
(0.00045120075 0.0055037513 -4.9731312e-07)
(0.00058367986 0.0090549836 -4.6961611e-07)
(0.00066128247 0.012229822 -4.4478678e-07)
(0.00069569917 0.01496004 -4.2223261e-07)
(0.00069793869 0.017248713 -4.0140503e-07)
(0.00067405552 0.019131748 -3.8185165e-07)
(0.00062754863 0.020645737 -3.6306761e-07)
(0.00056451119 0.021812333 -3.4453716e-07)
(0.00048896756 0.022653063 -3.25671e-07)
(0.00040422839 0.023189288 -3.0564834e-07)
(0.00031314177 0.023441843 -2.8301383e-07)
(0.00021858489 0.023421078 -2.6074833e-07)
(0.00012371823 0.023170512 -2.335872e-07)
(3.0053381e-05 0.022316342 -2.0692264e-07)
(-0.0043308584 -0.016043692 -6.014663e-07)
(-0.0042947642 -0.018450606 -6.7794728e-07)
(-0.0041372849 -0.021186521 -6.9321265e-07)
(-0.0038626172 -0.023130017 -6.7653538e-07)
(-0.0035015727 -0.02431517 -6.4687127e-07)
(-0.0031280207 -0.024670902 -6.1415471e-07)
(-0.0027746371 -0.024378606 -5.7461828e-07)
(-0.002444882 -0.023661302 -5.3757371e-07)
(-0.0021445731 -0.02268235 -5.0396764e-07)
(-0.0018688539 -0.021506038 -4.7519139e-07)
(-0.0016279338 -0.020216664 -4.4903614e-07)
(-0.0013997298 -0.018798178 -4.2493584e-07)
(-0.0011937409 -0.017316616 -4.0284484e-07)
(-0.0010123427 -0.015824787 -3.8256252e-07)
(-0.00085341794 -0.014357407 -3.6355618e-07)
(-0.00071294617 -0.012951427 -3.4539246e-07)
(-0.00059026165 -0.011643652 -3.2793027e-07)
(-0.00048551322 -0.010460602 -3.10588e-07)
(-0.00039516523 -0.0094084901 -2.9281733e-07)
(-0.00031693817 -0.0084890041 -2.7395819e-07)
(-0.00024873876 -0.0077027061 -2.531019e-07)
(-0.00018844118 -0.007049268 -2.2900368e-07)
(-0.00013395521 -0.0065253027 -2.0038355e-07)
(-8.2908206e-05 -0.0060904921 -1.6167067e-07)
(-3.2617954e-05 -0.0057968773 -1.0362148e-07)
(-0.00094178994 -0.0038927314 -4.4270174e-07)
(-0.0012052605 -0.0048554368 -5.1340522e-07)
(-0.0014294651 -0.0057974645 -5.4135738e-07)
(-0.0015792011 -0.0067099772 -5.4254337e-07)
(-0.0016563172 -0.0076220557 -5.2880915e-07)
(-0.0016649974 -0.0086942534 -5.0739599e-07)
(-0.0016276633 -0.0098439333 -4.8109313e-07)
(-0.0015604188 -0.010838277 -4.5437041e-07)
(-0.0014752366 -0.011672855 -4.2910751e-07)
(-0.0013779609 -0.012347862 -4.0600546e-07)
(-0.0012766958 -0.01288293 -3.8465118e-07)
(-0.0011723344 -0.013280951 -3.647607e-07)
(-0.0010670892 -0.013548559 -3.4616617e-07)
(-0.00096320739 -0.013668191 -3.2905141e-07)
(-0.00086206696 -0.013665938 -3.1249061e-07)
(-0.00076513144 -0.013582072 -2.9654857e-07)
(-0.0006721082 -0.013439934 -2.8056839e-07)
(-0.00058149764 -0.013253175 -2.6422534e-07)
(-0.00049408785 -0.013031109 -2.4700185e-07)
(-0.00040959671 -0.012780846 -2.2824175e-07)
(-0.00032778637 -0.012507912 -2.0694917e-07)
(-0.00024857887 -0.012217652 -1.8166017e-07)
(-0.00017210468 -0.011913305 -1.5022909e-07)
(-9.8790821e-05 -0.011557102 -1.0819959e-07)
(-3.0496189e-05 -0.011108511 -5.4811911e-08)
(3.9400506e-05 -0.00063145813 -3.4131163e-07)
(3.7581969e-05 -0.0010095511 -3.9811493e-07)
(-5.9725382e-05 -0.0014213823 -4.276807e-07)
(-0.00018508723 -0.0018802792 -4.3724017e-07)
(-0.00032347862 -0.0023280345 -4.3360025e-07)
(-0.00042982257 -0.0027761652 -4.2181989e-07)
(-0.00049759427 -0.0032462702 -4.0519691e-07)
(-0.00053559517 -0.0036875446 -3.8660067e-07)
(-0.00055188041 -0.0040951196 -3.6777548e-07)
(-0.00054967077 -0.0044647194 -3.4957751e-07)
(-0.00053603264 -0.0047973155 -3.3221258e-07)
(-0.00051585446 -0.0050976939 -3.1569078e-07)
(-0.00049002953 -0.0053801873 -2.9996639e-07)
(-0.00045894863 -0.0056697316 -2.8498339e-07)
(-0.0004239173 -0.0059558787 -2.7041355e-07)
(-0.00038623499 -0.0062018756 -2.5603272e-07)
(-0.00034635911 -0.0063998591 -2.4145427e-07)
(-0.00030456179 -0.0065475655 -2.2629233e-07)
(-0.00026172822 -0.0066445763 -2.1005089e-07)
(-0.00021843514 -0.0066906313 -1.9228222e-07)
(-0.00017511855 -0.0066868468 -1.7209904e-07)
(-0.00013226201 -0.0066362062 -1.4807696e-07)
(-9.0483125e-05 -0.0065432147 -1.1882771e-07)
(-5.0461922e-05 -0.0063899977 -8.1886482e-08)
(-1.3775589e-05 -0.0061034566 -3.7709398e-08)
(0.00021414985 0.00021504282 -2.7099432e-07)
(0.00024965343 0.00020583886 -3.1429681e-07)
(0.00023681883 0.00015728061 -3.4074887e-07)
(0.00019796966 4.3361973e-05 -3.5313809e-07)
(0.00014852422 -0.00010290151 -3.5505938e-07)
(9.3670737e-05 -0.00025518228 -3.4974986e-07)
(4.4167948e-05 -0.00041780403 -3.3977942e-07)
(4.1674221e-06 -0.00058149196 -3.2722513e-07)
(-2.6307512e-05 -0.00073946662 -3.1352968e-07)
(-5.0532347e-05 -0.00088960454 -2.9955533e-07)
(-6.8446423e-05 -0.0010334281 -2.8572201e-07)
(-8.1778898e-05 -0.0011651975 -2.7220971e-07)
(-9.0429194e-05 -0.0012821483 -2.5906775e-07)
(-9.4181108e-05 -0.0013878452 -2.4625289e-07)
(-9.3517996e-05 -0.0014818292 -2.3360155e-07)
(-8.9693081e-05 -0.0015613472 -2.2090648e-07)
(-8.3610751e-05 -0.0016268385 -2.078888e-07)
(-7.559816e-05 -0.0016781371 -1.9422518e-07)
(-6.6269204e-05 -0.0017150153 -1.7952974e-07)
(-5.6189033e-05 -0.0017372488 -1.633757e-07)