/*--------------------------------*- C++ -*----------------------------------*\
| =========                 |                                                 |
| \\      /  F ield         | OpenFOAM: The Open Source CFD Toolbox           |
|  \\    /   O peration     | Version:  4.0                                   |
|   \\  /    A nd           | Web:      www.OpenFOAM.org                      |
|    \\/     M anipulation  |                                                 |
\*---------------------------------------------------------------------------*/
FoamFile
{
    version     2.0;
    format      ascii;
    class       volScalarField;
    location    "0.3";
    object      nut;
}
// * * * * * * * * * * * * * * * * * * * * * * * * * * * * * * * * * * * * * //

dimensions      [0 2 -1 0 0 0 0];

internalField   nonuniform List<scalar> 
1740
(
5.8121338e-05
1.4418695e-05
1.2322011e-06
2.1847905e-05
7.5804089e-06
1.8033842e-06
1.6186601e-05
5.6273888e-06
2.3022511e-06
2.1007499e-05
4.9153839e-06
2.7399032e-06
1.0816283e-05
4.4721998e-06
3.0978906e-06
1.5829729e-05
4.1488657e-06
3.4178533e-06
1.4056926e-05
3.9343464e-06
3.6692174e-06
1.2168047e-05
3.7886508e-06
3.8548179e-06
1.0745875e-05
3.6828663e-06
4.0337697e-06
9.4902521e-06
3.6216007e-06
4.1868464e-06
8.7364369e-06
3.5790874e-06
4.2930346e-06
8.1552892e-06
3.5627076e-06
4.3698303e-06
7.616852e-06
3.5481604e-06
4.4348561e-06
7.0487009e-06
3.5305449e-06
4.4855622e-06
6.5843376e-06
3.4911451e-06
4.5272743e-06
6.1789148e-06
3.4866178e-06
4.5593827e-06
5.9073546e-06
3.5016965e-06
4.616026e-06
5.6531074e-06
3.5144251e-06
4.6700597e-06
5.3860214e-06
3.5276484e-06
4.6549743e-06
5.1874984e-06
3.5270198e-06
4.6736589e-06
5.0161971e-06
3.5582875e-06
4.6976716e-06
4.8675e-06
3.5477208e-06
4.6654645e-06
4.7411741e-06
3.5308516e-06
4.6735292e-06
4.6162284e-06
3.5305284e-06
4.7019782e-06
4.5006588e-06
3.5435761e-06
4.6771406e-06
4.3908772e-06
3.5350986e-06
4.6841061e-06
4.293643e-06
3.5367799e-06
4.6965415e-06
4.2068643e-06
3.5803536e-06
4.6687175e-06
4.1621684e-06
3.5936453e-06
4.6348789e-06
2.4997536e-06
3.5631252e-06
4.3221556e-06
1.849471e-06
2.2179265e-06
4.4197509e-06
7.1578902e-06
7.3419777e-06
6.6926067e-06
6.5367323e-06
6.74066e-06
6.3733705e-06
5.1749172e-06
5.1126566e-06
4.865809e-06
4.3241319e-06
4.2531117e-06
4.1192184e-06
3.7622753e-06
3.72034e-06
3.6609631e-06
3.3558526e-06
3.3384067e-06
3.3222292e-06
3.0150092e-06
3.0117226e-06
3.0168762e-06
2.6778385e-06
2.6808854e-06
2.6939815e-06
2.308788e-06
2.3135243e-06
2.3271858e-06
1.8997968e-06
1.9039359e-06
1.9147289e-06
1.4702873e-06
1.473037e-06
1.4800055e-06
1.0598084e-06
1.0612223e-06
1.0648491e-06
7.1041094e-07
7.1090548e-07
7.1228556e-07
4.4682273e-07
4.4684159e-07
4.4705152e-07
2.6897147e-07
2.6882166e-07
2.6859536e-07
1.6004216e-07
1.5989852e-07
1.5963515e-07
9.8707794e-08
9.8613591e-08
9.842988e-08
6.6375506e-08
6.6326808e-08
6.6231408e-08
5.0544743e-08
5.0528883e-08
5.0500854e-08
4.3641345e-08
4.3645705e-08
4.3660357e-08
4.1359996e-08
4.137537e-08
4.1413561e-08
4.1371958e-08
4.139269e-08
4.1442114e-08
4.2470687e-08
4.2493607e-08
4.2547172e-08
4.4057449e-08
4.4080845e-08
4.4134746e-08
4.5848892e-08
4.5871859e-08
4.5924175e-08
4.7717762e-08
4.7739836e-08
4.7789669e-08
4.9609886e-08
4.9630842e-08
4.9677827e-08
5.1503037e-08
5.152278e-08
5.1566813e-08
5.3387663e-08
5.3406166e-08
5.3447267e-08
5.52584e-08
5.5275671e-08
5.5313917e-08
5.7110605e-08
5.7126671e-08
5.7162164e-08
5.8939083e-08
5.8953981e-08
5.8986835e-08
6.0737715e-08
6.0751489e-08
6.0781822e-08
6.2499424e-08
6.2512124e-08
6.2540058e-08
6.4216275e-08
6.4227953e-08
6.4253615e-08
6.5879626e-08
6.5890337e-08
6.5913857e-08
6.7480326e-08
6.7490129e-08
6.7511642e-08
6.9008968e-08
6.9017926e-08
6.9037576e-08
7.0456203e-08
7.0464384e-08
7.0482319e-08
7.1813063e-08
7.1820537e-08
7.1836918e-08
7.3071218e-08
7.307806e-08
7.3093052e-08
7.4222993e-08
7.4229282e-08
7.4243059e-08
7.5260947e-08
7.5266762e-08
7.5279501e-08
7.6176747e-08
7.6182169e-08
7.6194043e-08
7.6959061e-08
7.6964171e-08
7.6975355e-08
7.7585931e-08
7.7590793e-08
7.7601435e-08
7.8023215e-08
7.8027888e-08
7.8038119e-08
7.820236e-08
7.8206882e-08
7.8216799e-08
7.7939006e-08
7.7943338e-08
7.7952934e-08
4.1794758e-06
4.4994385e-06
6.6130484e-06
8.3423976e-06
5.9925526e-06
6.0369166e-06
4.7218177e-06
4.8268878e-06
4.0717789e-06
4.1796418e-06
3.6626968e-06
3.7619818e-06
3.3479198e-06
3.4355124e-06
3.0509873e-06
3.1250984e-06
2.7273232e-06
2.7869655e-06
2.3548432e-06
2.399854e-06
1.9347727e-06
1.9660063e-06
1.4926039e-06
1.5120176e-06
1.0715139e-06
1.0819559e-06
7.1505841e-07
7.1967215e-07
4.4776187e-07
4.4923626e-07
2.6847464e-07
2.6861022e-07
1.5934862e-07
1.5912078e-07
9.8205853e-08
9.7984611e-08
6.6114108e-08
6.5997105e-08
5.0473044e-08
5.0456747e-08
4.3691523e-08
4.3744832e-08
4.147774e-08
4.1570593e-08
4.1521781e-08
4.1632818e-08
4.2631946e-08
4.2748206e-08
4.4219049e-08
4.433355e-08
4.6005281e-08
4.6114693e-08
4.7866404e-08
4.7969395e-08
4.9749798e-08
4.9846024e-08
5.1633993e-08
5.1723551e-08
5.3509783e-08
5.3592938e-08
5.5371955e-08
5.5449022e-08
5.7215928e-08
5.7287225e-08
5.9036531e-08
5.9102365e-08
6.0827654e-08
6.0888319e-08
6.2582229e-08
6.263801e-08
6.4292328e-08
6.4343505e-08
6.5949317e-08
6.5996172e-08
6.7544061e-08
6.7586879e-08
6.9067173e-08
6.9106249e-08
7.0509326e-08
7.0544968e-08
7.1861575e-08
7.1894107e-08
7.3115614e-08
7.3145374e-08
7.4263788e-08
7.4291124e-08
7.5298663e-08
7.5323928e-08
7.6211904e-08
7.623545e-08
7.6992171e-08
7.7014334e-08
7.7617438e-08
7.7638531e-08
7.8053514e-08
7.8073814e-08
7.8231742e-08
7.8251475e-08
7.796748e-08
7.7986775e-08
3.444566e-10
1.3231556e-08
1.9289827e-07
8.2601917e-07
1.6428856e-06
2.2291942e-06
2.5736934e-06
2.7815797e-06
2.9251309e-06
3.0398596e-06
3.1426759e-06
3.2466177e-06
3.3498581e-06
3.4510902e-06
3.5494711e-06
3.6436774e-06
3.731342e-06
3.8084723e-06
3.868577e-06
3.9013358e-06
3.8904608e-06
3.8100987e-06
3.6182317e-06
3.2389352e-06
2.4363013e-06
2.1028549e-10
2.6884574e-08
3.5997039e-07
1.37756e-06
2.5707463e-06
3.3785709e-06
3.8509028e-06
4.1568278e-06
4.3906528e-06
4.5949676e-06
4.7900045e-06
4.9875012e-06
5.1863414e-06
5.3852072e-06
5.5824212e-06
5.7752792e-06
5.9591538e-06
6.1264893e-06
6.2649402e-06
6.3547022e-06
6.3640962e-06
6.2416331e-06
5.9007125e-06
5.1821289e-06
3.6602862e-06
6.5729988e-10
7.8860741e-08
8.580972e-07
2.5090127e-06
3.7942836e-06
4.5302437e-06
4.9931576e-06
5.3379928e-06
5.6372224e-06
5.9230527e-06
6.2105754e-06
6.5062574e-06
6.808819e-06
7.1169489e-06
7.4291152e-06
7.7422204e-06
8.0501061e-06
8.3429942e-06
8.6036845e-06
8.8041344e-06
8.8986966e-06
8.8112025e-06
8.4083626e-06
7.4351089e-06
5.253872e-06
3.1102493e-09
2.8545352e-07
2.0642352e-06
4.0057843e-06
5.0463155e-06
5.6336473e-06
6.0398596e-06
6.3816916e-06
6.7093347e-06
7.0412305e-06
7.3880537e-06
7.7528015e-06
8.1317797e-06
8.5235108e-06
8.9276215e-06
9.3425613e-06
9.7632385e-06
1.0180145e-05
1.0576896e-05
1.0926197e-05
1.1182868e-05
1.1270119e-05
1.1046852e-05
1.0208594e-05
7.8362888e-06
2.3248303e-08
1.1382476e-06
3.9905948e-06
5.6005522e-06
6.4528607e-06
6.9739775e-06
7.3573159e-06
7.7030268e-06
8.0520913e-06
8.405966e-06
8.7779657e-06
9.175193e-06
9.5868363e-06
1.0008543e-05
1.0442426e-05
1.0892887e-05
1.1358938e-05
1.1835706e-05
1.2313166e-05
1.277331e-05
1.3185705e-05
1.3501465e-05
1.3645939e-05
1.352593e-05
1.3114765e-05
1.9492193e-07
2.7510348e-06
5.9004083e-06
7.7071252e-06
8.6246254e-06
9.0434739e-06
9.2405632e-06
9.3778695e-06
9.5167005e-06
9.6752591e-06
9.8614811e-06
1.0081639e-05
1.0336248e-05
1.0625305e-05
1.0949821e-05
1.1310595e-05
1.1707446e-05
1.2137985e-05
1.259675e-05
1.3073642e-05
1.3551108e-05
1.4001053e-05
1.4381837e-05
1.4647062e-05
1.4742002e-05
4.3375345e-06
4.3079584e-06
4.3546434e-06
4.4703481e-06
4.6511386e-06
4.8849874e-06
5.1610296e-06
5.4765455e-06
5.834093e-06
6.2357863e-06
6.6811159e-06
7.1667878e-06
7.6866836e-06
8.2332465e-06
8.7993539e-06
9.3799509e-06
9.9722761e-06
1.0574578e-05
1.1184482e-05
1.1797038e-05
1.2401981e-05
1.2980888e-05
1.3504534e-05
1.3938393e-05
1.4217992e-05
9.1183765e-06
9.3735028e-06
9.7724671e-06
1.0190184e-05
1.0367272e-05
1.0332137e-05
1.0215924e-05
1.0119347e-05
1.0082414e-05
1.0106583e-05
1.0187705e-05
1.0321135e-05
1.0504692e-05
1.0737933e-05
1.102053e-05
1.1351663e-05
1.1729088e-05
1.2148579e-05
1.2602947e-05
1.3080159e-05
1.3560428e-05
1.4013217e-05
1.4394366e-05
1.4656193e-05
1.4746115e-05
6.4092096e-06
6.8184863e-06
7.2496886e-06
7.6500913e-06
7.9525885e-06
8.1698393e-06
8.3612895e-06
8.5676304e-06
8.7961914e-06
9.0615074e-06
9.3606045e-06
9.6840032e-06
1.0026702e-05
1.0394537e-05
1.0791122e-05
1.1216874e-05
1.1668834e-05
1.2140031e-05
1.2617645e-05
1.3080193e-05
1.3493082e-05
1.3802736e-05
1.3929865e-05
1.3778397e-05
1.3325561e-05
5.1399455e-06
5.4965702e-06
5.8469571e-06
6.1632158e-06
6.4281879e-06
6.6543068e-06
6.8717843e-06
7.100965e-06
7.3527212e-06
7.6334433e-06
7.940979e-06
8.2723773e-06
8.6271847e-06
9.0063055e-06
9.4092921e-06
9.8327437e-06
1.0269179e-05
1.0705424e-05
1.1120099e-05
1.1479556e-05
1.1730974e-05
1.1789164e-05
1.1504923e-05
1.0565076e-05
8.0281627e-06
4.4217218e-06
4.7102795e-06
4.9990615e-06
5.2673408e-06
5.5089883e-06
5.7319058e-06
5.9504268e-06
6.1771216e-06
6.4202593e-06
6.6837359e-06
6.9670526e-06
7.2688417e-06
7.5886637e-06
7.9256285e-06
8.2774844e-06
8.6382578e-06
8.9973249e-06
9.337538e-06
9.6325053e-06
9.84246e-06
9.9076765e-06
9.7369872e-06
9.1845792e-06
7.9911918e-06
5.5311141e-06
3.9471688e-06
4.1727719e-06
4.4058929e-06
4.6304425e-06
4.8423421e-06
5.0459127e-06
5.2489848e-06
5.4590023e-06
5.681358e-06
5.9186582e-06
6.1709957e-06
6.4374881e-06
6.717103e-06
7.007792e-06
7.3054436e-06
7.6027653e-06
7.8879155e-06
8.1428142e-06
8.3409229e-06
8.4442381e-06
8.3991001e-06
8.1297736e-06
7.5262295e-06
6.4090089e-06
4.3160476e-06
3.5789733e-06
3.7544163e-06
3.9407035e-06
4.1257735e-06
4.3057116e-06
4.4821678e-06
4.6593271e-06
4.8416804e-06
5.0326817e-06
5.2341199e-06
5.4462388e-06
5.668341e-06
5.8990842e-06
6.1359796e-06
6.3745636e-06
6.6074934e-06
6.8235101e-06
7.0061391e-06
7.1321796e-06
7.1700098e-06
7.0777474e-06
6.8010084e-06
6.2681632e-06
5.3686532e-06
3.7705534e-06
3.2363501e-06
3.3719775e-06
3.5188189e-06
3.6681185e-06
3.8161137e-06
3.9628236e-06
4.1102849e-06
4.2610483e-06
4.4172324e-06
4.5799949e-06
4.7494658e-06
4.9249669e-06
5.1050629e-06
5.2872408e-06
5.4673527e-06
5.6389353e-06
5.7924326e-06
5.9143211e-06
5.9862603e-06
5.9844713e-06
5.8797406e-06
5.6388957e-06
5.2302605e-06
4.6444075e-06
3.9991934e-06
2.8716583e-06
2.9744849e-06
3.0873055e-06
3.2038513e-06
3.3207467e-06
3.4371361e-06
3.5537445e-06
3.6718813e-06
3.7927471e-06
3.917001e-06
4.0446246e-06
4.1749527e-06
4.3066455e-06
4.437485e-06
4.5640167e-06
4.6810893e-06
4.7813364e-06
4.8546663e-06
4.8879035e-06
4.8648476e-06
4.7672718e-06
4.5780429e-06
4.2896208e-06
3.9280028e-06
3.6151973e-06
2.4617502e-06
2.5367321e-06
2.619751e-06
2.7063809e-06
2.7937664e-06
2.8806822e-06
2.9670832e-06
3.0534965e-06
3.1405046e-06
3.228412e-06
3.3170889e-06
3.4059293e-06
3.4938204e-06
3.5790241e-06
3.65898e-06
3.7300352e-06
3.7871574e-06
3.8236996e-06
3.8313538e-06
3.8005335e-06
3.7216036e-06
3.5877979e-06
3.4016469e-06
3.1886331e-06
3.0177284e-06
2.0083282e-06
2.0596586e-06
2.1168787e-06
2.1769272e-06
2.2375201e-06
2.2973802e-06
2.3560733e-06
2.4136519e-06
2.4703066e-06
2.5261116e-06
2.5808809e-06
2.6341217e-06
2.6850135e-06
2.7323685e-06
2.7745485e-06
2.8093529e-06
2.8339093e-06
2.8446256e-06
2.83731e-06
2.8076104e-06
2.7519614e-06
2.6691632e-06
2.5619784e-06
2.4334123e-06
2.2332439e-06
1.5383127e-06
1.5703766e-06
1.6063319e-06
1.6441344e-06
1.682077e-06
1.7190357e-06
1.7544496e-06
1.7881285e-06
1.8200422e-06
1.8501356e-06
1.8782258e-06
1.9039619e-06
1.9268212e-06
1.9461221e-06
1.9610198e-06
1.9704954e-06
1.9733542e-06
1.9682738e-06
1.9539634e-06
1.9294944e-06
1.894788e-06
1.8509447e-06
1.7990047e-06
1.7314189e-06
1.5816279e-06
1.0963107e-06
1.1140147e-06
1.1339855e-06
1.1549336e-06
1.1756864e-06
1.1953856e-06
1.2135102e-06
1.229805e-06
1.2441489e-06
1.2564466e-06
1.266558e-06
1.2742724e-06
1.2793199e-06
1.2814028e-06
1.2802292e-06
1.2755445e-06
1.2671665e-06
1.2550456e-06
1.2393759e-06
1.2207564e-06
1.2003141e-06
1.1794197e-06
1.1579271e-06
1.1277201e-06
1.0436439e-06
7.262705e-07
7.3459716e-07
7.4406051e-07
7.5390795e-07
7.6340848e-07
7.7198278e-07
7.7924171e-07
7.8496528e-07
7.8903453e-07
7.9136876e-07
7.9188688e-07
7.9049206e-07
7.8708542e-07
7.815975e-07
7.740268e-07
7.6447321e-07
7.5316625e-07
7.4049598e-07
7.2705191e-07
7.1365536e-07
7.0130863e-07
6.9081325e-07
6.8150359e-07
6.6780928e-07
6.2833502e-07
4.5159359e-07
4.5473243e-07
4.5835543e-07
4.6205619e-07
4.654208e-07
4.6810174e-07
4.6985182e-07
4.7052253e-07
4.7003216e-07
4.6833395e-07
4.6539548e-07
4.6118984e-07
4.5570527e-07
4.4896803e-07
4.4107158e-07
4.3219952e-07
4.2263649e-07
4.1277169e-07
4.0309032e-07
3.9415117e-07
3.8651194e-07
3.8047252e-07
3.7542422e-07
3.6846243e-07
3.5129207e-07
2.6908407e-07
2.6986738e-07
2.7082234e-07
2.7174819e-07
2.7242851e-07
2.7267531e-07
2.7235034e-07
2.7136808e-07
2.6968338e-07
2.6727635e-07
2.6414053e-07
2.6028024e-07
2.5571463e-07
2.5048423e-07
2.4467958e-07
2.3845206e-07
2.3201537e-07
2.2563535e-07
2.1959947e-07
2.1419443e-07
2.0966462e-07
2.0609646e-07
2.0316465e-07
1.9975711e-07
1.9349684e-07
1.5900002e-07
1.5898074e-07
1.5900402e-07
1.5897661e-07
1.5879566e-07
1.5836824e-07
1.5762559e-07
1.5652524e-07
1.5504659e-07
1.5318445e-07
1.5094326e-07
1.4833601e-07
1.4538522e-07
1.4212856e-07
1.3861691e-07
1.3494899e-07
1.3126074e-07
1.2770242e-07
1.2440474e-07
1.2149036e-07
1.1904832e-07
1.1710767e-07
1.1554036e-07
1.1400415e-07
1.1194325e-07
9.7793664e-08
9.7635229e-08
9.7485993e-08
9.7305218e-08
9.7046234e-08
9.6665587e-08
9.6130525e-08
9.5420887e-08
9.4527621e-08
9.3449511e-08
9.2190737e-08
9.0759612e-08
8.9169593e-08
8.7442838e-08
8.5605327e-08
8.3709021e-08
8.1823774e-08
8.003228e-08
7.8427942e-08
7.7063735e-08
7.5917881e-08
7.5004314e-08
7.427573e-08
7.3618819e-08
7.286169e-08
6.5895656e-08
6.5813469e-08
6.5742104e-08
6.5664326e-08
6.5559249e-08
6.5406796e-08
6.5191139e-08
6.4901822e-08
6.4533388e-08
6.4083843e-08
6.3553595e-08
6.2945177e-08
6.2264186e-08
6.1521057e-08
6.073224e-08
5.9919217e-08
5.9117542e-08
5.8368003e-08
5.7715417e-08
5.720717e-08
5.6792038e-08
5.6466589e-08
5.6207204e-08
5.5959081e-08
5.5617266e-08
5.0460165e-08
5.0486304e-08
5.0532244e-08
5.0590483e-08
5.0651178e-08
5.0704282e-08
5.074107e-08
5.0754705e-08
5.0740191e-08
5.0693947e-08
5.0613508e-08
5.0497765e-08
5.03477e-08
5.0167386e-08
4.9964988e-08
4.9748981e-08
4.953638e-08
4.9346973e-08
4.9203059e-08
4.9132222e-08
4.9097633e-08
4.9080591e-08
4.9063606e-08
4.9008381e-08
4.8832345e-08
4.3824536e-08
4.3932529e-08
4.4067505e-08
4.4225552e-08
4.440112e-08
4.4588021e-08
4.4780133e-08
4.4971748e-08
4.5157703e-08
4.5333399e-08
4.5494931e-08
4.5639429e-08
4.576555e-08
4.5873999e-08
4.5967812e-08
4.6052006e-08
4.6132204e-08
4.6218798e-08
4.6323542e-08
4.6462842e-08
4.6611623e-08
4.6743804e-08
4.6843297e-08
4.6876463e-08
4.6765021e-08
4.1694154e-08
4.1849361e-08
4.2035089e-08
4.2248497e-08
4.2485504e-08
4.2741271e-08
4.3010602e-08
4.3288206e-08
4.3568911e-08
4.3847854e-08
4.4120728e-08
4.4384092e-08
4.4635717e-08
4.4874888e-08
4.5102566e-08
4.53214e-08
4.5533003e-08
4.5743179e-08
4.59587e-08
4.6190186e-08
4.6419191e-08
4.6617339e-08
4.6768402e-08
4.6840059e-08
4.6755764e-08
4.1775998e-08
4.1951528e-08
4.2158068e-08
4.2393006e-08
4.2652743e-08
4.2932986e-08
4.3229009e-08
4.3535892e-08
4.384874e-08
4.4162904e-08
4.4474238e-08
4.4779358e-08
4.5075895e-08
4.5362712e-08
4.5640017e-08
4.5909403e-08
4.6171364e-08
4.6429395e-08
4.6687845e-08
4.6954081e-08
4.7212977e-08
4.7436353e-08
4.7606953e-08
4.7691666e-08
4.7612661e-08
4.2895984e-08
4.3074955e-08
4.3283564e-08
4.3519253e-08
4.3778682e-08
4.4057923e-08
4.4352673e-08
4.465846e-08
4.4970833e-08
4.5285576e-08
4.5598933e-08
4.5907831e-08
4.6210092e-08
4.6504597e-08
4.679135e-08
4.7071366e-08
4.7346187e-08
4.7617046e-08
4.7887226e-08
4.8162016e-08
4.842791e-08
4.86578e-08
4.8832942e-08
4.8918152e-08
4.8832942e-08
4.4477838e-08
4.4651225e-08
4.4852037e-08
4.5077804e-08
4.5325426e-08
4.5591337e-08
4.5871665e-08
4.6162411e-08
4.6459618e-08
4.6759548e-08
4.705889e-08
4.7354958e-08
4.7645884e-08
4.793076e-08
4.8209698e-08
4.8483732e-08
4.8754588e-08
4.9023144e-08
4.9291719e-08
4.9564015e-08
4.9827329e-08
5.005576e-08
5.0228913e-08
5.0309e-08
5.0211524e-08
4.6251739e-08
4.6415505e-08
4.6604287e-08
4.6815746e-08
4.7047041e-08
4.7294956e-08
4.7556037e-08
4.782673e-08
4.8103539e-08
4.8383181e-08
4.8662768e-08
4.8939997e-08
4.9213336e-08
4.9482161e-08
4.9746805e-08
5.0008437e-08
5.0268746e-08
5.0529376e-08
5.0791263e-08
5.1056963e-08
5.1314209e-08
5.1538188e-08
5.1706916e-08
5.1780202e-08
5.1668657e-08
4.8097824e-08
4.825065e-08
4.8426198e-08
4.8622285e-08
4.8836317e-08
4.9065405e-08
4.9306466e-08
4.9556343e-08
4.981194e-08
5.0070373e-08
5.0329134e-08
5.0586277e-08
5.0840599e-08
5.1091778e-08
5.1340411e-08
5.1587888e-08
5.1836045e-08
5.2086669e-08
5.234025e-08
5.259823e-08
5.2848538e-08
5.3067224e-08
5.3230766e-08
5.3296709e-08
5.3171074e-08
4.9965614e-08
5.0107468e-08
5.0269973e-08
5.0451104e-08
5.0648495e-08
5.085954e-08
5.1081476e-08
5.1311485e-08
5.1546815e-08
5.1784925e-08
5.202364e-08
5.2261338e-08
5.2497128e-08
5.2730985e-08
5.2963785e-08
5.3197159e-08
5.3433116e-08
5.3673492e-08
5.3918644e-08
5.4168991e-08
5.4412544e-08
5.4625969e-08
5.4784181e-08
5.4842191e-08
5.4699382e-08
5.1834568e-08
5.1965931e-08
5.2116108e-08
5.2283218e-08
5.2465102e-08
5.2659396e-08
5.2863607e-08
5.3075207e-08
5.3291737e-08
5.3510951e-08
5.3730967e-08
5.3950457e-08
5.4168819e-08
5.4386318e-08
5.4604105e-08
5.4824053e-08
5.5048336e-08
5.5278757e-08
5.5515995e-08
5.5759232e-08
5.5996584e-08
5.6205161e-08
5.6358384e-08
5.6408792e-08
5.6250941e-08
5.3695817e-08
5.381732e-08
5.3956e-08
5.4110114e-08
5.4277682e-08
5.4456551e-08
5.4644458e-08
5.4839119e-08
5.5038332e-08
5.5240104e-08
5.544282e-08
5.5645414e-08
5.5847557e-08
5.6049787e-08
5.6253526e-08
5.6460893e-08
5.6674245e-08
5.6895462e-08
5.7125163e-08
5.7361842e-08
5.7593603e-08
5.7797844e-08
5.7946608e-08
5.7989984e-08
5.7817238e-08
5.5544225e-08
5.5656499e-08
5.5784479e-08
5.592655e-08
5.6080892e-08
5.6245533e-08
5.6418411e-08
5.6597455e-08
5.6780683e-08
5.6966334e-08
5.7153024e-08
5.7339935e-08
5.7526989e-08
5.7714987e-08
5.7905611e-08
5.8101222e-08
5.8304367e-08
5.851701e-08
5.8739652e-08
5.8970315e-08
5.9197024e-08
5.9397343e-08
5.9542068e-08
5.9579071e-08
5.9392268e-08
5.7375197e-08
5.7478822e-08
5.759682e-08
5.7727693e-08
5.7869762e-08
5.8021218e-08
5.8180175e-08
5.8344749e-08
5.8513155e-08
5.8683837e-08
5.8855627e-08
5.9027931e-08
5.920091e-08
5.9375613e-08
5.9553973e-08
5.9738586e-08
5.9932185e-08
6.0136803e-08
6.0352784e-08
6.057796e-08
6.080003e-08
6.0996635e-08
6.1137406e-08
6.1168455e-08
6.0971788e-08
5.918352e-08
5.9279025e-08
5.9387682e-08
5.9508101e-08
5.9638733e-08
5.9777911e-08
5.9923909e-08
6.0075012e-08
6.0229611e-08
6.0386337e-08
6.0544219e-08
6.0702871e-08
6.0862681e-08
6.1024932e-08
6.1191799e-08
6.1366104e-08
6.1550759e-08
6.1747884e-08
6.1957719e-08
6.2177696e-08
6.2395379e-08
6.2588274e-08
6.2724741e-08
6.2748771e-08
6.2538739e-08
6.0963045e-08
6.1050915e-08
6.1150811e-08
6.1261443e-08
6.138138e-08
6.1509088e-08
6.1642981e-08
6.1781498e-08
6.1923193e-08
6.2066866e-08
6.221173e-08
6.2357594e-08
6.2505055e-08
6.2655623e-08
6.28117e-08
6.2976326e-08
6.3152588e-08
6.3342686e-08
6.3546769e-08
6.3761847e-08
6.397533e-08
6.4164443e-08
6.4296179e-08
6.4312152e-08
6.4085727e-08
6.2706676e-08
6.2787365e-08
6.2879036e-08
6.2980494e-08
6.3090415e-08
6.3207386e-08
6.3329954e-08
6.3456693e-08
6.3586308e-08
6.3717755e-08
6.3850418e-08
6.3984289e-08
6.4120163e-08
6.4259759e-08
6.4405698e-08
6.4561227e-08
6.4729597e-08
6.4913084e-08
6.5111744e-08
6.5322184e-08
6.553162e-08
6.5716897e-08
6.5843597e-08
6.5850718e-08
6.5605363e-08
6.4406469e-08
6.4480412e-08
6.4564369e-08
6.4657231e-08
6.4757775e-08
6.4864699e-08
6.4976669e-08
6.5092388e-08
6.5210696e-08
6.5330698e-08
6.5451931e-08
6.5574561e-08
6.5699567e-08
6.5828866e-08
6.5965285e-08
6.6112262e-08
6.62732e-08
6.6450444e-08
6.6643955e-08
6.6849956e-08
6.7055442e-08
6.7236811e-08
6.735826e-08
6.735631e-08
6.7092805e-08
6.6053788e-08
6.6121415e-08
6.6198155e-08
6.6282983e-08
6.6374767e-08
6.6472309e-08
6.6574383e-08
6.6679812e-08
6.6787562e-08
6.689687e-08
6.7007422e-08
6.711954e-08
6.7234375e-08
6.7354029e-08
6.7481519e-08
6.7620458e-08
6.7774392e-08
6.7945717e-08
6.8134297e-08
6.8335976e-08
6.8537552e-08
6.8714897e-08
6.8830903e-08
6.8819785e-08
6.8537243e-08
6.7639508e-08
6.7701248e-08
6.7771268e-08
6.7848619e-08
6.7932257e-08
6.8021073e-08
6.8113948e-08
6.820981e-08
6.8307741e-08
6.8407102e-08
6.8507713e-08
6.861004e-08
6.8715394e-08
6.8826045e-08
6.8945181e-08
6.9076578e-08
6.92239e-08
6.9389588e-08
6.9573403e-08
6.9770849e-08
6.9968444e-08
7.0141601e-08
7.0252027e-08
7.0231783e-08
6.9927622e-08
6.9154259e-08
6.9210552e-08
6.9274359e-08
6.9344801e-08
6.9420911e-08
6.950167e-08
6.9586049e-08
6.9673075e-08
6.9761935e-08
6.9852104e-08
6.9943522e-08
7.0036788e-08
7.0133354e-08
7.0235643e-08
7.0346992e-08
7.0471318e-08
7.0612388e-08
7.0772666e-08
7.0951815e-08
7.1145015e-08
7.1338488e-08
7.150725e-08
7.1612018e-08
7.1583152e-08
7.1263001e-08
7.0588742e-08
7.0640044e-08
7.0698161e-08
7.0762277e-08
7.08315e-08
7.0904886e-08
7.0981492e-08
7.1060433e-08
7.1140992e-08
7.1222745e-08
7.1305739e-08
7.1390691e-08
7.1479177e-08
7.1573749e-08
7.1677874e-08
7.1795581e-08
7.1930715e-08
7.2085748e-08
7.2260237e-08
7.2449068e-08
7.2638152e-08
7.280217e-08
7.2900953e-08
7.2863245e-08
7.2523586e-08
7.1934046e-08
7.1980832e-08
7.2033802e-08
7.20922e-08
7.2155198e-08
7.2221924e-08
7.2291506e-08
7.2363142e-08
7.2436197e-08
7.2510336e-08
7.2585702e-08
7.2663109e-08
7.274424e-08
7.2831752e-08
7.2929213e-08
7.3040732e-08
7.3170199e-08
7.3320074e-08
7.3489802e-08
7.3674002e-08
7.3858242e-08
7.4016955e-08
7.4109183e-08
7.4062204e-08
7.3706766e-08
7.3181896e-08
7.322466e-08
7.3273049e-08
7.332636e-08
7.338382e-08
7.344462e-08
7.3507955e-08
7.3573092e-08
7.3639468e-08
7.3706825e-08
7.3775384e-08
7.3846042e-08
7.3920562e-08
7.400168e-08
7.4093029e-08
7.4198764e-08
7.4322782e-08
7.4467499e-08
7.4632236e-08
7.4811372e-08
7.499007e-08
7.514266e-08
7.5227526e-08
7.5170641e-08
7.4799022e-08
7.4324661e-08
7.4363913e-08
7.4408302e-08
7.4457171e-08
7.4509798e-08
7.4565427e-08
7.4623311e-08
7.4682774e-08
7.4743316e-08
7.4804741e-08
7.4867332e-08
7.4932051e-08
7.5000715e-08
7.5076108e-08
7.5161889e-08
7.5262213e-08
7.5380943e-08
7.5520408e-08
7.567978e-08
7.5853197e-08
7.6025383e-08
7.6170758e-08
7.6247338e-08
7.6180573e-08
7.5796299e-08
7.5354917e-08
7.539117e-08
7.5432145e-08
7.5477221e-08
7.5525722e-08
7.5576936e-08
7.5630163e-08
7.568478e-08
7.5740333e-08
7.5796677e-08
7.5854142e-08
7.5913729e-08
7.5977289e-08
7.6047614e-08
7.6128351e-08
7.6223606e-08
7.6337157e-08
7.6471208e-08
7.6624683e-08
7.6791409e-08
7.6955838e-08
7.7092601e-08
7.7159702e-08
7.708337e-08
7.6697921e-08
7.6264321e-08
7.629808e-08
7.6336211e-08
7.6378127e-08
7.6423185e-08
7.6470714e-08
7.6520056e-08
7.6570626e-08
7.6622009e-08
7.6674096e-08
7.6727247e-08
7.6782483e-08
7.684166e-08
7.6907546e-08
7.6983729e-08
7.7074217e-08
7.7182701e-08
7.7311205e-08
7.7458165e-08
7.7616647e-08
7.7771825e-08
7.7898266e-08
7.7954115e-08
7.7866053e-08
7.7465459e-08
7.7041498e-08
7.7073243e-08
7.710907e-08
7.7148414e-08
7.7190663e-08
7.7235182e-08
7.7281347e-08
7.7328606e-08
7.7376572e-08
7.7425159e-08
7.7474741e-08
7.7526343e-08
7.7581801e-08
7.7643819e-08
7.7715882e-08
7.7801832e-08
7.7905059e-08
7.8027235e-08
7.8166572e-08
7.8315881e-08
7.8460351e-08
7.8574646e-08
7.8617302e-08
7.8515624e-08
7.8100903e-08
7.7664379e-08
7.7694573e-08
7.7728626e-08
7.7765981e-08
7.7806049e-08
7.7848218e-08
7.7891902e-08
7.7936574e-08
7.7981866e-08
7.8027707e-08
7.8074471e-08
7.8123172e-08
7.8175602e-08
7.8234346e-08
7.8302743e-08
7.8384441e-08
7.848255e-08
7.8598352e-08
7.8729689e-08
7.8869038e-08
7.9001505e-08
7.9101986e-08
7.9129734e-08
7.9013383e-08
7.8585921e-08
7.80987e-08
7.8127783e-08
7.8160575e-08
7.8196509e-08
7.8235001e-08
7.8275412e-08
7.8317214e-08
7.8359908e-08
7.8403124e-08
7.8446857e-08
7.8491454e-08
7.8537915e-08
7.8587977e-08
7.8643996e-08
7.8709154e-08
7.8786902e-08
7.8880116e-08
7.8989673e-08
7.9113009e-08
7.924201e-08
7.9361674e-08
7.9447282e-08
7.9459241e-08
7.9328904e-08
7.8899828e-08
7.8275718e-08
7.8304126e-08
7.8336202e-08
7.8371354e-08
7.8408986e-08
7.8448219e-08
7.8488646e-08
7.8529797e-08
7.8571258e-08
7.8613358e-08
7.8656358e-08
7.8701243e-08
7.8749683e-08
7.8803586e-08
7.8866149e-08
7.8940386e-08
7.9029362e-08
7.9133496e-08
7.9250107e-08
7.9369379e-08
7.9476488e-08
7.9547433e-08
7.954432e-08
7.9402818e-08
7.8977822e-08
7.8010626e-08
7.8038797e-08
7.8070791e-08
7.8106057e-08
7.8144003e-08
7.8182808e-08
7.8222327e-08
7.8262096e-08
7.8301491e-08
7.834223e-08
7.8384255e-08
7.8428475e-08
7.8476492e-08
7.852949e-08
7.8592198e-08
7.866408e-08
7.8751013e-08
7.8853781e-08
7.8971217e-08
7.9083461e-08
7.9179854e-08
7.9238305e-08
7.9223291e-08
7.907645e-08
7.8683789e-08
)
;

boundaryField
{
    Walls
    {
        type            nutUWallFunction;
        Cmu             0.09;
        kappa           0.41;
        E               9.8;
        value           uniform 0;
    }
    Inlet
    {
        type            calculated;
        value           nonuniform List<scalar> 3(5.5552672e-05 2.6694112e-05 8.1041637e-07);
    }
    Outlet
    {
        type            calculated;
        value           nonuniform List<scalar> 
86
(
7.7939006e-08
7.7943338e-08
7.7952934e-08
7.796748e-08
7.7986775e-08
7.8010626e-08
7.8038797e-08
7.8070791e-08
7.8106057e-08
7.8144003e-08
7.8182808e-08
7.8222327e-08
7.8262096e-08
7.8301491e-08
7.834223e-08
7.8384255e-08
7.8428475e-08
7.8476492e-08
7.852949e-08
7.8592198e-08
7.866408e-08
7.8751013e-08
7.8853781e-08
7.8971217e-08
7.9083461e-08
7.9179854e-08
7.9238305e-08
7.9223291e-08
7.907645e-08
7.8683789e-08
1.4217992e-05
1.4746115e-05
1.3325561e-05
0
0
0
0
3.9991934e-06
3.6151973e-06
3.0177284e-06
2.2332439e-06
1.5816279e-06
1.0436439e-06
6.2833502e-07
3.5129207e-07
1.9349684e-07
1.1194325e-07
7.286169e-08
5.5617266e-08
4.8832345e-08
4.6765021e-08
4.6755764e-08
4.7612661e-08
4.8832942e-08
5.0211524e-08
5.1668657e-08
5.3171074e-08
5.4699382e-08
5.6250941e-08
5.7817238e-08
5.9392268e-08
6.0971788e-08
6.2538739e-08
6.4085727e-08
6.5605363e-08
6.7092805e-08
6.8537243e-08
6.9927622e-08
7.1263001e-08
7.2523586e-08
7.3706766e-08
7.4799022e-08
7.5796299e-08
7.6697921e-08
7.7465459e-08
7.8100903e-08
7.8585921e-08
7.8899828e-08
7.8977822e-08
7.8683789e-08
0
0
0
0
1.3114765e-05
1.4742002e-05
)
;
    }
    Front
    {
        type            wedge;
    }
    Back
    {
        type            wedge;
    }
    defaultFaces
    {
        type            empty;
    }
}


// ************************************************************************* //
