/*--------------------------------*- C++ -*----------------------------------*\
| =========                 |                                                 |
| \\      /  F ield         | OpenFOAM: The Open Source CFD Toolbox           |
|  \\    /   O peration     | Version:  4.0                                   |
|   \\  /    A nd           | Web:      www.OpenFOAM.org                      |
|    \\/     M anipulation  |                                                 |
\*---------------------------------------------------------------------------*/
FoamFile
{
    version     2.0;
    format      ascii;
    class       volScalarField;
    location    "0.3";
    object      p;
}
// * * * * * * * * * * * * * * * * * * * * * * * * * * * * * * * * * * * * * //

dimensions      [0 2 -2 0 0 0 0];

internalField   nonuniform List<scalar> 
1740
(
491.38414
491.42396
491.46012
474.05024
474.22648
474.50501
457.05154
457.36108
457.93407
441.22507
441.40295
441.73699
425.66545
425.51333
425.24582
409.58177
409.38672
408.89148
393.6344
393.4649
393.18069
377.79981
377.69367
377.52354
361.73302
361.79634
361.88208
345.61451
345.69335
346.09624
329.3232
329.4622
329.53311
312.88456
313.08627
312.91566
296.43913
296.45548
296.69182
279.73972
279.53998
279.98841
263.01805
263.03707
263.15212
246.21914
246.63797
246.29888
229.40539
229.73078
229.43938
213.22689
213.30294
213.40956
197.331
197.35982
197.47246
180.8029
180.59522
180.80349
163.71528
163.46092
163.77046
147.24419
147.11479
147.12368
130.83622
130.73287
130.47007
113.62279
113.54419
113.34389
96.601824
96.515631
96.320095
80.034327
79.972767
79.701386
63.235115
63.24462
63.161116
46.651478
46.791771
46.679437
31.212543
31.24202
31.052059
16.760333
16.38776
16.135507
4.5080559
3.8128512
2.0475712
-0.39606379
-0.35652406
-0.14028064
0.0011872532
0.012424274
0.049421467
0.084795957
0.090079153
0.10362496
0.083741438
0.087517338
0.093665942
0.074528422
0.076445357
0.078748632
0.064052602
0.064998515
0.065932611
0.054937047
0.055311764
0.055517389
0.047438074
0.047512761
0.047373786
0.041484462
0.041430441
0.041157177
0.036633103
0.036523944
0.036202311
0.032427679
0.032298939
0.03197143
0.028705021
0.02857633
0.028270864
0.025411323
0.025291415
0.025016379
0.022501633
0.022393629
0.022150434
0.019945544
0.019849785
0.019636595
0.017709138
0.017624805
0.017438418
0.015753203
0.015679179
0.015516261
0.014038578
0.013973626
0.01383102
0.012530763
0.012473697
0.012348598
0.011201541
0.011151325
0.011041368
0.010028136
0.0099838916
0.0098870951
0.0089916203
0.0089525967
0.0088672751
0.008075641
0.0080411903
0.0079658901
0.0072657752
0.0072353178
0.0071687549
0.0065490017
0.0065220328
0.0064630953
0.0059137399
0.0058898144
0.0058375305
0.0053496625
0.0053284004
0.0052819327
0.0048476149
0.0048286836
0.0047873057
0.0043994766
0.0043825876
0.0043456698
0.0039980551
0.0039829581
0.0039499576
0.0036369856
0.0036234669
0.0035939171
0.0033106571
0.0032985325
0.0032720345
0.0030141431
0.0030032544
0.0029794683
0.0027431379
0.0027333517
0.0027119893
0.0024938879
0.0024851074
0.0024659158
0.0022631583
0.0022552829
0.0022380563
0.0020481385
0.0020410845
0.0020256486
0.0018464059
0.0018401048
0.0018263126
0.0016558789
0.0016502738
0.0016380024
0.0014747697
0.0014698133
0.0014589602
0.0013015401
0.0012971932
0.0012876731
0.0011348628
0.0011310928
0.0011228352
0.00097358871
0.00097036913
0.00096331625
0.00081672163
0.00081403094
0.00080813612
0.00066340075
0.00066122181
0.00065644783
0.00051289272
0.0005112121
0.00050752984
0.00036459681
0.0003634043
0.00036079149
0.00021805193
0.0002173397
0.00021577936
7.2524106e-05
7.2287217e-05
7.1768694e-05
-1.0519933
-0.74777405
-0.11694655
-0.093660399
0.051929041
0.035310615
0.098541993
0.083059479
0.092517307
0.085200466
0.077865319
0.073808755
0.06505906
0.062275646
0.054693802
0.052688299
0.046596326
0.045057827
0.040442015
0.039198936
0.035557293
0.03453227
0.031392532
0.03053381
0.027764278
0.027043857
0.02457674
0.02396764
0.021770283
0.021252796
0.019308118
0.018865609
0.017153733
0.016773129
0.015268798
0.014939584
0.01361515
0.013328818
0.012159658
0.011909577
0.010875573
0.010656475
0.0097413134
0.0095488757
0.008738866
0.0085694606
0.0078526034
0.0077031593
0.0070686224
0.0069365325
0.0063744287
0.0062574433
0.0057588634
0.0056550428
0.0052120019
0.0051196747
0.0047250204
0.0046427561
0.0042900849
0.0042166439
0.0039002574
0.003834565
0.0035494011
0.0034905364
0.003232104
0.0031792813
0.0029436133
0.0028961638
0.0026797754
0.0026371286
0.0024369735
0.0023986448
0.0022120729
0.002177652
0.0020023616
0.0019715039
0.0018055019
0.0017779183
0.0016194836
0.0015949323
0.0014425795
0.0014208585
0.0012733025
0.0012542435
0.001110369
0.0010938331
0.00095266782
0.00093854116
0.00079923549
0.00078742624
0.00064923924
0.00063967419
0.00050196957
0.0004945913
0.00035684589
0.00035160993
0.0002134227
0.00021029508
7.0985364e-05
6.9945728e-05
0.054004488
0.052853847
0.050875686
0.048418614
0.045700036
0.042859148
0.039966438
0.037065213
0.03418509
0.031352475
0.028590126
0.02591538
0.023343525
0.020889163
0.018550824
0.01632615
0.01421292
0.012207548
0.010304955
0.0084989211
0.0067830535
0.0051499939
0.003592007
0.0021023821
0.00067635116
0.055169323
0.053873069
0.051658483
0.048962512
0.046029961
0.042992331
0.039911804
0.036831497
0.033784831
0.030807133
0.0279305
0.025176464
0.022556032
0.020070716
0.017724681
0.015516693
0.013444908
0.011504379
0.009681314
0.007964895
0.0063460219
0.0048131085
0.0033558282
0.0019678825
0.00064175267
0.053910939
0.052212277
0.049523384
0.046317522
0.042761463
0.039004534
0.035180566
0.031411761
0.027869264
0.024605111
0.021636114
0.018950897
0.016528514
0.014344769
0.012382893
0.010623961
0.0090436508
0.0076174884
0.0063299176
0.0051632674
0.0040981557
0.0031134343
0.002191403
0.0013158194
0.00046074946
0.043336441
0.040752672
0.0367398
0.031944268
0.026950964
0.022247823
0.018096271
0.014582312
0.011625226
0.0091592714
0.0071385988
0.0054844584
0.0041386411
0.0030637562
0.0022214354
0.0015747215
0.001090755
0.00074135062
0.0005012458
0.00034640775
0.00024712339
0.00018595125
0.00015242947
0.00012927345
7.7630506e-05
0.00072981627
-0.0028295591
-0.0074806418
-0.010320467
-0.012298599
-0.013260438
-0.013491682
-0.013195967
-0.012521426
-0.011620357
-0.010594627
-0.0095435397
-0.0084663553
-0.0072332972
-0.0060966762
-0.0050854189
-0.0042014411
-0.0034400793
-0.0027905858
-0.00223673
-0.0017526697
-0.0013220544
-0.00093626417
-0.00057884735
-0.00023867592
-0.14841158
-0.11299813
-0.099818175
-0.076388083
-0.057464523
-0.040953138
-0.027161747
-0.016257164
-0.0078588739
-0.0014954947
0.0031767599
0.0064647676
0.0086272915
0.0098168251
0.010392667
0.010442414
0.010080131
0.009398928
0.0084708334
0.0073545259
0.0060998867
0.0047533064
0.0033505016
0.0019285677
0.00048024903
-0.22025538
-0.039924486
-0.0058938321
0.019245825
0.043790599
0.063169574
0.074172654
0.077522406
0.076196812
0.072602866
0.06786547
0.062533311
0.05691608
0.051241424
0.04566482
0.040276027
0.03512328
0.030223222
0.02557112
0.021149369
0.016932383
0.012893461
0.0089988657
0.0052307544
0.0014959677
-0.08386436
-0.080536229
-0.07058675
-0.056874073
-0.042325617
-0.02890052
-0.017524563
-0.0084989741
-0.0016231737
0.0035036197
0.0071524961
0.0096041587
0.011103075
0.011884296
0.01208942
0.011833556
0.011220089
0.010329261
0.0092245488
0.0079577032
0.0065717011
0.0051050962
0.0035905538
0.0020644051
0.00051663295
0.014681701
0.0010101431
-0.0075897359
-0.012793434
-0.015574667
-0.016671982
-0.016796016
-0.016256695
-0.01527035
-0.014093351
-0.012784384
-0.011309475
-0.0098193568
-0.0084254812
-0.0071604839
-0.0060378336
-0.0050288613
-0.0041365667
-0.0033580037
-0.0026826305
-0.0020964271
-0.0015828231
-0.001124694
-0.0006994474
-0.00028828209
0.066197907
0.052163325
0.040345898
0.030670887
0.02292078
0.016821077
0.012013459
0.0082754757
0.0054068379
0.0032137157
0.0015575654
0.00032647097
-0.00055608299
-0.0011531389
-0.0015223351
-0.0017064971
-0.0017707036
-0.0017353934
-0.0016157654
-0.0014279149
-0.0011874664
-0.00091024713
-0.00061338984
-0.00031658022
-6.3692417e-05
0.07536325
0.065749646
0.057254781
0.049537193
0.042535294
0.036312639
0.030888384
0.02623058
0.022260537
0.018878823
0.015996829
0.013531194
0.011416476
0.0096066155
0.0080536541
0.0067240419
0.0055827599
0.004600987
0.0037538282
0.0030189678
0.0023756212
0.0018034494
0.0012821502
0.00079234396
0.00030009824
0.067834577
0.061401622
0.05542128
0.050032762
0.045147797
0.040622993
0.036441364
0.032569084
0.029010048
0.025761607
0.022811767
0.020131826
0.01768215
0.015489661
0.013499414
0.011687872
0.010034013
0.0085189587
0.0071243974
0.0058336193
0.0046316017
0.0035047889
0.002441597
0.0014344191
0.00047534311
0.058252277
0.053753409
0.049287087
0.045077459
0.041140145
0.03751557
0.034157342
0.031024958
0.028092123
0.025352821
0.022797184
0.02042771
0.018251246
0.016222028
0.014325839
0.012554365
0.010895417
0.0093368752
0.0078682515
0.006480389
0.0051651805
0.0039155489
0.0027255645
0.0015914639
0.00051194229
0.049798607
0.046473779
0.043063468
0.039755989
0.036614004
0.033660004
0.03088679
0.028268739
0.025785783
0.023424441
0.021189013
0.019083812
0.017107233
0.015233382
0.013482794
0.011840881
0.010295739
0.0088381829
0.0074598214
0.006153585
0.0049129615
0.0037318289
0.002604452
0.0015254144
0.00049038595
0.04290074
0.040381197
0.037729789
0.035092018
0.032536794
0.030091015
0.027764746
0.025550431
0.023436252
0.021412986
0.019479701
0.01763557
0.015880258
0.014207262
0.012621672
0.011119476
0.0096948372
0.0083424854
0.0070559238
0.0058310293
0.0046631623
0.0035476633
0.0024799635
0.0014553067
0.00046876378
0.037503905
0.035512139
0.033381727
0.031224678
0.029101745
0.027042081
0.025060923
0.023160854
0.021338554
0.019588839
0.017907138
0.016290998
0.014738528
0.013247678
0.011819957
0.010454031
0.009147073
0.0078960119
0.006698141
0.0055496856
0.0044478671
0.0033895504
0.0023718983
0.0013928689
0.00044888063
0.033160321
0.031546629
0.029800041
0.028003719
0.026210834
0.024450097
0.022739745
0.021087673
0.019495419
0.017960637
0.016480056
0.015050598
0.013669383
0.01233537
0.011047775
0.0098060212
0.0086084228
0.0074533024
0.0063399813
0.0052665465
0.0042309911
0.0032315294
0.0022660588
0.0013334358
0.00043194741
0.029419102
0.028105295
0.026665324
0.025161311
0.023637923
0.022125886
0.020643057
0.019199162
0.017798275
0.016441371
0.015127024
0.013853096
0.012617184
0.011417506
0.01025292
0.0091232438
0.0080277496
0.006965864
0.0059370735
0.0049402655
0.0039744992
0.0030389359
0.0021327386
0.0012555276
0.00040623732
0.026123422
0.025040933
0.023845076
0.022580941
0.02128459
0.019983457
0.018694966
0.017430104
0.016194598
0.01499077
0.013819208
0.012679405
0.011570095
0.010489436
0.0094369091
0.0084118154
0.0074137183
0.0064424272
0.0054980029
0.00458009
0.0036882485
0.0028221469
0.0019815448
0.0011668441
0.00037807063
0.023199399
0.022297349
0.021295126
0.020226045
0.019119196
0.017997083
0.016875662
0.015766155
0.014675156
0.013606
0.01256078
0.011539985
0.010543315
0.0095702258
0.008620224
0.0076928213
0.006787658
0.0059045849
0.0050436813
0.0042050041
0.0033884956
0.0025941927
0.0018221499
0.0010734439
0.0003489277
0.020605603
0.01984681
0.019000001
0.018090749
0.017141774
0.016171569
0.015194053
0.014219457
0.013254739
0.012304641
0.011371785
0.010457531
0.0095624611
0.0086867004
0.007830212
0.0069927219
0.0061740458
0.0053741448
0.0045931893
0.0038313382
0.0030887262
0.0023655858
0.001662237
0.00097969515
0.00031824848
0.01831595
0.017672244
0.016951858
0.016173757
0.015355809
0.014513391
0.013658889
0.012801243
0.011947577
0.01110267
0.01026966
0.0094506222
0.0086467697
0.0078587482
0.0070868138
0.0063311016
0.0055916954
0.0048686981
0.0041623129
0.0034727612
0.0028002876
0.0021451947
0.0015077988
0.00088879402
0.0002882516
0.016302575
0.015751996
0.015134287
0.014463938
0.013755085
0.013020531
0.012271008
0.011514673
0.010758045
0.010005995
0.0092618585
0.0085279624
0.0078058281
0.0070965264
0.0064007731
0.0057190414
0.0050516512
0.0043988325
0.003760855
0.003137987
0.002530513
0.0019387254
0.0013628465
0.00080321611
0.00026015476
0.014533594
0.014058729
0.013525025
0.012943793
0.012326364
0.011683325
0.011023822
0.010355259
0.0096835364
0.0090133384
0.0083480448
0.0076900997
0.0070412465
0.0064027874
0.0057757368
0.0051607986
0.0045584704
0.0039692087
0.0033933474
0.002831175
0.0022829768
0.0017490049
0.0012294197
0.00072449583
0.00023471104
0.012976329
0.012564063
0.012100112
0.011593506
0.011053398
0.010488542
0.009906714
0.0093144908
0.0087172234
0.0081192583
0.0075239219
0.0069337224
0.006350548
0.0057758222
0.0052106963
0.0046560072
0.0041124445
0.0035805544
0.0030607616
0.0025533922
0.0020587142
0.001576953
0.0011082322
0.0006531168
0.00021179418
0.011602105
0.011242523
0.010837391
0.010394016
0.0099198953
0.0094222935
0.0089078448
0.0083823214
0.0078505438
0.0073164997
0.0067833868
0.0062536843
0.0057293353
0.0052118778
0.0047024963
0.0042021228
0.003711536
0.0032313432
0.0027620088
0.0023039102
0.0018573273
0.0014224924
0.00099955877
0.00058902904
0.00019110485
0.010387367
0.010072635
0.0097176315
0.0093283359
0.0089109475
0.0084715419
0.0080157959
0.007548756
0.0070747576
0.0065974096
0.0061197245
0.0056441103
0.0051724951
0.004706427
0.0042471325
0.0037956174
0.0033526705
0.002918934
0.0024949052
0.0020809885
0.0016774913
0.0012846547
0.00090262483
0.00053191373
0.00017268303
0.0093126736
0.0090363614
0.0087243904
0.0083816568
0.0080133212
0.0076245232
0.0072201031
0.0068044804
0.0063815187
0.0059545032
0.0055262047
0.0050989347
0.0046745559
0.0042545852
0.003840254
0.0034325758
0.0030323627
0.0026402644
0.0022568145
0.001882424
0.0015174208
0.0011620614
0.00081649655
0.00048119375
0.000156301
0.008361579
0.0081183163
0.0078434087
0.0075409578
0.007215231
0.0068705624
0.0065111301
0.0061407808
0.0057629373
0.0053805876
0.0049962788
0.0046121636
0.0042300273
0.0038513407
0.0034773016
0.0031089025
0.0027469555
0.0023921256
0.0020449491
0.0017058485
0.0013751688
0.0010531843
0.00074005252
0.00043620279
0.00014176988
0.0075197452
0.0073049986
0.0070621484
0.0067945448
0.0065059216
0.0061997973
0.0058798315
0.0055494015
0.0052114701
0.0048687432
0.0045235644
0.0041779356
0.0038335211
0.0034917479
0.0031537504
0.0028204983
0.0024927859
0.0021712725
0.0018564885
0.0015488706
0.0012487751
0.00095648416
0.00067213552
0.0003962667
0.00012887931
0.00677439
0.0065845204
0.0063694185
0.0061320998
0.0058755956
0.0056030654
0.0053177082
0.0050225414
0.0047199122
0.0044123249
0.0041019268
0.0037906004
0.0034798787
0.0031710478
0.0028652529
0.0025634191
0.0022663014
0.0019745615
0.0016887051
0.0014091739
0.0011363375
0.00087049504
0.00061182001
0.00036072999
0.00011743984
0.006113775
0.0059453738
0.0057544602
0.0055435286
0.0053152801
0.0050724758
0.0048176049
0.0045530827
0.0042815704
0.0040051139
0.0037255833
0.0034448445
0.0031641808
0.0028847945
0.0026077727
0.0023339917
0.0020641902
0.0017990691
0.0015390467
0.0012845836
0.001036068
0.00079380282
0.0005579606
0.00032905322
0.00010726299
0.0055274794
0.0053778408
0.0052080353
0.0050201854
0.0048165907
0.0045995826
0.004371421
0.0041343008
0.0038904101
0.0036416569
0.0033897697
0.0031360809
0.0028820819
0.0026289407
0.00237761
0.0021289244
0.0018836122
0.0016421964
0.0014052429
0.0011731699
0.00094639566
0.00072522811
0.00050981675
0.000300734
9.813627e-05
0.005006178
0.0048729498
0.0047216289
0.0045540386
0.0043720665
0.0041778042
0.0039732124
0.0037602361
0.0035407489
0.0033164672
0.0030889389
0.0028594963
0.0026293974
0.0023997197
0.0021713799
0.0019451706
0.0017217681
0.001501715
0.0012855551
0.0010736957
0.00086643432
0.0006640827
0.0004669127
0.00027548522
9.0015321e-05
0.0045415636
0.0044227046
0.0042875793
0.0041377469
0.0039748456
0.0038006551
0.0036169062
0.0034252963
0.0032274679
0.0030249461
0.0028191267
0.0026112607
0.0024024765
0.0021937648
0.0019859854
0.001779881
0.0015760925
0.0013751665
0.0011775896
0.00098376471
0.00079403019
0.00060870256
0.00042799396
0.00025257858
8.2641607e-05
0.0041262595
0.0040199943
0.0038990849
0.0037648725
0.0036187923
0.0034623175
0.0032970148
0.0031243611
0.002945791
0.0027626644
0.0025762355
0.0023876504
0.0021979413
0.0020080253
0.001818703
0.0016306727
0.0014445398
0.0012608333
0.0010800124
0.00090247311
0.00072856116
0.00055859228
0.00039277497
0.00023183179
7.5959431e-05
0.0037536711
0.003658498
0.0035501075
0.0034296655
0.0032984181
0.0031576631
0.0030087079
0.0028528956
0.0026914841
0.0025256819
0.0023566173
0.0021853289
0.0020127605
0.0018397575
0.0016670671
0.0014953471
0.001325171
0.0011570418
0.00099139914
0.00082862843
0.00066907188
0.00051304391
0.0003607399
0.00021294222
6.9875244e-05
0.0034180107
0.0033326268
0.0032353004
0.0031270426
0.0030089338
0.0028821171
0.0027477324
0.002606932
0.0024608527
0.0023105739
0.0021571044
0.0020013848
0.0018442757
0.0016865551
0.0015289186
0.0013719825
0.00121629
0.0010623197
0.00091049283
0.0007611824
0.00061472032
0.00047141485
0.00033142572
0.00019564379
6.4313672e-05
0.0031141655
0.0030374549
0.0029499442
0.0028525131
0.0027461026
0.0026316978
0.0025103162
0.0023829691
0.0022506581
0.0021143396
0.001974931
0.0018332809
0.0016901721
0.0015463235
0.0014023762
0.0012589073
0.0011164301
0.00097539937
0.00083621771
0.00069924252
0.00056479199
0.00043316122
0.00030445381
0.0001796952
5.9204389e-05
0.0028376416
0.0027686543
0.0026898929
0.0026021236
0.0025061679
0.0024028872
0.0022931768
0.002177931
0.002058035
0.0019343435
0.0018076762
0.0016788022
0.0015484364
0.0014172415
0.0012858063
0.0011546701
0.0010243196
0.00089518266
0.00076764297
0.00064204174
0.00051868238
0.00039784412
0.00027950256
0.00016489241
5.4483173e-05
0.0025845051
0.0025224335
0.0024515136
0.0023724165
0.0022858598
0.0021926028
0.0020934295
0.0019891315
0.001880492
0.0017682758
0.0016532184
0.0015360158
0.0014173195
0.0012977264
0.0011777924
0.0010580163
0.00093885681
0.00082071524
0.0007039566
0.00058890797
0.00047586164
0.00036510633
0.00025630245
0.00015105189
5.0090622e-05
0.0023513281
0.0022954849
0.0022316398
0.0021603769
0.0020823265
0.0019981561
0.0019085549
0.0018142223
0.0017158537
0.0016141325
0.0015097174
0.0014032374
0.0012952833
0.0011864039
0.001077109
0.00096786121
0.00085908781
0.00075116839
0.0006444494
0.00053924321
0.00043583277
0.00033464487
0.00023466109
0.00013801661
4.6058393e-05
0.0021351417
0.0020849458
0.0020275237
0.0019633862
0.0018930857
0.0018172088
0.0017363616
0.0016511612
0.0015622264
0.0014701661
0.0013755705
0.0012790062
0.001181009
0.0010820801
0.00098268668
0.00088325707
0.00078418405
0.00068582566
0.00058850755
0.00049252273
0.00039812962
0.00030576099
0.00021463857
0.00012638675
4.2153523e-05
0.0019333796
0.0018883421
0.0018367936
0.0017791813
0.0017159907
0.0016477354
0.0015749488
0.0014981764
0.0014179663
0.0013348598
0.0012493858
0.0011620529
0.0010733457
0.00098371983
0.00089360085
0.00080338263
0.00071342688
0.00062406731
0.00053560732
0.00044832365
0.00036247081
0.00027835504
0.00019570638
0.00011555077
3.8380672e-05
0.0017438278
0.0017035388
0.0016574032
0.0016058119
0.0015491901
0.0014879883
0.0014226767
0.0013537359
0.0012816498
0.0012068996
0.0011299564
0.0010512759
0.0009712932
0.00089042081
0.00080904501
0.00072752514
0.00064619341
0.00056535654
0.00048529541
0.00040626873
0.00032851706
0.00025230219
0.00017755815
0.00010503582
3.4880085e-05
0.0015645806
0.0015286969
0.0014875878
0.0014415946
0.0013910882
0.0013364635
0.0012781333
0.0012165201
0.0011520513
0.0010851521
0.0010162401
0.00094572143
0.00087398534
0.00080140226
0.00072832091
0.00065506703
0.00058194318
0.00050922877
0.00043718216
0.00036604195
0.00029603086
0.00022737628
0.00016012782
9.480141e-05
3.1490475e-05
0.0013939985
0.0013622328
0.0013258271
0.0012850782
0.0012403087
0.0011918631
0.0011401015
0.0010853941
0.0010281164
0.00096864201
0.00090734032
0.00084457004
0.00078067723
0.00071599214
0.00065082699
0.00058547456
0.00052020794
0.00045528028
0.00039092632
0.00032736327
0.00026479334
0.00020342385
0.00014330401
8.4862494e-05
2.8162877e-05
0.0012306699
0.0012027827
0.0011708115
0.0011350124
0.0010956648
0.0010530665
0.0010075301
0.00095937729
0.00090893503
0.00085653007
0.00080248555
0.00074711674
0.00069072856
0.00063361259
0.00057604554
0.00051828784
0.00046058335
0.00040315888
0.00034622485
0.00028997603
0.00023459304
0.00018025458
0.00012701077
7.5187368e-05
2.4906691e-05
0.001073376
0.0010491697
0.0010214107
0.00099031805
0.00095613125
0.00091910577
0.00087950982
0.00083762042
0.00079371915
0.0007480885
0.00070100821
0.00065275231
0.00060358628
0.0005537646
0.00050352941
0.00045310946
0.00040271903
0.00035255805
0.00030281199
0.00025365225
0.00020523715
0.00015772218
0.00011115193
6.5784443e-05
2.1743244e-05
0.00092106176
0.00090037475
0.00087664585
0.00085006024
0.0008208201
0.00078914165
0.00075525214
0.00071938642
0.00068178373
0.0006426844
0.00060232709
0.00056094607
0.00051876875
0.00047601388
0.00043288979
0.00038959361
0.00034631015
0.00030321206
0.00026045944
0.00021819996
0.00017656968
0.00013569962
9.5637016e-05
5.6599374e-05
1.8695847e-05
0.00077281226
0.00075551359
0.00073566739
0.00071342694
0.00068895968
0.00066244497
0.00063407142
0.00060403422
0.00057253246
0.00053976634
0.00050593511
0.00047123454
0.00043585522
0.00039998081
0.00036378652
0.00032743809
0.00029109108
0.00025489081
0.00021897193
0.00018345864
0.00014846529
0.00011410386
8.0413984e-05
4.7590689e-05
1.5723046e-05
0.00062783611
0.00061382132
0.00059773998
0.00057971527
0.00055988185
0.00053838406
0.00051537379
0.00049100841
0.00046544852
0.0004388561
0.00041139211
0.00038321526
0.00035447996
0.00032533541
0.00029592405
0.00026638068
0.00023683201
0.0002073961
0.00017818248
0.00014929257
0.00012082024
9.2858086e-05
6.5438732e-05
3.8728688e-05
1.2797836e-05
0.00048545883
0.00047464592
0.00046223696
0.00044832632
0.00043301733
0.00041642079
0.00039865337
0.00037983601
0.00036009224
0.0003395467
0.00031832365
0.00029654578
0.00027433192
0.00025179719
0.00022905168
0.00020619968
0.00018333918
0.00016056144
0.00013795139
0.00011558764
9.3543784e-05
7.189319e-05
5.0665076e-05
2.9986154e-05
9.9113969e-06
0.00034512866
0.00033745419
0.00032864607
0.00031877089
0.00030790162
0.0002961166
0.00028349837
0.0002701325
0.00025610654
0.00024150878
0.00022642767
0.00021095003
0.00019516066
0.00017914076
0.00016296847
0.00014671789
0.00013045856
0.00011425539
9.8168776e-05
8.2254813e-05
6.6566337e-05
5.1157493e-05
3.6050465e-05
2.1339688e-05
7.0609533e-06
0.0002064234
0.0002018387
0.0001965764
0.00019067622
0.00018418149
0.00017713879
0.00016959727
0.00016160801
0.00015322333
0.00014449619
0.00013547918
0.00012622405
0.00011678157
0.00010720055
9.7527379e-05
8.7806173e-05
7.8078443e-05
6.8382997e-05
5.8755939e-05
4.9230896e-05
3.9839565e-05
3.0614758e-05
2.1570925e-05
1.2772943e-05
4.2329865e-06
6.8658735e-05
6.7134671e-05
6.5385305e-05
6.3423866e-05
6.1264674e-05
5.8923133e-05
5.6415498e-05
5.3758779e-05
5.0970498e-05
4.8068342e-05
4.5069678e-05
4.1991579e-05
3.8850987e-05
3.5664451e-05
3.2447079e-05
2.9213634e-05
2.5977751e-05
2.2752332e-05
1.9549367e-05
1.6380014e-05
1.3254711e-05
1.018516e-05
7.1664668e-06
4.2367609e-06
1.4148262e-06
)
;

boundaryField
{
    Walls
    {
        type            zeroGradient;
    }
    Inlet
    {
        type            fixedValue;
        value           uniform 500;
    }
    Outlet
    {
        type            fixedValue;
        value           uniform 0;
    }
    Front
    {
        type            wedge;
    }
    Back
    {
        type            wedge;
    }
    defaultFaces
    {
        type            empty;
    }
}


// ************************************************************************* //
