/*--------------------------------*- C++ -*----------------------------------*\
| =========                 |                                                 |
| \\      /  F ield         | OpenFOAM: The Open Source CFD Toolbox           |
|  \\    /   O peration     | Version:  4.0                                   |
|   \\  /    A nd           | Web:      www.OpenFOAM.org                      |
|    \\/     M anipulation  |                                                 |
\*---------------------------------------------------------------------------*/
FoamFile
{
    version     2.0;
    format      ascii;
    class       surfaceScalarField;
    location    "0.3";
    object      phi;
}
// * * * * * * * * * * * * * * * * * * * * * * * * * * * * * * * * * * * * * //

dimensions      [0 3 -1 0 0 0 0];

internalField   nonuniform List<scalar> 
3364
(
-1.4326413e-10
1.6595745e-08
-4.5713719e-10
5.0708268e-08
8.9117007e-08
-3.6552023e-10
1.6961231e-08
-1.2785029e-09
5.1621226e-08
8.7838486e-08
-3.1977291e-10
1.7280983e-08
-1.6653971e-09
5.2966821e-08
8.617303e-08
2.2546766e-10
1.705549e-08
-5.0710952e-10
5.369936e-08
8.566587e-08
4.4806815e-10
1.6607389e-08
1.0264558e-09
5.3120915e-08
8.6692266e-08
1.1689351e-10
1.6490454e-08
9.404494e-10
5.2297311e-08
8.7632705e-08
-9.025715e-11
1.6580675e-08
-7.6896962e-12
5.2214732e-08
8.7625017e-08
1.9081274e-10
1.6389846e-08
6.4104194e-10
5.1764513e-08
8.826604e-08
-9.3957434e-11
1.6483767e-08
3.3998416e-10
5.1330522e-08
8.8605982e-08
-5.2459829e-10
1.7008325e-08
-1.2125072e-09
5.2018351e-08
8.7393423e-08
-4.0024543e-10
1.7408536e-08
-3.1285586e-10
5.1930917e-08
8.7080525e-08
-1.4933703e-10
1.7557828e-08
3.6166441e-10
5.1419872e-08
8.7442166e-08
1.8599638e-10
1.7371774e-08
-1.392233e-09
5.2998065e-08
8.6049922e-08
3.5262725e-10
1.7019092e-08
-1.9932029e-09
5.5343851e-08
8.4056692e-08
-3.6061675e-11
1.7055135e-08
1.3211854e-10
5.5175605e-08
8.4188762e-08
-7.3772183e-10
1.7792853e-08
2.0723178e-09
5.2365508e-08
8.6261018e-08
-4.0672776e-10
1.8199533e-08
1.3813542e-09
5.0577363e-08
8.7642327e-08
-5.8041078e-11
1.8257522e-08
-6.1121227e-10
5.113047e-08
8.7031089e-08
-1.9867817e-10
1.845616e-08
-1.0128314e-09
5.194461e-08
8.601823e-08
3.6130039e-11
1.842001e-08
-1.099251e-09
5.3079969e-08
8.4918938e-08
7.0544822e-11
1.8349452e-08
-1.7403072e-09
5.4890785e-08
8.3178589e-08
9.5035951e-11
1.8254393e-08
6.6580269e-11
5.4919227e-08
8.3245136e-08
4.037185e-10
1.7850641e-08
1.6889235e-09
5.3633981e-08
8.4934024e-08
4.9387634e-10
1.7356728e-08
9.2149269e-10
5.3206303e-08
8.585546e-08
4.0647338e-10
1.6950212e-08
3.5013682e-10
5.3262601e-08
8.6205564e-08
-7.3820157e-11
1.7023977e-08
9.2746888e-10
5.2261294e-08
8.7133014e-08
-3.6795898e-10
1.7391908e-08
5.8918448e-11
5.1834368e-08
8.7191893e-08
-5.8381906e-10
1.7975718e-08
-4.1825881e-10
5.1668778e-08
8.67736e-08
-1.4019463e-10
1.8115964e-08
3.8715758e-10
5.1141515e-08
8.7160796e-08
1.9456207e-09
1.6170553e-08
4.7605245e-09
4.8326738e-08
9.1921311e-08
1.1641402e-08
4.5285038e-09
4.8887648e-08
1.1078606e-08
1.1778782e-08
1.2902758e-07
4.9819408e-09
-4.5391798e-10
1.7326314e-08
-1.2672764e-09
-1.0630921e-09
3.0166284e-08
-3.5786549e-10
-9.6021694e-11
-1.3558089e-09
-2.6927081e-10
-2.0856687e-10
-2.210247e-09
-9.7034135e-11
1.0265259e-12
-3.7498225e-10
8.7107567e-12
5.915588e-11
-6.4266804e-10
-1.1011718e-11
1.2039773e-11
-4.5558069e-11
4.3261364e-11
9.0570606e-11
-7.6967063e-11
2.745404e-13
1.176517e-11
2.0466065e-12
4.1489265e-11
8.0680003e-11
1.1937263e-11
1.230034e-12
1.0534984e-11
8.3248555e-12
3.4394066e-11
6.3003674e-11
2.6001038e-11
2.1124751e-12
8.4225167e-12
9.9837606e-12
2.6522706e-11
4.6426625e-11
2.6560732e-11
1.8850328e-12
6.5375051e-12
8.1858595e-12
2.0221871e-11
3.4768006e-11
1.984441e-11
1.1649458e-12
5.3726096e-12
4.9404382e-12
1.6446456e-11
2.7927929e-11
1.1780619e-11
6.2672948e-13
4.745949e-12
2.6830603e-12
1.4390261e-11
2.4120311e-11
6.4908837e-12
4.2918549e-13
4.3168243e-12
1.8105716e-12
1.3009003e-11
2.1661764e-11
4.2693133e-12
4.2006407e-13
3.8968017e-12
1.7209997e-12
1.1708157e-11
1.9345515e-11
4.0373786e-12
4.3732989e-13
3.459496e-12
1.7685324e-12
1.0377005e-11
1.7100222e-11
4.0138976e-12
4.3292008e-13
3.0265882e-12
1.7410501e-12
9.0689001e-12
1.4930389e-11
3.910919e-12
3.9585875e-13
2.6307355e-12
1.5825269e-12
7.8822433e-12
1.2972309e-11
3.5406232e-12
3.3986044e-13
2.2908784e-12
1.3592844e-12
6.8628249e-12
1.1297993e-11
3.0336077e-12
2.8550282e-13
2.0053768e-12
1.1429515e-12
6.0053769e-12
9.8922582e-12
2.5486847e-12
2.4079665e-13
1.7645801e-12
9.6143678e-13
5.2847337e-12
8.7076198e-12
2.1460685e-12
2.0739977e-13
1.5571794e-12
8.2771919e-13
4.6644088e-12
7.6864438e-12
1.848885e-12
1.8176343e-13
1.3754144e-12
7.2549166e-13
4.1206737e-12
6.7916244e-12
1.6202987e-12
1.6015881e-13
1.2152537e-12
6.4009079e-13
3.640734e-12
6.0022272e-12
1.4294746e-12
1.416258e-13
1.0736259e-12
5.6579314e-13
3.2165588e-12
5.3040258e-12
1.2639808e-12
1.2479332e-13
9.4883061e-13
4.9832871e-13
2.8430157e-12
4.6891984e-12
1.1131427e-12
1.0939014e-13
8.3943853e-13
4.3712943e-13
2.515269e-12
4.1498795e-12
9.7643552e-13
9.5082593e-14
7.4435411e-13
3.8224746e-13
2.2280972e-12
3.6784011e-12
8.5371389e-13
8.3511841e-14
6.6084058e-13
3.3169995e-13
1.9799028e-12
3.2670521e-12
7.4303803e-13
7.2607888e-14
5.8823116e-13
2.8947842e-13
1.7630265e-12
2.9093901e-12
6.4713044e-13
6.3163915e-14
5.2506589e-13
2.522401e-13
1.5739451e-12
2.5978035e-12
5.6381781e-13
5.4818524e-14
4.7024618e-13
2.1912459e-13
1.4096345e-12
2.3271702e-12
4.8975008e-13
4.7380468e-14
4.2286469e-13
1.8917478e-13
1.2678363e-12
2.0933953e-12
4.2294287e-13
4.0747378e-14
3.8211643e-13
1.6275829e-13
1.145822e-12
1.8924264e-12
3.6372126e-13
3.4924766e-14
3.4719093e-13
1.3947972e-13
1.0412641e-12
1.7203317e-12
3.1156942e-13
2.9886182e-14
3.1730414e-13
1.1939951e-13
9.5174824e-13
1.5729947e-12
2.6673216e-13
2.5489937e-14
2.9181369e-13
1.0204712e-13
8.7518894e-13
1.4465053e-12
2.2853275e-13
2.1676666e-14
2.7013661e-13
8.6689408e-14
8.1017441e-13
1.339152e-12
1.9403971e-13
1.8342092e-14
2.517942e-13
7.3327901e-14
7.5518714e-13
1.2484903e-12
1.6398709e-13
1.5483896e-14
2.3631006e-13
6.1864102e-14
7.0880577e-13
1.1720207e-12
1.3833178e-13
1.3041009e-14
2.2326888e-13
5.2104605e-14
6.6974129e-13
1.1076184e-12
1.1650549e-13
1.0953037e-14
2.1231574e-13
4.3778715e-14
6.3691501e-13
1.0534855e-12
9.7910643e-14
9.1655256e-15
2.0315019e-13
3.6643276e-14
6.0943688e-13
1.0081564e-12
8.1971824e-14
7.6155777e-15
1.9553464e-13
3.0438916e-14
5.8661339e-13
9.7052057e-13
6.8074592e-14
6.2743111e-15
1.8926042e-13
2.5069412e-14
5.6781833e-13
9.3952926e-13
5.6060864e-14
5.1204096e-15
1.8414015e-13
2.0455848e-14
5.5248312e-13
9.1423617e-13
4.5749376e-14
4.1308547e-15
1.8000949e-13
1.6517102e-14
5.4009727e-13
8.9380602e-13
3.6947999e-14
3.28141e-15
1.7672834e-13
1.3171183e-14
5.3020805e-13
8.7748203e-13
2.9496176e-14
2.5414267e-15
1.741872e-13
1.0280547e-14
5.224696e-13
8.6467011e-13
2.3093652e-14
1.9113665e-15
1.7227614e-13
7.7495175e-15
5.1663214e-13
8.5500678e-13
1.7414062e-14
1.3840458e-15
1.7089236e-13
5.3899148e-15
5.1262688e-13
8.4842986e-13
1.1967932e-14
7.3531296e-16
2.7559667e-15
6.0441589e-15
1.3821051e-07
-9.1882529e-09
-8.5839402e-09
1.4678814e-07
2.2129308e-08
-1.1524934e-09
-1.1608665e-09
1.4705682e-08
-3.1138479e-09
-2.4877501e-10
-3.793158e-10
-3.8952585e-09
-9.5288629e-10
6.1490942e-11
1.5088795e-11
-1.3472321e-09
-1.3611306e-10
1.2064645e-10
1.2074071e-10
-2.4175039e-10
2.0121944e-11
1.1246388e-10
1.2951334e-10
1.1351982e-11
5.0001002e-11
8.8463896e-11
1.0611432e-10
7.3399613e-11
5.0118388e-11
6.4905746e-11
7.941937e-11
7.6812471e-11
3.614514e-11
4.8604773e-11
5.9701494e-11
5.5862567e-11
2.1534093e-11
3.8851379e-11
4.789408e-11
3.334153e-11
1.1943653e-11
3.339885e-11
4.1362981e-11
1.8475001e-11
7.9921601e-12
2.9676244e-11
3.6876547e-11
1.2478856e-11
7.1916975e-12
2.6522088e-11
3.2896616e-11
1.1171814e-11
7.1570373e-12
2.3379036e-11
2.8958319e-11
1.1095432e-11
6.9393927e-12
2.0350601e-11
2.5309236e-11
1.0588512e-11
6.1674712e-12
1.7723768e-11
2.2043489e-11
9.4332278e-12
5.2708537e-12
1.5486525e-11
1.9284013e-11
8.0303253e-12
4.4418313e-12
1.3593371e-11
1.6971534e-11
6.7542951e-12
3.7673454e-12
1.1972081e-11
1.4973682e-11
5.7651769e-12
3.2490632e-12
1.0571886e-11
1.3232051e-11
4.99067e-12
2.8491861e-12
9.3429798e-12
1.1711224e-11
4.3699864e-12
2.5143575e-12
8.2580769e-12
1.0370948e-11
3.8546055e-12
2.222929e-12
7.2991087e-12
9.1734472e-12
3.4204034e-12
1.9554799e-12
6.4567521e-12
8.1180495e-12
3.010852e-12
1.7164915e-12
5.7166777e-12
7.190516e-12
2.6440011e-12
1.5019341e-12
5.0684405e-12
6.3774148e-12
2.3150132e-12
1.3105019e-12
4.500961e-12
5.6660182e-12
2.0218783e-12
1.1377423e-12
4.0103351e-12
5.0419713e-12
1.761771e-12
9.9211395e-13
3.5820264e-12
4.5114822e-12
1.5225868e-12
8.6217937e-13
3.209586e-12
4.0439899e-12
1.3296574e-12
7.4432638e-13
2.8881928e-12
3.640993e-12
1.1473108e-12
6.3999809e-13
2.6119076e-12
3.294213e-12
9.8676736e-13
5.4830405e-13
2.3751658e-12
2.9964019e-12
8.461059e-13
4.6977846e-13
2.1721133e-12
2.7413323e-12
7.2484018e-13
4.0238287e-13
1.998258e-12
2.5239986e-12
6.1971003e-13
3.4162177e-13
1.8506718e-12
2.3384741e-12
5.2714099e-13
2.8877171e-13
1.7258838e-12
2.1814446e-12
4.4579694e-13
2.4358425e-13
1.6206287e-12
2.0490931e-12
3.7593258e-13
2.0511358e-13
1.5320187e-12
1.9377333e-12
3.1647102e-13
1.7251992e-13
1.4574082e-12
1.8438445e-12
2.6640723e-13
1.4442326e-13
1.3949561e-12
1.7653464e-12
2.2292059e-13
1.1988715e-13
1.3431433e-12
1.7002266e-12
1.8500678e-13
9.8731374e-14
1.3004731e-12
1.6465726e-12
1.5238579e-13
8.0593576e-14
1.2656296e-12
1.6027249e-12
1.2444221e-13
6.5082821e-14
1.2374959e-12
1.5672683e-12
1.0054094e-13
5.1950122e-14
1.2150435e-12
1.5389351e-12
8.0285343e-14
4.0818319e-14
1.1973205e-12
1.5167093e-12
6.3046358e-14
3.0756366e-14
1.18398e-12
1.4999546e-12
4.7513497e-14
2.1031109e-14
1.1749184e-12
1.4885303e-12
3.2457499e-14
1.0569188e-14
1.6283977e-14
1.5016376e-11
-1.5020436e-11
3.0596651e-11
-1.5588677e-11
4.4397976e-11
-1.3809799e-11
5.5266817e-11
-1.0876212e-11
6.2649988e-11
-7.3893408e-12
6.5977768e-11
-3.3328196e-12
6.4578521e-11
1.3952689e-12
5.7832897e-11
6.7425985e-12
4.5301034e-11
1.2529696e-11
2.6932207e-11
1.8367394e-11
3.1634542e-12
2.3767928e-11
-2.5192797e-11
2.83559e-11
-5.7255016e-11
3.2062212e-11
-9.2483761e-11
3.5228964e-11
-1.299667e-10
3.7483273e-11
-1.6857646e-10
3.8610123e-11
-2.0699642e-10
3.8420274e-11
-2.4380831e-10
3.6812118e-11
-2.7790737e-10
3.4099163e-11
-3.0834842e-10
3.0441041e-11
-3.3427845e-10
2.592991e-11
-3.5505312e-10
2.0774497e-11
-3.7017039e-10
1.5117052e-11
-3.7909551e-10
8.9248981e-12
2.3775992e-12
-2.1283557e-11
6.2667634e-12
-5.079317e-11
1.3926653e-11
-9.1353608e-11
2.6757348e-11
-1.4471756e-10
4.2494853e-11
-2.1232941e-10
6.0229724e-11
-2.9552851e-10
7.9873441e-11
-3.9548433e-10
1.0135806e-10
-5.1317123e-10
1.2443618e-10
-6.4751328e-10
1.46878e-10
-7.9641204e-10
1.6727191e-10
-9.5726619e-10
1.8462728e-10
-1.1274897e-09
1.9858401e-10
-1.3044558e-09
2.0903235e-10
-1.4854706e-09
2.1624718e-10
-1.6685998e-09
2.2061534e-10
-1.853227e-09
2.2323965e-10
-2.0483336e-09
2.3352859e-10
-2.2349705e-09
2.2345016e-10
-2.4054942e-09
2.0462355e-10
-2.5547914e-09
1.7973843e-10
-2.6790127e-09
1.5015089e-10
-2.7752908e-09
1.1705197e-10
-2.8412587e-09
8.1083933e-11
-2.8728439e-09
4.0508855e-11
1.0324643e-11
-9.2370218e-11
9.8645021e-11
-2.0985659e-10
1.3142548e-10
-3.5656525e-10
1.7348049e-10
-5.3525767e-10
2.212022e-10
-7.4944253e-10
2.7442924e-10
-1.0020884e-09
3.3253323e-10
-1.2989454e-09
3.9822791e-10
-1.7059061e-09
5.314084e-10
-2.1543827e-09
5.9536463e-10
-2.6158761e-09
6.2877389e-10
-3.0747202e-09
6.434785e-10
-3.5211632e-09
6.4503272e-10
-3.948202e-09
6.3607569e-10
-4.3501033e-09
6.1815181e-10
-4.7205506e-09
5.9106488e-10
-5.0534958e-09
5.5618611e-10
-5.3344697e-09
5.1450282e-10
-5.5776113e-09
4.6659138e-10
-5.7866288e-09
4.1363981e-10
-5.9634698e-09
3.5657755e-10
-6.1102785e-09
2.9695713e-10
-6.2279348e-09
2.3470524e-10
-6.3164754e-09
1.6962111e-10
-6.3780566e-09
1.0208631e-10
3.3855414e-11
-3.3111529e-10
4.2977641e-10
-7.1271491e-10
5.1304893e-10
-1.1621221e-09
6.2291363e-10
-1.9071482e-09
9.6625189e-10
-2.7310372e-09
1.0983385e-09
-3.5305902e-09
1.1321028e-09
-4.2495097e-09
1.1171606e-09
-4.7886122e-09
1.0705214e-09
-5.1956122e-09
1.0023728e-09
-5.4870697e-09
9.2023782e-10
-5.6745255e-09
8.3093909e-10
-5.7691158e-09
7.3962656e-10
-5.780423e-09
6.4738536e-10
-5.7114448e-09
5.4917518e-10
-5.5777398e-09
4.5736074e-10
-5.3962067e-09
3.7465325e-10
-5.1837306e-09
3.0202657e-10
-4.9571184e-09
2.3997855e-10
-4.7321375e-09
1.8865798e-10
-4.5232278e-09
1.4766653e-10
-4.3440623e-09
1.1779014e-10
-4.2016557e-09
9.2296869e-11
-4.1011519e-09
6.9115303e-11
-4.0460395e-09
4.6971719e-11
2.5309342e-11
-2.1395032e-09
2.5693058e-09
-3.812061e-09
2.1856355e-09
-5.2409288e-09
2.051809e-09
-5.8890439e-09
1.6143863e-09
-5.9366359e-09
1.1459461e-09
-5.4776001e-09
6.7307959e-10
-4.7242645e-09
3.6383539e-10
-3.7422502e-09
8.8515741e-11
-2.5941836e-09
-1.4568612e-10
-1.3563278e-09
-3.1761163e-10
-1.2240104e-10
-4.0298327e-10
1.1088223e-09
-4.9159744e-10
2.3960307e-09
-6.3982383e-10
3.8055909e-09
-8.6038455e-10
5.1846431e-09
-9.2168933e-10
6.4926767e-09
-9.3337646e-10
7.7065119e-09
-9.1180289e-10
8.8110375e-09
-8.6453972e-10
9.7957484e-09
-7.9604385e-10
1.0652681e-08
-7.0925515e-10
1.1376035e-08
-6.0555229e-10
1.1955844e-08
-4.8749806e-10
1.238205e-08
-3.5707651e-10
1.2645719e-08
-2.1668204e-10
-6.479449e-11
1.2754875e-09
1.2939046e-09
4.5635108e-09
-1.1023379e-09
8.3192053e-09
-1.7038169e-09
1.1999686e-08
-2.0660661e-09
1.5684924e-08
-2.5392667e-09
1.931756e-08
-2.9595288e-09
2.2886907e-08
-3.2054789e-09
2.6238365e-08
-3.2629041e-09
2.9282194e-08
-3.189473e-09
3.201002e-08
-3.0453905e-09
3.4470379e-08
-2.8632924e-09
3.6629067e-08
-2.6502326e-09
3.8421478e-08
-2.4321803e-09
3.9785297e-08
-2.2241482e-09
4.0871573e-08
-2.0079101e-09
4.1730812e-08
-1.7925601e-09
4.240277e-08
-1.5837048e-09
4.2920678e-08
-1.3823916e-09
4.3313409e-08
-1.1887201e-09
4.3606109e-08
-1.0018999e-09
4.3820717e-08
-8.2010564e-10
4.3974308e-08
-6.4103438e-10
4.4079052e-08
-4.6176607e-10
4.4142117e-08
-2.7969412e-10
-8.8812239e-11
1.5034891e-07
-2.2656408e-09
1.4863853e-07
6.0896378e-10
1.4581333e-07
1.1221774e-09
1.4218701e-07
1.5609515e-09
1.3754378e-07
2.1045677e-09
1.3201016e-07
2.574619e-09
1.2593721e-07
2.8679167e-09
1.1970774e-07
2.9669465e-09
1.1359688e-07
2.9217217e-09
1.0774528e-07
2.8064938e-09
1.0221546e-07
2.6667723e-09
9.7066493e-08
2.4989612e-09
9.2325889e-08
2.3086221e-09
8.7994323e-08
2.1075959e-09
8.4082335e-08
1.9042381e-09
8.0586953e-08
1.7029686e-09
7.7496877e-08
1.5065045e-09
7.4798352e-08
1.3162559e-09
7.2477208e-08
1.1325377e-09
7.0520648e-08
9.5476576e-10
6.8919012e-08
7.8162848e-10
6.7666871e-08
6.1119988e-10
6.6764544e-08
4.4064963e-10
6.6217604e-08
2.673308e-10
8.5399174e-11
1.3883101e-08
-1.4429339e-09
1.6116702e-08
-1.624523e-09
1.8656486e-08
-1.4174908e-09
2.1297277e-08
-1.0797289e-09
2.4036087e-08
-6.3413551e-10
2.6907637e-08
-2.9682947e-10
2.9794861e-08
-1.9215138e-11
3.2537416e-08
2.2448046e-10
3.508952e-08
3.6970549e-10
3.7421757e-08
4.7434449e-10
3.94952e-08
5.9341579e-10
4.1118504e-08
8.7574229e-10
4.2403847e-08
1.0233624e-09
4.3424993e-08
1.0865309e-09
4.4224502e-08
1.1048084e-09
4.4838261e-08
1.089286e-09
4.5299676e-08
1.0451643e-09
4.5638418e-08
9.7758673e-10
4.5880657e-08
8.9036824e-10
4.6049215e-08
7.8627495e-10
4.6163485e-08
6.6742497e-10
4.6239457e-08
5.3529109e-10
4.6288368e-08
3.9179994e-10
4.6317395e-08
2.3836354e-10
7.2338845e-11
-4.6872177e-09
-6.5098465e-10
-5.3917922e-09
-9.1995743e-10
-5.7681431e-09
-1.0411494e-09
-5.7438358e-09
-1.1040453e-09
-5.2633943e-09
-1.1145847e-09
-4.4758781e-09
-1.0843511e-09
-3.468766e-09
-1.0263303e-09
-2.2966199e-09
-9.4766579e-10
-1.0705942e-09
-8.5631787e-10
1.6404094e-10
-7.6028584e-10
1.4194738e-09
-6.6201004e-10
2.8543642e-09
-5.5913882e-10
4.3360379e-09
-4.5829968e-10
5.7873708e-09
-3.6478836e-10
7.1726281e-09
-2.8043331e-10
8.4678778e-09
-2.0594655e-10
9.6747765e-09
-1.6171596e-10
1.0777044e-08
-1.2466098e-10
1.1761853e-08
-9.4420586e-11
1.2619005e-08
-7.0855668e-11
1.3339853e-08
-5.3402636e-11
1.3916205e-08
-4.103891e-11
1.4340398e-08
-3.2371927e-11
1.4603927e-08
-2.5144628e-11
-1.599978e-11
-1.9313072e-09
-6.6910317e-11
-2.7056964e-09
-1.4557054e-10
-3.5248877e-09
-2.2196283e-10
-4.3279291e-09
-3.0101112e-10
-5.0564192e-09
-3.8610375e-10
-5.6072547e-09
-5.3352585e-10
-6.0345522e-09
-5.9904369e-10
-6.3445834e-09
-6.3764585e-10
-6.5421108e-09
-6.5880166e-10
-6.6358807e-09
-6.6652689e-10
-6.634465e-09
-6.634363e-10
-6.541925e-09
-6.5168881e-10
-6.3690479e-09
-6.3118608e-10
-6.1309575e-09
-6.0288717e-10
-5.8436195e-09
-5.6777909e-10
-5.5224701e-09
-5.2710284e-10
-5.2008548e-09
-4.8333737e-10
-4.8889056e-09
-4.3661566e-10
-4.5964121e-09
-3.8691891e-10
-4.3329263e-09
-3.3434575e-10
-4.1073451e-09
-2.7898772e-10
-3.9274841e-09
-2.2090346e-10
-3.7996843e-09
-1.6017502e-10
-3.7277798e-09
-9.7052272e-11
-3.2796799e-11
-4.0625672e-10
9.7598353e-11
-6.1859337e-10
6.6768307e-11
-8.7342491e-10
3.2870321e-11
-1.1690622e-09
-5.3729806e-12
-1.5164504e-09
-3.8715592e-11
-1.9755088e-09
-7.4468649e-11
-2.4656414e-09
-1.0891351e-10
-2.9623432e-09
-1.4094758e-10
-3.452175e-09
-1.6897437e-10
-3.9261093e-09
-1.9259813e-10
-4.3774975e-09
-2.1205438e-10
-4.8006403e-09
-2.2855285e-10
-5.1859341e-09
-2.4589975e-10
-5.5130329e-09
-2.757962e-10
-5.8025226e-09
-2.7829742e-10
-6.0576442e-09
-2.7198954e-10
-6.2820595e-09
-2.5893042e-10
-6.47833e-09
-2.403536e-10
-6.6483578e-09
-2.1689961e-10
-6.7936301e-09
-1.8908189e-10
-6.9152444e-09
-1.5738188e-10
-7.0137746e-09
-1.2238159e-10
-7.0890684e-09
-8.4889508e-11
-7.1408383e-09
-4.5290564e-11
-9.8818678e-12
-2.4004661e-11
1.3295609e-10
-8.4588615e-11
1.2735342e-10
-1.7040394e-10
1.1868673e-10
-2.8220548e-10
1.0642948e-10
-4.1007083e-10
8.9150422e-11
-5.6097158e-10
7.6432438e-11
-7.3149612e-10
6.1610973e-11
-9.1784134e-10
4.5397163e-11
-1.1161274e-09
2.9310858e-11
-1.3229831e-09
1.4256276e-11
-1.5360114e-09
9.7219732e-13
-1.7536355e-09
-1.0930807e-11
-1.9811471e-09
-1.8390627e-11
-2.2317864e-09
-2.5159761e-11
-2.4807203e-09
-2.9366669e-11
-2.7208131e-09
-3.1900313e-11
-2.9467619e-09
-3.2985489e-11
-3.1544593e-09
-3.2660244e-11
-3.3403886e-09
-3.0974647e-11
-3.5014162e-09
-2.8058706e-11
-3.6347186e-09
-2.4084049e-11
-3.7378499e-09
-1.925496e-11
-3.8089513e-09
-1.3792791e-11
-3.8463703e-09
-7.8760856e-12
-1.8864454e-12
9.0579312e-11
1.1577643e-10
9.8473531e-11
1.1945916e-10
9.734645e-11
1.198137e-10
8.6321035e-11
1.1745471e-10
6.3369522e-11
1.121017e-10
3.3193932e-11
1.0660773e-10
-5.0389162e-12
9.9843464e-11
-5.160189e-11
9.1959718e-11
-1.0541843e-10
8.3126911e-11
-1.6556421e-10
7.44015e-11
-2.301262e-10
6.5533553e-11
-2.9814144e-10
5.7083727e-11
-3.6639874e-10
4.9865888e-11
-4.3466743e-10
4.3108056e-11
-5.0249367e-10
3.8458612e-11
-5.6861381e-10
3.4218783e-11
-6.3176428e-10
3.0163855e-11
-6.9067664e-10
2.6250913e-11
-7.4410839e-10
2.2455844e-11
-7.9090262e-10
1.8734229e-11
-8.3003983e-10
1.5051841e-11
-8.6069431e-10
1.1398202e-11
-8.8229061e-10
7.8022106e-12
-8.9458161e-10
4.4136689e-12
1.49029e-12
1.0398902e-10
8.8599859e-11
1.3002505e-10
9.3423046e-11
1.5451743e-10
9.5321191e-11
1.7643833e-10
9.5533671e-11
1.9356853e-10
9.4971371e-11
2.0749125e-10
9.2684895e-11
2.1799538e-10
8.9339237e-11
2.2512359e-10
8.4831438e-11
2.2890817e-10
7.9342277e-11
2.302505e-10
7.3059132e-11
2.2947548e-10
6.6308556e-11
2.2686893e-10
5.9690263e-11
2.2344496e-10
5.3289862e-11
2.1967873e-10
4.6874296e-11
2.1683591e-10
4.1301459e-11
2.1474475e-10
3.630998e-11
2.1306084e-10
3.1847811e-11
2.1166924e-10
2.7642574e-11
2.1053921e-10
2.3585945e-11
2.0959383e-10
1.9679693e-11
2.0875173e-10
1.5894036e-11
2.0794865e-10
1.2201388e-11
2.0717782e-10
8.5731618e-12
2.0659291e-10
4.9987075e-12
1.5490024e-12
7.7352215e-11
6.7110316e-11
9.9333347e-11
7.1441994e-11
1.2093919e-10
7.3715415e-11
1.420769e-10
7.4396018e-11
1.6312054e-10
7.3927795e-11
1.8313491e-10
7.2670614e-11
2.0175545e-10
7.0718802e-11
2.1836553e-10
6.8221482e-11
2.3291001e-10
6.4797961e-11
2.4562341e-10
6.0345903e-11
2.5600716e-10
5.5925007e-11
2.650259e-10
5.0671735e-11
2.7287445e-10
4.5441552e-11
2.8000451e-10
3.9744481e-11
2.8653036e-10
3.4775877e-11
2.9251876e-10
3.0321861e-11
2.9808953e-10
2.627733e-11
3.0306772e-10
2.2664683e-11
3.0768364e-10
1.8970338e-11
3.1177429e-10
1.558936e-11
3.1518698e-10
1.2481664e-11
3.1780119e-10
9.5874991e-12
3.1954989e-10
6.8247889e-12
3.2045942e-10
4.089491e-12
1.3852043e-12
4.6101076e-11
5.4350901e-11
5.9171724e-11
5.837147e-11
7.2305403e-11
6.0581854e-11
8.5134639e-11
6.1566898e-11
9.7426813e-11
6.1635737e-11
1.0905925e-10
6.1038303e-11
1.1989514e-10
5.988304e-11
1.2991232e-10
5.8204442e-11
1.3875603e-10
5.59544e-11
1.4582911e-10
5.3272974e-11
1.5164198e-10
5.0112295e-11
1.5602758e-10
4.6286305e-11
1.5927337e-10
4.2195931e-11
1.6127956e-10
3.7738455e-11
1.6251796e-10
3.3537642e-11
1.6327444e-10
2.9565556e-11
1.6369987e-10
2.5852066e-11
1.6393413e-10
2.2430591e-11
1.6385217e-10
1.9052451e-11
1.6373922e-10
1.5702475e-11
1.636493e-10
1.2571733e-11
1.636052e-10
9.631752e-12
1.6358883e-10
6.8412974e-12
1.6369561e-10
3.9828393e-12
1.1740722e-12
2.5640805e-11
4.7185182e-11
3.2792103e-11
5.1220252e-11
3.9624109e-11
5.3749924e-11
4.5998225e-11
5.5192856e-11
5.1587657e-11
5.6046377e-11
5.6652613e-11
5.5973417e-11
6.1235656e-11
5.5300066e-11
6.5305971e-11
5.4134194e-11
6.8608768e-11
5.265167e-11
7.1018677e-11
5.0863129e-11
7.2356866e-11
4.8774167e-11
7.2561323e-11
4.6081905e-11
7.1903156e-11
4.2854149e-11
7.015872e-11
3.9482936e-11
6.7737308e-11
3.5959092e-11
6.500588e-11
3.2297016e-11
6.2145089e-11
2.8712881e-11
5.9323773e-11
2.5251924e-11
5.6529497e-11
2.1846737e-11
5.3779921e-11
1.8452056e-11
5.1235347e-11
1.5116303e-11
4.9031312e-11
1.183578e-11
4.7306513e-11
8.5660826e-12
4.5912922e-11
5.3764134e-12
1.9092274e-12
1.7175139e-11
4.2488928e-11
2.1876123e-11
4.6519296e-11
2.6238372e-11
4.9387698e-11
3.0112356e-11
5.1318892e-11
3.3727831e-11
5.243092e-11
3.6700573e-11
5.3000689e-11
3.8945492e-11
5.3055159e-11
4.0919204e-11
5.2160491e-11
4.2401676e-11
5.1169202e-11
4.3373868e-11
4.9890938e-11
4.391105e-11
4.8236982e-11
4.3790254e-11
4.6202694e-11
4.2724093e-11
4.3920296e-11
4.0869373e-11
4.1337638e-11
3.861954e-11
3.8208901e-11
3.5908923e-11
3.5007602e-11
3.310071e-11
3.1521056e-11
3.0294879e-11
2.8057712e-11
2.7589246e-11
2.4552323e-11
2.505316e-11
2.0988089e-11
2.2809942e-11
1.7359466e-11
2.0965717e-11
1.3679945e-11
1.9650889e-11
9.8808484e-12
1.9054919e-11
5.9723197e-12
1.9882489e-12
1.5498755e-11
3.8161982e-11
1.9802644e-11
4.2215403e-11
2.3862125e-11
4.5328213e-11
2.7616001e-11
4.756501e-11
3.1032783e-11
4.9014131e-11
3.4270817e-11
4.9762647e-11
3.7400227e-11
4.992574e-11
3.987511e-11
4.9685598e-11
4.1882875e-11
4.9161425e-11
4.3511277e-11
4.8262522e-11
4.4763519e-11
4.6984723e-11
4.5588804e-11
4.5377389e-11
4.5998716e-11
4.3510362e-11
4.6075052e-11
4.1261276e-11
4.5610083e-11
3.867384e-11
4.4818869e-11
3.5798783e-11
4.3680596e-11
3.2659293e-11
4.2396381e-11
2.9341887e-11
4.1063254e-11
2.5885407e-11
3.9799709e-11
2.2251589e-11
3.8668319e-11
1.8490806e-11
3.7748388e-11
1.4599825e-11
3.7035574e-11
1.059361e-11
3.6556169e-11
6.4516721e-12
1.988825e-12
1.5438052e-11
3.3819334e-11
1.9977e-11
3.7676432e-11
2.4372449e-11
4.0932746e-11
2.8703958e-11
4.3233486e-11
3.2879854e-11
4.4838221e-11
3.6862308e-11
4.5780181e-11
4.0795914e-11
4.5992122e-11
4.4414391e-11
4.6067111e-11
4.757987e-11
4.5995935e-11
5.0474874e-11
4.5367508e-11
5.3014304e-11
4.4445282e-11
5.5224946e-11
4.3166735e-11
5.7177925e-11
4.1557369e-11
5.8809207e-11
3.962998e-11
6.0134203e-11
3.7348829e-11
6.1118687e-11
3.4814282e-11
6.1748446e-11
3.2029514e-11
6.2063897e-11
2.9026415e-11
6.2181424e-11
2.5767857e-11
6.2152106e-11
2.2280882e-11
6.2042613e-11
1.8600272e-11
6.1903502e-11
1.4738908e-11
6.1759825e-11
1.0737258e-11
6.1707691e-11
6.5037778e-12
2.1883305e-12
1.4758606e-11
2.9649198e-11
1.9062993e-11
3.3372011e-11
2.366057e-11
3.6335141e-11
2.8343621e-11
3.8550412e-11
3.2920673e-11
4.026115e-11
3.7247253e-11
4.1453584e-11
4.1434783e-11
4.1804578e-11
4.539245e-11
4.2109432e-11
4.9347939e-11
4.2040435e-11
5.3110451e-11
4.1604987e-11
5.6624851e-11
4.0930874e-11
5.9890963e-11
3.9900617e-11
6.2868679e-11
3.8579647e-11
6.5567081e-11
3.6931572e-11
6.7920179e-11
3.4995724e-11
6.9953956e-11
3.2780498e-11
7.1685681e-11
3.0297782e-11
7.3156021e-11
2.7556066e-11
7.4362909e-11
2.4560961e-11
7.5319503e-11
2.1324279e-11
7.6061657e-11
1.7858108e-11
7.6626888e-11
1.4173666e-11
7.7026014e-11
1.0338119e-11
7.7215901e-11
6.3138802e-12
2.12278e-12
1.3148029e-11
2.5934347e-11
1.7143397e-11
2.93766e-11
2.1309232e-11
3.2169269e-11
2.5784678e-11
3.4074935e-11
3.0133495e-11
3.5912305e-11
3.446874e-11
3.7118317e-11
3.8605464e-11
3.7667834e-11
4.2784688e-11
3.7930191e-11
4.6706681e-11
3.8118427e-11
5.0507081e-11
3.7804574e-11
5.4260451e-11
3.7177494e-11
5.7916982e-11
3.6244076e-11
6.1366067e-11
3.5130555e-11
6.4513341e-11
3.3784291e-11
6.7397695e-11
3.2111364e-11
7.0019648e-11
3.015854e-11
7.237061e-11
2.7946816e-11
7.4451096e-11
2.5475575e-11
7.6256859e-11
2.2755194e-11
7.7785447e-11
1.9795687e-11
7.9034748e-11
1.6608804e-11
7.9998776e-11
1.3209634e-11
8.0787641e-11
9.549249e-12
8.1259739e-11
5.8417799e-12
2.0584904e-12
1.1220941e-11
2.2743677e-11
1.4724905e-11
2.5872587e-11
1.8484181e-11
2.840995e-11
2.2338943e-11
3.0220135e-11
2.6288808e-11
3.1962406e-11
3.0286558e-11
3.3120537e-11
3.4138927e-11
3.3815439e-11
3.8084938e-11
3.3984155e-11
4.1908366e-11
3.4294978e-11
4.5612777e-11
3.4100145e-11
4.9197761e-11
3.3592493e-11
5.2635971e-11
3.2805852e-11
5.5973518e-11
3.1792995e-11
5.9182742e-11
3.0575057e-11
6.2231046e-11
2.9063051e-11
6.5067182e-11
2.7322396e-11
6.7617805e-11
2.5396187e-11
6.9912113e-11
2.3181262e-11
7.1942318e-11
2.0724985e-11
7.3694165e-11
1.8043838e-11
7.5147325e-11
1.5155641e-11
7.627752e-11
1.2079437e-11
7.7059425e-11
8.7673415e-12
7.7522446e-11
5.3787577e-12
1.8118024e-12
9.4673571e-12
2.0030561e-11
1.2509945e-11
2.282995e-11
1.577989e-11
2.513996e-11
1.9132703e-11
2.686728e-11
2.263406e-11
2.8461012e-11
2.6199337e-11
2.9555226e-11
2.9739265e-11
3.027548e-11
3.3203835e-11
3.0519558e-11
3.6778474e-11
3.0720314e-11
4.0255057e-11
3.0623541e-11
4.3622095e-11
3.0225436e-11
4.6862418e-11
2.9565512e-11
4.9994702e-11
2.8660696e-11
5.3035602e-11
2.7534144e-11
5.5932849e-11
2.6165793e-11
5.8630653e-11
2.4624583e-11
6.1170051e-11
2.2856782e-11
6.3479231e-11
2.0872075e-11
6.552809e-11
1.8676121e-11
6.7308797e-11
1.6263126e-11
6.8786053e-11
1.3678382e-11
6.9940696e-11
1.0924791e-11
7.0639582e-11
8.0684534e-12
7.1127036e-11
4.8913019e-12
1.5309904e-12
8.0936849e-12
1.7702001e-11
1.0731571e-11
2.0192016e-11
1.3589839e-11
2.2281647e-11
1.6528604e-11
2.3928475e-11
1.9634197e-11
2.5355381e-11
2.2815153e-11
2.6374236e-11
2.6021866e-11
2.7068735e-11
2.9111903e-11
2.7429493e-11
3.2371554e-11
2.7460637e-11
3.554485e-11
2.7450222e-11
3.8662655e-11
2.7107611e-11
4.1692236e-11
2.6535913e-11
4.4589421e-11
2.5763494e-11
4.7397459e-11
2.4726093e-11
5.0059064e-11
2.3504176e-11
5.2594832e-11
2.2088805e-11
5.4971019e-11
2.0480586e-11
5.7166436e-11
1.8676652e-11
5.9132858e-11
1.6709693e-11
6.0844581e-11
1.4551399e-11
6.22893e-11
1.2233659e-11
6.3453814e-11
9.7602747e-12
6.4462257e-11
7.0600076e-12
6.4991251e-11
4.3623064e-12
1.5079402e-12
7.0374133e-12
1.5655213e-11
9.3522573e-12
1.7877128e-11
1.1870932e-11
1.9762931e-11
1.4484685e-11
2.1314683e-11
1.7259345e-11
2.2580685e-11
2.0109699e-11
2.352385e-11
2.2997723e-11
2.4180681e-11
2.5861471e-11
2.4565719e-11
2.8749209e-11
2.4572875e-11
3.1647976e-11
2.4551432e-11
3.4487974e-11
2.4267593e-11
3.7271917e-11
2.3751953e-11
3.9998024e-11
2.3037371e-11
4.260053e-11
2.2123574e-11
4.505719e-11
2.1047504e-11
4.7394465e-11
1.975152e-11
4.957895e-11
1.8296093e-11
5.1577095e-11
1.66785e-11
5.338561e-11
1.4901173e-11
5.4965528e-11
1.2971477e-11
5.6305974e-11
1.0893209e-11
5.7395216e-11
8.6710296e-12
5.813157e-11
6.3236518e-12
5.8636027e-11
3.8578483e-12
1.3079107e-12
6.1704715e-12
1.3854687e-11
8.2187655e-12
1.5828796e-11
1.0459042e-11
1.7522618e-11
1.2835344e-11
1.8938347e-11
1.5312356e-11
2.0103641e-11
1.7876517e-11
2.0959659e-11
2.0490055e-11
2.1567116e-11
2.3128165e-11
2.1927584e-11
2.5667954e-11
2.2033065e-11
2.8353e-11
2.1866367e-11
3.093727e-11
2.1683305e-11
3.3471051e-11
2.1218157e-11
3.5942232e-11
2.0566177e-11
3.8326792e-11
1.9739003e-11
4.0620295e-11
1.8753991e-11
4.2768096e-11
1.760371e-11
4.4768916e-11
1.6295266e-11
4.6589574e-11
1.4857836e-11
4.8233212e-11
1.325753e-11
4.9673511e-11
1.1531174e-11
5.0887168e-11
9.6795488e-12
5.1850031e-11
7.7081647e-12
5.2557589e-11
5.6160925e-12
5.2988676e-11
3.4267604e-12
1.1419988e-12
5.4342017e-12
1.2275053e-11
7.2634029e-12
1.399956e-11
9.2563902e-12
1.5529598e-11
1.1382665e-11
1.6812041e-11
1.3625366e-11
1.7860912e-11
1.5927855e-11
1.8657145e-11
1.8287126e-11
1.9207822e-11
2.0672344e-11
1.9542344e-11
2.3040928e-11
1.9664461e-11
2.5346141e-11
1.9561136e-11
2.773748e-11
1.9291951e-11
3.0044516e-11
1.8911107e-11
3.2278545e-11
1.8332137e-11
3.4431027e-11
1.758651e-11
3.6495047e-11
1.6689961e-11
3.8443867e-11
1.5654883e-11
4.024725e-11
1.4491876e-11
4.1912805e-11
1.3192277e-11
4.3405156e-11
1.1765176e-11
4.4707531e-11
1.0228796e-11
4.5802346e-11
8.5847314e-12
4.6671794e-11
6.8387154e-12
4.7286675e-11
5.0012104e-12
4.7658261e-11
3.0551741e-12
9.7416387e-13
4.805441e-12
1.0889982e-11
6.3951095e-12
1.240986e-11
8.1789614e-12
1.3745717e-11
1.0078746e-11
1.491223e-11
1.208526e-11
1.5854373e-11
1.4159077e-11
1.6583304e-11
1.6270955e-11
1.7095923e-11
1.8411478e-11
1.7401802e-11
2.0553943e-11
1.7521979e-11
2.2658087e-11
1.7456976e-11
2.4736738e-11
1.7213286e-11
2.6837239e-11
1.6810594e-11
2.8858871e-11
1.6310495e-11
3.079137e-11
1.5654002e-11
3.2628822e-11
1.4852502e-11
3.4361263e-11
1.3922435e-11
3.5982681e-11
1.2870454e-11
3.7469192e-11
1.1705762e-11
3.8791874e-11
1.044249e-11
3.9950233e-11
9.0704344e-12
4.0932264e-11
7.6026985e-12
4.1724368e-11
6.0466107e-12
4.2277826e-11
4.4477511e-12
4.2659761e-11
2.6732387e-12
8.7410208e-13