/*--------------------------------*- C++ -*----------------------------------*\
| =========                 |                                                 |
| \\      /  F ield         | OpenFOAM: The Open Source CFD Toolbox           |
|  \\    /   O peration     | Version:  4.0                                   |
|   \\  /    A nd           | Web:      www.OpenFOAM.org                      |
|    \\/     M anipulation  |                                                 |
\*---------------------------------------------------------------------------*/
FoamFile
{
    version     2.0;
    format      ascii;
    class       volScalarField;
    location    "0.28";
    object      nut;
}
// * * * * * * * * * * * * * * * * * * * * * * * * * * * * * * * * * * * * * //

dimensions      [0 2 -1 0 0 0 0];

internalField   nonuniform List<scalar> 
1740
(
1.6124258e-05
1.3483098e-05
1.2530168e-06
1.1603992e-05
6.7599342e-06
1.8367777e-06
2.502049e-05
5.2371906e-06
2.2901622e-06
2.2570003e-05
4.665624e-06
2.7319928e-06
2.0037725e-05
4.2979985e-06
3.1120718e-06
1.6036695e-05
4.033441e-06
3.4019642e-06
1.3872509e-05
3.8639228e-06
3.6381651e-06
1.2334652e-05
3.742647e-06
3.8409915e-06
1.1146911e-05
3.6505591e-06
4.0644775e-06
1.0005942e-05
3.593417e-06
4.2007611e-06
8.9212907e-06
3.5489334e-06
4.3005183e-06
8.0383097e-06
3.5400094e-06
4.3985438e-06
7.4746615e-06
3.5357839e-06
4.4771842e-06
6.9753174e-06
3.5156059e-06
4.5096632e-06
6.5964453e-06
3.5078286e-06
4.5794867e-06
6.2393476e-06
3.5180134e-06
4.6321089e-06
5.9235411e-06
3.4911359e-06
4.5963859e-06
5.68014e-06
3.4757279e-06
4.6226903e-06
5.460192e-06
3.482203e-06
4.692937e-06
5.2167651e-06
3.5325451e-06
4.7266261e-06
5.0150289e-06
3.5432475e-06
4.7270582e-06
4.8791623e-06
3.5486218e-06
4.7233546e-06
4.7670382e-06
3.5739931e-06
4.7304741e-06
4.6555287e-06
3.5920113e-06
4.7225213e-06
4.5376588e-06
3.5626566e-06
4.7149158e-06
4.4215586e-06
3.5409033e-06
4.6939227e-06
4.3069125e-06
3.5362287e-06
4.6792539e-06
4.2115467e-06
3.5486773e-06
4.6598285e-06
4.1659838e-06
3.5624379e-06
4.6164219e-06
2.4892738e-06
3.606677e-06
4.3064273e-06
1.8467819e-06
2.1425309e-06
4.4087543e-06
7.1846584e-06
7.3551033e-06
6.685375e-06
6.5345773e-06
6.7398351e-06
6.3697602e-06
5.1649662e-06
5.1015619e-06
4.8563821e-06
4.3143455e-06
4.2424474e-06
4.1095012e-06
3.754099e-06
3.7117673e-06
3.6525968e-06
3.3413446e-06
3.3234679e-06
3.3064824e-06
2.9842595e-06
2.9802915e-06
2.9839193e-06
2.6219815e-06
2.6240785e-06
2.6350865e-06
2.2222897e-06
2.2258795e-06
2.2370503e-06
1.7840868e-06
1.7870194e-06
1.7951876e-06
1.3364247e-06
1.3380709e-06
1.342637e-06
9.263263e-07
9.2688101e-07
9.286365e-07
5.9540409e-07
5.9533844e-07
5.9549642e-07
3.6003245e-07
3.5974688e-07
3.5929234e-07
2.1036405e-07
2.1008069e-07
2.0956284e-07
1.2406388e-07
1.238807e-07
1.2352381e-07
7.8047806e-08
7.7947596e-08
7.7748437e-08
5.5178769e-08
5.5135461e-08
5.5051307e-08
4.4838873e-08
4.4830031e-08
4.4817645e-08
4.0957624e-08
4.096753e-08
4.0994813e-08
4.0258939e-08
4.0278118e-08
4.0324902e-08
4.1057318e-08
4.1080575e-08
4.1135462e-08
4.2524207e-08
4.2548816e-08
4.2605809e-08
4.4271797e-08
4.4296356e-08
4.435247e-08
4.6128239e-08
4.6152046e-08
4.6205888e-08
4.8021775e-08
4.8044492e-08
4.8095473e-08
4.992404e-08
4.9945517e-08
4.9993438e-08
5.1823857e-08
5.1844041e-08
5.1888883e-08
5.3715878e-08
5.3734765e-08
5.3776588e-08
5.5595997e-08
5.5613607e-08
5.5652507e-08
5.7459682e-08
5.747605e-08
5.7512139e-08
5.9301474e-08
5.9316642e-08
5.9350038e-08
6.1114913e-08
6.112893e-08
6.1159755e-08
6.2892615e-08
6.2905531e-08
6.293391e-08
6.4626389e-08
6.4638259e-08
6.4664318e-08
6.6307387e-08
6.6318267e-08
6.6342138e-08
6.7926292e-08
6.7936241e-08
6.7958061e-08
6.9473562e-08
6.9482644e-08
6.9502555e-08
7.0939738e-08
7.0948021e-08
7.0966173e-08
7.2315782e-08
7.2323338e-08
7.2339892e-08
7.3593353e-08
7.3600257e-08
7.3615381e-08
7.4764841e-08
7.4771173e-08
7.4785041e-08
7.5822917e-08
7.5828758e-08
7.584155e-08
7.6759318e-08
7.6764749e-08
7.6776642e-08
7.756253e-08
7.7567633e-08
7.7578802e-08
7.8210799e-08
7.821564e-08
7.8226241e-08
7.8668987e-08
7.8673627e-08
7.8683799e-08
7.8867972e-08
7.8872456e-08
7.888231e-08
7.8629946e-08
7.8634256e-08
7.8643816e-08
4.1765799e-06
4.5019948e-06
6.6326746e-06
8.323477e-06
5.9874879e-06
6.0309503e-06
4.7170334e-06
4.8233481e-06
4.0656794e-06
4.1757414e-06
3.6548775e-06
3.7540571e-06
3.3308791e-06
3.4166352e-06
3.0156835e-06
3.0867752e-06
2.6652994e-06
2.7209681e-06
2.2610291e-06
2.3013547e-06
1.8113725e-06
1.8376661e-06
1.3516932e-06
1.3665389e-06
9.3252207e-07
9.3934767e-07
5.9643631e-07
5.9864646e-07
3.5899495e-07
3.5913867e-07
2.0899305e-07
2.0852641e-07
1.2308493e-07
1.2264461e-07
7.7495612e-08
7.7229865e-08
5.4948419e-08
5.4847007e-08
4.4812484e-08
4.4824358e-08
4.1044775e-08
4.1122012e-08
4.0401861e-08
4.0510974e-08
4.122304e-08
4.1343941e-08
4.269531e-08
4.2817237e-08
4.4439655e-08
4.4557439e-08
4.6288893e-08
4.6400376e-08
4.8173614e-08
4.8278117e-08
5.006657e-08
5.0164068e-08
5.1957093e-08
5.2047816e-08
5.3840051e-08
5.3924312e-08
5.5711426e-08
5.578955e-08
5.7566723e-08
5.7639023e-08
5.9400493e-08
5.946727e-08
6.1206284e-08
6.1267827e-08
6.2976716e-08
6.3033305e-08
6.4703604e-08
6.4755515e-08
6.6378109e-08
6.642562e-08
6.7990927e-08
6.8034323e-08
6.9532536e-08
6.9572109e-08
7.0993499e-08
7.1029556e-08
7.2364804e-08
7.2397669e-08
7.3638135e-08
7.3668147e-08
7.4805903e-08
7.4833414e-08
7.5860791e-08
7.5886161e-08
7.6794532e-08
7.681812e-08
7.7595604e-08
7.761776e-08
7.8242198e-08
7.8263254e-08
7.8699135e-08
7.8719396e-08
7.8897209e-08
7.8916925e-08
7.8658361e-08
7.8677638e-08
2.4877022e-10
1.3150229e-08
1.9280394e-07
8.2553531e-07
1.6416929e-06
2.2275679e-06
2.5718698e-06
2.7795694e-06
2.9228461e-06
3.0371803e-06
3.1393935e-06
3.2421236e-06
3.3441287e-06
3.4440253e-06
3.540958e-06
3.6336298e-06
3.7197335e-06
3.7953668e-06
3.8541587e-06
3.885941e-06
3.8746131e-06
3.7945773e-06
3.6042485e-06
3.228579e-06
2.433098e-06
2.0524711e-10
2.6859546e-08
3.5975983e-07
1.3766407e-06
2.5691018e-06
3.3765308e-06
3.8486022e-06
4.1542344e-06
4.3875991e-06
4.5912407e-06
4.785268e-06
4.9810851e-06
5.1780861e-06
5.3748555e-06
5.5697236e-06
5.760033e-06
5.941254e-06
6.1059744e-06
6.2420452e-06
6.3299337e-06
6.3383064e-06
6.2161082e-06
5.8772914e-06
5.1634618e-06
3.6507431e-06
6.5560356e-10
7.8758198e-08
8.5721748e-07
2.507283e-06
3.7926947e-06
4.5288724e-06
4.9918138e-06
5.3364286e-06
5.6351415e-06
5.9201247e-06
6.2063854e-06
6.5002659e-06
6.8006126e-06
7.1060735e-06
7.4150937e-06
7.7246058e-06
8.0285457e-06
8.3173103e-06
8.5739491e-06
8.7708015e-06
8.8627383e-06
8.7742922e-06
8.3731531e-06
7.4057763e-06
5.237137e-06
3.1036225e-09
2.8506385e-07
2.0621287e-06
4.0027033e-06
5.0432511e-06
5.6308881e-06
6.0374568e-06
6.3795239e-06
6.7071941e-06
7.0388336e-06
7.3849994e-06
7.7486425e-06
8.1259694e-06
8.5154596e-06
8.9166394e-06
9.3279199e-06
9.744234e-06
1.0156194e-05
1.0547649e-05
1.089169e-05
1.1143713e-05
1.1227744e-05
1.1003888e-05
1.0169726e-05
7.8106242e-06
2.3229012e-08
1.1372876e-06
3.9884904e-06
5.5970361e-06
6.4484047e-06
6.9691452e-06
7.3525437e-06
7.6984959e-06
8.0483123e-06
8.4026632e-06
8.7749471e-06
9.1724378e-06
9.5836023e-06
1.0004495e-05
1.0436729e-05
1.0884617e-05
1.1347071e-05
1.1819205e-05
1.2291127e-05
1.2745102e-05
1.3151176e-05
1.3461153e-05
1.3601306e-05
1.3479491e-05
1.3069447e-05
1.9488379e-07
2.7479848e-06
5.8970531e-06
7.7034282e-06
8.6202047e-06
9.0382854e-06
9.2350155e-06
9.372331e-06
9.5113885e-06
9.6705448e-06
9.8575203e-06
1.007849e-05
1.0333868e-05
1.0623427e-05
1.0947909e-05
1.1307824e-05
1.1702712e-05
1.2129973e-05
1.2584074e-05
1.3055021e-05
1.3525573e-05
1.3968184e-05
1.4341974e-05
1.4601505e-05
1.4693021e-05
4.3373159e-06
4.3055833e-06
4.3496359e-06
4.4640061e-06
4.644348e-06
4.8784367e-06
5.1551814e-06
5.4713739e-06
5.8292125e-06
6.2308367e-06
6.675958e-06
7.1614857e-06
7.6814365e-06
8.228292e-06
8.7947859e-06
9.3754936e-06
9.9671329e-06
1.056744e-05
1.1173705e-05
1.1780914e-05
1.2379045e-05
1.2950209e-05
1.3465966e-05
1.3892808e-05
1.4167587e-05
9.1045268e-06
9.3616857e-06
9.7679608e-06
1.0187765e-05
1.0364139e-05
1.0327372e-05
1.0210047e-05
1.01129e-05
1.0075918e-05
1.010036e-05
1.0181986e-05
1.0316001e-05
1.0500009e-05
1.0733353e-05
1.1015435e-05
1.1345099e-05
1.1719775e-05
1.2135054e-05
1.2583735e-05
1.3053997e-05
1.3526513e-05
1.3971472e-05
1.4345647e-05
1.4602373e-05
1.4689747e-05
6.4033422e-06
6.8140058e-06
7.2459544e-06
7.6457235e-06
7.9470892e-06
8.1635386e-06
8.3546345e-06
8.5611856e-06
8.789817e-06
9.0553056e-06
9.3541018e-06
9.6769115e-06
1.0018446e-05
1.0384246e-05
1.0777707e-05
1.1199104e-05
1.164547e-05
1.2109917e-05
1.2579927e-05
1.3034558e-05
1.3440028e-05
1.3743825e-05
1.3867904e-05
1.3717301e-05
1.3268829e-05
5.1362538e-06
5.4925953e-06
5.8425544e-06
6.1582906e-06
6.4228489e-06
6.6486289e-06
6.8656674e-06
7.0942005e-06
7.3449213e-06
7.6240909e-06
7.9294185e-06
8.2578598e-06
8.608811e-06
8.9830323e-06
9.3800022e-06
9.7963871e-06
1.0224901e-05
1.0652747e-05
1.1059151e-05
1.1411332e-05
1.1657596e-05
1.1714159e-05
1.1433538e-05
1.0504976e-05
7.9916735e-06
4.4179631e-06
4.7056422e-06
4.9934543e-06
5.2607407e-06
5.5013047e-06
5.7228775e-06
5.9396123e-06
6.1639529e-06
6.404056e-06
6.6637088e-06
6.9423028e-06
7.2383826e-06
7.5514077e-06
7.8804636e-06
8.2233907e-06
8.5744728e-06
8.9235362e-06
9.254106e-06
9.5407016e-06
9.744696e-06
9.8077116e-06
9.6401142e-06
9.0978259e-06
7.9237106e-06
5.4951045e-06
3.9384235e-06
4.1625709e-06
4.3939277e-06
4.6164869e-06
4.8259679e-06
5.0265511e-06
5.2259629e-06
5.4315518e-06
5.6485951e-06
5.8795704e-06
6.1244551e-06
6.3822798e-06
6.6519539e-06
6.9314908e-06
7.2170303e-06
7.5017433e-06
7.7744923e-06
8.0181462e-06
8.2073354e-06
8.3053836e-06
8.2600398e-06
7.9970017e-06
7.4077755e-06
6.3151579e-06
4.2627457e-06
3.5578746e-06
3.7307495e-06
3.9141435e-06
4.0959103e-06
4.2719138e-06
4.4436532e-06
4.6152193e-06
4.7909787e-06
4.9742749e-06
5.1667886e-06
5.3686448e-06
5.5790691e-06
5.7967162e-06
6.0192462e-06
6.2425691e-06
6.4599726e-06
6.6611018e-06
6.8306452e-06
6.9467493e-06
6.9791962e-06
6.8873932e-06
6.6179554e-06
6.0999544e-06
5.2242772e-06
3.6682788e-06
3.1945337e-06
3.3262972e-06
3.4688613e-06
3.6133287e-06
3.7557372e-06
3.8959257e-06
4.0357936e-06
4.1777868e-06
4.32391e-06
4.4752109e-06
4.6317347e-06
4.792756e-06
4.9568897e-06
5.1218438e-06
5.2839353e-06
5.437449e-06
5.5738707e-06
5.6809784e-06
5.7418829e-06
5.7342115e-06
5.6298145e-06
5.3957831e-06
4.9991192e-06
4.426056e-06
3.7862895e-06
2.8010336e-06
2.8987006e-06
3.0058204e-06
3.1159981e-06
3.2256547e-06
3.3337746e-06
3.4409577e-06
3.5484055e-06
3.6572096e-06
3.7679367e-06
3.8805071e-06
3.9942421e-06
4.1078906e-06
4.2194981e-06
4.3261198e-06
4.4234079e-06
4.5051043e-06
4.5624869e-06
4.5838903e-06
4.5545409e-06
4.4572116e-06
4.2747843e-06
3.9977921e-06
3.6470541e-06
3.3380961e-06
2.3577476e-06
2.4265431e-06
2.5027188e-06
2.5817597e-06
2.6606666e-06
2.7380744e-06
2.8138239e-06
2.8883467e-06
2.962145e-06
3.0354534e-06
3.1081002e-06
3.1794904e-06
3.2486203e-06
3.3140249e-06
3.3736456e-06
3.4246133e-06
3.4629761e-06
3.4834289e-06
3.4791635e-06
3.4420645e-06
3.3636685e-06
3.2376663e-06
3.0655892e-06
2.8694126e-06
2.7162062e-06
1.8741402e-06
1.9188435e-06
1.9687234e-06
2.020686e-06
2.0723689e-06
2.1224074e-06
2.1702869e-06
2.2159908e-06
2.2596581e-06
2.3013178e-06
2.3407663e-06
2.3775398e-06
2.410931e-06
2.4400012e-06
2.4635563e-06
2.4800764e-06
2.4876215e-06
2.483761e-06
2.4656215e-06
2.4302132e-06
2.3752613e-06
2.3007179e-06
2.2104184e-06
2.1089592e-06
1.9557532e-06
1.3873832e-06
1.4132304e-06
1.4422869e-06
1.4725348e-06
1.5022604e-06
1.5303133e-06
1.5561007e-06
1.5794065e-06
1.6001749e-06
1.6183426e-06
1.633737e-06
1.646049e-06
1.6548641e-06
1.6597066e-06
1.6600729e-06
1.6554463e-06
1.6453012e-06
1.6291276e-06
1.606538e-06
1.5775388e-06
1.543019e-06
1.5052613e-06
1.4673003e-06
1.4260262e-06
1.3280156e-06
9.4935335e-07
9.6207198e-07
9.7650473e-07
9.9142912e-07
1.0057175e-06
1.0185342e-06
1.0293779e-06
1.0380053e-06
1.044306e-06
1.0482033e-06
1.049589e-06
1.0483047e-06
1.0441707e-06
1.0370347e-06
1.0268227e-06
1.0135747e-06
9.974744e-07
9.7888157e-07
9.584002e-07
9.3701051e-07
9.1623256e-07
8.9807461e-07
8.8390891e-07
8.6956365e-07
8.2163442e-07
6.0233038e-07
6.0729803e-07
6.1303733e-07
6.1886887e-07
6.2412507e-07
6.2827787e-07
6.3098303e-07
6.3205521e-07
6.314049e-07
6.2898464e-07
6.2474985e-07
6.1864928e-07
6.1064373e-07
6.0074565e-07
5.8905964e-07
5.7581002e-07
5.6135873e-07
5.4621397e-07
5.3104349e-07
5.1669861e-07
5.0420605e-07
4.9456245e-07
4.878959e-07
4.8098888e-07
4.5909658e-07
3.5986611e-07
3.6111956e-07
3.6265652e-07
3.641356e-07
3.6519819e-07
3.6554877e-07
3.6498671e-07
3.6339968e-07
3.6073708e-07
3.569808e-07
3.5212532e-07
3.4617305e-07
3.3914062e-07
3.3108579e-07
3.2213533e-07
3.1249971e-07
3.0247595e-07
2.9243909e-07
2.8282912e-07
2.7413385e-07
2.6684038e-07
2.612889e-07
2.5724289e-07
2.529752e-07
2.433179e-07
2.0825168e-07
2.0816126e-07
2.0815031e-07
2.0805988e-07
2.0771584e-07
2.0697009e-07
2.0572003e-07
2.0390902e-07
2.0151475e-07
1.9853614e-07
1.9498185e-07
1.9086755e-07
1.8622183e-07
1.8108484e-07
1.7554831e-07
1.697538e-07
1.6388669e-07
1.5816383e-07
1.5282013e-07
1.480846e-07
1.4414229e-07
1.4108704e-07
1.3874778e-07
1.364487e-07
1.327459e-07
1.2225295e-07
1.2191446e-07
1.215886e-07
1.2120611e-07
1.2068887e-07
1.1996851e-07
1.1899694e-07
1.1774829e-07
1.1621438e-07
1.1439895e-07
1.1231191e-07
1.0996704e-07
1.0738402e-07
1.0459294e-07
1.0163632e-07
9.859214e-08
9.5559688e-08
9.2656118e-08
9.0023805e-08
8.7739837e-08
8.5839928e-08
8.4350576e-08
8.3195197e-08
8.2141456e-08
8.0786724e-08
7.6978384e-08
7.6747964e-08
7.6524415e-08
7.6279202e-08
7.5978493e-08
7.5591776e-08
7.5096877e-08
7.4481521e-08
7.3741537e-08
7.2878087e-08
7.189522e-08
7.0799146e-08
6.9599509e-08
6.8313035e-08
6.6959269e-08
6.5577508e-08
6.4217201e-08
6.2934845e-08
6.179259e-08
6.0852851e-08
6.0089523e-08
5.949604e-08
5.90385e-08
5.8626068e-08
5.8091921e-08
5.4761444e-08
5.4697103e-08
5.4649528e-08
5.4607129e-08
5.4555058e-08
5.4479087e-08
5.4368068e-08
5.4214577e-08
5.4014379e-08
5.3765313e-08
5.3466581e-08
5.311882e-08
5.2725081e-08
5.2292218e-08
5.1831543e-08
5.1357619e-08
5.0894628e-08
5.0468942e-08
5.0108517e-08
4.9844879e-08
4.9664894e-08
4.953628e-08
4.9440134e-08
4.9329514e-08
4.9102299e-08
4.4860618e-08
4.4924647e-08
4.5014943e-08
4.5126195e-08
4.5251013e-08
4.5381541e-08
4.5510633e-08
4.5632223e-08
4.5741281e-08
4.5833594e-08
4.5905758e-08
4.5955505e-08
4.598232e-08
4.5988166e-08
4.5978074e-08
4.595692e-08
4.5935911e-08
4.5927493e-08
4.5944546e-08
4.6001881e-08
4.6099147e-08
4.619179e-08
4.6265643e-08
4.6285734e-08
4.616761e-08
4.1230068e-08
4.1370718e-08
4.1542922e-08
4.1743342e-08
4.1967136e-08
4.2208692e-08
4.2462196e-08
4.2721951e-08
4.2982538e-08
4.3238947e-08
4.3486796e-08
4.3722652e-08
4.3944429e-08
4.4151748e-08
4.4346104e-08
4.4530516e-08
4.4708356e-08
4.4886441e-08
4.5071384e-08
4.5270391e-08
4.5487822e-08
4.567723e-08
4.5825342e-08
4.59001e-08
4.5824041e-08
4.0653711e-08
4.0830713e-08
4.1040684e-08
4.1280749e-08
4.1546863e-08
4.1834218e-08
4.2137585e-08
4.2451583e-08
4.2770905e-08
4.3090544e-08
4.3406033e-08
4.3713726e-08
4.4011077e-08
4.4296881e-08
4.4571405e-08
4.4836399e-08
4.5092819e-08
4.5344881e-08
4.5596565e-08
4.5851816e-08
4.6114759e-08
4.6342095e-08
4.6519622e-08
4.6614996e-08
4.65503e-08
4.1498492e-08
4.1686559e-08
4.190654e-08
4.2155647e-08
4.2430177e-08
4.2725772e-08
4.3037676e-08
4.3360951e-08
4.3690701e-08
4.4022291e-08
4.4351564e-08
4.4675081e-08
4.4990354e-08
4.5296039e-08
4.5592071e-08
4.5879714e-08
4.6159487e-08
4.6434312e-08
4.6706981e-08
4.6979871e-08
4.7255511e-08
4.7494594e-08
4.7681196e-08
4.778118e-08
4.7712962e-08
4.2971274e-08
4.3156782e-08
4.337198e-08
4.361416e-08
4.3879902e-08
4.4165259e-08
4.4465951e-08
4.477755e-08
4.509567e-08
4.5416154e-08
4.5735279e-08
4.6049956e-08
4.6357951e-08
4.6658057e-08
4.6950204e-08
4.7235394e-08
4.7515266e-08
4.7791203e-08
4.8065558e-08
4.8339755e-08
4.8614671e-08
4.8854405e-08
4.9041071e-08
4.9138245e-08
4.905939e-08
4.4705145e-08
4.4881829e-08
4.5085646e-08
4.531403e-08
4.556385e-08
4.5831557e-08
4.6113332e-08
4.6405243e-08
4.6703398e-08
4.700411e-08
4.7304086e-08
4.7600612e-08
4.7891768e-08
4.81766e-08
4.8455226e-08
4.8728794e-08
4.8999244e-08
4.9267851e-08
4.9536437e-08
4.9805657e-08
5.0074867e-08
5.0310883e-08
5.0493909e-08
5.0585368e-08
5.049473e-08
4.6539467e-08
4.6705052e-08
4.6895305e-08
4.7107828e-08
4.7339774e-08
4.7587956e-08
4.7848971e-08
4.8119323e-08
4.8395555e-08
4.8674402e-08
4.8952957e-08
4.9228866e-08
4.9500528e-08
4.9767276e-08
5.0029482e-08
5.0288497e-08
5.0546337e-08
5.080502e-08
5.1065421e-08
5.1327651e-08
5.1589723e-08
5.1820627e-08
5.1998839e-08
5.2083818e-08
5.1980857e-08
4.8408016e-08
4.856212e-08
4.8738664e-08
4.8935426e-08
4.9149813e-08
4.9378957e-08
4.9619808e-08
4.9869239e-08
5.0124166e-08
5.0381686e-08
5.0639234e-08
5.0894782e-08
5.1147037e-08
5.1395628e-08
5.1641205e-08
5.188537e-08
5.2130349e-08
5.237837e-08
5.263008e-08
5.2885001e-08
5.3139922e-08
5.3365565e-08
5.3538741e-08
5.3616583e-08
5.3498515e-08
5.0284929e-08
5.0427938e-08
5.0591417e-08
5.0773306e-08
5.097124e-08
5.1182617e-08
5.1404687e-08
5.1634635e-08
5.1869692e-08
5.2107262e-08
5.2345086e-08
5.2581429e-08
5.281529e-08
5.3046586e-08
5.3276249e-08
5.3506148e-08
5.3738724e-08
5.3976329e-08
5.4219616e-08
5.4467544e-08
5.4715822e-08
5.493654e-08
5.510482e-08
5.5175039e-08
5.5039898e-08
5.2160052e-08
5.2292596e-08
5.2443861e-08
5.261194e-08
5.2794665e-08
5.2989664e-08
5.3194436e-08
5.3406433e-08
5.3623152e-08
5.3842269e-08
5.4061793e-08
5.4280258e-08
5.4496935e-08
5.4712018e-08
5.492672e-08
5.5143168e-08
5.5364009e-08
5.5591648e-08
5.5827097e-08
5.6068543e-08
5.6310812e-08
5.6527083e-08
5.6690844e-08
5.6753692e-08
5.6602156e-08
5.4028393e-08
5.4151126e-08
5.4291015e-08
5.4446291e-08
5.4614958e-08
5.4794846e-08
5.4983669e-08
5.5179103e-08
5.5378881e-08
5.5580917e-08
5.578346e-08
5.5985292e-08
5.6185942e-08
5.6385868e-08
5.6586553e-08
5.6790385e-08
5.7000231e-08
5.7218628e-08
5.7446628e-08
5.7682058e-08
5.7918897e-08
5.8131182e-08
5.8290939e-08
5.8347272e-08
5.8180715e-08
5.5885937e-08
5.5999465e-08
5.6128732e-08
5.6272095e-08
5.6427713e-08
5.6593588e-08
5.6767625e-08
5.69477e-08
5.7131751e-08
5.7317904e-08
5.7504629e-08
5.7690939e-08
5.78766e-08
5.8062327e-08
5.8249864e-08
5.8441855e-08
5.8641386e-08
5.8851131e-08
5.9072127e-08
5.9301975e-08
5.9533867e-08
5.9742499e-08
5.989866e-08
5.9949557e-08
5.9770921e-08
5.7728144e-08
5.7833017e-08
5.7952331e-08
5.808456e-08
5.8228001e-08
5.8380813e-08
5.8541067e-08
5.870682e-08
5.8876195e-08
5.904751e-08
5.9219437e-08
5.9391202e-08
5.9562801e-08
5.9735191e-08
5.9910367e-08
6.0091222e-08
6.0281055e-08
6.0482662e-08
6.0697024e-08
6.0921721e-08
6.1149044e-08
6.1354186e-08
6.150679e-08
6.1552425e-08
6.1362082e-08
5.9549523e-08
5.9646242e-08
5.9756201e-08
5.9877986e-08
6.0010018e-08
6.0150598e-08
6.029795e-08
6.0450291e-08
6.0605914e-08
6.0763315e-08
6.0921353e-08
6.1079453e-08
6.1237824e-08
6.1397656e-08
6.1561189e-08
6.1731555e-08
6.1912258e-08
6.2106225e-08
6.2314421e-08
6.2534217e-08
6.2757241e-08
6.2958927e-08
6.3107637e-08
6.3146922e-08
6.2939946e-08
6.1343586e-08
6.1432613e-08
6.1533766e-08
6.1645731e-08
6.1767046e-08
6.1896143e-08
6.2031384e-08
6.2171134e-08
6.2313841e-08
6.2458165e-08
6.260314e-08
6.2748376e-08
6.2894289e-08
6.3042286e-08
6.3194841e-08
6.3355315e-08
6.3527414e-08
6.3714189e-08
6.3916593e-08
6.4131756e-08
6.4350714e-08
6.4548953e-08
6.4693404e-08
6.4725099e-08
6.4501598e-08
6.3102929e-08
6.3184702e-08
6.3277562e-08
6.3380289e-08
6.349153e-08
6.3609836e-08
6.3733698e-08
6.3861615e-08
6.3992181e-08
6.4124207e-08
6.4256889e-08
6.4390014e-08
6.452419e-08
6.4661032e-08
6.4803236e-08
6.4954381e-08
6.5118365e-08
6.5298356e-08
6.5495291e-08
6.5706062e-08
6.5921146e-08
6.6115959e-08
6.6256018e-08
6.6279911e-08
6.6039528e-08
6.4819356e-08
6.4894299e-08
6.4979358e-08
6.5073402e-08
6.5175182e-08
6.5283354e-08
6.5396532e-08
6.5513338e-08
6.5632501e-08
6.5752972e-08
6.58741e-08
6.5995835e-08
6.6118966e-08
6.6245307e-08
6.637776e-08
6.6520114e-08
6.6676443e-08
6.6850023e-08
6.7041768e-08
6.724833e-08
6.7459667e-08
6.7650995e-08
6.778646e-08
6.7802366e-08
6.7545524e-08
6.6484027e-08
6.6552559e-08
6.6630302e-08
6.6716209e-08
6.6809123e-08
6.6907805e-08
6.7010975e-08
6.7117376e-08
6.7225856e-08
6.7335499e-08
6.7445794e-08
6.7556846e-08
6.7669613e-08
6.7786091e-08
6.7909379e-08
6.8043459e-08
6.8192568e-08
6.8360077e-08
6.8546862e-08
6.8749316e-08
6.8956964e-08
6.9144642e-08
6.9275156e-08
6.9282614e-08
6.9008756e-08
6.808765e-08
6.8150194e-08
6.8221108e-08
6.8299423e-08
6.8384069e-08
6.8473901e-08
6.8567741e-08
6.8664438e-08
6.8762955e-08
6.8862496e-08
6.8962681e-08
6.9063758e-08
6.9166839e-08
6.9274091e-08
6.9388793e-08
6.9515101e-08
6.9657401e-08
6.9819143e-08
7.0001162e-08
7.0199607e-08
7.0403483e-08
7.0587274e-08
7.0712527e-08
7.0711513e-08
7.0418937e-08
6.9620721e-08
6.9677711e-08
6.9742294e-08
6.9813575e-08
6.9890561e-08
6.9972197e-08
7.0057396e-08
7.0145105e-08
7.0234393e-08
7.0324573e-08
7.0415386e-08
7.0507208e-08
7.0601292e-08
7.0699962e-08
7.0806654e-08
7.0925681e-08
7.1061556e-08
7.121779e-08
7.1395166e-08
7.1589595e-08
7.1789564e-08
7.1969213e-08
7.2088916e-08
7.207913e-08
7.17704e-08
7.1073835e-08
7.1125722e-08
7.1184492e-08
7.1249315e-08
7.1319273e-08
7.1393388e-08
7.1470659e-08
7.1550122e-08
7.1630939e-08
7.1712526e-08
7.1794729e-08
7.1878039e-08
7.1963838e-08
7.2054581e-08
7.2153843e-08
7.2266067e-08
7.2395867e-08
7.2546793e-08
7.2719562e-08
7.2909857e-08
7.3105679e-08
7.3280845e-08
7.3394689e-08
7.3376013e-08
7.3051649e-08
7.2438014e-08
7.2485272e-08
7.2538771e-08
7.2597739e-08
7.2661328e-08
7.2728628e-08
7.2798715e-08
7.2870706e-08
7.2943846e-08
7.301764e-08
7.3092027e-08
7.3167602e-08
7.324585e-08
7.3329339e-08
7.3421756e-08
7.352764e-08
7.3651674e-08
7.379742e-08
7.396551e-08
7.4151419e-08
7.4342671e-08
7.4512828e-08
7.4620322e-08
7.4592633e-08
7.4256626e-08
7.3704978e-08
7.3748103e-08
7.3796897e-08
7.3850643e-08
7.390855e-08
7.3969773e-08
7.4033455e-08
7.4098782e-08
7.4165072e-08
7.4231909e-08
7.4299311e-08
7.4367955e-08
7.4439415e-08
7.4516342e-08
7.46025e-08
7.470249e-08
7.4821019e-08
7.4961624e-08
7.5124839e-08
7.5305953e-08
7.5491957e-08
7.5656322e-08
7.5756735e-08
7.5719517e-08
7.5365571e-08
7.4867168e-08
7.4906674e-08
7.4951351e-08
7.5000529e-08
7.5053467e-08
7.5109377e-08
7.5167458e-08
7.5226956e-08
7.5287254e-08
7.5347997e-08
7.540927e-08
7.5471816e-08
7.553727e-08
7.5608338e-08
7.5688823e-08
7.578334e-08
7.5896571e-08
7.6031982e-08
7.6189985e-08
7.6365706e-08
7.6545462e-08
7.6702903e-08
7.6795121e-08
7.674738e-08
7.6377309e-08
7.5917282e-08
7.5953695e-08
7.5994853e-08
7.6040127e-08
7.608882e-08
7.614019e-08
7.6193485e-08
7.6248002e-08
7.6303175e-08
7.6358699e-08
7.6414711e-08
7.6471998e-08
7.6532233e-08
7.6598144e-08
7.667353e-08
7.6762965e-08
7.6871048e-08
7.7001116e-08
7.7153426e-08
7.7322853e-08
7.7495061e-08
7.7644078e-08
7.7726747e-08
7.7668365e-08
7.7289623e-08
7.6847052e-08
7.6880892e-08
7.6919121e-08
7.6961144e-08
7.7006302e-08
7.705389e-08
7.7103199e-08
7.7153566e-08
7.7204463e-08
7.7255627e-08
7.7307226e-08
7.7360076e-08
7.741586e-08
7.7477294e-08
7.7548128e-08
7.7632837e-08
7.7735866e-08
7.7860357e-08
7.800644e-08
7.8168145e-08
7.8331276e-08
7.8470027e-08
7.8541319e-08
7.847092e-08
7.8080826e-08
7.7644932e-08
7.7676698e-08
7.7712557e-08
7.7751939e-08
7.7794221e-08
7.7838735e-08
7.7884802e-08
7.7931792e-08
7.797921e-08
7.8026815e-08
7.8074796e-08
7.8123974e-08
7.8176021e-08
7.8233608e-08
7.8300389e-08
7.8380683e-08
7.8478703e-08
7.859725e-08
7.8735896e-08
7.8888578e-08
7.9041013e-08
7.9167472e-08
7.9225341e-08
7.9141539e-08
7.8739227e-08
7.8289078e-08
7.8319241e-08
7.835325e-08
7.8390556e-08
7.8430575e-08
7.847268e-08
7.8516218e-08
7.856058e-08
7.8605293e-08
7.8650127e-08
7.8695269e-08
7.8741529e-08
7.8790553e-08
7.8844922e-08
7.8908152e-08
7.8984356e-08
7.9077456e-08
7.9189856e-08
7.9320656e-08
7.946341e-08
7.9603674e-08
7.9715925e-08
7.9758429e-08
7.9660192e-08
7.9247693e-08
7.8744237e-08
7.8773191e-08
7.8805801e-08
7.8841507e-08
7.8879759e-08
7.8920004e-08
7.8961611e-08
7.9003985e-08
7.9046659e-08
7.9089403e-08
7.9132374e-08
7.9176345e-08
7.9222994e-08
7.9274702e-08
7.9334796e-08
7.9407199e-08
7.9495547e-08
7.9601813e-08
7.9724607e-08
7.9856878e-08
7.9983975e-08
8.0080695e-08
8.0106482e-08
7.9992847e-08
7.9570286e-08
7.894105e-08
7.8969115e-08
7.9000913e-08
7.9035616e-08
7.9072501e-08
7.9111304e-08
7.9151456e-08
7.9192359e-08
7.9233546e-08
7.9274754e-08
7.9316049e-08
7.9358131e-08
7.9403123e-08
7.9452638e-08
7.9509714e-08
7.9578447e-08
7.9662314e-08
7.9762898e-08
7.9878565e-08
8.0000736e-08
8.0114734e-08
8.0195967e-08
8.0205509e-08
8.0078546e-08
7.9657811e-08
7.8701181e-08
7.8730104e-08
7.8763641e-08
7.8799611e-08
7.8835754e-08
7.8873474e-08
7.891257e-08
7.8952461e-08
7.8992659e-08
7.9032803e-08
7.9072659e-08
7.9112848e-08
7.9157762e-08
7.9205468e-08
7.9258422e-08
7.9322967e-08
7.9402552e-08
7.9498698e-08
7.9613652e-08
7.9728156e-08
7.9830842e-08
7.989884e-08
7.9895519e-08
7.9761699e-08
7.9372731e-08
)
;

boundaryField
{
    Walls
    {
        type            nutUWallFunction;
        Cmu             0.09;
        kappa           0.41;
        E               9.8;
        value           uniform 0;
    }
    Inlet
    {
        type            calculated;
        value           nonuniform List<scalar> 3(2.9066658e-05 2.0543137e-05 8.1793433e-07);
    }
    Outlet
    {
        type            calculated;
        value           nonuniform List<scalar> 
86
(
0
0
0
0
0
0
0
0
0
0
0
0
0
0
0
0
0
0
0
0
0
0
0
0
0
0
0
0
0
0
1.4167587e-05
1.4689747e-05
1.3268829e-05
0
0
0
0
3.7862895e-06
3.3380961e-06
2.7162062e-06
0
0
0
0
0
0
0
0
0
0
0
0
0
0
0
0
0
0
0
0
0
0
0
0
0
0
0
0
0
0
0
0
0
0
0
0
0
0
0
0
0
0
0
0
1.3069447e-05
1.4693021e-05
)
;
    }
    Front
    {
        type            wedge;
    }
    Back
    {
        type            wedge;
    }
    defaultFaces
    {
        type            empty;
    }
}


// ************************************************************************* //
