/*--------------------------------*- C++ -*----------------------------------*\
| =========                 |                                                 |
| \\      /  F ield         | OpenFOAM: The Open Source CFD Toolbox           |
|  \\    /   O peration     | Version:  4.0                                   |
|   \\  /    A nd           | Web:      www.OpenFOAM.org                      |
|    \\/     M anipulation  |                                                 |
\*---------------------------------------------------------------------------*/
FoamFile
{
    version     2.0;
    format      ascii;
    class       volScalarField;
    location    "0.28";
    object      omega;
}
// * * * * * * * * * * * * * * * * * * * * * * * * * * * * * * * * * * * * * //

dimensions      [0 0 -1 0 0 0 0];

internalField   nonuniform List<scalar> 
1740
(
56.96565
688.85735
14923.308
172.33441
1473.6115
15032.003
289.83957
1997.0048
15117.042
387.49977
2292.7988
15199.157
501.03512
2557.1114
15271.222
635.96143
2830.7745
15326.164
740.29338
3011.8975
15372.201
832.04923
3165.1808
15412.02
915.5706
3312.3971
15450.081
1013.3217
3480.8495
15478.422
1127.7924
3601.2465
15496.655
1250.2404
3760.2611
15516.489
1327.7099
3862.3141
15535.258
1411.2874
3887.21
15539.51
1472.2422
3922.4554
15553.543
1541.9441
3988.4792
15563.812
1606.9045
3973.2871
15555.757
1652.9264
3958.5787
15561.867
1691.0581
3985.4583
15576.221
1754.495
4109.6313
15581.72
1808.2642
4139.1695
15580.605
1835.4203
4147.3485
15580.812
1845.1506
4203.8461
15582.243
1862.2906
4247.9858
15580.576
1879.6311
4192.8888
15579.91
1907.6842
4157.4891
15574.797
1950.8439
4150.2262
15573.045
1995.3438
4176.2862
15568.449
2005.9428
4191.6217
15559.981
2130.3992
4278.1063
15500.734
3190.9817
4568.564
10753.844
3348.6166
4254.5741
5973.6484
1573.3811
1859.912
2156.0146
822.97186
897.33803
955.58382
476.74343
494.6552
504.79455
299.94462
303.61138
303.84011
201.50311
201.82166
200.4675
143.04506
142.72987
141.52921
106.65233
106.32851
105.51076
83.273983
83.045413
82.533491
68.047444
67.902771
67.592945
58.206491
58.119146
57.935051
52.051042
52.000345
51.893468
48.42097
48.393421
48.334253
46.456749
46.444085
46.414628
45.508728
45.505555
45.493597
44.994865
44.991265
44.98142
44.603001
44.60017
44.592602
44.264645
44.263161
44.258012
43.947076
43.947186
43.944444
43.642324
43.64375
43.642959
43.359632
43.361643
43.36194
43.112514
43.114441
43.115043
42.908079
42.909599
42.910078
42.745045
42.746108
42.746333
42.617037
42.617717
42.617704
42.516263
42.516659
42.516468
42.435635
42.435834
42.435525
42.369532
42.369598
42.369218
42.313797
42.313777
42.313359
42.265454
42.265379
42.264947
42.222363
42.222255
42.221823
42.182878
42.182751
42.182331
42.145497
42.145362
42.14496
42.108414
42.108277
42.107898
42.068852
42.068717
42.068364
42.021983
42.021854
42.021528
41.959162
41.959042
41.958746
41.865116
41.865007
41.864744
41.713657
41.713562
41.713335
41.461493
41.461415
41.461231
41.039873
41.039817
41.039685
40.344265
40.344235
40.344162
39.223255
39.22325
39.223244
37.469762
37.46978
37.469839
34.820909
34.820938
34.821057
30.978547
30.978584
30.978782
25.659751
25.659809
25.660141
18.692418
18.692519
18.693017
10.147022
10.14714
10.147615
13480.653
13534.903
6010.0465
5338.7185
2083.8264
1881.0921
921.73236
854.04262
489.22933
463.07943
296.03654
284.48554
196.33132
190.77291
139.24992
136.39731
104.22133
102.68205
81.790793
80.926049
67.159122
66.657767
57.679621
57.38237
51.743999
51.5664
48.249277
48.144454
46.369144
46.309017
45.470683
45.436191
44.963704
44.936801
44.578698
44.556907
44.247257
44.229249
43.93642
43.921511
43.637193
43.625014
43.357816
43.348069
43.111988
43.104332
42.907695
42.901746
42.744386
42.739761
42.616056
42.612421
42.515036
42.512123
42.434257
42.43187
42.368081
42.366079
42.312329
42.310616
42.26401
42.26252
42.220967
42.219656
42.181549
42.180384
42.144245
42.143204
42.107246
42.106313
42.067771
42.066934
42.020992
42.020244
41.958265
41.957601
41.864321
41.863739
41.712974
41.712481
41.46094
41.460546
41.039477
41.039198
40.344053
40.343915
39.223249
39.223282
37.469974
37.470224
34.821356
34.821916
30.979336
30.980395
25.661101
25.662904
18.694385
18.696792
10.148806
10.150612
12058.159
2042.5066
696.06562
368.78347
281.0014
256.78166
249.62824
246.54713
244.13482
241.64186
238.98779
236.10186
233.08214
229.94905
226.67281
223.19563
219.41432
215.14721
210.07968
203.67846
195.04605
182.66133
163.88843
133.84186
80.967837
12058.131
2036.9353
697.47861
374.4653
283.01494
254.20368
242.67826
235.4517
229.31464
223.47012
217.72849
212.04087
206.44215
200.92102
195.45712
190.026
184.5771
179.0148
173.16221
166.70801
159.11208
149.41949
135.85214
114.75809
76.827078
12058.178
2030.7481
718.69
430.71456
359.3344
332.39606
315.02806
300.52533
287.27503
274.7037
262.69768
251.10704
240.09897
229.59113
219.52382
209.88442
200.65429
191.79102
183.19905
174.70524
166.00014
156.50317
145.00324
128.52795
97.757592
12058.524
2032.1625
817.67857
608.89004
550.00631
512.79653
479.77577
449.25698
421.28103
394.97864
370.31294
347.31313
326.11137
306.25461
287.59327
270.13275
253.86028
238.74283
224.72615
211.72033
199.58542
188.09261
176.78961
164.45324
145.68148
12061.512
2151.2053
1232.5485
1078.6413
989.84949
906.96698
828.43571
756.95387
693.11903
634.01493
579.70379
530.04021
485.97317
445.73679
408.79722
375.16858
344.71259
317.25205
292.60402
270.57282
250.96119
233.59125
218.34439
205.38681
195.79486
12087.196
3832.0143
2811.7082
2405.0472
2095.8274
1826.6199
1591.2578
1387.9688
1211.9224
1060.0548
929.22789
816.61465
719.69642
636.04931
563.72917
501.22893
447.25118
400.66235
360.48198
325.86988
296.11246
270.63049
249.01461
231.3587
218.90349
10380.768
7913.0839
6098.8912
4785.852
3815.9858
3081.5917
2513.2462
2066.6075
1712.0714
1428.4806
1200.0737
1015.0138
864.36929
741.23212
640.11543
556.65574
487.4064
429.6602
381.29381
340.63824
306.38006
277.50606
253.29418
233.62138
219.775
4097.2067
3309.6517
2842.4952
2466.5414
2147.5586
1867.1963
1622.7253
1411.2087
1229.8447
1074.3674
940.98208
826.28321
727.3028
641.87662
568.16434
504.5704
449.71504
402.41719
361.66838
326.6098
296.51563
270.79915
249.04039
231.31584
218.83099
1594.2208
1399.7974
1269.6595
1161.4279
1059.1943
961.8722
873.10954
794.16373
722.14135
656.91312
598.58482
547.01923
499.68922
456.45449
417.18645
381.68303
349.71645
321.04946
295.4422
272.67106
252.53121
234.84754
219.5012
206.63996
197.24361
771.31519
708.03184
661.77432
621.17897
580.81828
540.68414
503.1107
468.50639
436.43524
406.87463
379.8636
355.13273
331.99377
310.3419
290.16103
271.43214
254.1214
238.18212
223.55758
210.17767
197.94082
186.66855
175.96798
164.70777
147.81844
434.1164
410.39675
391.66268
374.42906
356.69586
338.43008
320.59242
303.61521
287.57722
272.53207
258.48954
245.32449
232.82621
220.94397
209.70326
199.09596
189.11027
179.72021
170.8755
162.47749
154.32194
145.95917
136.31751
122.54067
95.41308
272.3962
262.08676
253.47897
245.34592
236.85196
227.93661
218.96605
210.20417
201.77222
193.72706
186.07714
178.77208
171.73641
164.94208
158.39693
152.10052
146.03925
140.17757
134.44215
128.68794
122.62629
115.66704
106.54987
92.392537
65.548076
185.1015
180.1077
175.75377
171.56746
167.17869
162.52696
157.75029
152.98993
148.33487
143.82993
139.48458
135.27862
131.18055
127.17164
123.24392
119.38401
115.56463
111.73426
107.79966
103.59414
98.817464
92.919176
84.857195
72.507823
50.351049
133.51686
130.91417
128.56877
126.28575
123.89545
121.3507
118.70037
116.01496
113.34895
110.73328
108.17708
105.67219
103.20219
100.75126
98.303747
95.836544
93.311366
90.664836
87.793783
84.532431
80.618145
75.647169
69.053021
60.312221
50.534327
101.12951
99.694292
98.368643
97.066228
95.704768
94.253389
92.728005
91.161846
89.584987
88.016731
86.463828
84.922365
83.381421
81.826141
80.236687
78.583409
76.820162
74.875773
72.64303
69.965453
66.626005
62.354645
56.915593
50.476811
44.781838
80.048894
79.219494
78.436045
77.659096
76.848132
75.983905
75.069803
74.120843
73.153025
72.17749
71.198367
70.212725
69.211632
68.180414
67.096809
65.926755
64.618293
63.093966
61.242225
58.909707
55.899912
51.993039
47.027195
41.16435
35.74532
66.142083
65.641662
65.157356
64.67123
64.163099
63.621697
63.046697
62.44456
61.823505
61.189631
60.544998
59.886814
59.206897
58.490532
57.713862
56.839445
55.810067
54.541148
52.912458
50.760809
47.876441
44.005034
38.843616
31.926238
21.567306
57.069601
56.756263
56.443885
56.124647
55.788878
55.430527
55.048774
54.64654
54.228028
53.796607
53.35318
52.894964
52.414214
51.896144
51.315582
50.631999
49.782789
48.674954
47.175928
45.104744
42.224746
38.235524
32.745694
25.140259
13.916701
51.373323
51.172018
50.963657
50.745122
50.512208
50.262187
49.994785
49.711688
49.415343
49.107767
48.789333
48.457441
48.104756
47.716438
47.266144
46.710457
45.981531
44.97806
43.555345
41.515933
38.602969
34.4977
28.816849
21.084174
10.523823
48.024946
47.893566
47.750827
47.595638
47.426547
47.242802
47.044775
46.833798
46.611582
46.379524
46.137779
45.883966
45.611232
45.304872
44.937659
44.463773
43.81106
42.871756
41.492666
39.466735
36.530111
32.37117
26.660326
19.112725
9.6482483
46.235235
46.147867
46.04673
45.931538
45.802117
45.658717
45.502097
45.333407
45.153914
44.96458
44.765351
44.553937
44.324046
44.061694
43.739301
43.309351
42.696727
41.789799
40.431312
38.411417
35.46861
31.306665
25.644882
18.316544
9.4798108
45.389207
45.328413
45.253308
45.163757
45.059864
44.941988
44.810697
44.666681
44.510601
44.342844
44.163032
43.968883
43.75389
43.506829
43.200399
42.785941
42.186631
41.289179
39.934489
37.914083
34.973255
30.826212
25.216849
18.020361
9.4251893
44.899469
44.850564
44.789336
44.715366
44.628505
44.528828
44.416559
44.291928
44.155075
44.005818
43.843256
43.664884
43.464624
43.229477
42.936511
42.537509
41.955371
41.073356
39.718998
37.692871
34.754941
30.621681
25.043262
17.901619
9.3746429
44.5258
44.48413
44.430988
44.365802
44.288281
44.198351
44.096101
43.981731
43.855527
43.717735
43.56814
43.404897
43.222119
43.005807
42.73282
42.354718
41.793901
40.933671
39.606813
37.589503
34.65689
30.533
24.96973
17.853257
9.3447334
44.202462
44.165507
44.117405
44.057566
43.985733
43.901952
43.80657
43.70026
43.583987
43.458761
43.324914
43.180622
43.019409
42.826505
42.574195
42.216629
41.675401
40.83417
39.527558
37.532441
34.606824
30.489453
24.931652
17.823506
9.3319144
43.89818
43.864922
43.82082
43.765461
43.698876
43.621523
43.534289
43.438455
43.335523
43.226751
43.112252
42.98946
42.850785
42.680195
42.448315
42.108889
41.584066
40.758154
39.467411
37.492205
34.575621
30.465776
24.913988
17.814332
9.3174688
43.604994
43.575621
43.536184
43.486589
43.427263
43.359094
43.283369
43.201628
43.115374
43.025523
42.931502
42.829824
42.711935
42.561015
42.347388
42.022357
41.510588
40.6967
39.418102
37.457869
34.552879
30.452819
24.911
17.832331
9.4214409
43.331477
43.306687
43.273235
43.231296
43.181549
43.12506
43.063161
42.997248
42.92845
42.857112
42.781948
42.698738
42.598281
42.463294
42.263823
41.950777
41.449357
40.644948
39.375958
37.427262
34.535275
30.447202
24.920039
17.868075
9.4840389
43.091106
43.07122
43.044398
43.010936
42.971541
42.927201
42.879036
42.828096
42.77505
42.719703
42.660225
42.591907
42.505175
42.382518
42.19391
41.890309
41.396911
40.599983
39.338865
37.399836
34.520691
30.44527
24.933012
17.903097
9.5357871
42.891507
42.876161
42.85555
42.829966
42.800005
42.766451
42.730126
42.691716
42.651484
42.608824
42.561535
42.504604
42.428252
42.314881
42.134518
41.838436
41.350944
40.559867
39.305218
37.374461
34.506922
30.443257
24.943947
17.92892
9.5662336
42.731941
42.720341
42.704865
42.685748
42.663438
42.638494
42.611468
42.582738
42.552259
42.519139
42.480928
42.432426
42.363739
42.257228
42.082962
41.792331
41.309669
40.52321
39.273805
37.349914
34.492098
30.43809
24.9488
17.94431
9.59058
42.606438
42.597697
42.586138
42.571931
42.555389
42.536885
42.516756
42.495156
42.471817
42.445652
42.414046
42.37168
42.308586
42.207104
42.037341
41.750796
41.272053
40.489069
39.243809
37.32542
34.475407
30.429203
24.949094
17.958076
9.6190384
42.507482
42.500829
42.492123
42.481481
42.469113
42.455255
42.440089
42.423609
42.405398
42.38423
42.357384
42.319458
42.260434
42.162637
41.996197
41.712687
41.236824
40.456707
39.214752
37.300727
34.456921
30.417101
24.945321
17.96615
9.6344275
42.428194
42.423033
42.416361
42.408256
42.398854
42.388296
42.376658
42.363824
42.349273
42.331688
42.308271
42.273564
42.217511
42.122424
41.958448
41.677214
41.203548
40.425742
39.186443
37.275976
34.437302
30.402868
24.937728
17.963775
9.622976
42.363098
42.359003
42.353776
42.347469
42.340169
42.331954
42.322825
42.312593
42.300666
42.285664
42.264734
42.232377
42.178508
42.085427
41.923292
41.64378
41.17183
40.395965
39.158823
37.251466
34.41744
30.387994
24.928122
17.956909
9.6125325
42.308143
42.304817
42.300626
42.295605
42.289809
42.283271
42.275943
42.267587
42.257561
42.244441
42.225335
42.194711
42.142463
42.050878
41.890125
41.61192
41.141297
40.366958
39.1318
37.227412
34.398095
30.374244
24.920138
17.950883
9.6052643
42.260426
42.257665
42.25423
42.250145
42.24544
42.240121
42.234107
42.227124
42.218496
42.206768
42.189017
42.159688
42.108654
42.018195
41.858484
41.581274
41.111691
40.33862
39.105297
37.203863
34.379615
30.362838
24.917865
17.957288
9.6218267
42.217854
42.21552
42.212649
42.209258
42.205362
42.200948
42.19591
42.18995
42.182369
42.171687
42.15496
42.12661
42.076497
41.986889
41.827966
41.551515
41.082754
40.310764
39.079174
37.180638
34.361764
30.35356
24.922102
17.97877
9.6521461
42.178814
42.17681
42.174371
42.171508
42.168227
42.164498
42.160201
42.155021
42.148239
42.138357
42.122415
42.094818
42.045409
41.95645
41.798123
41.522249
41.054134
40.283054
39.053016
37.157337
34.343853
30.344731
24.92886
18.008516
9.659993
42.141824
42.140083
42.137985
42.135535
42.132731
42.129534
42.125813
42.121239
42.115079
42.105822
42.090493
42.063481
42.014618
41.926155
41.768277
41.492837
41.025228
40.25492
39.026295
37.133351
34.325007
30.334239
24.93118
18.027152
9.6913249
42.105091
42.103567
42.101744
42.099625
42.097203
42.09443
42.091167
42.087074
42.08141
42.072651
42.057807
42.031258
41.982821
41.894737
41.737196
41.462078
40.994862
40.225211
38.997889
37.107555
34.304108
30.321034
24.92856
18.034854
9.7015438
42.06585
42.064509
42.062915
42.061069
42.05896
42.056534
42.053645
42.049946
42.044685
42.03633
42.02188
41.995702
41.9476
41.859807
41.702513
41.427627
40.960713
40.191627
38.965511
37.077674
34.278898
30.303015
24.919971
18.035887
9.7089873
42.019282
42.018101
42.016704
42.015092
42.013248
42.011115
42.008541
42.005171
42.000249
41.99223
41.978106
41.952229
41.904394
41.816823
41.659706
41.384982
40.9183
40.14971
38.924729
37.039294
34.244924
30.275672
24.900614
18.022436
9.6965285
41.956752
41.955717
41.954498
41.953093
41.951483
41.949607
41.947309
41.944227
41.939597
41.931868
41.918021
41.892397
41.844776
41.757374
41.600384
41.325773
40.859283
40.091165
38.867309
36.984237
34.194175
30.231357
24.864838
17.997712
9.6473841
41.863001
41.862106
41.861055
41.859844
41.858454
41.856818
41.854773
41.851956
41.847594
41.840126
41.826524
41.801118
41.753677
41.666409
41.509513
41.235
40.768722
40.001163
38.778624
36.898258
34.113064
30.157658
24.80149
17.948972
9.6211232
41.711858
41.711105
41.710225
41.709212
41.708042
41.706645
41.704855
41.702298
41.698197
41.690981
41.677612
41.652409
41.605132
41.517985
41.361189
41.086823
40.6209
39.854218
38.633627
36.757121
33.97883
30.034416
24.694695
17.866395
9.5763551
41.460051
41.459457
41.458765
41.457969
41.45704
41.455905
41.454389
41.452114
41.448291
41.441341
41.428216
41.403225
41.356124
41.269131
41.112514
40.838476
40.373293
39.608261
38.391075
36.521038
33.754154
29.828223
24.516896
17.731869
9.5392735
41.038854
41.038448
41.037979
41.037439
41.036796
41.03597
41.034778
41.032832
41.029334
41.022694
41.009855
40.985125
40.938269
40.851546
40.695333
40.422065
39.95848
39.19671
37.985853
36.127381
33.380498
29.486868
24.225238
17.513412
9.3877793
40.343756
40.343581
40.343389
40.343168
40.342881
40.342439
40.341651
40.340116
40.337023
40.330775
40.318311
40.293951
40.247504
40.161331
40.006028
39.734467
39.2742
38.518785
37.319666
35.48192
32.770069
28.932061
23.753591
17.156736
9.1809411
39.223356
39.223474
39.223633
39.223814
39.223974
39.224016
39.223737
39.222722
39.22015
39.21442
39.202481
39.178699
39.132991
39.047935
38.894555
38.626517
38.172783
37.429303
36.251365
34.449919
31.797857
28.053159
23.012298
16.604486
8.8729427
37.470605
37.471105
37.471699
37.472361
37.473049
37.473666
37.473998
37.47362
37.471709
37.466665
37.455478
37.432622
37.388238
37.305337
37.155732
36.894487
36.452946
35.730952
34.589864
32.849971
30.296507
26.702875
21.881514
15.772031
8.4206308
34.822737
34.823733
34.82482
34.825952
34.827141
34.828328
34.829295
34.829617
34.828483
34.824317
34.814186
34.792773
34.750666
34.671651
34.528933
34.279953
33.859961
33.174965
32.095768
30.456057
28.059271
24.701204
20.217443
14.562578
7.7801279
30.981875
30.983451
30.984931
30.986236
30.987558
30.989013
30.990395
30.991278
30.990896
30.98772
30.978941
30.959592
30.921158
30.848638
30.717519
30.489161
30.105054
29.480497
28.500003
27.016463
24.858502
21.852083
17.863585
12.867488
6.8985659
25.665193
25.667102
25.668832
25.669876
25.670505
25.671511
25.672757
25.673792
25.673921
25.671686
25.664367
25.647467
25.614898
25.552491
25.439033
25.242565
24.91437
24.382961
23.551892
22.300109
20.489079
17.982245
14.681137
10.576828
5.6909791
18.699247
18.701311
18.706305
18.710064
18.709777
18.709622
18.710097
18.710745
18.710952
18.709295
18.702749
18.687293
18.665261
18.617352
18.526058
18.373705
18.125952
17.728311
17.108993
16.180535
14.844624
13.00794
10.608803
7.6516473
4.1623533
10.152441
10.169746
10.19541
10.217071
10.219322
10.21866
10.218429
10.218522
10.218479
10.216927
10.210139
10.19521
10.19294
10.164296
10.095624
9.9999699
9.8584632
9.6365245
9.2918478
8.7786893
8.0440592
7.0401478
5.7388343
4.1515026
2.3332133
)
;

boundaryField
{
    Walls
    {
        Cmu             0.09;
        kappa           0.41;
        E               9.8;
        beta1           0.075;
        type            omegaWallFunction;
        value           nonuniform List<scalar> 
38
(
12058.159
12058.131
12058.178
12058.524
12061.512
12087.196
13480.653
13534.903
14923.308
15032.003
15117.042
15199.157
15271.222
15326.164
15372.201
15412.02
15450.081
15478.422
15496.655
15516.489
15535.258
15539.51
15553.543
15563.812
15555.757
15561.867
15576.221
15581.72
15580.605
15580.812
15582.243
15580.576
15579.91
15574.797
15573.045
15568.449
15559.981
15500.734
)
;
    }
    Inlet
    {
        type            turbulentMixingLengthDissipationRateInlet;
        mixingLength    0.03;
        phi             phi;
        k               k;
        value           nonuniform List<scalar> 3(0.0049026559 0.0053091956 0.0048877549);
    }
    Outlet
    {
        type            inletOutlet;
        inletValue      uniform 1e-05;
        value           nonuniform List<scalar> 
86
(
1e-05
1e-05
1e-05
1e-05
1e-05
1e-05
1e-05
1e-05
1e-05
1e-05
1e-05
1e-05
1e-05
1e-05
1e-05
1e-05
1e-05
1e-05
1e-05
1e-05
1e-05
1e-05
1e-05
1e-05
1e-05
1e-05
1e-05
1e-05
1e-05
1e-05
219.775
218.83099
197.24361
1e-05
1e-05
1e-05
1e-05
50.534327
44.781838
35.74532
1e-05
1e-05
1e-05
1e-05
1e-05
1e-05
1e-05
1e-05
1e-05
1e-05
1e-05
1e-05
1e-05
1e-05
1e-05
1e-05
1e-05
1e-05
1e-05
1e-05
1e-05
1e-05
1e-05
1e-05
1e-05
1e-05
1e-05
1e-05
1e-05
1e-05
1e-05
1e-05
1e-05
1e-05
1e-05
1e-05
1e-05
1e-05
1e-05
1e-05
1e-05
1e-05
1e-05
1e-05
195.79486
218.90349
)
;
    }
    Front
    {
        type            wedge;
    }
    Back
    {
        type            wedge;
    }
    defaultFaces
    {
        type            empty;
    }
}


// ************************************************************************* //
