/*--------------------------------*- C++ -*----------------------------------*\
| =========                 |                                                 |
| \\      /  F ield         | OpenFOAM: The Open Source CFD Toolbox           |
|  \\    /   O peration     | Version:  4.0                                   |
|   \\  /    A nd           | Web:      www.OpenFOAM.org                      |
|    \\/     M anipulation  |                                                 |
\*---------------------------------------------------------------------------*/
FoamFile
{
    version     2.0;
    format      ascii;
    class       volScalarField;
    location    "0.28";
    object      p;
}
// * * * * * * * * * * * * * * * * * * * * * * * * * * * * * * * * * * * * * //

dimensions      [0 2 -2 0 0 0 0];

internalField   nonuniform List<scalar> 
1740
(
491.63202
491.7298
491.7332
475.1193
475.1608
475.22707
458.52845
458.51715
458.51138
441.81121
441.89772
441.91182
425.39601
425.38243
425.61084
409.29116
409.1579
409.25076
393.27098
393.16137
392.93269
377.19291
377.01641
376.66366
360.91405
360.88178
360.83378
344.47176
344.68885
344.84194
328.11713
328.25363
328.37733
312.01865
311.93101
312.26475
295.79156
295.67637
295.93269
279.17197
279.24722
279.28184
262.23934
262.35856
262.47413
245.39741
245.42108
245.49659
228.99533
228.89087
228.83773
212.65946
212.55451
212.57187
196.24831
196.34878
196.24863
179.58403
179.62517
179.40327
162.43188
162.46058
162.49367
145.29323
145.54108
145.72301
128.93729
128.97076
129.0281
113.07449
112.81696
112.69476
96.471948
96.35544
96.2194
79.699519
79.680631
79.647934
63.304732
63.52596
63.447832
46.789155
47.185829
47.26081
30.860914
30.935086
31.123828
16.337339
15.917217
15.558371
4.2480708
3.5000604
1.5369344
-0.64579907
-0.62299703
-0.47881657
-0.21209259
-0.20983557
-0.19395481
-0.06424947
-0.06958442
-0.075519176
-0.036804609
-0.040899449
-0.04565281
-0.029177911
-0.031424551
-0.03431066
-0.026076976
-0.027281543
-0.028854407
-0.023865399
-0.024463589
-0.025254502
-0.021511616
-0.021811735
-0.02214849
-0.019094412
-0.019209614
-0.01930068
-0.016818771
-0.016841878
-0.016813306
-0.01487317
-0.014857554
-0.014775319
-0.013261465
-0.013225613
-0.013127605
-0.011941879
-0.011902677
-0.011799185
-0.010815938
-0.010772915
-0.01066848
-0.009795924
-0.0097538356
-0.0096544282
-0.0088786655
-0.0088394037
-0.008749347
-0.0080543337
-0.0080184505
-0.0079371086
-0.0073089873
-0.007276465
-0.0072032052
-0.0066326606
-0.0066033345
-0.0065381398
-0.0060172792
-0.0059908925
-0.0059332004
-0.005455956
-0.0054324725
-0.0053810074
-0.0049427855
-0.0049218158
-0.0048758948
-0.0044727849
-0.0044540243
-0.0044130494
-0.0040418574
-0.0040250819
-0.0039884512
-0.0036466346
-0.0036316154
-0.0035988074
-0.003284212
-0.0032707705
-0.00324138
-0.0029521112
-0.0029400999
-0.0029138204
-0.0026481748
-0.002637469
-0.00261401
-0.00237058
-0.0023609927
-0.0023400682
-0.0021175558
-0.0021090028
-0.0020903175
-0.0018873522
-0.0018797372
-0.0018630983
-0.0016783275
-0.0016715629
-0.0016567831
-0.0014889081
-0.0014829126
-0.0014698139
-0.0013175655
-0.0013122641
-0.0013006829
-0.0011628081
-0.0011581327
-0.00114792
-0.0010231939
-0.0010190827
-0.0010101034
-0.00089732896
-0.00089372605
-0.0008858577
-0.00078386856
-0.00078072331
-0.00077385511
-0.00068151984
-0.00067878691
-0.00067281962
-0.00058904737
-0.00058668652
-0.0005815321
-0.00050527692
-0.00050325279
-0.00049883387
-0.00042909594
-0.00042737774
-0.00042362698
-0.00035945127
-0.00035801255
-0.00035487202
-0.00029534376
-0.00029416204
-0.0002915827
-0.00023582
-0.00023487668
-0.00023281791
-0.00017995326
-0.00017923361
-0.00017766311
-0.00012681852
-0.00012631177
-0.00012520513
-7.5543025e-05
-7.5241724e-05
-7.4582927e-05
-2.5097653e-05
-2.4997488e-05
-2.4778474e-05
-1.3835438
-0.96979336
-0.37789629
-0.28800799
-0.16843805
-0.1446721
-0.073798352
-0.067424261
-0.045182625
-0.040573459
-0.034074174
-0.031261145
-0.028816188
-0.027100963
-0.025127655
-0.024038305
-0.022005646
-0.021256249
-0.019107576
-0.018528102
-0.016606545
-0.016164926
-0.014570881
-0.014210425
-0.012933817
-0.012625811
-0.01161992
-0.011346022
-0.010497001
-0.010256014
-0.0094998574
-0.0092909967
-0.0086120043
-0.0084293503
-0.0078148853
-0.0076535948
-0.0070944866
-0.0069512313
-0.0064413881
-0.0063139612
-0.005846943
-0.0057335209
-0.0053041336
-0.0052029885
-0.0048072483
-0.0047169057
-0.0043516243
-0.0042707952
-0.0039334519
-0.0038610434
-0.0035495448
-0.0034846717
-0.0031972642
-0.0031391517
-0.0028743347
-0.0028223127
-0.0025787282
-0.0025321986
-0.0023085964
-0.0022670455
-0.0020622088
-0.0020251881
-0.001838075
-0.0018050825
-0.0016345544
-0.0016052327
-0.0014501108
-0.0014241141
-0.0012832597
-0.0012602648
-0.0011325538
-0.001112271
-0.00099659205
-0.00097875529
-0.00087401708
-0.00085838356
-0.00076351865
-0.00074986908
-0.00066383824
-0.00065197645
-0.0005737736
-0.00056352558
-0.00049218198
-0.00048339469
-0.00041798051
-0.00041052067
-0.00035014397
-0.00034389692
-0.00028769937
-0.00028256803
-0.00022971827
-0.00022562224
-0.0001752984
-0.00017217345
-0.00012353907
-0.00012133707
-7.3591077e-05
-7.2279136e-05
-2.4448786e-05
-2.4012945e-05
-0.01795228
-0.017457744
-0.016597738
-0.015530505
-0.014354716
-0.013129921
-0.011900368
-0.010695635
-0.0095431242
-0.0084715498
-0.0074943465
-0.0065998167
-0.0057883566
-0.0050570739
-0.0043995759
-0.0038075916
-0.0032722127
-0.0027845017
-0.002336944
-0.0019229215
-0.0015367949
-0.00117323
-0.00082722067
-0.00049349449
-0.00016374995
-0.018666146
-0.018092796
-0.01712413
-0.015968295
-0.014717334
-0.013429516
-0.012156572
-0.010932741
-0.0097866102
-0.0087308046
-0.0077698941
-0.0069110111
-0.006141717
-0.0054486174
-0.0048196534
-0.0042438361
-0.0037101528
-0.0032056839
-0.0027258205
-0.0022662742
-0.0018243651
-0.0013979863
-0.00098520726
-0.00058214157
-0.00018438567
-0.023675475
-0.022971335
-0.021920512
-0.020672272
-0.019381832
-0.018129931
-0.016980853
-0.015973752
-0.015038976
-0.014137633
-0.013250169
-0.012362336
-0.011464679
-0.010553782
-0.0096273422
-0.0086856066
-0.0077323276
-0.0067766029
-0.0058201247
-0.0048651217
-0.0039180174
-0.0029850337
-0.0020732852
-0.0011899812
-0.0003509629
-0.040699105
-0.039840323
-0.038788849
-0.037662387
-0.036437737
-0.035092308
-0.033648897
-0.032070456
-0.030386433
-0.028619098
-0.026790508
-0.024911106
-0.022996761
-0.021057252
-0.019099546
-0.017133895
-0.015171356
-0.013222262
-0.011296649
-0.0094044193
-0.0075566513
-0.0057542847
-0.0040026509
-0.0023114489
-0.00071286332
-0.094186444
-0.091445204
-0.087627394
-0.081917158
-0.076082396
-0.07011131
-0.064325343
-0.058764061
-0.053433601
-0.048354896
-0.043578616
-0.039065626
-0.034783899
-0.030646173
-0.026817248
-0.023290758
-0.020044581
-0.017054654
-0.014293929
-0.01173297
-0.0093403213
-0.0070947973
-0.0049742004
-0.0029527294
-0.0010080123
-0.26094382
-0.21043275
-0.18313588
-0.14855553
-0.12047021
-0.096579737
-0.076625669
-0.060471221
-0.047510181
-0.037132761
-0.028837392
-0.022299539
-0.017178386
-0.013194908
-0.010009105
-0.0075089052
-0.0055624499
-0.0040601606
-0.0029162103
-0.0020613398
-0.0014343438
-0.00098286131
-0.00066320212
-0.00043027744
-0.00028325441
-0.36220688
-0.14448308
-0.09098941
-0.053776402
-0.020114631
0.0066263368
0.023792642
0.032465308
0.035812859
0.036348641
0.035350285
0.033412456
0.030897525
0.028085958
0.025169695
0.022266961
0.019447247
0.016746051
0.014174547
0.011728434
0.0093942934
0.0071544948
0.0049835502
0.0028715901
0.00073295863
-0.22976596
-0.19317228
-0.16105957
-0.13194858
-0.10639116
-0.084498733
-0.066460611
-0.051937506
-0.040358571
-0.031190351
-0.023928982
-0.018222131
-0.013747472
-0.010226397
-0.0074810305
-0.0053631494
-0.0037511469
-0.0025447332
-0.0016643961
-0.0010454282
-0.00063364335
-0.00038138233
-0.00024848241
-0.00019140533
-0.00021336981
-0.12610263
-0.1120897
-0.10030945
-0.090181287
-0.081314721
-0.073523235
-0.066470536
-0.060007457
-0.05404507
-0.048526493
-0.043403511
-0.038559782
-0.034046016
-0.029900279
-0.026106538
-0.022638369
-0.019448213
-0.016514081
-0.013812414
-0.01131717
-0.0090014657
-0.0068382848
-0.0048010231
-0.002859315
-0.0009875536
-0.060488492
-0.054721332
-0.050082834
-0.046358429
-0.043271609
-0.040546949
-0.038066157
-0.035723935
-0.033451101
-0.031209325
-0.028996021
-0.026799646
-0.024608421
-0.022423704
-0.020250431
-0.018095788
-0.015987425
-0.013921365
-0.011895313
-0.0099092025
-0.0079646973
-0.0060657631
-0.0042194423
-0.0024367652
-0.00075205127
-0.035136098
-0.03066219
-0.027120459
-0.024197438
-0.021902091
-0.020155983
-0.0187472
-0.017558928
-0.016500954
-0.01550563
-0.014536045
-0.013568498
-0.012588413
-0.011595059
-0.010588125
-0.0095668395
-0.0085330874
-0.0074872118
-0.0064355315
-0.0053829569
-0.0043351579
-0.0032997902
-0.0022864372
-0.0013054369
-0.00038058782
-0.027490597
-0.023853437
-0.020564639
-0.017787278
-0.015422778
-0.013433103
-0.011753727
-0.010359683
-0.0092095787
-0.0082540696
-0.0074468091
-0.0067468538
-0.0061230357
-0.0055462967
-0.0049952605
-0.0044693604
-0.0039668237
-0.0034645007
-0.0029723705
-0.0024889342
-0.0020133834
-0.0015466524
-0.0010894494
-0.00064020648
-0.00019693695
-0.024594208
-0.021896004
-0.019323839
-0.016984122
-0.014873091
-0.013004413
-0.011371982
-0.0099459549
-0.0087047426
-0.0076286623
-0.0066970068
-0.0058884053
-0.0051794499
-0.004548493
-0.0039822251
-0.0034650831
-0.0029809625
-0.0025450494
-0.0021436268
-0.0017718557
-0.0014226799
-0.0010911482
-0.00077298035
-0.00046289117
-0.00015244486
-0.022335298
-0.020370772
-0.018378663
-0.016493998
-0.014726782
-0.013102869
-0.011625389
-0.010293707
-0.0090985186
-0.0080334643
-0.0070889174
-0.0062520779
-0.005508391
-0.004843703
-0.004246268
-0.0037029844
-0.0032044368
-0.0027457582
-0.0023164667
-0.0019115314
-0.0015291809
-0.0011659922
-0.00081871235
-0.00048437527
-0.00015936003
-0.020090434
-0.018664133
-0.017147399
-0.015637002
-0.014182736
-0.012807011
-0.01152641
-0.010343886
-0.0092521571
-0.008248892
-0.0073328481
-0.0065019066
-0.0057494767
-0.0050673666
-0.0044479584
-0.0038817762
-0.0033594833
-0.0028754785
-0.0024228969
-0.001997029
-0.0015946909
-0.0012127821
-0.00084842894
-0.00049919999
-0.00016298033
-0.017634281
-0.016575714
-0.01543603
-0.014285621
-0.013150949
-0.012050066
-0.010988299
-0.0099763261
-0.0090210456
-0.0081195916
-0.0072727047
-0.0064872246
-0.0057624796
-0.0050937105
-0.0044777354
-0.0039094339
-0.0033829575
-0.0028934294
-0.0024357905
-0.0020057707
-0.0016000472
-0.0012156365
-0.00084970263
-0.00049920146
-0.00016214985
-0.015487279
-0.014665783
-0.013779524
-0.012866768
-0.011949333
-0.011041053
-0.010157365
-0.0093013067
-0.0084798623
-0.0076963914
-0.006952423
-0.006245725
-0.0055782978
-0.0049525116
-0.0043679892
-0.0038224383
-0.0033127562
-0.00283572
-0.0023879839
-0.0019665888
-0.0015686637
-0.0011914686
-0.00083349891
-0.00048881159
-0.00015620442
-0.013683121
-0.013035294
-0.012326519
-0.011589025
-0.010841418
-0.010092054
-0.0093510175
-0.0086188225
-0.0079073883
-0.0072253757
-0.0065702231
-0.0059400841
-0.0053368835
-0.0047636643
-0.004220394
-0.0037065341
-0.0032215019
-0.0027638999
-0.0023318381
-0.0019231778
-0.00153582
-0.0011675662
-0.0008163723
-0.00047955082
-0.00015493581
-0.012198655
-0.011671049
-0.011093583
-0.010487894
-0.0098687208
-0.0092428951
-0.0086195746
-0.0079936491
-0.0073775863
-0.0067784128
-0.0061960169
-0.0056311583
-0.00508594
-0.0045620903
-0.0040602862
-0.0035807448
-0.0031235607
-0.0026882907
-0.0022739723
-0.0018794876
-0.0015034554
-0.0011444683
-0.00080098033
-0.00047055854
-0.00015148194
-0.010987074
-0.010553381
-0.010072995
-0.0095629502
-0.0090356348
-0.0084999235
-0.0079588213
-0.0074252115
-0.0068887158
-0.0063565111
-0.0058375906
-0.0053294783
-0.0048347727
-0.0043552694
-0.0038921845
-0.0034460703
-0.0030170115
-0.002604931
-0.0022096146
-0.0018305603
-0.0014670444
-0.0011182043
-0.0007832519
-0.00046021204
-0.00014800022
-0.0099521223
-0.0095920512
-0.0091878761
-0.0087540409
-0.0083009825
-0.0078364438
-0.0073653546
-0.0068933463
-0.0064237758
-0.00595135
-0.0054841369
-0.0050270166
-0.0045785832
-0.0041400308
-0.0037132758
-0.0032989206
-0.0028974865
-0.0025091131
-0.0021340164
-0.0017720273
-0.0014228798
-0.0010861664
-0.00076144506
-0.00044777925
-0.00014457495
-0.0090322807
-0.0087289098
-0.0083844657
-0.0080135218
-0.0076218666
-0.0072163598
-0.0068012193
-0.0063820162
-0.0059635029
-0.0055478715
-0.0051320982
-0.0047191994
-0.0043118991
-0.0039116757
-0.0035199275
-0.0031365665
-0.0027624689
-0.0023983381
-0.0020445921
-0.0017012949
-0.0013684727
-0.0010460908
-0.00073406945
-0.00043195902
-0.00013957448
-0.0082040883
-0.0079411863
-0.0076444867
-0.0073205875
-0.0069779165
-0.0066222522
-0.0062578472
-0.0058882418
-0.0055163212
-0.0051442172
-0.004772405
-0.0044020727
-0.0040347434
-0.0036716157
-0.0033126472
-0.0029595612
-0.0026129701
-0.0022734387
-0.0019421716
-0.0016190038
-0.0013042774
-0.00099827606
-0.00070122854
-0.00041284782
-0.00013329212
-0.0074555301
-0.0072241684
-0.0069641516
-0.0066808837
-0.0063803161
-0.006067259
-0.0057454002
-0.0054175847
-0.005086121
-0.0047526989
-0.0044184023
-0.0040844265
-0.003751807
-0.0034216153
-0.0030943404
-0.0027708411
-0.0024517913
-0.002138014
-0.0018294776
-0.0015273772
-0.0012321536
-0.00094415252
-0.00066379941
-0.00039099297
-0.0001261284
-0.006775514
-0.0065715503
-0.0063428371
-0.0060933798
-0.0058279808
-0.0055505984
-0.0052645647
-0.004972119
-0.0046754796
-0.0043759943
-0.0040748177
-0.0037729968
-0.0034715289
-0.0031711784
-0.0028725531
-0.0025763378
-0.0022832787
-0.0019939816
-0.0017088523
-0.0014285786
-0.0011537823
-0.0008849726
-0.00062273117
-0.00036702357
-0.00011837547
-0.006157903
-0.0059767354
-0.0057742806
-0.0055531226
-0.0053172077
-0.0050702613
-0.0048145885
-0.0045526455
-0.0042861591
-0.0040164345
-0.0037445464
-0.0034714357
-0.0031979218
-0.0029247376
-0.0026524892
-0.0023817099
-0.0021131093
-0.0018472394
-0.0015846365
-0.00132595
-0.0010717641
-0.00082262664
-0.00057926279
-0.00034156762
-0.00011001132
-0.0055947068
-0.0054334253
-0.0052530356
-0.0050558695
-0.0048451679
-0.0046240986
-0.0043947138
-0.004159179
-0.0039190531
-0.0036755475
-0.0034296573
-0.0031822213
-0.0029339517
-0.00268548
-0.0024375273
-0.0021903787
-0.0019448256
-0.0017013143
-0.0014604275
-0.0012227658
-0.00098891126
-0.00075939615
-0.00053512939
-0.00031572035
-0.00010152941
-0.0050792955
-0.0049354051
-0.0047740561
-0.0045976151
-0.0044087575
-0.004210068
-0.004003678
-0.0037912881
-0.0035744074
-0.0033541621
-0.0031314706
-0.0029070998
-0.0026817027
-0.0024558666
-0.002230153
-0.0020050237
-0.0017810385
-0.0015587105
-0.0013385703
-0.0011211611
-0.00090705597
-0.00069663394
-0.00049175436
-0.00029062416
-9.2660886e-05
-0.0046064041
-0.0044777274
-0.004333136
-0.0041748386
-0.0040051381
-0.0038262575
-0.003640056
-0.0034482135
-0.0032520206
-0.0030525695
-0.0028507214
-0.0026471893
-0.0024425824
-0.0022374438
-0.0020322764
-0.0018275473
-0.0016237405
-0.0014213421
-0.001220838
-0.0010227416
-0.00082760195
-0.00063576242
-0.00044860921
-0.0002650585
-8.4831543e-05
-0.0041719019
-0.0040566257
-0.0039268863
-0.00378465
-0.0036319892
-0.0034706704
-0.0033025304
-0.0031290435
-0.0029514424
-0.0027707293
-0.0025877331
-0.0024031319
-0.0022174984
-0.0020313408
-0.001845127
-0.0016592988
-0.0014742972
-0.001290564
-0.0011085477
-0.0009287156
-0.00075154259
-0.00057744155
-0.00040737338
-0.00024057061
-7.6927166e-05
-0.0037724283
-0.0036690475
-0.0035525472
-0.0034247425
-0.0032871784
-0.0031416646
-0.0029897755
-0.0028328678
-0.002672085
-0.0025083791
-0.0023425397
-0.0021752168
-0.00200696
-0.0018382484
-0.0016695189
-0.0015011866
-0.0013336546
-0.0011673233
-0.0010026004
-0.00083990456
-0.00067965644
-0.00052225894
-0.00036828265
-0.00021737165
-6.9528893e-05
-0.0034052246
-0.0033124941
-0.0032078893
-0.0030929036
-0.0029690088
-0.0028377748
-0.0027006119
-0.0025587623
-0.0024132966
-0.0022651127
-0.0021149596
-0.0019634646
-0.0018111595
-0.0016585017
-0.0015059005
-0.001353739
-0.0012023846
-0.001052201
-0.00090355425
-0.00075680936
-0.00061233264
-0.00047047492
-0.00033171074
-0.0001957365
-6.2619114e-05
-0.0030679655
-0.0029847742
-0.0028908372
-0.0027874518
-0.0026759449
-0.0025576769
-0.0024339179
-0.0023058094
-0.0021743473
-0.0020403796
-0.0019046225
-0.0017676718
-0.0016300341
-0.0014921528
-0.0013544104
-0.0012171618
-0.0010807429
-0.00094548169
-0.00081169971
-0.00067971703
-0.00054984731
-0.00042239587
-0.0002977722
-0.00017568984
-5.6210606e-05
-0.0027585498
-0.0026839839
-0.0025997008
-0.0025068374
-0.002406577
-0.0023001135
-0.0021885953
-0.002073064
-0.0019544406
-0.0018335233
-0.0017109907
-0.001587416
-0.0014632784
-0.0013389918
-0.0012149238
-0.0010914032
-0.00096873263
-0.0008472064
-0.00072710705
-0.00060871088
-0.00049228913
-0.00037810716
-0.00026650607
-0.00015723145
-5.0316919e-05
-0.0024751393
-0.0024083746
-0.0023328368
-0.0022495809
-0.0021595631
-0.0020638597
-0.0019635448
-0.0018595446
-0.0017527077
-0.0016437792
-0.0015334007
-0.0014221156
-0.0013103851
-0.0011985956
-0.0010870922
-0.00097617592
-0.0008661246
-0.00075719861
-0.00064964108
-0.00054369368
-0.00043958997
-0.0003375593
-0.00023788326
-0.00014034295
-4.4922358e-05
-0.0022160556
-0.0021563473
-0.0020887442
-0.0020141372
-0.0019335838
-0.0018477065
-0.0017576527
-0.0016642243
-0.0015682115
-0.001470292
-0.0013710737
-0.0012710714
-0.0011707213
-0.0010703953
-0.00097040698
-0.00087103399
-0.0007725293
-0.00067511857
-0.00057901777
-0.00048443067
-0.00039156097
-0.00030060291
-0.00021180138
-0.00012496034
-4.0001762e-05
-0.0019797177
-0.0019264146
-0.0018660045
-0.0017992842
-0.0017270373
-0.0016503519
-0.0015697932
-0.0014860344
-0.0013999612
-0.0013121344
-0.0012231514
-0.0011334911
-0.0010435652
-0.00095372741
-0.00086426831
-0.00077543899
-0.00068746498
-0.00060054858
-0.00051487635
-0.00043062301
-0.00034795864
-0.00026704644
-0.0001881094
-0.0001109882
-3.5549141e-05
-0.0017645767
-0.0017171146
-0.0016632577
-0.0016037434
-0.0015392773
-0.0014706506
-0.0013985416
-0.0013238103
-0.0012469452
-0.0011683209
-0.0010887237
-0.0010085253
-0.00092812893
-0.00084787358
-0.00076801729
-0.0006887917
-0.00061040147
-0.00053302267
-0.0004568175
-0.00038193477
-0.0003085148
-0.00023669283
-0.00016666766
-9.8326849e-05
-3.1526787e-05
-0.0015692222
-0.0015269878
-0.0014791078
-0.0014261487
-0.0013687379
-0.0013075631
-0.0012432518
-0.0011764415
-0.0011076779
-0.0010377339
-0.00096683387
-0.00089529346
-0.00082358881
-0.00075207585
-0.00068096562
-0.00061046539
-0.00054077088
-0.00047204293
-0.00040441515
-0.00033801205
-0.00027295013
-0.00020934013
-0.00014735756
-8.6923038e-05
-2.7828028e-05
-0.0013921766
-0.0013547112
-0.0013122064
-0.001265169
-0.0012141856
-0.0011598087
-0.0011026053
-0.0010431504
-0.0009819671
-0.00091956984
-0.00085631071
-0.00079273044
-0.00072905684
-0.00066553059
-0.00060242254
-0.00053981384
-0.00047799292
-0.00041709496
-0.00035722322
-0.00029848434
-0.00024097168
-0.00018477221
-0.00013003507
-7.667887e-05
-2.4503746e-05
-0.0012320081
-0.0011988577
-0.0011612301
-0.0011195754
-0.0010743937
-0.0010261783
-0.00097545157
-0.00092269879
-0.00086839413
-0.0008129813
-0.00075685887
-0.00070038836
-0.00064383777
-0.00058744028
-0.00053142913
-0.00047608306
-0.00042144377
-0.00036764588
-0.00031478267
-0.00026296302
-0.0002122582
-0.00016272821
-0.00011448516
-6.7459184e-05
-2.1489556e-05
-0.0010873423
-0.0010580873
-0.0010248674
-0.00098807955
-0.00094815297
-0.00090552878
-0.00086066735
-0.00081399721
-0.00076594015
-0.00071689383
-0.00066721566
-0.00061722179
-0.00056717572
-0.00051730632
-0.00046782049
-0.00041890391
-0.00037066589
-0.00032321002
-0.00027664963
-0.00023104364
-0.0001864587
-0.00014294408
-0.00010057196
-5.9203134e-05
-1.8720271e-05
-0.00095682815
-0.00093108698
-0.00090184622
-0.00086945311
-0.00083428102
-0.00079672001
-0.00075716693
-0.00071600679
-0.0006736133
-0.00063033754
-0.0005864988
-0.00054238099
-0.00049823327
-0.00045426424
-0.00041065808
-0.00036756984
-0.00032511488
-0.00028339029
-0.00024248174
-0.000202448
-0.00016333893
-0.0001251874
-8.8065775e-05
-5.1801643e-05
-1.6368277e-05
-0.00083916049
-0.00081658691
-0.00079093578
-0.00076250924
-0.00073163305
-0.0006986474
-0.00066389758
-0.00062772438
-0.00059045727
-0.00055240671
-0.00051385739
-0.00047506478
-0.00043625395
-0.00039761658
-0.00035931686
-0.00032149132
-0.00028424814
-0.00024767451
-0.00021184136
-0.00017680138
-0.00014259336
-0.00010924152
-7.6803118e-05
-4.5214117e-05
-1.432829e-05
-0.00073308194
-0.00071336359
-0.00069095012
-0.00066610361
-0.00063910659
-0.00061025455
-0.00057984832
-0.00054818661
-0.00051555879
-0.00048223868
-0.00044847894
-0.00041450769
-0.00038052626
-0.00034670801
-0.00031319985
-0.0002801235
-0.00024757674
-0.00021563686
-0.00018436447
-0.00015380515
-0.00012399244
-9.4949564e-05
-6.6740322e-05
-3.9336507e-05
-1.2555936e-05
-0.00063738528
-0.00062024237
-0.00060075102
-0.00057913728
-0.00055564503
-0.0005305299
-0.00050405305
-0.00047647466
-0.00044804778
-0.00041901253
-0.00038959176
-0.00035998749
-0.00033037872
-0.00030092033
-0.00027174351
-0.00024295668
-0.0002146468
-0.00018688253
-0.0001597166
-0.00013318883
-0.00010732952
-8.2161755e-05
-5.7748378e-05
-3.4066366e-05
-1.094281e-05
-0.00055091742
-0.00053610121
-0.00051925113
-0.00050056101
-0.0004802402
-0.00045850867
-0.00043559175
-0.0004117147
-0.00038709728
-0.00036194885
-0.00033646439
-0.00031082142
-0.00028517775
-0.00025967062
-0.00023441637
-0.00020951113
-0.00018503219
-0.00016104032
-0.00013758205
-0.00011469275
-9.2399247e-05
-7.0721913e-05
-4.9716273e-05
-2.9338482e-05
-9.4431424e-06
-0.00047258204
-0.00045987337
-0.00044541688
-0.00042937762
-0.00041193407
-0.00039327414
-0.00037359078
-0.00035307741
-0.0003319233
-0.00031030942
-0.00028840493
-0.00026636437
-0.00024432572
-0.00022240932
-0.00020071748
-0.00017933494
-0.00015833006
-0.00013775651
-0.00011765546
-9.8058048e-05
-7.8987374e-05
-6.0458727e-05
-4.250983e-05
-2.5092708e-05
-8.0753265e-06
-0.00040134016
-0.00039054794
-0.00037826895
-0.00036464245
-0.00034981921
-0.00033395818
-0.00031722292
-0.00029977779
-0.00028178409
-0.00026339653
-0.0002447602
-0.00022600816
-0.00020725963
-0.0001886189
-0.00017017497
-0.00015200178
-0.00013415918
-0.0001166942
-9.9642805e-05
-8.3031604e-05
-6.6879128e-05
-5.1195097e-05
-3.6009391e-05
-2.1262296e-05
-6.8323078e-06
-0.00033620797
-0.00032716773
-0.00031688019
-0.00030546132
-0.00029303681
-0.00027973938
-0.0002657058
-0.00025107379
-0.00023597887
-0.00022055137
-0.00020491394
-0.00018917939
-0.00017344913
-0.00015781217
-0.00014234471
-0.00012711034
-0.00011216064
-9.7536159e-05
-8.326763e-05
-6.9377225e-05
-5.587937e-05
-4.2780521e-05
-3.0102644e-05
-1.7782846e-05
-5.7030114e-06
-0.00027625162
-0.00026882411
-0.00026037045
-0.00025098542
-0.00024077185
-0.00022983844
-0.00021829742
-0.00020626196
-0.00019384366
-0.00018115016
-0.00016828301
-0.00015533585
-0.00014239312
-0.00012952916
-0.00011680787
-0.00010428273
-9.1997185e-05
-7.9985319e-05
-6.8272707e-05
-5.6877331e-05
-4.5810091e-05
-3.5074982e-05
-2.4686581e-05
-1.4588073e-05
-4.6764187e-06
-0.00022057982
-0.00021464979
-0.00020789956
-0.00020040445
-0.00019224624
-0.00018351152
-0.00017428973
-0.00016467126
-0.00015474538
-0.0001445984
-0.00013431192
-0.00012396136
-0.00011361489
-0.00010333274
-9.316683e-05
-8.3160714e-05
-7.3349776e-05
-6.3761681e-05
-5.4416964e-05
-4.5329677e-05
-3.6507739e-05
-2.7952954e-05
-1.9676385e-05
-1.1630089e-05
-3.7292495e-06
-0.00016832633
-0.00016380164
-0.00015865059
-0.0001529304
-0.00014670326
-0.00014003509
-0.00013299407
-0.00012564915
-0.00011806855
-0.00011031832
-0.00010246106
-9.4554732e-05
-8.6651857e-05
-7.879895e-05
-7.1036199e-05
-6.3397357e-05
-5.5909821e-05
-4.8594914e-05
-4.14683e-05
-3.4540401e-05
-2.7816613e-05
-2.1297393e-05
-1.4992205e-05
-8.8629511e-06
-2.8439663e-06
-0.00011862622
-0.00011543762
-0.00011180744
-0.0001077758
-0.00010338645
-9.8685744e-05
-9.3721684e-05
-8.8542853e-05
-8.3197365e-05
-7.7731861e-05
-7.2190561e-05
-6.66146e-05
-6.1041299e-05
-5.5503738e-05
-5.0030518e-05
-4.464566e-05
-3.936866e-05
-3.4214655e-05
-2.9194665e-05
-2.4315854e-05
-1.9581669e-05
-1.4991382e-05
-1.0553791e-05
-6.2399509e-06
-2.0041662e-06
-7.0665329e-05
-6.8765819e-05
-6.6603446e-05
-6.4201868e-05
-6.1587087e-05
-5.8786652e-05
-5.582912e-05
-5.2743423e-05
-4.9558233e-05
-4.6301339e-05
-4.2999128e-05
-3.9676157e-05
-3.6354852e-05
-3.3055002e-05
-2.979373e-05
-2.6585435e-05
-2.3441796e-05
-2.0371906e-05
-1.7382359e-05
-1.447741e-05
-1.1659112e-05
-8.9267871e-06
-6.289749e-06
-3.7182374e-06
-1.1911759e-06
-2.3475593e-05
-2.2844302e-05
-2.2125001e-05
-2.1326302e-05
-2.045681e-05
-1.9525642e-05
-1.8542292e-05
-1.7516399e-05
-1.6457521e-05
-1.5374905e-05
-1.4277332e-05
-1.3172926e-05
-1.2069261e-05
-1.0972877e-05
-9.8894724e-06
-8.8238514e-06
-7.7798908e-06
-6.7606338e-06
-5.7682879e-06
-4.8042814e-06
-3.8693803e-06
-2.95967e-06
-2.1121744e-06
-1.2492065e-06
-3.726359e-07
)
;

boundaryField
{
    Walls
    {
        type            zeroGradient;
    }
    Inlet
    {
        type            fixedValue;
        value           uniform 500;
    }
    Outlet
    {
        type            fixedValue;
        value           uniform 0;
    }
    Front
    {
        type            wedge;
    }
    Back
    {
        type            wedge;
    }
    defaultFaces
    {
        type            empty;
    }
}


// ************************************************************************* //
