/*--------------------------------*- C++ -*----------------------------------*\
| =========                 |                                                 |
| \\      /  F ield         | OpenFOAM: The Open Source CFD Toolbox           |
|  \\    /   O peration     | Version:  4.0                                   |
|   \\  /    A nd           | Web:      www.OpenFOAM.org                      |
|    \\/     M anipulation  |                                                 |
\*---------------------------------------------------------------------------*/
FoamFile
{
    version     2.0;
    format      ascii;
    class       surfaceScalarField;
    location    "0.28";
    object      phi;
}
// * * * * * * * * * * * * * * * * * * * * * * * * * * * * * * * * * * * * * //

dimensions      [0 3 -1 0 0 0 0];

internalField   nonuniform List<scalar> 
3364
(
-4.0951175e-10
1.673624e-08
-4.4833086e-10
4.8964798e-08
8.9083177e-08
-6.5286564e-10
1.7389085e-08
-1.2169047e-09
4.9528875e-08
8.7866291e-08
-2.3772357e-10
1.7626786e-08
-5.6474069e-10
4.9855944e-08
8.7301551e-08
2.2592075e-10
1.7400813e-08
4.4932137e-10
4.9632513e-08
8.7750849e-08
3.7658339e-10
1.7024173e-08
-5.183746e-10
5.0527377e-08
8.723242e-08
2.3741697e-10
1.678673e-08
-6.2433967e-10
5.1389059e-08
8.6608029e-08
1.6557726e-10
1.6621156e-08
1.0383255e-09
5.0516286e-08
8.7646321e-08
4.4093783e-10
1.6180186e-08
1.9256281e-09
4.9031553e-08
8.957191e-08
8.6529052e-11
1.6093602e-08
5.965903e-11
4.9058363e-08
8.9631527e-08
-3.6273132e-10
1.6456276e-08
-9.3535261e-10
4.9630926e-08
8.8696141e-08
-5.125826e-10
1.6968805e-08
-8.3690691e-10
4.9955195e-08
8.7859205e-08
-3.8690513e-10
1.7355682e-08
-2.0172853e-09
5.1585534e-08
8.5841886e-08
2.672169e-10
1.7088453e-08
-1.4418759e-09
5.329461e-08
8.4399977e-08
1.3249835e-10
1.6955936e-08
4.2727955e-10
5.2999808e-08
8.4827233e-08
3.2697203e-11
1.6923175e-08
-2.5174882e-11
5.3057632e-08
8.4802036e-08
2.1566182e-10
1.6707438e-08
-3.6435616e-10
5.3637595e-08
8.4437649e-08
1.3045946e-10
1.6576932e-08
2.35558e-10
5.3532468e-08
8.4673169e-08
1.9364243e-10
1.6383271e-08
6.1025333e-10
5.3115806e-08
8.5283361e-08
-2.1097424e-10
1.6594225e-08
7.4724816e-10
5.2157488e-08
8.6030527e-08
-3.9247949e-10
1.6986664e-08
1.3894023e-10
5.1626008e-08
8.6169431e-08
-5.0388804e-10
1.7490516e-08
-6.2065522e-10
5.1742762e-08
8.5548761e-08
-5.7834798e-10
1.8068854e-08
-2.9570859e-10
5.1460104e-08
8.5253009e-08
2.2213172e-10
1.7846694e-08
-5.7670637e-10
5.2258894e-08
8.4676252e-08
7.3491775e-10
1.7111707e-08
-6.5121624e-10
5.3644998e-08
8.4025029e-08
3.8741413e-10
1.6724221e-08
1.4621598e-10
5.3886186e-08
8.4171246e-08
6.8109794e-11
1.6656065e-08
4.5087786e-10
5.3503393e-08
8.4622093e-08
-5.5865789e-10
1.7214688e-08
4.1962045e-10
5.2525076e-08
8.5041673e-08
-8.2351358e-10
1.8038183e-08
-2.1028213e-10
5.1911821e-08
8.4831362e-08
1.0988134e-11
1.8027213e-08
-4.7484616e-10
5.2397732e-08
8.4356511e-08
1.9631847e-09
1.6064216e-08
5.2482236e-09
4.9112818e-08
8.9604696e-08
1.1481106e-08
4.5824982e-09
4.9390493e-08
1.1201565e-08
1.085594e-08
1.2813667e-07
5.0820886e-09
-5.0007959e-10
1.7716677e-08
-1.4345564e-09
-1.6468896e-09
3.0217562e-08
-3.6659633e-10
-1.3345426e-10
-1.4116141e-09
-3.8948116e-10
-5.83697e-10
-2.4747267e-09
-1.1179981e-10
-2.1640558e-11
-4.2065992e-10
-8.0587477e-11
-1.7676567e-10
-8.2755301e-10
-1.6230961e-11
-5.4079113e-12
-7.1099873e-11
-2.5713993e-11
-6.7371539e-11
-1.8048793e-10
-3.2963809e-12
-2.1113185e-12
-1.7257893e-11
-1.1751981e-11
-3.2511165e-11
-5.2117618e-11
-2.3264168e-13
-1.8786905e-12
-3.1552867e-12
-8.8293865e-12
-2.1478137e-11
-1.41885e-11
7.7635186e-13
-2.6551207e-12
1.449682e-12
-9.5029237e-12
-1.8989247e-11
-1.0394798e-12
4.3234994e-13
-3.0874925e-12
1.0293639e-12
-1.0100018e-11
-1.8199863e-11
2.398333e-13
-1.4816567e-13
-2.9393163e-12
-1.0519378e-12
-9.196226e-12
-1.5956847e-11
-3.2949175e-12
-4.8882124e-13
-2.4504615e-12
-2.2255618e-12
-7.4594103e-12
-1.2798613e-11
-5.383668e-12
-5.2478205e-13
-1.9256411e-12
-2.1293528e-12
-5.8547656e-12
-9.9115076e-12
-5.0163408e-12
-3.7235516e-13
-1.5532602e-12
-1.4910251e-12
-4.7360473e-12
-7.9315083e-12
-3.4709529e-12
-2.1421154e-13
-1.3390339e-12
-9.03287e-13
-4.046948e-12
-6.7541636e-12
-2.0806005e-12
-1.3844062e-13
-1.2005851e-12
-5.7708318e-13
-3.6082937e-12
-5.9776248e-12
-1.353611e-12
-1.1069795e-13
-1.0898824e-12
-4.4983027e-13
-3.2691532e-12
-5.3887934e-12
-1.038656e-12
-1.0301587e-13
-9.8686345e-13
-4.12069e-13
-2.9600934e-12
-4.8806963e-12
-9.2016186e-13
-9.4791942e-14
-8.920695e-13
-3.7826298e-13
-2.6766179e-12
-4.414838e-12
-8.44118e-13
-8.4611842e-14
-8.0745647e-13
-3.3844596e-13
-2.4227812e-12
-3.9960567e-12
-7.5722503e-13
-7.4507339e-14
-7.3294855e-13
-2.9756713e-13
-2.1997203e-12
-3.6320954e-12
-6.6152758e-13
-6.473628e-14
-6.6821212e-13
-2.5532789e-13
-2.0091286e-12
-3.3033393e-12
-5.8408444e-13
-5.5031305e-14
-6.1318096e-13
-2.3043498e-13
-1.8337257e-12
-3.0161011e-12
-5.1767434e-13
-5.2353553e-14
-5.6082769e-13
-2.0913541e-13
-1.6769449e-12
-2.7616488e-12
-4.6358941e-13
-4.756605e-14
-5.1326197e-13
-1.8798123e-13
-1.536531e-12
-2.533931e-12
-4.15701e-13
-4.2150524e-14
-4.7111177e-13
-1.6826239e-13
-1.4104203e-12
-2.3272199e-12
-3.7497548e-13
-3.8632278e-14
-4.3247977e-13
-1.536593e-13
-1.2953944e-12
-2.1357988e-12
-3.4508228e-13
-3.5547762e-14
-3.9693219e-13
-1.4187232e-13
-1.1890707e-12
-1.9605306e-12
-3.1714202e-13
-3.3124085e-14
-3.6380818e-13
-1.3198946e-13
-1.090206e-12
-1.7978586e-12
-2.9466256e-13
-3.1893728e-14
-3.3191444e-13
-1.2461752e-13
-9.9748249e-13
-1.6455379e-12
-2.7693882e-13
-2.9407442e-14
-3.025069e-13
-1.1932974e-13
-9.0756027e-13
-1.4999329e-12
-2.64935e-13
-2.7185498e-14
-2.7532121e-13
-1.0913759e-13
-8.2560803e-13
-1.3647166e-12
-2.4435382e-13
-2.5200903e-14
-2.5012005e-13
-1.0079591e-13
-7.5001266e-13
-1.2395189e-12
-2.2599322e-13
-2.3365098e-14
-2.2675464e-13
-9.3416307e-14
-6.7996094e-13
-1.1236904e-12
-2.0924405e-13
-2.1553315e-14
-2.0520097e-13
-8.615341e-14
-6.1536021e-13
-1.0168505e-12
-1.9299245e-13
-1.9663707e-14
-1.855369e-13
-7.8595045e-14
-5.5642817e-13
-9.1951797e-13
-1.7592651e-13
-1.798234e-14
-1.6755418e-13
-7.1874918e-14
-5.0253484e-13
-8.3044819e-13
-1.609435e-13
-1.6404492e-14
-1.5114932e-13
-6.5587758e-14
-4.533508e-13
-7.4913485e-13
-1.4689975e-13
-1.4867138e-14
-1.3628181e-13
-5.9466013e-14
-4.0875112e-13
-6.7543744e-13
-1.33162e-13
-1.333203e-14
-1.2294943e-13
-5.3331215e-14
-3.6875113e-13
-6.093421e-13
-1.194251e-13
-1.183563e-14
-1.1111347e-13
-4.7332298e-14
-3.3325366e-13
-5.5069041e-13
-1.0598254e-13
-1.042051e-14
-1.0069265e-13
-4.1684214e-14
-3.0198918e-13
-4.9901257e-13
-9.3360621e-14
-9.0897423e-15
-9.1602616e-14
-3.6379772e-14
-2.7469838e-13
-4.5386314e-13
-8.1527806e-14
-7.8465989e-15
-8.375574e-14
-3.1372026e-14
-2.5117222e-13
-4.1501332e-13
-7.0220482e-14
-6.6603529e-15
-7.7095123e-14
-2.665816e-14
-2.3117369e-13
-3.8200575e-13
-5.9664412e-14
-5.5205723e-15
-7.1574292e-14
-2.2110736e-14
-2.1458281e-13
-3.5457581e-13
-4.9539368e-14
-4.3912261e-15
-6.7182808e-14
-1.7580267e-14
-2.0139306e-13
-3.3255163e-13
-3.9603141e-14
-3.264168e-15
-6.391838e-14
-1.2993486e-14
-1.9166302e-13
-3.1591188e-13
-2.9631924e-14
-2.2359417e-15
-6.1682182e-14
-8.8312612e-15
-1.85067e-13
-3.0563187e-13
-1.9110005e-14
-1.1316175e-15
-6.0550328e-14
-4.5812166e-15
-1.8161675e-13
-3.0013223e-13
-1.0079676e-14
-1.3150591e-16
-6.0991762e-16
-1.451658e-15
1.3800125e-07
-9.8699192e-09
-8.9912667e-09
1.4698616e-07
2.2049033e-08
-1.7026365e-09
-1.5079811e-09
1.4565174e-08
-3.5126124e-09
-6.6464135e-10
-6.8778514e-10
-4.3326709e-09
-1.2549298e-09
-2.3721681e-10
-2.6018026e-10
-1.6824774e-09
-3.2512633e-10
-9.2569e-11
-9.964311e-11
-4.8564935e-10
-1.0065069e-10
-4.4034023e-11
-4.4654542e-11
-1.5563663e-10
-2.9604142e-11
-2.8618421e-11
-3.1010984e-11
-4.3248012e-11
-3.2437779e-12
-2.641459e-11
-3.0223662e-11
-4.0319196e-12
-1.1794879e-12
-2.4995548e-11
-2.961489e-11
-1.7887413e-12
-6.2486293e-12
-2.2041815e-11
-2.619446e-11
-9.6690965e-12
-9.6987611e-12
-1.7726555e-11
-2.1494912e-11
-1.4398124e-11
-8.9599176e-12
-1.3782812e-11
-1.7015433e-11
-1.3439199e-11
-6.2676996e-12
-1.0985967e-11
-1.3759384e-11
-9.5236285e-12
-3.743167e-12
-9.3233637e-12
-1.1645373e-11
-5.8571362e-12
-2.4260409e-12
-8.2509253e-12
-1.0294593e-11
-3.7768149e-12
-1.8732119e-12
-7.4163683e-12
-9.2891325e-12
-2.878676e-12
-1.6253919e-12
-6.7111391e-12
-8.3914037e-12
-2.5231259e-12
-1.4855252e-12
-6.069732e-12
-7.6003138e-12
-2.2766192e-12
-1.3355854e-12
-5.4913715e-12
-6.8849776e-12
-2.0509245e-12
-1.171084e-12
-4.9818157e-12
-6.2518139e-12
-1.8042506e-12
-1.0258024e-12
-4.5400992e-12
-5.6995417e-12
-1.5780781e-12
-9.0501249e-13
-4.1527633e-12
-5.2187832e-12
-1.3857749e-12
-8.1011193e-13
-3.8062434e-12
-4.793136e-12
-1.2357632e-12
-7.2907458e-13
-3.4928726e-12
-4.4026016e-12
-1.1196129e-12
-6.6040458e-13
-3.2074464e-12
-4.0422967e-12
-1.0207133e-12
-6.0537166e-13
-2.9471596e-12
-3.713782e-12
-9.3388973e-13
-5.6039119e-13
-2.7039126e-12
-3.4118607e-12
-8.6231531e-13
-5.1915495e-13
-2.4794217e-12
-3.1269017e-12
-8.0411593e-13
-4.8575244e-13
-2.2706091e-12
-2.861526e-12
-7.5112949e-13
-4.5865989e-13
-2.0768847e-12
-2.6151908e-12
-7.0499566e-13
-4.3512826e-13
-1.8861102e-12
-2.3836338e-12
-6.6668532e-13
-3.9974403e-13
-1.7123589e-12
-2.1631228e-12
-6.2025447e-13
-3.6920433e-13
-1.5523977e-12
-1.9609833e-12
-5.7134274e-13
-3.4063025e-13
-1.4047588e-12
-1.7753983e-12
-5.2621369e-13
-3.1032151e-13
-1.2703623e-12
-1.6047428e-12
-4.8097509e-13
-2.8412233e-13
-1.1471817e-12
-1.448583e-12
-4.4027971e-13
-2.5932995e-13
-1.0347495e-12
-1.3064286e-12
-4.0148167e-13
-2.3493954e-13
-9.329698e-13
-1.1779599e-12
-3.6340534e-13
-2.1068008e-13
-8.4171265e-13
-1.0628222e-12
-3.2581487e-13
-1.8696573e-13
-7.6072728e-13
-9.606338e-13
-2.8915124e-13
-1.6468109e-13
-6.8940467e-13
-8.706057e-13
-2.5470632e-13
-1.4381473e-13
-6.2711566e-13
-7.9191507e-13
-2.2250256e-13
-1.2397662e-13
-5.7335749e-13
-7.2401861e-13
-1.9187037e-13
-1.0529746e-13
-5.2772247e-13
-6.6640988e-13
-1.6290353e-13
-8.7397588e-14
-4.898623e-13
-6.1877873e-13
-1.3502613e-13
-6.9763278e-14
-4.5970021e-13
-5.806792e-13
-1.0786022e-13
-5.2007978e-14
-4.3732222e-13
-5.519851e-13
-8.0699501e-14
-3.3938974e-14
-4.2249138e-13
-5.3212134e-13
-5.3800239e-14
-1.7932968e-14
-4.1463634e-13
-5.2333544e-13
-2.6716537e-14
-2.6181098e-15
-3.7895378e-15
-9.3366674e-12
9.335449e-12
-1.9188183e-11
9.8470132e-12
-2.8603374e-11
9.4095326e-12
-3.7470983e-11
8.861761e-12
-4.567303e-11
8.1964258e-12
-5.315597e-11
7.4777182e-12
-6.0157237e-11
6.9965081e-12
-6.7188823e-11
7.0273369e-12
-7.4971192e-11
7.7786305e-12
-8.474529e-11
9.7708814e-12
-9.7918245e-11
1.3170211e-11
-1.1422572e-10
1.6305181e-11
-1.3365741e-10
1.9429761e-11
-1.5601501e-10
2.2355991e-11
-1.8090836e-10
2.4891989e-11
-2.0779393e-10
2.688442e-11
-2.3590806e-10
2.8113115e-11
-2.6403096e-10
2.8122029e-11
-2.9101521e-10
2.6983459e-11
-3.1576933e-10
2.4753454e-11
-3.3731834e-10
2.1548424e-11
-3.5485461e-10
1.7535811e-11
-3.6773683e-10
1.2881855e-11
-3.7534634e-10
7.6092406e-12
1.9217764e-12
-4.906523e-11
5.8404118e-11
-1.0662275e-10
6.7409749e-11
-1.7136121e-10
7.415401e-11
-2.4414356e-10
8.1650398e-11
-3.2548207e-10
8.9541244e-11
-4.1631047e-10
9.8312346e-11
-5.1805399e-10
1.0874612e-10
-6.322062e-10
1.2118542e-10
-7.5900848e-10
1.3458647e-10
-8.9752596e-10
1.4829352e-10
-1.0460689e-09
1.617179e-10
-1.2035381e-09
1.7377861e-10
-1.3680173e-09
1.8391269e-10
-1.5375277e-09
1.9186958e-10
-1.7101945e-09
1.9756146e-10
-1.8850842e-09
2.0177627e-10
-2.0718598e-09
2.1489027e-10
-2.2515061e-09
2.0776939e-10
-2.4162055e-09
1.9168348e-10
-2.5607436e-09
1.6929171e-10
-2.681259e-09
1.4206353e-10
-2.774725e-09
1.1100114e-10
-2.838676e-09
7.6831848e-11
-2.8690016e-09
3.7933553e-11
9.5491392e-12
-1.3017774e-10
1.8858987e-10
-2.8115614e-10
2.1840024e-10
-4.53661e-10
2.4667264e-10
-6.4909946e-10
2.7710287e-10
-8.6977719e-10
3.102326e-10
-1.1188581e-09
3.4740616e-10
-1.4044416e-09
3.9434148e-10
-1.7964402e-09
5.1319473e-10
-2.2324339e-09
5.7058952e-10
-2.6830274e-09
5.9889507e-10
-3.132674e-09
6.1137113e-10
-3.5709489e-09
6.1205883e-10
-3.9903972e-09
6.0336517e-10
-4.3852698e-09
5.867453e-10
-4.7494991e-09
5.6179279e-10
-5.0772169e-09
5.2949514e-10
-5.3531407e-09
4.9081439e-10
-5.5915092e-09
4.461373e-10
-5.7963239e-09
3.9649687e-10
-5.9700805e-09
3.430464e-10
-6.1144506e-09
2.8643113e-10
-6.2300914e-09
2.2663899e-10
-6.3171104e-09
1.6384743e-10
-6.3777062e-09
9.8525562e-11
3.2643762e-11
-3.9075083e-10
5.7935676e-10
-8.16518e-10
6.4419093e-10
-1.2898326e-09
7.2001258e-10
-2.0271609e-09
1.014454e-09
-2.8316319e-09
1.114723e-09
-3.6104094e-09
1.1261995e-09
-4.3125994e-09
1.0965441e-09
-4.8401043e-09
1.0407095e-09
-5.2375779e-09
9.6807096e-10
-5.5229231e-09
8.8424622e-10
-5.7064338e-09
7.9488641e-10
-5.7975078e-09
7.0313607e-10
-5.804536e-09
6.1039566e-10
-5.7324504e-09
5.1466116e-10
-5.5965247e-09
4.2586788e-10
-5.4132984e-09
3.4626897e-10
-5.1991203e-09
2.766361e-10
-4.9702206e-09
2.1723691e-10
-4.7416818e-09
1.6795717e-10
-4.5324247e-09
1.3378796e-10
-4.3526319e-09
1.0663686e-10
-4.2092681e-09
8.3273381e-11
-4.1080229e-09
6.2600305e-11
-4.0523225e-09
4.2823014e-11
2.3801761e-11
-2.2635716e-09
2.8429543e-09
-3.9621441e-09
2.3427918e-09
-5.3588222e-09
2.1167178e-09
-5.9691298e-09
1.6247805e-09
-5.9708198e-09
1.1164281e-09
-5.4985012e-09
6.5389296e-10
-4.7347337e-09
3.3278654e-10
-3.7442634e-09
5.0247538e-11
-2.5882362e-09
-1.8794907e-10
-1.3580684e-09
-3.4591547e-10
-1.2828355e-10
-4.3489434e-10
1.1024978e-09
-5.2764606e-10
2.3910843e-09
-6.781916e-10
3.801196e-09
-8.9544992e-10
5.1797666e-09
-9.5270053e-10
6.487231e-09
-9.611914e-10
7.7004064e-09
-9.3653339e-10
8.8038021e-09
-8.8615124e-10
9.7861837e-09
-8.1441529e-10
1.0643963e-08
-7.2398069e-10
1.1367803e-08
-6.1719151e-10
1.1947607e-08
-4.9651624e-10
1.2373778e-08
-3.635557e-10
1.2637287e-08
-2.206709e-10
-6.6114449e-11
1.1500712e-09
1.6929702e-09
4.5006581e-09
-1.0077468e-09
8.3417475e-09
-1.724306e-09
1.2066728e-08
-2.1001732e-09
1.5754024e-08
-2.5708428e-09
1.939771e-08
-2.9897648e-09
2.2964689e-08
-3.2341594e-09
2.6305513e-08
-3.2905387e-09
2.9333732e-08
-3.2161249e-09
3.2059205e-08
-3.0713411e-09
3.4513127e-08
-2.8887668e-09
3.6662388e-08
-2.6768533e-09
3.8445184e-08
-2.4609336e-09
3.9801625e-08
-2.2518345e-09
4.0882764e-08
-2.0337838e-09
4.1738172e-08
-1.8165435e-09
4.2407243e-08
-1.6055483e-09
4.2923027e-08
-1.4018793e-09
4.3314323e-08
-1.2056552e-09
4.3606518e-08
-1.0161206e-09
4.3821028e-08
-8.3164685e-10
4.3974587e-08
-6.5002024e-10
4.4079331e-08
-4.6824632e-10
4.4142378e-08
-2.8366361e-10
-9.0128982e-11
1.5091133e-07
-2.2309714e-09
1.4916233e-07
7.4218415e-10
1.4620375e-07
1.2350613e-09
1.4245549e-07
1.6487907e-09
1.3773215e-07
2.1531079e-09
1.3214645e-07
2.5964575e-09
1.2603883e-07
2.8739107e-09
1.1978596e-07
2.9627131e-09
1.1366237e-07
2.9077929e-09
1.078004e-07
2.7909208e-09
1.0226092e-07
2.6509618e-09
9.710438e-08
2.4799085e-09
9.2355906e-08
2.287739e-09
8.8018081e-08
2.0861682e-09
8.4101526e-08
1.8829325e-09
8.0602736e-08
1.6823923e-09
7.7510324e-08
1.4869971e-09
7.4810383e-08
1.2981844e-09
7.2488599e-08
1.1162426e-09
7.0532039e-08
9.4054477e-10
6.893078e-08
7.6971136e-10
6.7679119e-08
6.0173423e-10
6.67772e-08
4.3376154e-10
6.6230484e-08
2.6313685e-10
8.3954995e-11
1.3829652e-08
-1.4953216e-09
1.6186432e-08
-1.6144792e-09
1.8786798e-08
-1.3651879e-09
2.1450617e-08
-1.0149166e-09
2.416766e-08
-5.6382745e-10
2.7035134e-08
-2.7091429e-10
2.9908992e-08
1.4561472e-13
3.2634887e-08
2.3690678e-10
3.517657e-08
3.6619834e-10
3.7496858e-08
4.707213e-10
3.9560351e-08
5.8755538e-10
4.1171893e-08
8.6845176e-10
4.2448304e-08
1.0114114e-09
4.3462462e-08
1.0720911e-09
4.4256656e-08
1.0888176e-09
4.4866206e-08
1.0729197e-09
4.5324407e-08
1.0288708e-09
4.5660661e-08
9.6200316e-10
4.5900984e-08
8.7598978e-10
4.6068098e-08
7.734981e-10
4.6181297e-08
6.5657831e-10
4.6256628e-08
5.264668e-10
4.6305079e-08
3.853717e-10
4.6333793e-08
2.3448282e-10
7.0926026e-11
-5.0038828e-09
-8.2411917e-10
-5.5965646e-09
-1.0218057e-09
-5.8741201e-09
-1.0876413e-09
-5.7743972e-09
-1.114648e-09
-5.2319982e-09
-1.1062336e-09
-4.4297724e-09
-1.073145e-09
-3.4127361e-09
-1.0168933e-09
-2.2340658e-09
-9.417633e-10
-1.0130264e-09
-8.5483839e-10
2.192964e-10
-7.6159649e-10
1.4716883e-09
-6.648293e-10
2.9041925e-09
-5.6404286e-10
4.3808609e-09
-4.6524521e-10
5.8260812e-09
-3.7311541e-10
7.2045446e-09
-2.8963007e-10
8.496258e-09
-2.1877647e-10
9.6999079e-09
-1.7476053e-10
1.0798913e-08
-1.3698278e-10
1.1780691e-08
-1.057673e-10
1.263518e-08
-8.096944e-11
1.3353827e-08
-6.2047505e-11
1.3928328e-08
-4.8012806e-11
1.435122e-08
-3.7498744e-11
1.4613973e-08
-2.8248965e-11
-1.7065434e-11
-2.2286715e-09
-2.7792575e-10
-2.9457382e-09
-3.0474103e-10
-3.6986018e-09
-3.3478243e-10
-4.4399576e-09
-3.7329906e-10
-5.1173008e-09
-4.2889927e-10
-5.6326571e-09
-5.5779878e-10
-6.0354761e-09
-6.140849e-10
-6.3302143e-09
-6.4703609e-10
-6.5199526e-09
-6.6511105e-10
-6.610284e-09
-6.7127587e-10
-6.6070223e-09
-6.6810143e-10
-6.5140923e-09
-6.5698265e-10
-6.3415848e-09
-6.3776182e-10
-6.1039198e-09
-6.1078879e-10
-5.8167463e-09
-5.7681115e-10
-5.4989607e-09
-5.3656881e-10
-5.1807575e-09
-4.9296982e-10
-4.8717003e-09
-4.4604536e-10
-4.5816874e-09
-3.957849e-10
-4.3203135e-09
-3.4234757e-10
-4.0964807e-09
-2.8588416e-10
-3.9179985e-09
-2.2649847e-10
-3.7911863e-09
-1.6431411e-10
-3.7198248e-09
-9.9613585e-11
-3.371678e-11
-6.6378865e-10
-9.9784269e-11
-8.6478982e-10
-1.0373787e-10
-1.0934252e-09
-1.061457e-10
-1.3518757e-09
-1.1484781e-10
-1.6556887e-09
-1.2508646e-10
-2.0742798e-09
-1.3920887e-10
-2.5326416e-09
-1.5572551e-10
-3.0060375e-09
-1.7364368e-10
-3.4792941e-09
-1.9185902e-10
-3.9413334e-09
-2.0924199e-10
-4.384218e-09
-2.2522308e-10
-4.801029e-09
-2.4017844e-10
-5.180448e-09
-2.5835024e-10
-5.5039228e-09
-2.873217e-10
-5.7916589e-09
-2.89083e-10
-6.046116e-09
-2.8211994e-10
-6.2707927e-09
-2.6830143e-10
-6.4676824e-09
-2.491641e-10
-6.6385009e-09
-2.2497484e-10
-6.784595e-09
-1.9626183e-10
-6.9069512e-09
-1.6353628e-10
-7.0060687e-09
-1.2738935e-10
-7.0817363e-09
-8.8654715e-11
-7.1334789e-09
-4.7879068e-11
-1.0723579e-11
-2.1718417e-10
-3.8235862e-11
-2.9036235e-10
-3.0558822e-11
-3.7410645e-10
-2.2400825e-11
-4.7244939e-10
-1.6504276e-11
-5.8487168e-10
-1.2663813e-11
-7.1316384e-10
-1.0916614e-11
-8.5826935e-10
-1.0620246e-11
-1.019484e-09
-1.2429658e-11
-1.1950702e-09
-1.6273767e-11
-1.3827566e-09
-2.1557029e-11
-1.5804301e-09
-2.7551288e-11
-1.787088e-09
-3.3522658e-11
-2.0064029e-09
-3.9037794e-11
-2.2501242e-09
-4.3603296e-11
-2.4929213e-09
-4.6289114e-11
-2.7283222e-09
-4.6722512e-11
-2.9514025e-09
-4.5224981e-11
-3.1569911e-09
-4.3579576e-11
-3.3416218e-09
-4.0348416e-11
-3.5019316e-09
-3.5956429e-11
-3.6348748e-09
-3.0597672e-11
-3.737872e-09
-2.4396746e-11
-3.8089853e-09
-1.7546005e-11
-3.8466566e-09
-1.0212362e-11
-2.7043569e-12
-5.4356891e-11
-2.7127316e-11
-6.4396869e-11
-2.0519305e-11
-7.3559804e-11
-1.3238437e-11
-8.5824842e-11
-4.2398417e-12
-1.0218917e-10
3.6998725e-12
-1.2362755e-10
1.0521097e-11
-1.4996242e-10
1.5713928e-11
-1.8198881e-10
1.9596015e-11
-2.2029497e-10
2.2031651e-11
-2.6495729e-10
2.3104507e-11
-3.1550382e-10
2.299442e-11
-3.7092763e-10
2.1900277e-11
-4.3013424e-10
2.0167901e-11
-4.9194502e-10
1.8206501e-11
-5.5443429e-10
1.61991e-11
-6.1548512e-10
1.4327203e-11
-6.7368272e-10
1.2971437e-11
-7.2841085e-10
1.1147311e-11
-7.7825889e-10
9.4983446e-12
-8.2222031e-10
8.0036919e-12
-8.5917028e-10
6.3509765e-12
-8.8820595e-10
4.6376091e-12
-9.086929e-10
2.9396579e-12
-9.2033602e-10
1.4295206e-12
4.7887207e-13
-1.0876133e-12
-3.0071896e-11
5.8174025e-12
-2.7424678e-11
1.5397576e-11
-2.2819012e-11
2.75534e-11
-1.6396073e-11
4.1394958e-11
-1.0142077e-11
5.6986365e-11
-5.0706696e-12
7.2190684e-11
5.0928835e-13
8.6564805e-11
5.2216149e-12
9.9363515e-11
9.2327028e-12
1.1054648e-10
1.1921341e-11
1.2015766e-10
1.3383076e-11
1.2812604e-10
1.3931767e-11
1.34502e-10
1.3791837e-11
1.3958066e-10
1.3127758e-11
1.4363893e-10
1.2140785e-11
1.4692999e-10
1.1036116e-11
1.4991874e-10
9.9826852e-12
1.5231654e-10
8.7495357e-12
1.5430345e-10
7.5114701e-12
1.5599194e-10
6.3152635e-12
1.5726419e-10
5.0788103e-12
1.5807444e-10
3.8274498e-12
1.5842599e-10
2.5882164e-12
1.5846335e-10
1.3922888e-12
3.5061707e-13
4.1452222e-13
-3.2275197e-11
5.4233722e-12
-3.2433607e-11
1.3275186e-11
-3.0670934e-11
2.4340297e-11
-2.7461302e-11
3.7643817e-11
-2.344571e-11
5.2536652e-11
-1.9963599e-11
6.907464e-11
-1.6028768e-11
8.6979191e-11
-1.2682971e-11
1.0553251e-10
-9.3206148e-12
1.2369306e-10
-6.2391716e-12
1.4081499e-10
-3.7387888e-12
1.5681307e-10
-2.0662131e-12
1.7160935e-10
-1.0043109e-12
1.8513618e-10
-3.989156e-13
1.9737667e-10
-9.9516415e-14
2.0848298e-10
-6.9985772e-14
2.1858428e-10
-1.1837828e-13
2.275629e-10
-2.288305e-13
2.3539426e-10
-3.1961193e-13
2.4207485e-10
-3.6504351e-13
2.4753122e-10
-3.7725395e-13
2.5170688e-10
-3.4790088e-13
2.5457367e-10
-2.7826521e-13
2.5616262e-10
-1.9635055e-13
-9.481895e-14
-1.2688588e-11
-2.9255635e-11
-1.3964501e-11
-3.1157643e-11
-1.3354833e-11
-3.1280566e-11
-1.0549692e-11
-3.0266419e-11
-5.6546993e-12
-2.8340683e-11
1.0300513e-13
-2.5721283e-11
6.9009813e-12
-2.2826718e-11
1.4382475e-11
-2.016443e-11
2.2536354e-11
-1.7474448e-11
3.1182965e-11
-1.4885724e-11
4.0210518e-11
-1.276627e-11
4.8787202e-11
-1.0642813e-11
5.6657089e-11
-8.8741023e-12
6.3694114e-11
-7.4358337e-12
6.9870926e-11
-6.2762127e-12
7.5136993e-11
-5.3359289e-12
7.9582432e-11
-4.5636867e-12
8.3289679e-11
-3.9359407e-12
8.6370629e-11
-3.4004223e-12
8.8896637e-11
-2.8909093e-12
9.0912365e-11
-2.3928391e-12
9.2460435e-11
-1.8958289e-12
9.3504106e-11
-1.3217981e-12
9.4151789e-11
-8.4389784e-13
-4.1909219e-13
-1.9775485e-11
-2.3878204e-11
-2.4610539e-11
-2.632253e-11
-2.8612428e-11
-2.7278629e-11
-3.1597298e-11
-2.7281512e-11
-3.3572696e-11
-2.6365256e-11
-3.4466677e-11
-2.4827278e-11
-3.443004e-11
-2.2863336e-11
-3.3812673e-11
-2.0781782e-11
-3.2817097e-11
-1.847001e-11
-3.1350729e-11
-1.6352081e-11
-2.960277e-11
-1.4514218e-11
-2.7735201e-11
-1.2510373e-11
-2.586513e-11
-1.0744164e-11
-2.427337e-11
-9.0275858e-12
-2.3079404e-11
-7.4701715e-12
-2.2210173e-11
-6.2051536e-12
-2.1646553e-11
-5.1273022e-12
-2.138093e-11
-4.2015606e-12
-2.1370793e-11
-3.4105567e-12
-2.1535958e-11
-2.7257447e-12
-2.1825159e-11
-2.1036392e-12
-2.2196858e-11
-1.5241327e-12
-2.2413073e-11
-1.1055888e-12
-2.2801367e-11
-4.5560984e-13
2.7244278e-14
-1.8062039e-11
-1.9255329e-11
-2.3228402e-11
-2.1156137e-11
-2.827086e-11
-2.2236148e-11
-3.2951433e-11
-2.2600925e-11
-3.6969766e-11
-2.2346917e-11
-4.0205042e-11
-2.1592005e-11
-4.2616787e-11
-2.0451598e-11
-4.4773126e-11
-1.8625457e-11
-4.6148355e-11
-1.7094799e-11
-4.7026578e-11
-1.5473881e-11
-4.7711889e-11
-1.3828934e-11
-4.8148407e-11
-1.2073886e-11
-4.8564127e-11
-1.0328478e-11
-4.8911878e-11
-8.6798697e-12
-4.9207483e-11
-7.1746051e-12
-4.9567252e-11
-5.8454242e-12
-5.0012071e-11
-4.6825237e-12
-5.0534988e-11
-3.6786866e-12
-5.105691e-11
-2.8886793e-12
-5.156258e-11
-2.2201197e-12
-5.1960509e-11
-1.7057561e-12
-5.2230386e-11
-1.2543027e-12
-5.254837e-11
-7.8765219e-13
-5.2513158e-11
-4.9086833e-13
-3.001604e-13
-1.2858934e-11
-1.5920012e-11
-1.6661824e-11
-1.7353233e-11
-2.0617719e-11
-1.8280242e-11
-2.444527e-11
-1.8773366e-11
-2.7989835e-11
-1.8802349e-11
-3.1024911e-11
-1.8556932e-11
-3.3569414e-11
-1.7907102e-11
-3.5220768e-11
-1.6974115e-11
-3.6542673e-11
-1.5772909e-11
-3.7624089e-11
-1.4392483e-11
-3.8344273e-11
-1.3108771e-11
-3.8769624e-11
-1.1648558e-11
-3.9033992e-11
-1.0064134e-11
-3.9118325e-11
-8.5955626e-12
-3.9062456e-11
-7.2305011e-12
-3.8941125e-11
-5.9667842e-12
-3.8785781e-11
-4.8378974e-12
-3.8599399e-11
-3.8650987e-12
-3.844664e-11
-3.0414688e-12
-3.8310422e-11
-2.3563697e-12
-3.8221924e-11
-1.7942862e-12
-3.8142269e-11
-1.3339917e-12
-3.7930323e-11
-9.9963172e-13
-3.7742123e-11
-6.791006e-13
-1.8502261e-13
-8.1740853e-12
-1.3603063e-11
-1.0596793e-11
-1.493052e-11
-1.3018194e-11
-1.5858832e-11
-1.5368479e-11
-1.6423073e-11
-1.7502396e-11
-1.6668425e-11
-1.9421587e-11
-1.6637734e-11
-2.1028369e-11
-1.6300315e-11
-2.2169213e-11
-1.5833267e-11
-2.2944991e-11
-1.4997129e-11
-2.3353037e-11
-1.3984437e-11
-2.3548262e-11
-1.2913546e-11
-2.3422463e-11
-1.1774359e-11
-2.2947243e-11
-1.0539357e-11
-2.2404125e-11
-9.1386832e-12
-2.1772384e-11
-7.8622464e-12
-2.1053028e-11
-6.6861442e-12
-2.0283785e-11
-5.6071453e-12
-1.9516083e-11
-4.6328071e-12
-1.8801666e-11
-3.7558922e-12
-1.8175946e-11
-2.9820968e-12
-1.7666931e-11
-2.3033094e-12
-1.7290676e-11
-1.7102566e-12
-1.7102888e-11
-1.1874302e-12
-1.7098687e-11
-6.8330986e-13
-1.787315e-13
-5.3816107e-12
-1.1998274e-11
-6.9047558e-12
-1.3407377e-11
-8.3667205e-12
-1.4396865e-11
-9.7533599e-12
-1.5036427e-11
-1.1012151e-11
-1.5409624e-11
-1.2100059e-11
-1.5549817e-11
-1.3018355e-11
-1.5382009e-11
-1.3778283e-11
-1.5073328e-11
-1.4076891e-11
-1.4698511e-11
-1.4085121e-11
-1.3976196e-11
-1.3960323e-11
-1.3038333e-11
-1.371164e-11
-1.2023031e-11
-1.3132137e-11
-1.1118849e-11
-1.2285147e-11
-9.9856632e-12
-1.1348128e-11
-8.7992553e-12
-1.0356093e-11
-7.6781687e-12
-9.3073028e-12
-6.6559261e-12
-8.3014783e-12
-5.6386225e-12
-7.3521306e-12
-4.7052315e-12
-6.4878217e-12
-3.8463981e-12
-5.734295e-12
-3.0568295e-12
-5.1173324e-12
-2.3272137e-12
-4.6609816e-12
-1.643777e-12
-4.3579446e-12
-9.8634101e-13
-3.185597e-13
-4.0291783e-12
-1.0847783e-11
-5.2086224e-12
-1.2227939e-11
-6.3448066e-12
-1.3260683e-11
-7.4141814e-12
-1.3967051e-11
-8.3785531e-12
-1.4445249e-11
-9.2162889e-12
-1.4712075e-11
-9.86504e-12
-1.4733249e-11
-1.0377982e-11
-1.4560377e-11
-1.0757748e-11
-1.4318733e-11
-1.0719595e-11
-1.4014337e-11
-1.0588041e-11
-1.3169875e-11
-1.0248642e-11
-1.2362418e-11
-9.8569401e-12
-1.1510538e-11
-9.2297035e-12
-1.0612887e-11
-8.4534778e-12
-9.5754675e-12
-7.5013406e-12
-8.6302924e-12
-6.5309054e-12
-7.626348e-12
-5.5894787e-12
-6.5800363e-12
-4.6822502e-12
-5.6124474e-12
-3.842994e-12
-4.6856424e-12
-3.1040072e-12
-3.7958054e-12
-2.4974717e-12
-2.9337394e-12
-2.063004e-12
-2.0782361e-12
-1.7989716e-12
-1.2503631e-12
-4.3569353e-13
-3.4919415e-12
-9.8789811e-12
-4.5818074e-12
-1.1138083e-11
-5.6516877e-12
-1.219081e-11
-6.6538767e-12
-1.2964866e-11
-7.5529838e-12
-1.3546143e-11
-8.3781582e-12
-1.3886899e-11
-9.0637615e-12
-1.4047643e-11
-9.5995721e-12
-1.4024561e-11
-1.0062779e-11
-1.3855521e-11
-1.0473141e-11
-1.3603967e-11
-1.0412129e-11
-1.3230879e-11
-1.0303832e-11
-1.2470706e-11
-1.0066443e-11
-1.1747916e-11
-9.7119096e-12
-1.096741e-11
-9.1815186e-12
-1.0105848e-11
-8.6037971e-12
-9.2080026e-12
-7.9850955e-12
-8.2450383e-12
-7.28287e-12
-7.2822505e-12
-6.6029887e-12
-6.2923177e-12
-5.9422496e-12
-5.3463709e-12
-5.3672552e-12
-4.37079e-12
-4.8969246e-12
-3.4040611e-12
-4.5471418e-12
-2.4280113e-12
-4.330521e-12
-1.4669741e-12
-5.0063791e-13
-3.1892001e-12
-8.966414e-12
-4.1897057e-12
-1.0137589e-11
-5.196e-12
-1.1184524e-11
-6.1857322e-12
-1.1975141e-11
-7.1755537e-12
-1.2556326e-11
-8.0483405e-12
-1.3014115e-11
-8.8342948e-12
-1.3261689e-11
-9.5135885e-12
-1.3345267e-11
-1.0086001e-11
-1.3283106e-11
-1.05971e-11
-1.3092865e-11
-1.1024728e-11
-1.2803247e-11
-1.1089768e-11
-1.2405661e-11
-1.1112746e-11
-1.1724932e-11
-1.1024733e-11
-1.1055416e-11
-1.0822875e-11
-1.0307699e-11
-1.0542119e-11
-9.4887504e-12
-1.0177481e-11
-8.6096686e-12
-9.7671072e-12
-7.6926159e-12
-9.3241997e-12
-6.7352172e-12
-8.9190241e-12
-5.7515387e-12
-8.5457336e-12
-4.7440732e-12
-8.2305151e-12
-3.7192732e-12
-7.9820115e-12
-2.6765093e-12
-7.8286097e-12
-1.6203683e-12
-5.4527859e-13
-2.8701236e-12
-8.1472268e-12
-3.7587476e-12
-9.2489765e-12
-4.7073366e-12
-1.0235945e-11
-5.6714455e-12
-1.101104e-11
-6.6416161e-12
-1.1586162e-11
-7.5523281e-12
-1.2103408e-11
-8.3932605e-12
-1.2420761e-11
-9.1599008e-12
-1.2578629e-11
-9.8455565e-12
-1.2597452e-11
-1.04433e-11
-1.2495122e-11
-1.0974339e-11
-1.2272207e-11
-1.1434656e-11
-1.1945341e-11
-1.1660804e-11
-1.1498781e-11
-1.177921e-11
-1.0937006e-11
-1.1815053e-11
-1.0271852e-11
-1.177674e-11
-9.5270587e-12
-1.1664775e-11
-8.7216283e-12
-1.1495153e-11
-7.8622327e-12
-1.129134e-11
-6.9390243e-12
-1.1075236e-11
-5.9676377e-12
-1.086189e-11
-4.9574135e-12
-1.0671999e-11
-3.9091595e-12
-1.0500919e-11
-2.8475853e-12
-1.0386316e-11
-1.7349655e-12
-5.9399009e-13
-2.5286014e-12
-7.4228857e-12
-3.322161e-12
-8.455426e-12
-4.2068219e-12
-9.351293e-12
-5.0869904e-12
-1.0130879e-11
-5.9457499e-12
-1.0727409e-11
-6.8420285e-12
-1.1207135e-11
-7.698761e-12
-1.1564033e-11
-8.4962618e-12
-1.1781132e-11
-9.2266687e-12
-1.1867047e-11
-9.8931711e-12
-1.1828621e-11
-1.0488945e-11
-1.1676433e-11
-1.1022987e-11
-1.1411299e-11
-1.1470271e-11
-1.1051495e-11
-1.1818233e-11
-1.0589043e-11
-1.1979478e-11
-1.0110604e-11
-1.21283e-11
-9.3782343e-12
-1.2196879e-11
-8.6530455e-12
-1.2227899e-11
-7.8312087e-12
-1.220855e-11
-6.9583692e-12
-1.2157001e-11
-6.0191824e-12
-1.2090409e-11
-5.0240013e-12
-1.2022779e-11
-3.9767861e-12
-1.2008415e-11
-2.8619458e-12
-1.2022446e-11
-1.7209298e-12
-6.2519123e-13
-2.2183365e-12
-6.7826353e-12
-2.9251905e-12
-7.7485796e-12
-3.6876769e-12
-8.5888137e-12
-4.490677e-12
-9.3278854e-12
-5.294413e-12
-9.9236788e-12
-6.1126219e-12
-1.0388931e-11
-6.9343301e-12
-1.0742329e-11
-7.7217164e-12
-1.0993749e-11
-8.4627922e-12
-1.1125974e-11
-9.1494215e-12
-1.1141994e-11
-9.7786345e-12
-1.1047222e-11
-1.0343356e-11
-1.0846578e-11
-1.0847072e-11
-1.0547778e-11
-1.128548e-11
-1.0150634e-11
-1.1712522e-11
-9.6835602e-12
-1.1997491e-11
-9.0932629e-12
-1.2156836e-11
-8.4936982e-12
-1.2318911e-11
-7.6691305e-12
-1.2430637e-11
-6.8466398e-12
-1.2492675e-11
-5.9571411e-12
-1.2535747e-11
-4.9809263e-12
-1.2552917e-11
-3.9596121e-12
-1.2542194e-11
-2.8726662e-12
-1.2527895e-11
-1.7352244e-12
-5.9707868e-13
-1.9520081e-12
-6.2164089e-12
-2.5845028e-12
-7.1160913e-12
-3.2641143e-12
-7.9092081e-12
-3.9959047e-12
-8.5961004e-12
-4.7405111e-12
-9.1790773e-12
-5.4872881e-12
-9.6421587e-12
-6.2627917e-12
-9.9668291e-12
-7.0097381e-12
-1.0246806e-11
-7.7358808e-12
-1.0399834e-11
-8.4270482e-12
-1.0450829e-11
-9.0722759e-12
-1.0401996e-11