/*--------------------------------*- C++ -*----------------------------------*\
| =========                 |                                                 |
| \\      /  F ield         | OpenFOAM: The Open Source CFD Toolbox           |
|  \\    /   O peration     | Version:  4.0                                   |
|   \\  /    A nd           | Web:      www.OpenFOAM.org                      |
|    \\/     M anipulation  |                                                 |
\*---------------------------------------------------------------------------*/
FoamFile
{
    version     2.0;
    format      ascii;
    class       volVectorField;
    location    "0.28";
    object      U;
}
// * * * * * * * * * * * * * * * * * * * * * * * * * * * * * * * * * * * * * //

dimensions      [0 1 -1 0 0 0 0];

internalField   nonuniform List<vector> 
1740
(
(1.4871558 -0.011157469 4.4849359e-06)
(1.4968005 -0.014981086 7.5048711e-07)
(1.6405552 -0.0047479448 3.0020926e-08)
(1.6200665 -0.01830945 7.3267591e-06)
(1.5285699 -0.034583299 1.4613214e-06)
(1.6589734 -0.018196998 3.0441515e-07)
(1.6145082 -0.0056553966 1.0349119e-05)
(1.5262991 -0.014901083 2.275851e-06)
(1.5436057 -0.0077066562 4.5716091e-07)
(1.5978061 0.0063000205 1.2942483e-05)
(1.5148121 0.013905478 3.2990424e-06)
(1.6368245 0.0010244707 5.6457399e-07)
(1.5663013 0.0084446713 1.5239969e-05)
(1.4955012 0.0068721048 4.3098384e-06)
(1.6226916 -0.0043605762 8.2455471e-07)
(1.5652536 0.0018615253 1.6529115e-05)
(1.5957107 -0.00084351062 4.9756506e-06)
(1.5879028 -0.00759142 9.698384e-07)
(1.5639149 0.0030319156 1.7968593e-05)
(1.5902575 0.018212584 6.0081741e-06)
(1.581182 0.010182667 1.1708824e-06)
(1.4537264 0.010006456 1.8265068e-05)
(1.4688033 0.034841817 6.6029615e-06)
(1.5898182 0.020423271 1.3238797e-06)
(1.4762767 0.0031308506 1.8556877e-05)
(1.5065798 0.0032567396 7.2238181e-06)
(1.7171438 -0.0013026621 1.5224965e-06)
(1.5171034 -0.0065343689 1.898152e-05)
(1.5252017 -0.019840278 7.8255459e-06)
(1.6107861 -0.015261777 1.7531587e-06)
(1.4993887 -0.015669541 1.9462306e-05)
(1.5184241 -0.018635284 8.4669968e-06)
(1.6184378 -0.010138698 1.938331e-06)
(1.5831119 -0.02010742 1.9896722e-05)
(1.5096036 -0.030724586 8.946096e-06)
(1.6110251 -0.017496062 2.1195863e-06)
(1.6139883 0.0076347162 2.029366e-05)
(1.6243559 -0.016222124 9.4020147e-06)
(1.5237454 -0.015219884 2.3113691e-06)
(1.5316633 0.0046852952 2.0407215e-05)
(1.6594667 0.011123372 1.006648e-05)
(1.5513131 0.00097372398 2.5252653e-06)
(1.5486306 0.0062778818 2.0274085e-05)
(1.5673091 0.0036636432 1.0411674e-05)
(1.5684324 -0.0028901706 2.6563806e-06)
(1.5583556 0.010805329 2.0459481e-05)
(1.6701177 -0.001726873 1.0937655e-05)
(1.5632349 -0.007045841 2.9092302e-06)
(1.5279386 0.002635843 2.1104854e-05)
(1.633841 0.0062106191 1.1516647e-05)
(1.5198779 0.0034926955 3.087565e-06)
(1.4907839 -0.0023868736 2.1351094e-05)
(1.6097822 0.012116308 1.1762005e-05)
(1.5620877 0.013853031 3.241344e-06)
(1.5127052 -0.010772158 2.15362e-05)
(1.639833 0.0099103673 1.2176216e-05)
(1.5975078 0.009355038 3.4835002e-06)
(1.5518503 -0.012270292 2.195209e-05)
(1.5732732 -0.0061639944 1.2480186e-05)
(1.5783604 -0.0051951985 3.6175296e-06)
(1.5775233 -0.018151525 2.2284054e-05)
(1.5942571 -0.017231639 1.2970006e-05)
(1.5747834 -0.0052500031 3.8128464e-06)
(1.6087034 -0.02040184 2.2114502e-05)
(1.5607778 -0.013864477 1.3267932e-05)
(1.550025 0.0018117657 3.9593119e-06)
(1.6769446 0.01605085 2.1818958e-05)
(1.5382464 -0.0069179254 1.3516786e-05)
(1.5585121 -0.0077421871 4.1329699e-06)
(1.6034927 0.036827774 2.1645572e-05)
(1.6586601 -0.0025888388 1.3800991e-05)
(1.5478632 -0.015545404 4.2191761e-06)
(1.5410311 0.019682362 2.1772945e-05)
(1.6517076 0.0047747657 1.4173218e-05)
(1.5337009 -0.0049156671 4.4011059e-06)
(1.5219997 -0.0010788462 2.2363564e-05)
(1.6292516 0.0078856434 1.4411498e-05)
(1.5527789 0.0052324634 4.5494106e-06)
(1.5060591 -0.017375838 2.2630785e-05)
(1.6125016 -0.0028396879 1.4696385e-05)
(1.5295251 0.0039527075 4.6901638e-06)
(1.5483541 -0.02247045 2.2935844e-05)
(1.5024044 -0.017907339 1.5028312e-05)
(1.5276173 -0.0053747232 4.8064928e-06)
(1.5726726 0.0015298541 2.250142e-05)
(1.4898871 -0.008265824 1.5111624e-05)
(1.5059919 -0.0012963787 4.869751e-06)
(1.3612886 0.053847392 2.3457502e-05)
(1.342298 0.10952716 1.5760598e-05)
(1.3800372 0.064252049 5.4915623e-06)
(0.84903996 0.36730199 1.2139569e-05)
(0.82455142 0.94787488 1.0011606e-05)
(0.76077167 1.2586005 5.3879128e-06)
(0.23493842 0.11888523 1.5183246e-06)
(0.19463497 0.38048222 3.1132139e-06)
(0.089124885 0.51912481 7.1063493e-07)
(-0.03098909 -0.012815936 1.2219494e-06)
(-0.029737591 -0.027022253 1.6989476e-06)
(-0.021776489 -0.031531758 5.9871511e-07)
(-0.009395639 -0.0032812684 4.5031437e-07)
(-0.0091224334 -0.0082880282 7.4692705e-07)
(-0.0080329007 -0.011251442 3.5922515e-07)
(-0.0018727213 -0.00045792653 1.3084809e-07)
(-0.0020605668 -0.0012019299 2.6324767e-07)
(-0.0022388068 -0.0021189951 1.3828606e-07)
(-0.00057002677 -0.00010154606 3.4687168e-08)
(-0.00073550505 -0.00025266581 7.4574548e-08)
(-0.00091583844 -0.00057006713 2.3564349e-08)
(-0.00028310783 -1.0273376e-05 3.8081463e-09)
(-0.00037702169 -4.8456968e-05 5.8761915e-09)
(-0.0004950147 -0.00015248289 -2.3279455e-08)
(-0.00024554831 2.1420458e-05 -6.5829493e-09)
(-0.00029731769 2.7310356e-05 -1.6665819e-08)
(-0.00036674756 -6.9291312e-06 -3.6698245e-08)
(-0.00025791619 1.0981057e-05 -7.9106853e-09)
(-0.00028610796 1.7390993e-05 -1.9724471e-08)
(-0.00032543781 6.0357586e-06 -3.4311005e-08)
(-0.00025434436 -3.7984813e-06 -5.9587192e-09)
(-0.00027096623 -1.6027453e-05 -1.5518993e-08)
(-0.00029153299 -4.0359573e-05 -2.6059831e-08)
(-0.0002291955 -1.4164247e-05 -3.5406013e-09)
(-0.00023752525 -3.7637631e-05 -1.0160031e-08)
(-0.00024733972 -6.855597e-05 -1.7455605e-08)
(-0.00019343835 -1.6011553e-05 -1.8875534e-09)
(-0.00019756773 -3.7293526e-05 -6.0697034e-09)
(-0.0002015675 -6.2984067e-05 -1.0790788e-08)
(-0.00015959306 -1.0993147e-05 -1.1003818e-09)
(-0.00016157663 -2.6134813e-05 -3.5382874e-09)
(-0.00016286598 -4.3851683e-05 -6.3678501e-09)
(-0.00013327042 -6.3767327e-06 -7.1486149e-10)
(-0.00013421091 -1.5105409e-05 -2.1073543e-09)
(-0.00013464463 -2.6296748e-05 -3.6793762e-09)
(-0.00011702093 -4.3969629e-06 -4.9482014e-10)
(-0.00011764129 -9.7910158e-06 -1.2943078e-09)
(-0.00011747561 -1.6930525e-05 -2.1116117e-09)
(-0.00010567993 -3.4957431e-06 -3.3688742e-10)
(-0.00010588094 -8.1023987e-06 -7.8915209e-10)
(-0.00010513837 -1.30144e-05 -1.1936983e-09)
(-9.5022848e-05 -3.2261482e-06 -2.0405723e-10)
(-9.5043573e-05 -7.408289e-06 -4.5454872e-10)
(-9.4090724e-05 -1.167237e-05 -6.480967e-10)
(-8.5649843e-05 -2.9711643e-06 -1.1291882e-10)
(-8.5603175e-05 -6.7697925e-06 -2.4532718e-10)
(-8.4714351e-05 -1.0808017e-05 -3.3253667e-10)
(-7.7575575e-05 -2.6424694e-06 -6.3797404e-11)
(-7.7507334e-05 -5.9797652e-06 -1.294186e-10)
(-7.6650336e-05 -9.6888938e-06 -1.6252502e-10)
(-7.0483366e-05 -2.3144024e-06 -4.0531841e-11)
(-7.0411125e-05 -5.1847981e-06 -7.2911319e-11)
(-6.9583023e-05 -8.4472645e-06 -7.9554757e-11)
(-6.4206621e-05 -2.0101694e-06 -3.1158536e-11)
(-6.4126796e-05 -4.3855502e-06 -4.9085403e-11)
(-6.3396993e-05 -7.370152e-06 -4.3584242e-11)
(-5.8627643e-05 -1.6728425e-06 -3.0399868e-11)
(-5.8550233e-05 -3.9281179e-06 -4.1342343e-11)
(-5.7925711e-05 -6.6129858e-06 -3.0538446e-11)
(-5.3642913e-05 -1.5956131e-06 -2.8829044e-11)
(-5.3584899e-05 -3.630384e-06 -3.9174413e-11)
(-5.3028858e-05 -5.9684192e-06 -2.6747778e-11)
(-4.9154074e-05 -1.4512134e-06 -2.81215e-11)
(-4.9108301e-05 -3.3061329e-06 -3.8331193e-11)
(-4.8616484e-05 -5.3766569e-06 -2.6497905e-11)
(-4.5073331e-05 -1.2959296e-06 -2.8656205e-11)
(-4.5037149e-05 -3.0043383e-06 -3.7986222e-11)
(-4.4605509e-05 -4.8827051e-06 -2.7248403e-11)
(-4.1335768e-05 -1.1999079e-06 -2.6665826e-11)
(-4.1307958e-05 -2.7047408e-06 -3.6602641e-11)
(-4.0925829e-05 -4.4454654e-06 -2.6749777e-11)
(-3.7892892e-05 -1.1062226e-06 -2.4816484e-11)
(-3.7870067e-05 -2.5109294e-06 -3.3568977e-11)
(-3.7525763e-05 -4.0917351e-06 -2.5211798e-11)
(-3.4703932e-05 -1.0327019e-06 -2.3312482e-11)
(-3.4684061e-05 -2.343122e-06 -3.1010831e-11)
(-3.4371354e-05 -3.8096757e-06 -2.3725421e-11)
(-3.173305e-05 -9.9398976e-07 -2.2236585e-11)
(-3.1719076e-05 -2.2256612e-06 -2.9346816e-11)
(-3.1436896e-05 -3.5874696e-06 -2.2848527e-11)
(-2.8959051e-05 -9.163961e-07 -2.1966719e-11)
(-2.8949457e-05 -2.1106155e-06 -2.8420854e-11)
(-2.8698098e-05 -3.432432e-06 -2.2399867e-11)
(-2.6377785e-05 -8.4830702e-07 -2.1752846e-11)
(-2.6368304e-05 -1.9343625e-06 -2.7642767e-11)
(-2.6142707e-05 -3.1547571e-06 -2.206415e-11)
(-2.398205e-05 -7.8654715e-07 -2.128486e-11)
(-2.3973544e-05 -1.788935e-06 -2.6754908e-11)
(-2.3767836e-05 -2.9174996e-06 -2.1684192e-11)
(-2.176209e-05 -7.2911835e-07 -2.0710908e-11)
(-2.1754383e-05 -1.6590764e-06 -2.5913497e-11)
(-2.1567789e-05 -2.7029167e-06 -2.1345532e-11)
(-1.971159e-05 -6.7243223e-07 -2.0225823e-11)
(-1.9704602e-05 -1.5305314e-06 -2.5255207e-11)
(-1.9535873e-05 -2.4930789e-06 -2.1074174e-11)
(-1.7825938e-05 -6.1357385e-07 -1.9812157e-11)
(-1.7819555e-05 -1.3967983e-06 -2.4644727e-11)
(-1.766716e-05 -2.2734865e-06 -2.082387e-11)
(-1.6100293e-05 -5.6091707e-07 -1.9257216e-11)
(-1.6094397e-05 -1.2778675e-06 -2.3953852e-11)
(-1.5956822e-05 -2.0800011e-06 -2.0469511e-11)
(-1.4529229e-05 -5.114286e-07 -1.8611235e-11)
(-1.4523732e-05 -1.1661648e-06 -2.3187083e-11)
(-1.4399569e-05 -1.8981748e-06 -2.0015832e-11)
(-1.3107358e-05 -4.6327274e-07 -1.7937235e-11)
(-1.3102209e-05 -1.0572786e-06 -2.2403273e-11)
(-1.2990189e-05 -1.7207193e-06 -1.9529782e-11)
(-1.1829101e-05 -4.1534193e-07 -1.743365e-11)
(-1.1824264e-05 -9.4819365e-07 -2.1884876e-11)
(-1.1723169e-05 -1.5431464e-06 -1.925278e-11)
(-1.0688437e-05 -3.6873151e-07 -1.7042052e-11)
(-1.0683871e-05 -8.4168239e-07 -2.1548492e-11)
(-1.059251e-05 -1.3695026e-06 -1.9148559e-11)
(-9.6788628e-06 -3.2460761e-07 -1.6678119e-11)
(-9.6745213e-06 -7.4115225e-07 -2.1263637e-11)
(-9.5917525e-06 -1.2063632e-06 -1.908123e-11)
(-8.7936506e-06 -2.8310136e-07 -1.632818e-11)
(-8.7894944e-06 -6.4674177e-07 -2.1007922e-11)
(-8.7142379e-06 -1.0532783e-06 -1.9034528e-11)
(-8.0261841e-06 -2.4436062e-07 -1.5974467e-11)
(-8.0221802e-06 -5.5818346e-07 -2.0794991e-11)
(-7.9534225e-06 -9.0726339e-07 -1.9056759e-11)
(-7.3702716e-06 -2.0737883e-07 -1.5751847e-11)
(-7.3663959e-06 -4.7415188e-07 -2.0715054e-11)
(-7.3031855e-06 -7.7095924e-07 -1.9147796e-11)
(-6.8204667e-06 -1.7188893e-07 -1.5650469e-11)
(-6.8167001e-06 -3.9306794e-07 -2.0769466e-11)
(-6.7581381e-06 -6.3998429e-07 -1.9318771e-11)
(-6.3728141e-06 -1.3686008e-07 -1.5691446e-11)
(-6.3691294e-06 -3.1231664e-07 -2.0913814e-11)
(-6.3143477e-06 -5.1075718e-07 -1.9484485e-11)
(-6.0257411e-06 -1.0199299e-07 -1.5796267e-11)
(-6.0221013e-06 -2.3109884e-07 -2.0953207e-11)
(-5.9702602e-06 -3.8081419e-07 -1.9386903e-11)
(-5.7762638e-06 -7.0420676e-08 -1.5630812e-11)
(-5.7726528e-06 -1.5827207e-07 -2.0381049e-11)
(-5.7229079e-06 -2.4992068e-07 -1.8523146e-11)
(-5.6301585e-06 -3.6203173e-08 -1.5125e-11)
(-5.6266191e-06 -8.0941159e-08 -1.8462307e-11)
(-5.5781243e-06 -1.3110698e-07 -1.5994454e-11)
(-5.5522729e-06 -5.0442707e-09 -1.2854036e-11)
(-5.5486836e-06 -9.7526982e-09 -1.3168712e-11)
(-5.500805e-06 -1.8233539e-08 -1.0482511e-11)
(-0.048054846 1.971531 -3.9960918e-07)
(-0.034066226 1.7185029 -3.4754081e-06)
(-0.063968162 0.35591805 -2.4433279e-07)
(-0.044292692 0.16091768 -1.0039313e-06)
(-0.016392656 -0.039883537 -1.879874e-07)
(-0.011893909 -0.042856385 -5.9053746e-07)
(-0.0066818644 -0.013842145 -6.9034973e-08)
(-0.0056409342 -0.015127149 -3.5796914e-07)
(-0.0021601279 -0.0032518661 -6.5883828e-08)
(-0.0019643325 -0.0040613533 -2.4005139e-07)
(-0.00089465659 -0.00096546354 -7.6160735e-08)
(-0.00073627505 -0.0012729693 -1.7607653e-07)
(-0.00049089187 -0.00027916039 -7.6401734e-08)
(-0.00039721239 -0.00036488143 -1.3424614e-07)
(-0.00037358454 -3.2786529e-05 -6.750494e-08)
(-0.00032108985 -3.8916209e-05 -1.0189217e-07)
(-0.00032966715 -6.7476377e-06 -5.3455809e-08)
(-0.00030192346 -1.7010599e-05 -7.4548348e-08)
(-0.00029537515 -6.314387e-05 -3.8452776e-08)
(-0.00027865056 -8.1050396e-05 -5.1678212e-08)
(-0.00024814402 -9.7894076e-05 -2.5516007e-08)
(-0.00023622272 -0.00012161682 -3.3858225e-08)
(-0.000200961 -9.0860228e-05 -1.5863673e-08)
(-0.00019368424 -0.00011347988 -2.1012137e-08)
(-0.00016154705 -6.3051116e-05 -9.3907563e-09)
(-0.00015682801 -8.0140374e-05 -1.2430979e-08)
(-0.00013345595 -3.7712385e-05 -5.3673893e-09)
(-0.00012979384 -4.8601865e-05 -7.0650848e-09)
(-0.00011614126 -2.437125e-05 -2.9885436e-09)
(-0.00011257985 -3.1178207e-05 -3.8783099e-09)
(-0.00010327906 -1.8530703e-05 -1.6199808e-09)
(-0.00010008054 -2.4197395e-05 -2.0572403e-09)
(-9.2325315e-05 -1.6155025e-05 -8.4502679e-10)
(-8.9714762e-05 -2.1050238e-05 -1.0474692e-09)
(-8.3150913e-05 -1.4912594e-05 -4.1753808e-10)
(-8.0987847e-05 -1.9042261e-05 -5.0566964e-10)
(-7.5258533e-05 -1.3433864e-05 -1.9400783e-10)
(-7.339895e-05 -1.7131958e-05 -2.2809602e-10)
(-6.8355502e-05 -1.1767116e-05 -8.5858082e-11)
(-6.6717086e-05 -1.5054274e-05 -9.4832902e-11)
(-6.2310621e-05 -1.0379726e-05 -3.8382816e-11)
(-6.0867158e-05 -1.3157835e-05 -3.6146809e-11)
(-5.6963298e-05 -9.1879854e-06 -2.0267519e-11)
(-5.5695677e-05 -1.1571145e-05 -1.321012e-11)
(-5.218473e-05 -8.2412618e-06 -1.4471639e-11)
(-5.1068931e-05 -1.0351318e-05 -5.5061007e-12)
(-4.7870952e-05 -7.4230749e-06 -1.3918133e-11)
(-4.6886053e-05 -9.3764851e-06 -4.1321451e-12)
(-4.3941252e-05 -6.6800959e-06 -1.5173568e-11)
(-4.3065095e-05 -8.4917623e-06 -5.1369547e-12)
(-4.0331572e-05 -6.1405277e-06 -1.5460213e-11)
(-3.9546703e-05 -7.7641618e-06 -6.0641788e-12)
(-3.6992065e-05 -5.6694227e-06 -1.5083965e-11)
(-3.628665e-05 -7.1861969e-06 -6.5228498e-12)
(-3.3889244e-05 -5.2538063e-06 -1.4704528e-11)
(-3.3253554e-05 -6.6878012e-06 -6.8459524e-12)
(-3.0999621e-05 -4.9242899e-06 -1.4569438e-11)
(-3.0425037e-05 -6.2480579e-06 -7.2748971e-12)
(-2.8306769e-05 -4.6758562e-06 -1.4651368e-11)
(-2.778506e-05 -5.8798254e-06 -7.8108507e-12)
(-2.5790943e-05 -4.3885516e-06 -1.4820007e-11)
(-2.5321433e-05 -5.5705008e-06 -8.3813405e-12)
(-2.3447094e-05 -4.0418313e-06 -1.4971158e-11)
(-2.3024741e-05 -5.1533441e-06 -8.928428e-12)
(-2.1277571e-05 -3.7372664e-06 -1.5100714e-11)
(-2.0893796e-05 -4.7525299e-06 -9.4029402e-12)
(-1.9273693e-05 -3.4483601e-06 -1.5218509e-11)
(-1.8926601e-05 -4.3811215e-06 -9.8350169e-12)
(-1.7430491e-05 -3.1419118e-06 -1.5343157e-11)
(-1.7116975e-05 -3.9978709e-06 -1.0242441e-11)
(-1.5743283e-05 -2.8764235e-06 -1.5330946e-11)
(-1.5460198e-05 -3.6602058e-06 -1.0495227e-11)
(-1.4207043e-05 -2.625005e-06 -1.5194531e-11)
(-1.3951809e-05 -3.3390037e-06 -1.0597945e-11)
(-1.2816723e-05 -2.3788878e-06 -1.5012478e-11)
(-1.2586769e-05 -3.0237809e-06 -1.0658692e-11)
(-1.1566853e-05 -2.1335181e-06 -1.4980278e-11)
(-1.1359619e-05 -2.7111234e-06 -1.0828785e-11)
(-1.0451472e-05 -1.8932859e-06 -1.5100038e-11)
(-1.0264474e-05 -2.4060217e-06 -1.1115978e-11)
(-9.4642054e-06 -1.6679086e-06 -1.5242996e-11)
(-9.2950807e-06 -2.1193788e-06 -1.1413698e-11)
(-8.5984943e-06 -1.456597e-06 -1.5391645e-11)
(-8.4450137e-06 -1.8508783e-06 -1.1705085e-11)
(-7.8478919e-06 -1.2548383e-06 -1.5589063e-11)
(-7.7079545e-06 -1.5963505e-06 -1.20174e-11)
(-7.2063741e-06 -1.066121e-06 -1.5823762e-11)
(-7.0780009e-06 -1.3559886e-06 -1.2353891e-11)
(-6.668636e-06 -8.852692e-07 -1.6086713e-11)
(-6.5499545e-06 -1.1248325e-06 -1.2688494e-11)
(-6.230801e-06 -7.0718266e-07 -1.627666e-11)
(-6.120016e-06 -8.9787628e-07 -1.2913005e-11)
(-5.8913258e-06 -5.2777958e-07 -1.6132191e-11)
(-5.7866764e-06 -6.7035568e-07 -1.2798023e-11)
(-5.6472681e-06 -3.4200075e-07 -1.5199088e-11)
(-5.5470443e-06 -4.4312424e-07 -1.1959516e-11)
(-5.5044658e-06 -1.8136658e-07 -1.2746268e-11)
(-5.406802e-06 -2.2506401e-07 -9.8904792e-12)
(-5.4281448e-06 -2.6563153e-08 -7.9972578e-12)
(-5.3317483e-06 -3.3988205e-08 -6.0670647e-12)
(0.0020003956 -2.8014197e-05 -8.1982455e-08)
(0.0019505355 -0.00010919766 -1.9331997e-07)
(0.0018501991 -0.00013715067 -2.7146275e-07)
(0.0017283428 -0.00018072972 -3.1890302e-07)
(0.0015953699 -0.00019763598 -3.422264e-07)
(0.0014576882 -0.0002162327 -3.4885744e-07)
(0.0013205634 -0.00022460222 -3.4465258e-07)
(0.0011874924 -0.00023189984 -3.3383626e-07)
(0.0010615287 -0.00024066938 -3.1931639e-07)
(0.00094492502 -0.00025173553 -3.0306055e-07)
(0.00083866219 -0.00026945776 -2.8639827e-07)
(0.00074249029 -0.00029419196 -2.7008154e-07)
(0.00065575116 -0.00032416726 -2.5442669e-07)
(0.00057755649 -0.00035869376 -2.3943955e-07)
(0.00050690057 -0.00039607435 -2.2497968e-07)
(0.00044273371 -0.0004343603 -2.108397e-07)
(0.00038397015 -0.00047341561 -1.9675159e-07)
(0.00032941889 -0.00051116816 -1.8232994e-07)
(0.00027841763 -0.00054414678 -1.6714277e-07)
(0.00023037087 -0.00057123928 -1.5066808e-07)
(0.00018482486 -0.00059115822 -1.3230062e-07)
(0.00014137305 -0.00060335442 -1.1114571e-07)
(9.9636989e-05 -0.00060638998 -8.6385974e-08)
(5.9119332e-05 -0.00060768012 -5.750182e-08)
(1.9053738e-05 -0.0005764479 -2.4042923e-08)
(0.00031072716 -0.0001423097 -9.8545892e-08)
(0.00029991812 -0.0005809391 -2.2895659e-07)
(0.00028933482 -0.00080685894 -3.1511214e-07)
(0.00027920828 -0.0011238276 -3.620769e-07)
(0.00027270821 -0.0013659976 -3.8089844e-07)
(0.00027101533 -0.0016158643 -3.8247645e-07)
(0.00027517734 -0.0018497546 -3.7388282e-07)
(0.0002857014 -0.0020969204 -3.5963266e-07)
(0.00029733903 -0.0023604773 -3.4243451e-07)
(0.00030642523 -0.0026209604 -3.2402897e-07)
(0.00031117442 -0.0028777167 -3.0573581e-07)
(0.00031145641 -0.0031297429 -2.8819938e-07)
(0.00030673279 -0.0033734435 -2.7163709e-07)
(0.0002969715 -0.0036055259 -2.5591362e-07)
(0.00028239206 -0.0038231033 -2.408064e-07)
(0.00026345469 -0.0040263215 -2.2608201e-07)
(0.00024084544 -0.0042252426 -2.1150631e-07)
(0.00021554135 -0.0044115687 -1.9657635e-07)
(0.00018804123 -0.0045609839 -1.8088627e-07)
(0.00015881276 -0.0046653243 -1.6386439e-07)
(0.00012853172 -0.0047211902 -1.4506838e-07)
(9.7812453e-05 -0.0047305739 -1.2312417e-07)
(6.7290259e-05 -0.0046963333 -9.693711e-08)
(3.7626591e-05 -0.0046044541 -6.5105746e-08)
(1.0125349e-05 -0.0043966146 -2.8371584e-08)
(0.0011950074 -0.00034638065 -1.3809665e-07)
(0.0011815615 -0.0016007399 -3.0856488e-07)
(0.001176095 -0.0021344559 -4.0698084e-07)
(0.0011761469 -0.0029936575 -4.4770175e-07)
(0.0011762262 -0.0036681301 -4.5503722e-07)
(0.0011721838 -0.0043545443 -4.4581598e-07)
(0.0011623215 -0.0050267217 -4.28368e-07)
(0.0011426715 -0.0058643565 -4.0759999e-07)
(0.001113231 -0.0068546662 -3.8539814e-07)
(0.001074469 -0.0077922943 -3.627875e-07)
(0.0010273163 -0.0086237658 -3.4138494e-07)
(0.00097194184 -0.0093374103 -3.2153791e-07)
(0.00090987386 -0.009926326 -3.0333421e-07)
(0.00084236957 -0.010396597 -2.8627574e-07)
(0.00077045887 -0.010754574 -2.6998181e-07)
(0.00069522875 -0.011001635 -2.5417113e-07)
(0.00061800833 -0.011129198 -2.3891444e-07)
(0.00054000102 -0.011155601 -2.2317392e-07)
(0.00046196501 -0.011109863 -2.068451e-07)
(0.00038468026 -0.011007544 -1.8938187e-07)
(0.00030889602 -0.01085845 -1.7005806e-07)
(0.00023476813 -0.010670823 -1.4768605e-07)
(0.00016267308 -0.010451184 -1.2057032e-07)
(9.325917e-05 -0.010170867 -8.5815703e-08)
(2.8548906e-05 -0.0097868307 -4.2667209e-08)
(0.0038221883 -0.0011003086 -2.2186623e-07)
(0.0037172291 -0.0048357177 -4.5515669e-07)
(0.003562093 -0.0061164484 -5.5762537e-07)
(0.0033151059 -0.0091445147 -5.7725601e-07)
(0.0030663258 -0.011788615 -5.6276406e-07)
(0.0028093733 -0.014190059 -5.3630646e-07)
(0.0025568809 -0.015930016 -5.0560903e-07)
(0.002308025 -0.016869435 -4.7683117e-07)
(0.0020710692 -0.017155984 -4.4904428e-07)
(0.0018464816 -0.017040483 -4.2034661e-07)
(0.0016361625 -0.016621716 -3.9467822e-07)
(0.0014401585 -0.016008977 -3.7145928e-07)
(0.0012572494 -0.015216685 -3.511101e-07)
(0.0010829251 -0.014298284 -3.3217161e-07)
(0.00092617953 -0.013309637 -3.1410452e-07)
(0.00078664438 -0.012295554 -2.9670932e-07)
(0.00066291602 -0.011293376 -2.7973629e-07)
(0.00055317267 -0.010335735 -2.6290068e-07)
(0.0004559205 -0.0094446691 -2.4583394e-07)
(0.00036941709 -0.0086446638 -2.2802911e-07)
(0.00029160524 -0.0079508617 -2.0882661e-07)
(0.00022100686 -0.0073650631 -1.872279e-07)
(0.00015603362 -0.0068875325 -1.6166951e-07)
(9.4856177e-05 -0.0064772288 -1.2946438e-07)
(3.5437479e-05 -0.0061867803 -8.2249197e-08)
(0.011912389 -0.0088657665 -4.1081486e-07)
(0.0092390393 -0.02581545 -7.0320732e-07)
(0.0077945785 -0.027830644 -7.7583826e-07)
(0.0059815551 -0.031707036 -7.5882751e-07)
(0.0045371994 -0.02890649 -7.1642859e-07)
(0.0033187386 -0.025053984 -6.6720903e-07)
(0.0023190155 -0.020434141 -6.1938778e-07)
(0.0015318168 -0.01555112 -5.7510976e-07)
(0.00092334672 -0.010652722 -5.3638888e-07)
(0.00045897433 -0.0061573179 -5.0099812e-07)
(0.00011032192 -0.0021075495 -4.6921134e-07)
(-0.00014070097 0.0013888225 -4.3967991e-07)
(-0.00031336922 0.004635521 -4.1632995e-07)
(-0.00042331875 0.007746775 -3.9424848e-07)
(-0.00048927494 0.010615268 -3.7297264e-07)
(-0.00051786144 0.013105079 -3.5276068e-07)
(-0.00051680331 0.015183662 -3.3336485e-07)
(-0.00049258435 0.016866803 -3.1450662e-07)
(-0.00045038647 0.018180917 -2.9586434e-07)
(-0.00039448284 0.0191586 -2.7707408e-07)
(-0.00032879114 0.019827038 -2.576642e-07)
(-0.00025618063 0.020209006 -2.3692821e-07)
(-0.00017908375 0.020301763 -2.1365284e-07)
(-0.00010083789 0.020164185 -1.9128089e-07)
(-2.3156261e-05 0.019450177 -1.6905982e-07)
(0.014486466 0.024783808 -7.8369536e-07)
(0.0028682731 0.00052186329 -1.1032927e-06)
(0.00018423803 0.050150372 -1.1024466e-06)
(-0.0015128656 0.053380238 -1.0268512e-06)
(-0.003010043 0.067302495 -9.4909608e-07)
(-0.0041327092 0.077337436 -8.6212347e-07)
(-0.0047453533 0.084294527 -7.8414228e-07)
(-0.0049128102 0.090060828 -7.1607428e-07)
(-0.0048057012 0.094258132 -6.5666427e-07)
(-0.0045606007 0.096852924 -6.0570514e-07)
(-0.0042491485 0.098313503 -5.6256032e-07)
(-0.0038810427 0.098689846 -5.1725252e-07)
(-0.0035106915 0.098338607 -4.9146705e-07)
(-0.0031542269 0.096976612 -4.6324132e-07)
(-0.0027963545 0.094765044 -4.3524474e-07)
(-0.0024498166 0.092295784 -4.1012264e-07)
(-0.0021229461 0.0896325 -3.8680922e-07)
(-0.0018163743 0.086856815 -3.6472083e-07)
(-0.001529262 0.084044398 -3.4345882e-07)
(-0.0012598138 0.081252533 -3.2269299e-07)
(-0.001005617 0.078517281 -3.0208362e-07)
(-0.00076459177 0.075880193 -2.811953e-07)
(-0.00053416479 0.073311613 -2.5955234e-07)
(-0.00031238133 0.07100246 -2.3782602e-07)
(-9.3533343e-05 0.067503842 -2.168221e-07)
(-0.0016667505 1.1894482 -2.52083e-06)
(-0.00092557377 0.97045687 -1.998942e-06)
(-0.0011873487 0.87239777 -1.617666e-06)
(-0.00089403519 0.77794825 -1.3278233e-06)
(-0.00075838526 0.6805177 -1.1122835e-06)
(-0.00065108622 0.58839609 -9.5418232e-07)
(-0.00054799064 0.50955001 -8.3695112e-07)
(-0.00046014378 0.44553682 -7.4902056e-07)
(-0.00038569699 0.39279706 -6.766866e-07)
(-0.00032051125 0.34782262 -6.2053353e-07)
(-0.00026473823 0.30900641 -5.7700157e-07)
(-0.00021990939 0.27560018 -5.3888391e-07)
(-0.00018502651 0.24703871 -5.0672018e-07)
(-0.00016005858 0.22258979 -4.7796452e-07)
(-0.00013628291 0.20159481 -4.5149621e-07)
(-0.00011564975 0.18357151 -4.2695324e-07)
(-9.7597907e-05 0.1680875 -4.0383146e-07)
(-8.1630123e-05 0.15477858 -3.8169365e-07)
(-6.7407713e-05 0.143341 -3.6023858e-07)
(-5.468666e-05 0.1335245 -3.3925324e-07)
(-4.3086609e-05 0.12511169 -3.1853465e-07)
(-3.2355236e-05 0.11796034 -2.9777082e-07)
(-2.230242e-05 0.11182526 -2.7682378e-07)
(-1.2843236e-05 0.1069968 -2.5553335e-07)
(-3.7571355e-06 0.10096214 -2.330571e-07)
(-0.012629808 0.096678372 -1.2166959e-06)
(-0.0017341817 0.10354149 -1.2538339e-06)
(0.00050207965 0.10853268 -1.2068594e-06)
(0.0019591581 0.10954966 -1.1157346e-06)
(0.0032930321 0.11084428 -1.012881e-06)
(0.0043128548 0.11189227 -9.1259838e-07)
(0.004857526 0.11312403 -8.2284063e-07)
(0.0049767158 0.11430495 -7.448337e-07)
(0.0048054156 0.11483107 -6.612033e-07)
(0.0045272016 0.11468747 -6.1886104e-07)
(0.0042262104 0.11382219 -5.7597759e-07)
(0.0038728191 0.11203524 -5.3176006e-07)
(0.0034940752 0.1094292 -4.9429822e-07)
(0.0031191532 0.10633372 -4.6180532e-07)
(0.0027575606 0.10299877 -4.3304557e-07)
(0.0024142591 0.099546614 -4.0709324e-07)
(0.0020904904 0.096058554 -3.8322556e-07)
(0.0017869903 0.092600842 -3.6087535e-07)
(0.0015031123 0.089223268 -3.3960253e-07)
(0.001237242 0.085962742 -3.1903347e-07)
(0.00098722642 0.082839964 -2.9877177e-07)
(0.0007506702 0.079884443 -2.7827665e-07)
(0.00052476351 0.0770568 -2.579616e-07)
(0.00030730612 0.074552916 -2.3677588e-07)
(9.2398645e-05 0.070836808 -2.1591054e-07)
(-0.0091388299 -0.040206822 -8.1541166e-07)
(-0.0074712033 -0.037235956 -8.7847865e-07)
(-0.0059868028 -0.035159078 -8.6490382e-07)
(-0.0046162555 -0.031566832 -8.1891615e-07)
(-0.003404043 -0.026636476 -7.6093946e-07)
(-0.0023696082 -0.021201972 -6.9990938e-07)
(-0.0015309535 -0.015695978 -6.4344205e-07)
(-0.00087430883 -0.010283801 -5.9176537e-07)
(-0.00037268772 -0.005452418 -5.4394998e-07)
(5.3133082e-07 -0.0011906655 -5.0815747e-07)
(0.00027245545 0.0025034007 -4.7506988e-07)
(0.0004614634 0.0061387846 -4.4404871e-07)
(0.00058430165 0.0096029947 -4.1604506e-07)
(0.00065608571 0.012705703 -3.9076835e-07)
(0.00068669119 0.015374629 -3.6767844e-07)
(0.00068453337 0.017609625 -3.4628869e-07)
(0.00065762971 0.01944898 -3.2624843e-07)
(0.00061120598 0.020928656 -3.0716253e-07)
(0.00054944578 0.022066002 -2.886533e-07)
(0.00047584941 0.022881842 -2.70306e-07)
(0.00039343755 0.023397227 -2.5152863e-07)
(0.00030459355 0.023632231 -2.31144e-07)
(0.00021263312 0.023597266 -2.1207957e-07)
(0.00012035104 0.023336238 -1.893953e-07)
(2.9017118e-05 0.022469095 -1.6760649e-07)
(-0.0049234784 -0.016169149 -5.2661543e-07)
(-0.0044039952 -0.018114926 -5.989873e-07)
(-0.0039562552 -0.020434993 -6.1218651e-07)
(-0.0035641907 -0.022123555 -5.9500305e-07)
(-0.0032042898 -0.023192336 -5.6543731e-07)
(-0.0028779974 -0.023543115 -5.3448458e-07)
(-0.0025761192 -0.023317099 -4.9584278e-07)
(-0.0022910281 -0.022697321 -4.6001022e-07)
(-0.0020259789 -0.021829678 -4.2770732e-07)
(-0.0017815188 -0.020766438 -4.0022017e-07)
(-0.0015570913 -0.019577608 -3.7528569e-07)
(-0.0013476949 -0.018244221 -3.5234097e-07)
(-0.0011568385 -0.016836918 -3.313417e-07)
(-0.00098661299 -0.015407027 -3.1211426e-07)
(-0.00083616382 -0.013991272 -2.9418261e-07)
(-0.00070403811 -0.01262799 -2.7716409e-07)
(-0.00058770118 -0.011358496 -2.6107106e-07)
(-0.00048587771 -0.010210487 -2.4541582e-07)
(-0.00039694676 -0.0091878046 -2.2979689e-07)
(-0.00031923477 -0.0082926556 -2.137431e-07)
(-0.00025098305 -0.0075262824 -1.9659697e-07)
(-0.00019031778 -0.0068888793 -1.7743911e-07)
(-0.00013528085 -0.0063774657 -1.5534921e-07)
(-8.3638399e-05 -0.0059520448 -1.2574401e-07)
(-3.2742525e-05 -0.0056672181 -8.1048773e-08)
(-0.0017897238 -0.0047316751 -3.5866814e-07)
(-0.0016726853 -0.0053652896 -4.2338007e-07)
(-0.0015984576 -0.0060070785 -4.47496e-07)
(-0.0015461628 -0.00660551 -4.4658801e-07)
(-0.0015063339 -0.0072493307 -4.3203749e-07)
(-0.001466023 -0.0081326277 -4.1077745e-07)
(-0.0014222457 -0.009195525 -3.8514867e-07)
(-0.0013706202 -0.010175087 -3.5957421e-07)
(-0.0013096083 -0.011035165 -3.3583977e-07)
(-0.0012397965 -0.011753801 -3.1450427e-07)
(-0.0011635538 -0.012337862 -2.9506624e-07)
(-0.0010824659 -0.012783274 -2.7719263e-07)
(-0.00099745081 -0.013092975 -2.6068415e-07)
(-0.00091043015 -0.013251024 -2.4575019e-07)
(-0.00082278611 -0.01328835 -2.3150852e-07)
(-0.00073469386 -0.013241855 -2.1814136e-07)
(-0.0006479138 -0.013133631 -2.0498975e-07)
(-0.00056347662 -0.012977022 -1.9189596e-07)
(-0.00048070759 -0.012780916 -1.7850349e-07)
(-0.00039968764 -0.012552547 -1.6434404e-07)
(-0.0003205491 -0.012297738 -1.4869227e-07)
(-0.00024344479 -0.012022233 -1.3047674e-07)
(-0.00016869278 -0.011729721 -1.0809158e-07)
(-9.6869327e-05 -0.011382398 -7.8107773e-08)
(-2.9986045e-05 -0.010942816 -3.9731241e-08)
(-0.00057526282 -0.0015397199 -2.5358607e-07)
(-0.00047765582 -0.0017821058 -3.028947e-07)
(-0.00042433455 -0.0020304853 -3.2711492e-07)
(-0.0003920804 -0.0022790835 -3.3319299e-07)
(-0.00038160809 -0.0025372564 -3.2759092e-07)
(-0.00038785291 -0.0028204006 -3.1505888e-07)
(-0.00039963199 -0.0031313955 -2.9860494e-07)
(-0.00041221823 -0.0034455924 -2.8091221e-07)
(-0.00042189964 -0.0037638727 -2.6356526e-07)
(-0.00042607106 -0.004079008 -2.4727431e-07)
(-0.00042385299 -0.0043862902 -2.3213275e-07)
(-0.00041511648 -0.0046817039 -2.1807393e-07)
(-0.00040033489 -0.0049732296 -2.0501042e-07)
(-0.00038063523 -0.005278487 -1.928841e-07)
(-0.00035671169 -0.0055815674 -1.8141886e-07)
(-0.0003293857 -0.0058458284 -1.7044665e-07)
(-0.00029965524 -0.0060636233 -1.5964879e-07)
(-0.00026667696 -0.0062313065 -1.4876219e-07)
(-0.00023153473 -0.0063472845 -1.3743452e-07)
(-0.00019479076 -0.0064108649 -1.2537602e-07)
(-0.00015712111 -0.0064231933 -1.1187475e-07)
(-0.00011917717 -0.0063868499 -9.5986753e-08)
(-8.1706754e-05 -0.0063067922 -7.6698557e-08)
(-4.5516179e-05 -0.0061656913 -5.2382432e-08)
(-1.2342284e-05 -0.005892047 -2.3688747e-08)
(-0.00028387467 -0.00040134316 -1.833967e-07)
(-0.00019206393 -0.00041402926 -2.1814088e-07)
(-0.00012093929 -0.00041792574 -2.3814719e-07)
(-7.2049226e-05 -0.0004258894 -2.4598717e-07)
(-3.9288356e-05 -0.00045069427 -2.4499372e-07)
(-1.9175434e-05 -0.00049124037 -2.3814719e-07)
(-8.0169227e-06 -0.00054505064 -2.2777351e-07)
(-4.4501642e-06 -0.0006085715 -2.1574148e-07)
(-6.7304679e-06 -0.0006830123 -2.0330939e-07)
(-1.2526238e-05 -0.00076648802 -1.9117855e-07)
(-1.9847372e-05 -0.00085757222 -1.7963956e-07)
(-2.7167192e-05 -0.00095242771 -1.6877766e-07)
(-3.358112e-05 -0.0010472469 -1.5858625e-07)
(-3.8276717e-05 -0.0011415418 -1.4900658e-07)
(-4.072018e-05 -0.0012315724 -1.3989931e-07)
(-4.1604429e-05 -0.0013109188 -1.3110424e-07)
(-4.1358642e-05 -0.0013779556 -1.2241146e-07)
(-3.895825e-05 -0.0014325789 -1.1359456e-07)
(-3.5531914e-05 -0.0014745219 -1.043817e-07)
(-3.1268107e-05 -0.0015029706 -9.4460278e-08)