/*--------------------------------*- C++ -*----------------------------------*\
| =========                 |                                                 |
| \\      /  F ield         | OpenFOAM: The Open Source CFD Toolbox           |
|  \\    /   O peration     | Version:  4.0                                   |
|   \\  /    A nd           | Web:      www.OpenFOAM.org                      |
|    \\/     M anipulation  |                                                 |
\*---------------------------------------------------------------------------*/
FoamFile
{
    version     2.0;
    format      ascii;
    class       volScalarField;
    location    "0.06";
    object      k;
}
// * * * * * * * * * * * * * * * * * * * * * * * * * * * * * * * * * * * * * //

dimensions      [0 2 -2 0 0 0 0];

internalField   nonuniform List<scalar> 
1740
(
0.0085480785
0.0091323442
0.018231823
0.0090499534
0.0098686752
0.027203328
0.00948021
0.010375784
0.034230439
0.0097321243
0.010646558
0.041126803
0.009977665
0.011005041
0.047202115
0.01006378
0.011442302
0.051553388
0.010105112
0.011599597
0.055790194
0.01018215
0.012016832
0.059252804
0.010210438
0.012392895
0.061729912
0.010100695
0.012599052
0.063845632
0.010049569
0.012778591
0.065742679
0.0099658491
0.013062699
0.067208187
0.0098867551
0.013219137
0.068211199
0.0097946587
0.013339978
0.069409892
0.0096641963
0.01376495
0.070574133
0.0095641153
0.014086142
0.070732033
0.009449484
0.014079522
0.071431373
0.0093534051
0.01410113
0.072080504
0.0092668289
0.014453827
0.071658434
0.0091218086
0.014552848
0.072056144
0.0089926577
0.014486859
0.072417603
0.0088714014
0.014340489
0.072099382
0.0087306686
0.01415785
0.072430478
0.0086345445
0.014383589
0.072945191
0.0085303555
0.014619048
0.072586373
0.0084460518
0.014567889
0.072586645
0.0083805774
0.014627938
0.072653068
0.0083012808
0.015024756
0.072261044
0.0083270363
0.015156589
0.071415837
0.0089545919
0.016215836
0.066269971
0.012680168
0.018200095
0.047030128
0.023799898
0.031067653
0.039619493
0.010132428
0.012377978
0.013567331
0.004089816
0.004423724
0.0044860864
0.00179983
0.0018452726
0.0018170755
0.00077127942
0.00077320577
0.00075071787
0.00029049335
0.00028833137
0.00027746725
9.3575517e-05
9.2411986e-05
8.8434354e-05
2.7947756e-05
2.7565617e-05
2.6410561e-05
9.8698236e-06
9.7792235e-06
9.5140924e-06
5.7167194e-06
5.7073898e-06
5.6737941e-06
5.0621274e-06
5.0714053e-06
5.0893638e-06
5.1907937e-06
5.2033211e-06
5.2303882e-06
5.4801292e-06
5.4926139e-06
5.5198975e-06
5.8019591e-06
5.8137838e-06
5.8396507e-06
6.1324492e-06
6.1435347e-06
6.1677784e-06
6.4676313e-06
6.4779993e-06
6.5006701e-06
6.8069322e-06
6.8166228e-06
6.8378101e-06
7.1502642e-06
7.1593185e-06
7.1791137e-06
7.4975581e-06
7.5060147e-06
7.5245041e-06
7.8486928e-06
7.8565874e-06
7.8738497e-06
8.2034806e-06
8.2108463e-06
8.2269535e-06
8.5616615e-06
8.5685287e-06
8.5835471e-06
8.922896e-06
8.9292928e-06
8.9432836e-06
9.2867592e-06
9.2927116e-06
9.3057312e-06
9.6527341e-06
9.6582663e-06
9.6703673e-06
1.0020207e-05
1.0025341e-05
1.0036572e-05
1.0388459e-05
1.0393216e-05
1.0403624e-05
1.0756665e-05
1.0761065e-05
1.0770693e-05
1.1123886e-05
1.1127948e-05
1.1136836e-05
1.1489071e-05
1.1492812e-05
1.1500998e-05
1.185105e-05
1.1854488e-05
1.186201e-05
1.2208543e-05
1.2211693e-05
1.2218588e-05
1.2560158e-05
1.2563037e-05
1.2569339e-05
1.2904404e-05
1.2907027e-05
1.2912769e-05
1.3239693e-05
1.3242075e-05
1.324729e-05
1.3564358e-05
1.3566514e-05
1.3571235e-05
1.3876667e-05
1.3878613e-05
1.3882871e-05
1.4174842e-05
1.417659e-05
1.4180419e-05
1.4457066e-05
1.4458633e-05
1.4462063e-05
1.4721476e-05
1.4722874e-05
1.4725937e-05
1.4965997e-05
1.4967242e-05
1.496997e-05
1.5187642e-05
1.5188748e-05
1.5191172e-05
1.5379849e-05
1.538083e-05
1.538298e-05
1.5523753e-05
1.5524622e-05
1.5526529e-05
1.5563207e-05
1.5563976e-05
1.556567e-05
1.5343796e-05
1.5344475e-05
1.5345975e-05
1.4492183e-05
1.449277e-05
1.4494074e-05
1.2253493e-05
1.2253959e-05
1.2255001e-05
7.4630603e-06
7.4633331e-06
7.4639427e-06
0.056060563
0.060730828
0.045897958
0.046389483
0.012355435
0.011233498
0.0041755431
0.0039293567
0.0017090785
0.0016207171
0.00070523743
0.00066284198
0.00025858707
0.00023894761
8.1809768e-05
7.448514e-05
2.4512906e-05
2.2344086e-05
9.076392e-06
8.5696616e-06
5.6145605e-06
5.5500497e-06
5.1146613e-06
5.1504674e-06
5.2708085e-06
5.3244924e-06
5.5608699e-06
5.6149039e-06
5.8785095e-06
5.9296904e-06
6.2041934e-06
6.2521464e-06
6.5347226e-06
6.5795689e-06
6.869639e-06
6.9115671e-06
7.2088569e-06
7.2480491e-06
7.5522895e-06
7.5889128e-06
7.8997946e-06
7.9340019e-06
8.2511661e-06
8.2830975e-06
8.6061266e-06
8.6359108e-06
8.9643212e-06
8.9920774e-06
9.3253113e-06
9.35115e-06
9.6885685e-06
9.7125921e-06
1.0053468e-05
1.0075772e-05
1.0419282e-05
1.0439958e-05
1.0785178e-05
1.0804309e-05
1.115021e-05
1.1167877e-05
1.151332e-05
1.1529599e-05
1.1873334e-05
1.1888299e-05
1.2228968e-05
1.224269e-05
1.2578827e-05
1.2591374e-05
1.2921416e-05
1.2932855e-05
1.3255147e-05
1.3265543e-05
1.3578349e-05
1.3587768e-05
1.3889292e-05
1.3897796e-05
1.4186193e-05
1.4193846e-05
1.4467239e-05
1.4474103e-05
1.4730562e-05
1.4736702e-05
1.4974091e-05
1.4979568e-05
1.5194836e-05
1.5199714e-05
1.5386236e-05
1.5390577e-05
1.5529424e-05
1.5533294e-05
1.5568248e-05
1.5571712e-05
1.5348273e-05
1.5351381e-05
1.4496083e-05
1.4498815e-05
1.2256601e-05
1.2258783e-05
7.4648702e-06
7.4663068e-06
3.1981398e-06
1.0169052e-05
4.5552267e-05
8.9804978e-05
0.00011689784
0.00012238024
0.00011446573
0.00010084951
8.5860944e-05
7.144696e-05
5.8380815e-05
4.693308e-05
3.7182113e-05
2.9117313e-05
2.2660032e-05
1.7661918e-05
1.3921197e-05
1.1210792e-05
9.3069169e-06
8.0038666e-06
7.1112768e-06
6.4387573e-06
5.775396e-06
4.9082987e-06
3.7077905e-06
1.6206766e-06
3.3617235e-05
0.00014316941
0.00026619219
0.00033501059
0.00034905343
0.00033133407
0.0002992612
0.00026223634
0.00022463136
0.00018845383
0.00015474333
0.00012424197
9.7519067e-05
7.4926282e-05
5.6504082e-05
4.1997425e-05
3.0945774e-05
2.2798185e-05
1.698123e-05
1.2929872e-05
1.0094908e-05
7.9107938e-06
5.7261128e-06
2.6804018e-06
6.8574352e-06
0.00013610953
0.00049977014
0.00082745418
0.00097876182
0.0010059688
0.00096683171
0.0008965815
0.00081272063
0.00072300203
0.00063105651
0.00053923524
0.00045007224
0.00036630877
0.00029046178
0.00022430765
0.0001686782
0.00012359233
8.8438791e-05
6.2092165e-05
4.3068631e-05
2.9727513e-05
2.0362888e-05
1.3179902e-05
5.9016912e-06
3.7374669e-05
0.00056437916
0.0016073666
0.0022695596
0.0025183563
0.0025380656
0.0024448632
0.002302645
0.0021391068
0.0019639062
0.0017785837
0.0015842811
0.0013844468
0.00118453
0.00099009247
0.00080650702
0.00063819231
0.00048946177
0.00036347891
0.00026154872
0.00018282763
0.00012476353
8.347933e-05
5.4336977e-05
2.9289446e-05
0.00028381146
0.0024458157
0.0049114144
0.0060239736
0.006349247
0.00624804
0.0059531678
0.0055972392
0.0052287369
0.0048592485
0.0044733589
0.0040706589
0.0036557585
0.0032379074
0.0028222247
0.0024136445
0.0020148709
0.0016366486
0.0012896905
0.00098358632
0.0007249119
0.00051687078
0.00035753177
0.00024372268
0.00017341096
0.0023527248
0.010433614
0.016612773
0.018701914
0.018341847
0.016843381
0.015035692
0.013322536
0.011799541
0.010446119
0.0092415259
0.008166664
0.0072009245
0.0063243022
0.0055185761
0.0047699171
0.0040702499
0.0034180932
0.0028154296
0.0022669171
0.0017777006
0.0013539633
0.00099829902
0.00071646342
0.00051854687
0.044833577
0.033987938
0.026514469
0.021386892
0.017772064
0.015107815
0.013053881
0.011423249
0.010105571
0.009020812
0.0081051381
0.0073081253
0.0065914979
0.0059271714
0.0052956792
0.0046858347
0.0040935192
0.0035203367
0.0029718396
0.0024561268
0.0019818236
0.0015575856
0.0011894286
0.00088436372
0.0006592128
0.037065326
0.030930643
0.027848761
0.025338229
0.022560348
0.019645967
0.016946566
0.014638797
0.012706586
0.011080777
0.0096952808
0.0084993893
0.0074520575
0.006517815
0.0056692601
0.0048893781
0.0041679801
0.0035005139
0.0028865777
0.0023291429
0.0018321767
0.0014010597
0.0010379259
0.00074852736
0.00054374065
0.010099683
0.0094581755
0.0091426894
0.0088360921
0.0083708951
0.0077764459
0.0071516419
0.0065686227
0.0060293817
0.0055068868
0.0049961986
0.0045005335
0.004020869
0.0035529623
0.0030888581
0.0026341248
0.0021964632
0.0017848816
0.0014088439
0.0010772971
0.00079659923
0.00057003413
0.00039567467
0.00027041819
0.00019230037
0.0037499448
0.003655359
0.0036043265
0.0035246654
0.0033771288
0.0031717886
0.0029388979
0.0027057913
0.0024753698
0.00224365
0.0020098888
0.0017764471
0.0015460234
0.0013211853
0.0011042185
0.00089937628
0.00071178434
0.00054621566
0.00040602683
0.00029253483
0.0002047671
0.00013991645
9.371584e-05
6.1037588e-05
3.2914891e-05
0.0015657972
0.0015372073
0.0015144592
0.0014742274
0.0014038908
0.0013064211
0.0011927748
0.0010740918
0.00095533506
0.00083780487
0.00072262107
0.00061172809
0.00050743139
0.00041173488
0.00032614553
0.00025173646
0.00018916862
0.00013848737
9.9020042e-05
6.9475174e-05
4.8156246e-05
3.3195825e-05
2.2673472e-05
1.4597015e-05
6.5040787e-06
0.00063113603
0.00060802508
0.00058646301
0.00055847918
0.00051975403
0.00047144495
0.00041791453
0.00036371993
0.00031162924
0.00026275211
0.00021763841
0.00017683459
0.00014087437
0.00011005794
8.4389046e-05
6.3596529e-05
4.7244067e-05
3.4789373e-05
2.5615711e-05
1.9072875e-05
1.4516499e-05
1.1322863e-05
8.8581334e-06
6.4003787e-06
2.985309e-06
0.00022201447
0.00020787057
0.00019464016
0.00018003467
0.00016285381
0.00014355285
0.00012358714
0.00010441983
8.6942238e-05
7.1450238e-05
5.7962454e-05
4.643746e-05
3.6818341e-05
2.8999197e-05
2.2815269e-05
1.8053634e-05
1.448537e-05
1.1888979e-05
1.0057061e-05
8.7974969e-06
7.9298308e-06
7.272887e-06
6.6246997e-06
5.7446793e-06
4.1090697e-06
6.7741863e-05
6.1872461e-05
5.6525723e-05
5.1157962e-05
4.5474398e-05
3.9588423e-05
3.385166e-05
2.8601178e-05
2.4022089e-05
2.0144901e-05
1.6923251e-05
1.4294937e-05
1.2199328e-05
1.0573807e-05
9.3509137e-06
8.4598852e-06
7.8324346e-06
7.4074585e-06
7.131258e-06
6.9549076e-06
6.8284616e-06
6.6911864e-06
6.4635127e-06
6.0693445e-06
5.5617535e-06
2.028972e-05
1.8493706e-05
1.6912717e-05
1.5434977e-05
1.3989416e-05
1.2588716e-05
1.1295422e-05
1.0168315e-05
9.2339146e-06
8.4870116e-06
7.9064536e-06
7.468548e-06
7.1515399e-06
6.9351747e-06
6.7999846e-06
6.727373e-06
6.700403e-06
6.7043788e-06
6.7262084e-06
6.7520626e-06
6.7616585e-06
6.7160415e-06
6.5381749e-06
6.1101179e-06
5.3687508e-06
8.0921352e-06
7.6908689e-06
7.3649039e-06
7.0919579e-06
6.8540818e-06
6.6483431e-06
6.4816111e-06
6.3605261e-06
6.2860475e-06
6.253615e-06
6.2560601e-06
6.2860771e-06
6.3371201e-06
6.4033406e-06
6.4794266e-06
6.5605728e-06
6.6425252e-06
6.7214758e-06
6.7932962e-06
6.8509212e-06
6.8763959e-06
6.819032e-06
6.5438298e-06
5.7324055e-06
3.6829226e-06
5.501974e-06
5.4820484e-06
5.4907891e-06
5.5227913e-06
5.5724641e-06
5.6366941e-06
5.714261e-06
5.8041445e-06
5.9045621e-06
6.0129752e-06
6.1265585e-06
6.2426275e-06
6.3587682e-06
6.472826e-06
6.5828759e-06
6.6872039e-06
6.7842616e-06
6.8724452e-06
6.9491748e-06
7.0075662e-06
7.0256377e-06
6.9357291e-06
6.5526819e-06
5.4506974e-06
2.9009636e-06
5.2005545e-06
5.2667362e-06
5.3482862e-06
5.4429303e-06
5.5480884e-06
5.6615329e-06
5.7814068e-06
5.9059832e-06
6.0335139e-06
6.1622278e-06
6.2904008e-06
6.4164184e-06
6.538811e-06
6.6562402e-06
6.7674945e-06
6.8714806e-06
6.9671647e-06
7.0533036e-06
7.1273518e-06
7.1814827e-06
7.1898654e-06
7.0740772e-06
6.6281071e-06
5.4123503e-06
2.7920369e-06
5.3914311e-06
5.4711526e-06
5.5625262e-06
5.6639634e-06
5.7737093e-06
5.8900143e-06
6.0111896e-06
6.1356053e-06
6.2616772e-06
6.3878776e-06
6.5127524e-06
6.6349294e-06
6.7531454e-06
6.8662375e-06
6.9731425e-06
7.0728887e-06
7.1645307e-06
7.2468453e-06
7.317107e-06
7.3667261e-06
7.3677823e-06
7.2383437e-06
6.7733401e-06
5.5623747e-06
3.0389563e-06
5.6813015e-06
5.759182e-06
5.8473983e-06
5.9446074e-06
6.0493469e-06
6.1601108e-06
6.2753794e-06
6.3936495e-06
6.5134543e-06
6.6333751e-06
6.7520545e-06
6.8682068e-06
6.9806304e-06
7.0882176e-06
7.1899512e-06
7.284894e-06
7.3721185e-06
7.4503782e-06
7.5168111e-06
7.5624491e-06
7.5588423e-06
7.4251217e-06
6.9661458e-06
5.8052686e-06
3.3844384e-06
5.9924232e-06
6.0658119e-06
6.1487887e-06
6.240154e-06
6.3386062e-06
6.4427853e-06
6.5513039e-06
6.6627682e-06
6.7758054e-06
6.8890791e-06
7.0013018e-06
7.1112462e-06
7.2177565e-06
7.3197631e-06
7.4162808e-06
7.5063971e-06
7.5891963e-06
7.6634166e-06
7.7261264e-06
7.7682557e-06
7.7616282e-06
7.6276949e-06
7.1791397e-06
6.0530904e-06
3.700814e-06
6.3109107e-06
6.3796428e-06
6.4573639e-06
6.5429809e-06
6.6353109e-06
6.733107e-06
6.8350881e-06
6.9399581e-06
7.0464298e-06
7.1532425e-06
7.2591743e-06
7.3630549e-06
7.463778e-06
7.5603117e-06
7.6517032e-06
7.7370659e-06
7.8154998e-06
7.8857397e-06
7.9448234e-06
7.9836805e-06
7.9745015e-06
7.8402523e-06
7.3957214e-06
6.2703782e-06
3.8934502e-06
6.6345418e-06
6.6988594e-06
6.7716218e-06
6.8518267e-06
6.9383874e-06
7.0301547e-06
7.12594e-06
7.2245357e-06
7.3247348e-06
7.425349e-06
7.5252211e-06
7.6232379e-06
7.7183435e-06
7.8095488e-06
7.8959352e-06
7.9766449e-06
8.0507974e-06
8.1171306e-06
8.1726619e-06
8.2082938e-06
8.1962563e-06
8.0593773e-06
7.6090546e-06
6.4555266e-06
3.9977079e-06
6.9629815e-06
7.02316e-06
7.0912737e-06
7.1663995e-06
7.2475336e-06
7.3336131e-06
7.4235335e-06
7.516168e-06
7.6103851e-06
7.7050653e-06
7.7991151e-06
7.8914789e-06
7.9811502e-06
8.0671848e-06
8.1487015e-06
8.2248733e-06
8.2948418e-06
8.3573509e-06
8.4093888e-06
8.4417383e-06
8.4261892e-06
8.2837433e-06
7.8186042e-06
6.6193184e-06
4.0552384e-06
7.2961259e-06
7.3524209e-06
7.4161694e-06
7.4865176e-06
7.5625369e-06
7.643241e-06
7.7276025e-06
7.8145693e-06
7.9030806e-06
7.9920836e-06
8.0805453e-06
8.1674668e-06
8.2518925e-06
8.3329221e-06
8.409714e-06
8.4814729e-06
8.5473644e-06
8.6061381e-06
8.6547361e-06
8.6837166e-06
8.6640126e-06
8.5137006e-06
8.0286192e-06
6.7797718e-06
4.1215811e-06
7.6338537e-06
7.6864975e-06
7.7461371e-06
7.8119819e-06
7.8831708e-06
7.9587868e-06
8.0378733e-06
8.1194478e-06
8.2025163e-06
8.2860889e-06
8.369192e-06
8.4508809e-06
8.5302503e-06
8.6064445e-06
8.6786614e-06
8.7461392e-06
8.8080678e-06
8.8632014e-06
8.9084207e-06
8.933983e-06
8.909711e-06
8.7503268e-06
8.2441859e-06
6.9534055e-06
4.2475815e-06
7.975992e-06
8.025196e-06
8.0809604e-06
8.1425523e-06
8.209172e-06
8.2799665e-06
8.3540436e-06
8.4304856e-06
8.5083617e-06
8.5867418e-06
8.6647093e-06
8.7413724e-06
8.8158747e-06
8.8874046e-06
8.9551996e-06
9.0185319e-06
9.076616e-06
9.1282105e-06
9.1701268e-06
9.1922853e-06
9.1632954e-06
8.9944333e-06
8.4673658e-06
7.1397096e-06
4.384938e-06
8.3223054e-06
8.3682648e-06
8.4203689e-06
8.4779388e-06
8.5402311e-06
8.606452e-06
8.6757689e-06
8.7473241e-06
8.8202466e-06
8.8936633e-06
8.9667118e-06
9.0385517e-06
9.1083742e-06
9.1754111e-06
9.2389387e-06
9.2982632e-06
9.3526244e-06
9.4007851e-06
9.4394862e-06
9.4583076e-06
9.4246531e-06
9.2464172e-06
8.698659e-06
7.3345179e-06
4.5501886e-06
8.6724926e-06
8.7153864e-06
8.7640294e-06
8.8177917e-06
8.8759819e-06
8.9378609e-06
9.0026521e-06
9.0695537e-06
9.1377501e-06
9.2064233e-06
9.2747627e-06
9.3419773e-06
9.4073043e-06
9.4700178e-06
9.5294327e-06
9.5848883e-06
9.6356499e-06
9.6804847e-06
9.7160673e-06
9.7316614e-06
9.6935765e-06
9.5066373e-06
8.9393596e-06
7.5362186e-06
4.6889037e-06
9.0261769e-06
9.0661709e-06
9.1115384e-06
9.1616925e-06
9.2159916e-06
9.2737466e-06
9.3342332e-06
9.3967022e-06
9.4603906e-06
9.5245316e-06
9.5883649e-06
9.6511465e-06
9.7121584e-06
9.770716e-06
9.8261715e-06
9.8778969e-06
9.9251827e-06
9.9668005e-06
9.9993628e-06
1.0011849e-05
9.9696196e-06
9.7748703e-06
9.1902085e-06
7.7505495e-06
4.8599534e-06
9.382901e-06
9.4201496e-06
9.4624135e-06
9.5091472e-06
9.5597525e-06
9.6135887e-06
9.66998e-06
9.7282267e-06
9.7876153e-06
9.8474278e-06
9.9069512e-06
9.9654871e-06
1.002236e-05
1.0076927e-05
1.0128575e-05
1.0176708e-05
1.0220641e-05
1.0259148e-05
1.028878e-05
1.0298247e-05
1.0252054e-05
1.0050035e-05
9.4487849e-06
7.9681737e-06
5.0017267e-06
9.7421195e-06
9.7767672e-06
9.8160886e-06
9.8595767e-06
9.9066751e-06
9.9567864e-06
1.0009281e-05
1.0063506e-05
1.0118794e-05
1.0174473e-05
1.0229877e-05
1.0284349e-05
1.0337257e-05
1.0387993e-05
1.0435983e-05
1.0480661e-05
1.0521363e-05
1.0556864e-05
1.0583645e-05
1.0590138e-05
1.0540001e-05
1.0330778e-05
9.7130166e-06
8.1907737e-06
5.1306505e-06
1.0103193e-05
1.0135375e-05
1.0171905e-05
1.0212313e-05
1.025608e-05
1.030265e-05
1.0351437e-05
1.0401831e-05
1.045321e-05
1.0504945e-05
1.0556412e-05
1.0606998e-05
1.0656108e-05
1.0703174e-05
1.0747654e-05
1.0789011e-05
1.0826604e-05
1.0859203e-05
1.0883207e-05
1.088675e-05
1.0832614e-05
1.0616096e-05
9.9823293e-06
8.4226013e-06
5.2797315e-06
1.0465381e-05
1.0495225e-05
1.0529106e-05
1.0566589e-05
1.0607192e-05
1.0650396e-05
1.0695656e-05
1.0742402e-05
1.0790055e-05
1.0838028e-05
1.0885737e-05
1.0932609e-05
1.0978086e-05
1.1021637e-05
1.1062751e-05
1.1100922e-05
1.1135526e-05
1.1165327e-05
1.1186636e-05
1.1187261e-05
1.1129039e-05
1.0904832e-05
1.0253708e-05
8.6515821e-06
5.4123421e-06
1.0827838e-05
1.0855464e-05
1.0886833e-05
1.0921539e-05
1.0959136e-05
1.0999141e-05
1.1041045e-05
1.108432e-05
1.1128425e-05
1.1172811e-05
1.1216934e-05
1.1260259e-05
1.1302264e-05
1.1342452e-05
1.1380344e-05
1.1415461e-05
1.1447196e-05
1.1474305e-05
1.1493003e-05
1.1490749e-05
1.1428366e-05
1.119607e-05
1.0526308e-05
8.8794433e-06
5.5659679e-06
1.118961e-05
1.1215133e-05
1.1244118e-05
1.1276189e-05
1.1310931e-05
1.1347896e-05
1.1386611e-05
1.1426584e-05
1.146731e-05
1.150828e-05
1.1548985e-05
1.1588926e-05
1.1627616e-05
1.1664591e-05
1.1699402e-05
1.1731594e-05
1.176058e-05
1.1785102e-05
1.1801271e-05
1.1796173e-05
1.1729525e-05
1.1488764e-05
1.0800082e-05
9.1110711e-06
5.7141297e-06
1.154963e-05
1.1573159e-05
1.1599883e-05
1.1629454e-05
1.1661487e-05
1.1695567e-05
1.1731252e-05
1.1768086e-05
1.1805599e-05
1.1843318e-05
1.1880768e-05
1.1917485e-05
1.1953015e-05
1.1986923e-05
1.201879e-05
1.2048187e-05
1.2074541e-05
1.209658e-05
1.2110304e-05
1.2102386e-05
1.2031323e-05
1.1781428e-05
1.1072078e-05
9.3390603e-06
5.8475111e-06
1.1906718e-05
1.1928358e-05
1.195294e-05
1.1980142e-05
1.2009606e-05
1.2040948e-05
1.2073759e-05
1.2107612e-05
1.2142074e-05
1.2176703e-05
1.2211058e-05
1.2244706e-05
1.2277226e-05
1.2308212e-05
1.2337273e-05
1.2364002e-05
1.2387841e-05
1.2407502e-05
1.2418868e-05
1.2408186e-05
1.2332691e-05
1.207355e-05
1.1343674e-05
9.5679305e-06
5.9706358e-06
1.2259583e-05
1.2279436e-05
1.230199e-05
1.2326949e-05
1.2353981e-05
1.238273e-05
1.2412816e-05
1.2443844e-05
1.2475411e-05
1.2507107e-05
1.2538523e-05
1.2569257e-05
1.2598916e-05
1.2627122e-05
1.2653511e-05
1.2677699e-05
1.2699139e-05
1.2716526e-05
1.2725624e-05
1.271224e-05
1.2632307e-05
1.236371e-05
1.1612487e-05
9.7915628e-06
6.1089679e-06
1.2606826e-05
1.262499e-05
1.2645628e-05
1.2668466e-05
1.2693199e-05
1.2719495e-05
1.2747004e-05
1.2775359e-05
1.2804185e-05
1.2833103e-05
1.2861734e-05
1.2889704e-05
1.2916649e-05
1.2942217e-05
1.2966068e-05
1.2987839e-05
1.3006997e-05
1.3022216e-05
1.3029134e-05
1.3013108e-05
1.2928706e-05
1.2650328e-05
1.187642e-05
1.0005543e-05
6.2265781e-06
1.2946948e-05
1.2963518e-05
1.2982349e-05
1.3003187e-05
1.3025751e-05
1.3049732e-05
1.3074807e-05
1.3100637e-05
1.3126875e-05
1.3153168e-05
1.3179166e-05
1.3204522e-05
1.3228897e-05
1.3251967e-05
1.3273414e-05
1.3292894e-05
1.3309885e-05
1.3323041e-05
1.3327876e-05
1.3309289e-05
1.3220479e-05
1.2932319e-05
1.2135513e-05
1.0214137e-05
6.3405265e-06
1.3278357e-05
1.3293428e-05
1.3310558e-05
1.3329514e-05
1.3350035e-05
1.3371838e-05
1.3394622e-05
1.3418074e-05
1.3441873e-05
1.3465692e-05
1.3489208e-05
1.3512097e-05
1.3534049e-05
1.355476e-05
1.3573935e-05
1.3591251e-05
1.3606192e-05
1.3617394e-05
1.3620251e-05
1.3599227e-05
1.3506217e-05
1.3208745e-05
1.2390226e-05
1.0421701e-05
6.4614311e-06
1.3599382e-05
1.3613047e-05
1.3628582e-05
1.3645772e-05
1.3664377e-05
1.3684135e-05
1.3704769e-05
1.3725988e-05
1.3747497e-05
1.3768993e-05
1.3790175e-05
1.3810747e-05
1.383042e-05
1.3848912e-05
1.3865948e-05
1.3881224e-05
1.3894233e-05
1.3903593e-05
1.3904586e-05
1.3881271e-05
1.3784326e-05
1.347811e-05
1.2638929e-05
1.0624659e-05
6.5795714e-06
1.3908288e-05
1.3920639e-05
1.3934682e-05
1.3950222e-05
1.3967036e-05
1.3984883e-05
1.4003506e-05
1.4022639e-05
1.4042005e-05
1.4061327e-05
1.4080327e-05
1.4098729e-05
1.4116266e-05
1.4132679e-05
1.4147711e-05
1.4161074e-05
1.417227e-05
1.4179899e-05
1.417914e-05
1.4153673e-05
1.4053021e-05
1.3738492e-05
1.2879312e-05
1.0819392e-05
6.6871872e-06
1.4203294e-05
1.4214422e-05
1.4227078e-05
1.4241082e-05
1.425623e-05
1.4272299e-05
1.4289051e-05
1.430624e-05
1.4323612e-05
1.434091e-05
1.4357877e-05
1.4374258e-05
1.4389806e-05
1.440428e-05
1.4417442e-05
1.4429019e-05
1.4438521e-05
1.4444532e-05
1.4442128e-05
1.4414622e-05
1.4310401e-05
1.3987655e-05
1.3107742e-05
1.0996182e-05
6.7318903e-06
1.4482585e-05
1.4492581e-05
1.4503953e-05
1.4516536e-05
1.4530142e-05
1.4544565e-05
1.4559586e-05
1.4574977e-05
1.4590503e-05
1.4605928e-05
1.4621012e-05
1.463552e-05
1.4649225e-05
1.4661902e-05
1.4673331e-05
1.468325e-05
1.4691179e-05
1.4695683e-05
1.4691739e-05
1.4662294e-05
1.4554614e-05
1.422381e-05
1.3323625e-05
1.1163045e-05
6.7758621e-06
1.4744294e-05
1.4753249e-05
1.476344e-05
1.4774717e-05
1.4786905e-05
1.4799816e-05
1.4813245e-05
1.4826984e-05
1.4840814e-05
1.4854515e-05
1.4867869e-05
1.4880655e-05
1.4892664e-05
1.4903688e-05
1.491352e-05
1.4921913e-05
1.492839e-05
1.4931501e-05
1.4926124e-05
1.4894857e-05
1.4783903e-05
1.4445574e-05
1.3527228e-05
1.1325976e-05
6.8636162e-06
1.4986349e-05
1.4994353e-05
1.5003468e-05
1.5013554e-05
1.502445e-05
1.5035981e-05
1.504796e-05
1.5060192e-05
1.5072475e-05
1.5084607e-05
1.5096382e-05
1.5107598e-05
1.511806e-05
1.5127574e-05
1.5135949e-05
1.5142947e-05
1.5148098e-05
1.5149932e-05
1.5143237e-05
1.5110289e-05
1.499633e-05
1.4651184e-05
1.3716683e-05
1.1479975e-05
6.9520668e-06
1.5205761e-05
1.5212908e-05
1.5221051e-05
1.5230061e-05
1.5239791e-05
1.5250076e-05
1.5260746e-05
1.5271618e-05
1.5282507e-05
1.5293223e-05
1.5303574e-05
1.5313372e-05
1.5322434e-05
1.5330584e-05
1.5337642e-05
1.534338e-05
1.5347331e-05
1.5348009e-05
1.5340119e-05
1.5305651e-05
1.5189006e-05
1.4837834e-05
1.3888984e-05
1.1620049e-05
7.0314404e-06
1.539597e-05
1.5402354e-05
1.5409633e-05
1.5417687e-05
1.5426376e-05
1.543555e-05
1.5445049e-05
1.5454708e-05
1.5464357e-05
1.5473815e-05
1.5482899e-05
1.5491428e-05
1.5499237e-05
1.5506164e-05
1.5512044e-05
1.5516656e-05
1.5519536e-05
1.5519183e-05
1.5510233e-05
1.5474429e-05
1.5355475e-05
1.4999202e-05
1.4038005e-05
1.1739902e-05
7.0949286e-06
1.5538116e-05
1.5543836e-05
1.5550365e-05
1.5557587e-05
1.5565367e-05
1.5573559e-05
1.5582021e-05
1.559061e-05
1.5599174e-05
1.5607543e-05
1.5615521e-05
1.5622928e-05
1.5629618e-05
1.5635456e-05
1.5640288e-05
1.5643905e-05
1.5645841e-05
1.5644589e-05
1.5634728e-05
1.5597807e-05
1.5477002e-05
1.5116939e-05
1.4147341e-05
1.1830387e-05
7.1475566e-06
1.5576048e-05
1.5581213e-05
1.558712e-05
1.5593654e-05
1.5600673e-05
1.5608013e-05
1.5615551e-05
1.5623193e-05
1.563083e-05
1.5638301e-05
1.5645354e-05
1.565178e-05
1.565747e-05
1.5662331e-05
1.5666221e-05
1.5668948e-05
1.5670045e-05
1.5668022e-05
1.565744e-05
1.5619692e-05
1.549761e-05
1.5135388e-05
1.4162734e-05
1.1842666e-05
7.156663e-06
1.5355302e-05
1.5360016e-05
1.5365449e-05
1.5371494e-05
1.5377976e-05
1.5384641e-05
1.5391334e-05
1.5398091e-05
1.5404934e-05
1.5411741e-05
1.5418095e-05
1.5423693e-05
1.5428489e-05
1.5432453e-05
1.5435426e-05
1.5437254e-05
1.5437443e-05
1.543468e-05
1.5423646e-05
1.5385644e-05
1.5263537e-05
1.4902823e-05
1.3939198e-05
1.1652214e-05
7.0486509e-06
1.450231e-05
1.4506612e-05
1.4511714e-05
1.4517569e-05
1.4523977e-05
1.4530535e-05
1.4536461e-05
1.4542259e-05
1.4548326e-05
1.4554698e-05
1.4560609e-05
1.4565544e-05
1.4569556e-05
1.4572653e-05
1.457452e-05
1.4574983e-05
1.4573236e-05
1.4569167e-05
1.455799e-05
1.4521048e-05
1.440238e-05
1.4053484e-05
1.3130934e-05
1.0969343e-05
6.6675161e-06
1.2261797e-05
1.2265498e-05
1.2270197e-05
1.2276093e-05
1.2283417e-05
1.2292506e-05
1.229812e-05
1.2302693e-05
1.2307689e-05
1.2313527e-05
1.2318989e-05
1.2323281e-05
1.2326545e-05
1.2328691e-05
1.2328917e-05
1.232629e-05
1.2317755e-05
1.230997e-05
1.2298817e-05
1.2265918e-05
1.2159986e-05
1.1850547e-05
1.1047611e-05
9.2156904e-06
5.6383921e-06
7.4692536e-06
7.4717868e-06
7.4751606e-06
7.4801683e-06
7.48894e-06
7.5059915e-06
7.5122477e-06
7.5151806e-06
7.5182485e-06
7.5223205e-06
7.5262129e-06
7.5291458e-06
7.5312453e-06
7.5322328e-06
7.5306638e-06
7.5228606e-06
7.4980629e-06
7.4844974e-06
7.4747925e-06
7.4527683e-06
7.382339e-06
7.1780329e-06
6.6622546e-06
5.5663423e-06
3.531966e-06
)
;

boundaryField
{
    Walls
    {
        type            kqRWallFunction;
        value           nonuniform List<scalar> 
38
(
3.1981398e-06
1.6206766e-06
6.8574352e-06
3.7374669e-05
0.00028381146
0.0023527248
0.056060563
0.060730828
0.018231823
0.027203328
0.034230439
0.041126803
0.047202115
0.051553388
0.055790194
0.059252804
0.061729912
0.063845632
0.065742679
0.067208187
0.068211199
0.069409892
0.070574133
0.070732033
0.071431373
0.072080504
0.071658434
0.072056144
0.072417603
0.072099382
0.072430478
0.072945191
0.072586373
0.072586645
0.072653068
0.072261044
0.071415837
0.066269971
)
;
    }
    Inlet
    {
        type            turbulentIntensityKineticEnergyInlet;
        intensity       0.05;
        value           nonuniform List<scalar> 3(0.0078337964 0.0091408529 0.0091150502);
    }
    Outlet
    {
        type            inletOutlet;
        inletValue      uniform 0;
        value           nonuniform List<scalar> 
86
(
0
0
0
0
0
0
0
0
0
0
0
0
0
0
0
0
0
0
0
0
0
0
0
0
0
0
0
0
0
0
0.0006592128
0.00054374065
0.00019230037
0
0
0
0
5.5617535e-06
5.3687508e-06
0
0
0
0
0
3.700814e-06
3.8934502e-06
3.9977079e-06
4.0552384e-06
4.1215811e-06
4.2475815e-06
4.384938e-06
4.5501886e-06
4.6889037e-06
4.8599534e-06
5.0017267e-06
5.1306505e-06
5.2797315e-06
5.4123421e-06
5.5659679e-06
5.7141297e-06
5.8475111e-06
0
0
0
0
0
0
0
0
0
0
0
0
0
0
0
0
0
0
0
0
0
0
0
0.00017341096
0.00051854687
)
;
    }
    Front
    {
        type            wedge;
    }
    Back
    {
        type            wedge;
    }
    defaultFaces
    {
        type            empty;
    }
}


// ************************************************************************* //
