/*--------------------------------*- C++ -*----------------------------------*\
| =========                 |                                                 |
| \\      /  F ield         | OpenFOAM: The Open Source CFD Toolbox           |
|  \\    /   O peration     | Version:  4.0                                   |
|   \\  /    A nd           | Web:      www.OpenFOAM.org                      |
|    \\/     M anipulation  |                                                 |
\*---------------------------------------------------------------------------*/
FoamFile
{
    version     2.0;
    format      ascii;
    class       volScalarField;
    location    "0.06";
    object      nut;
}
// * * * * * * * * * * * * * * * * * * * * * * * * * * * * * * * * * * * * * //

dimensions      [0 2 -1 0 0 0 0];

internalField   nonuniform List<scalar> 
1740
(
1.7718248e-05
1.3635869e-05
1.2220146e-06
9.9054892e-06
6.7638536e-06
1.8100879e-06
1.6325878e-05
5.3556953e-06
2.264887e-06
2.5070549e-05
4.749491e-06
2.7063588e-06
1.9450292e-05
4.3157905e-06
3.0914536e-06
1.6125545e-05
4.0238003e-06
3.3648487e-06
1.3745905e-05
3.8383796e-06
3.6299378e-06
1.1847542e-05
3.7042091e-06
3.8449403e-06
1.0532001e-05
3.6257685e-06
3.9975344e-06
9.6598991e-06
3.5657766e-06
4.1280329e-06
8.7669587e-06
3.5279247e-06
4.2443789e-06
7.9996385e-06
3.5104861e-06
4.3335573e-06
7.3667751e-06
3.4884132e-06
4.3956231e-06
6.8945024e-06
3.4752506e-06
4.4690943e-06
6.5073069e-06
3.4963595e-06
4.5393422e-06
6.1364836e-06
3.5103769e-06
4.5494463e-06
5.825189e-06
3.4997622e-06
4.5923353e-06
5.5542246e-06
3.4947262e-06
4.6316712e-06
5.3374782e-06
3.5204016e-06
4.6056667e-06
5.1743427e-06
3.5301156e-06
4.6295171e-06
5.0186173e-06
3.5247174e-06
4.6514071e-06
4.8718304e-06
3.5110982e-06
4.6325947e-06
4.7435834e-06
3.4953397e-06
4.6522952e-06
4.6183342e-06
3.515031e-06
4.6833641e-06
4.5018749e-06
3.532736e-06
4.6623172e-06
4.38818e-06
3.5254399e-06
4.6620126e-06
4.291892e-06
3.530601e-06
4.665899e-06
4.2143866e-06
3.5630059e-06
4.6420884e-06
4.1595604e-06
3.5808101e-06
4.5905232e-06
2.5942525e-06
3.5633078e-06
4.2763294e-06
1.8650826e-06
2.1571713e-06
4.3976107e-06
7.1539693e-06
7.339343e-06
6.6980894e-06
6.4478317e-06
6.6610952e-06
6.3086338e-06
4.9434134e-06
4.9036254e-06
4.6731559e-06
3.6925576e-06
3.6477114e-06
3.5184277e-06
2.4105998e-06
2.3862957e-06
2.3116503e-06
1.207341e-06
1.1947568e-06
1.1522413e-06
4.4539355e-07
4.3949815e-07
4.2090771e-07
1.3866589e-07
1.3660737e-07
1.3072586e-07
4.9634223e-08
4.9122834e-08
4.7744346e-08
2.9122191e-08
2.9052816e-08
2.8864629e-08
2.6026906e-08
2.6065589e-08
2.6152612e-08
2.6855322e-08
2.6917145e-08
2.705785e-08
2.8481142e-08
2.8546001e-08
2.8691452e-08
3.0265233e-08
3.0328331e-08
3.0468341e-08
3.2094428e-08
3.2154564e-08
3.2287182e-08
3.3953435e-08
3.4010326e-08
3.4135369e-08
3.5842202e-08
3.5895852e-08
3.6013542e-08
3.7762018e-08
3.7812526e-08
3.7923195e-08
3.9713655e-08
3.9761151e-08
3.9865157e-08
4.1697269e-08
4.1741895e-08
4.1839581e-08
4.3712464e-08
4.3754359e-08
4.384605e-08
4.5758315e-08
4.5797612e-08
4.5883611e-08
4.7833357e-08
4.7870184e-08
4.7950771e-08
4.9935561e-08
4.9970036e-08
5.0045472e-08
5.206229e-08
5.2094523e-08
5.2165053e-08
5.421026e-08
5.4240354e-08
5.4306205e-08
5.6375488e-08
5.640354e-08
5.6464923e-08
5.8553245e-08
5.8579346e-08
5.8636463e-08
6.0738018e-08
6.0762255e-08
6.0815295e-08
6.2923473e-08
6.2945929e-08
6.2995073e-08
6.5102433e-08
6.5123188e-08
6.516861e-08
6.7266865e-08
6.7285996e-08
6.7327867e-08
6.9407893e-08
6.9425476e-08
6.946396e-08
7.1515819e-08
7.1531928e-08
7.1567189e-08
7.3580175e-08
7.3594884e-08
7.3627085e-08
7.5589791e-08
7.5603176e-08
7.5632478e-08
7.7532899e-08
7.7545034e-08
7.7571603e-08
7.9397256e-08
7.9408216e-08
7.9432217e-08
8.1170298e-08
8.1180161e-08
8.1201763e-08
8.2839341e-08
8.2848186e-08
8.286756e-08
8.4391873e-08
8.4399778e-08
8.4417099e-08
8.5816138e-08
8.5823185e-08
8.583863e-08
8.7102573e-08
8.7108844e-08
8.7122594e-08
8.8247164e-08
8.8252743e-08
8.8264985e-08
8.9257379e-08
8.9262356e-08
8.9273289e-08
9.0156621e-08
9.0161096e-08
9.0170938e-08
9.0970692e-08
9.0974775e-08
9.0983767e-08
9.1663324e-08
9.1667128e-08
9.1675519e-08
9.1936776e-08
9.1940392e-08
9.1948374e-08
4.1592353e-06
4.4875391e-06
6.7093693e-06
8.4146002e-06
5.9369731e-06
5.9783401e-06
4.513207e-06
4.5798445e-06
3.4155464e-06
3.41953e-06
2.2226884e-06
2.1652943e-06
1.0874282e-06
1.0233505e-06
3.9091027e-07
3.5802725e-07
1.2127405e-07
1.105855e-07
4.5540888e-08
4.3029308e-08
2.8564402e-08
2.8255035e-08
2.6287738e-08
2.6487188e-08
2.7274507e-08
2.7566613e-08
2.8913225e-08
2.9207992e-08
3.0680453e-08
3.0961093e-08
3.2487383e-08
3.2751764e-08
3.4323784e-08
3.4572397e-08
3.6190716e-08
3.642443e-08
3.8089728e-08
3.8309398e-08
4.0021626e-08
4.0228039e-08
4.1986526e-08
4.2180403e-08
4.3983973e-08
4.4165976e-08
4.6012975e-08
4.6183708e-08
4.8072003e-08
4.8232027e-08
5.0158965e-08
5.0308798e-08
5.2271173e-08
5.2411294e-08
5.4405292e-08
5.4536148e-08
5.6557298e-08
5.6679309e-08
5.8722425e-08
5.8835985e-08
6.089513e-08
6.1000614e-08
6.3069053e-08
6.3166821e-08
6.5236997e-08
6.5327394e-08
6.7390916e-08
6.7474277e-08
6.952192e-08
6.9598575e-08
7.1620306e-08
7.1690578e-08
7.3675603e-08
7.3739814e-08
7.5676642e-08
7.5735116e-08
7.7611658e-08
7.7664721e-08
7.9468415e-08
7.9516397e-08
8.1234357e-08
8.1277593e-08
8.2896809e-08
8.2935642e-08
8.4443267e-08
8.4478045e-08
8.5861985e-08
8.5893065e-08
8.714341e-08
8.7171158e-08
8.8283546e-08
8.8308342e-08
8.9289898e-08
8.9312143e-08
9.0185926e-08
9.0206057e-08
9.0997494e-08
9.1015983e-08
9.168835e-08
9.170567e-08
9.1960595e-08
9.1977143e-08
2.6522612e-10
4.9725973e-09
6.6504379e-08
2.4814789e-07
4.3846918e-07
5.183638e-07
5.1007742e-07
4.6229626e-07
4.0194659e-07
3.4044639e-07
2.8249184e-07
2.3013522e-07
1.8440033e-07
1.4578315e-07
1.1434298e-07
8.968646e-08
7.1050398e-08
5.7459739e-08
4.7902374e-08
4.1448305e-08
3.7301022e-08
3.4813566e-08
3.3468017e-08
3.280184e-08
3.2253694e-08
1.344054e-10
1.6469253e-08
2.0451164e-07
7.0443223e-07
1.1758311e-06
1.3649235e-06
1.3631278e-06
1.2737635e-06
1.1484358e-06
1.0092585e-06
8.6654803e-07
7.2643899e-07
5.9396587e-07
4.7355336e-07
3.6863392e-07
2.8099465e-07
2.1068063e-07
1.5637513e-07
1.1601268e-07
8.7221988e-08
6.7616691e-08
5.5016599e-08
4.7560681e-08
4.3741321e-08
4.1994894e-08
5.686964e-10
6.7049389e-08
6.9535825e-07
1.9048163e-06
2.6831827e-06
2.972472e-06
3.0099761e-06
2.92732e-06
2.7796758e-06
2.5883706e-06
2.3623736e-06
2.1077812e-06
1.833001e-06
1.5497028e-06
1.2716283e-06
1.0118733e-06
7.8067329e-07
5.8460487e-07
4.2651884e-07
3.0567263e-07
2.1844523e-07
1.5966305e-07
1.2394132e-07
1.0758321e-07
1.1226894e-07
3.09944e-09
2.7827913e-07
1.9667432e-06
3.700448e-06
4.5116389e-06
4.8523306e-06
4.9790253e-06
4.9974256e-06
4.946543e-06
4.8364007e-06
4.6639491e-06
4.4237893e-06
4.1148245e-06
3.7422289e-06
3.3174961e-06
2.8574772e-06
2.3822297e-06
1.9167282e-06
1.4869741e-06
1.115136e-06
8.1518146e-07
5.9180056e-07
4.4181664e-07
3.6197288e-07
3.6227589e-07
2.3530247e-08
1.1391225e-06
3.9855116e-06
5.5660657e-06
6.368644e-06
6.8110102e-06
7.0759464e-06
7.2535928e-06
7.3759585e-06
7.4455461e-06
7.4405269e-06
7.3457166e-06
7.1502602e-06
6.8470031e-06
6.4342578e-06
5.9156501e-06
5.2957273e-06
4.5990327e-06
3.8610099e-06
3.125471e-06
2.4381284e-06
1.8403253e-06
1.3584474e-06
1.0066487e-06
7.9478305e-07
1.9464645e-07
2.7352222e-06
5.9311053e-06
7.7934271e-06
8.7537519e-06
9.1984411e-06
9.3978152e-06
9.5119337e-06
9.5964488e-06
9.6535607e-06
9.6741953e-06
9.6458712e-06
9.5517672e-06
9.3718599e-06
9.0853192e-06
8.6745085e-06
8.1296764e-06
7.4537637e-06
6.6629839e-06
5.7874851e-06
4.8683821e-06
3.9566005e-06
3.1021522e-06
2.3598287e-06
1.8026466e-06
4.3296217e-06
4.3057882e-06
4.3537077e-06
4.4704214e-06
4.6548441e-06
4.8958231e-06
5.1812076e-06
5.5053656e-06
5.8657941e-06
6.2560318e-06
6.6618288e-06
7.0597497e-06
7.4175703e-06
7.6970226e-06
7.858777e-06
7.8690112e-06
7.7049836e-06
7.3590734e-06
6.8405111e-06
6.1752733e-06
5.4029102e-06
4.5734049e-06
3.7396537e-06
2.9596463e-06
2.3265779e-06
9.0922349e-06
9.3819073e-06
9.816383e-06
1.0280447e-05
1.0495866e-05
1.0486645e-05
1.0378093e-05
1.0266027e-05
1.0178969e-05
1.0106609e-05
1.0030345e-05
9.9309253e-06
9.7862892e-06
9.5707155e-06
9.2590504e-06
8.8318292e-06
8.2779796e-06
7.598061e-06
6.8058497e-06
5.9292093e-06
5.0071706e-06
4.0888684e-06
3.2231774e-06
2.4650443e-06
1.8903292e-06
6.3430336e-06
6.7510859e-06
7.1780979e-06
7.5651087e-06
7.8335117e-06
7.9839617e-06
8.0632643e-06
8.1137332e-06
8.137441e-06
8.1132165e-06
8.0276103e-06
7.8683785e-06
7.6255999e-06
7.288714e-06
6.8413962e-06
6.2844663e-06
5.6289965e-06
4.8975306e-06
4.123965e-06
3.3515292e-06
2.6264734e-06
1.9917948e-06
1.4759934e-06
1.0955301e-06
8.6275426e-07
4.8305743e-06
5.1119945e-06
5.3735501e-06
5.577714e-06
5.6933545e-06
5.7220546e-06
5.6850703e-06
5.605412e-06
5.4849656e-06
5.3154451e-06
5.0895362e-06
4.8034572e-06
4.4573196e-06
4.0542179e-06
3.5995787e-06
3.1066278e-06
2.5964146e-06
2.0954419e-06
1.6314115e-06
1.2282865e-06
9.0166812e-07
6.5733878e-07
4.9245551e-07
4.0377652e-07
4.01058e-07
3.5165818e-06
3.6383334e-06
3.7419462e-06
3.7966481e-06
3.7823786e-06
3.6983452e-06
3.5571341e-06
3.3749626e-06
3.1602265e-06
2.9148823e-06
2.640861e-06
2.3435752e-06
2.0321384e-06
1.7175926e-06
1.4115331e-06
1.1253958e-06
8.6966544e-07
6.5211407e-07
4.7643606e-07
3.4208799e-07
2.4516507e-07
1.7991598e-07
1.4034847e-07
1.2237747e-07
1.2777717e-07
2.1434991e-06
2.1363181e-06
2.1213835e-06
2.0779203e-06
1.9929466e-06
1.8669293e-06
1.7104254e-06
1.5370489e-06
1.3570738e-06
1.1763456e-06
9.991766e-07
8.3022702e-07
6.7440198e-07
5.3567032e-07
4.1643838e-07
3.174028e-07
2.3797859e-07
1.7661489e-07
1.3103792e-07
9.8576148e-08
7.6508951e-08
6.2346034e-08
5.3972998e-08
4.9693515e-08
4.7869796e-08
9.6951248e-07
9.2394157e-07
8.7898926e-07
8.2564281e-07
7.5867528e-07
6.7943574e-07
5.9391879e-07
5.0885048e-07
4.2891847e-07
3.5626142e-07
2.9165508e-07
2.3547285e-07
1.8790211e-07
1.4878481e-07
1.1756681e-07
9.3361257e-08
7.5130422e-08
6.1828457e-08
5.2460195e-08
4.6122776e-08
4.2043356e-08
3.9597969e-08
3.8292819e-08
3.7691472e-08
3.7262216e-08
3.2781628e-07
3.015179e-07
2.7748243e-07
2.5307802e-07
2.2675602e-07
1.9893914e-07
1.7132187e-07
1.4564984e-07
1.2297091e-07
1.0357798e-07
8.7340278e-08
7.4016635e-08
6.3343045e-08
5.5030949e-08
4.8761957e-08
4.418929e-08
4.09718e-08
3.8803222e-08
3.7421284e-08
3.661097e-08
3.6207937e-08
3.6097996e-08
3.6200714e-08
3.6424891e-08
3.6605807e-08
1.0057973e-07
9.1970431e-08
8.4496772e-08
7.755976e-08
7.0762312e-08
6.41044e-08
5.7867421e-08
5.2358607e-08
4.7734778e-08
4.4011599e-08
4.1106224e-08
3.8912667e-08
3.7328637e-08
3.6255969e-08
3.559793e-08
3.5260551e-08
3.5157814e-08
3.5216669e-08
3.5378843e-08
3.5602153e-08
3.5862502e-08
3.6152759e-08
3.6469063e-08
3.6776413e-08
3.6966447e-08
4.0701226e-08
3.8795935e-08
3.7301225e-08
3.6091599e-08
3.5058595e-08
3.4170747e-08
3.3454659e-08
3.2945189e-08
3.2652674e-08
3.2559158e-08
3.2635017e-08
3.2846457e-08
3.3161926e-08
3.3552474e-08
3.3991265e-08
3.4453743e-08
3.4918407e-08
3.53678e-08
3.5789449e-08
3.6177475e-08
3.653467e-08
3.6871509e-08
3.7194301e-08
3.7475128e-08
3.7592197e-08
2.8048059e-08
2.8007084e-08
2.8131684e-08
2.83876e-08
2.8738207e-08
2.916067e-08
2.9644768e-08
3.0184282e-08
3.077083e-08
3.1392851e-08
3.2036702e-08
3.2690171e-08
3.3341463e-08
3.3979654e-08
3.4594766e-08
3.5177858e-08
3.5721235e-08
3.621888e-08
3.6667306e-08
3.7067281e-08
3.7426141e-08
3.7757888e-08
3.807442e-08
3.8359169e-08
3.8493764e-08
2.677129e-08
2.715178e-08
2.7623318e-08
2.8170694e-08
2.877664e-08
2.9426323e-08
3.0108025e-08
3.0811871e-08
3.1528646e-08
3.2249392e-08
3.2965458e-08
3.3668359e-08
3.4350806e-08
3.500576e-08
3.5626701e-08
3.6207759e-08
3.6743863e-08
3.72311e-08
3.7667575e-08
3.8055284e-08
3.8402988e-08
3.8727966e-08
3.905028e-08
3.936954e-08
3.9598519e-08
2.7934617e-08
2.8377326e-08
2.8888095e-08
2.9456976e-08
3.0072918e-08
3.0725133e-08
3.1403612e-08
3.2099121e-08
3.2803006e-08
3.3507106e-08
3.4203778e-08
3.4885293e-08
3.5545091e-08
3.6176868e-08
3.6774757e-08
3.7333452e-08
3.7848353e-08
3.8315922e-08
3.8734597e-08
3.9106882e-08
3.9442924e-08
3.9763735e-08
4.0097232e-08
4.0455371e-08
4.0769234e-08
2.9572346e-08
3.0002332e-08
3.0491598e-08
3.1032299e-08
3.1615816e-08
3.223335e-08
3.2876187e-08
3.3535874e-08
3.4204292e-08
3.487366e-08
3.5536563e-08
3.6185927e-08
3.6814952e-08
3.7417605e-08
3.7988208e-08
3.8521604e-08
3.9013325e-08
3.945995e-08
3.9860108e-08
4.0216803e-08
4.0541599e-08
4.0858707e-08
4.1201091e-08
4.1584418e-08
4.1931724e-08
3.1306322e-08
3.1711765e-08
3.2171628e-08
3.2679177e-08
3.3227033e-08
3.3807496e-08
3.4412754e-08
3.5035012e-08
3.5666636e-08
3.6300214e-08
3.6928606e-08
3.7545017e-08
3.8142786e-08
3.8715994e-08
3.9259099e-08
3.9767066e-08
4.023553e-08
4.0661183e-08
4.1042856e-08
4.1384067e-08
4.1697571e-08
4.2009633e-08
4.2354817e-08
4.2745347e-08
4.3088394e-08
3.3076531e-08
3.3457391e-08
3.3889063e-08
3.4365516e-08
3.4880171e-08
3.5426071e-08
3.5996066e-08
3.6582932e-08
3.7179491e-08
3.7778706e-08
3.8373743e-08
3.8958031e-08
3.9525318e-08
4.0069677e-08
4.0585745e-08
4.1068634e-08
4.1514105e-08
4.191899e-08
4.2282343e-08
4.2608151e-08
4.2910059e-08
4.3215328e-08
4.3557887e-08
4.3944145e-08
4.4269327e-08
3.4877672e-08
3.5235531e-08
3.564111e-08
3.608891e-08
3.6572932e-08
3.7086799e-08
3.7623899e-08
3.8177501e-08
3.8740858e-08
3.930731e-08
3.9870344e-08
4.0423671e-08
4.0961289e-08
4.1477557e-08
4.1967192e-08
4.2425483e-08
4.2848341e-08
4.3232753e-08
4.3578004e-08
4.3888496e-08
4.4178505e-08
4.4475649e-08
4.4812381e-08
4.5189891e-08
4.5496697e-08
3.6711399e-08
3.704779e-08
3.7429101e-08
3.7850271e-08
3.8305759e-08
3.8789672e-08
3.9295863e-08
3.981804e-08
4.0349859e-08
4.088502e-08
4.141734e-08
4.1940825e-08
4.244973e-08
4.2938654e-08
4.3402509e-08
4.3836747e-08
4.4237437e-08
4.4601733e-08
4.4929142e-08
4.5224429e-08
4.5502345e-08
4.579065e-08
4.6120548e-08
4.6490001e-08
4.6783714e-08
3.8579152e-08
3.8895406e-08
3.9253982e-08
3.9650183e-08
4.0078872e-08
4.0534569e-08
4.1011539e-08
4.1503889e-08
4.2005651e-08
4.2510872e-08
4.3013689e-08
4.3508401e-08
4.3989533e-08
4.4451903e-08
4.4890683e-08
4.5301457e-08
4.5680473e-08
4.6025053e-08
4.6334923e-08
4.6615174e-08
4.6880986e-08
4.7160377e-08
4.7484134e-08
4.7849229e-08
4.8139254e-08
4.0481557e-08
4.0778838e-08
4.1115994e-08
4.1488655e-08
4.1892036e-08
4.2321022e-08
4.2770254e-08
4.3234205e-08
4.3707256e-08
4.418379e-08
4.4658253e-08
4.5125233e-08
4.5579517e-08
4.6016163e-08
4.6430564e-08
4.6818493e-08
4.717636e-08
4.7501661e-08
4.7794336e-08
4.8059791e-08
4.8313667e-08
4.8584496e-08
4.8903449e-08
4.9267857e-08
4.9561702e-08
4.2418575e-08
4.2697919e-08
4.3014817e-08
4.3365195e-08
4.3744586e-08
4.4148209e-08
4.4571041e-08
4.5007895e-08
4.5453485e-08
4.5902508e-08
4.6349712e-08
4.6789964e-08
4.7218314e-08
4.7630055e-08
4.802079e-08
4.8386513e-08
4.872378e-08
4.9030265e-08
4.9306122e-08
4.9557076e-08
4.9799282e-08
5.0062e-08
5.03772e-08
5.0742487e-08
5.1038287e-08
4.4389605e-08
4.4651954e-08
4.4949642e-08
4.5278869e-08
4.5635461e-08
4.6014942e-08
4.6412601e-08
4.6823564e-08
4.724286e-08
4.7665486e-08
4.8086478e-08
4.8500978e-08
4.8904289e-08
4.9291939e-08
4.9659744e-08
5.0003894e-08
5.0321121e-08
5.0609272e-08
5.086871e-08
5.1105489e-08
5.1336324e-08
5.1591354e-08
5.1903556e-08
5.2270425e-08
5.2567465e-08
4.6393536e-08
4.6639746e-08
4.6919182e-08
4.7228295e-08
4.7563178e-08
4.7919641e-08
4.8293263e-08
4.8679462e-08
4.9073562e-08
4.9470848e-08
4.9866634e-08
5.0256324e-08
5.0635469e-08
5.099983e-08
5.1345431e-08
5.1668655e-08
5.1966411e-08
5.2236719e-08
5.2480154e-08
5.2703099e-08
5.2922858e-08
5.3170536e-08
5.3480213e-08
5.3849037e-08
5.4145365e-08
4.8428731e-08
4.8659589e-08
4.8921658e-08
4.921161e-08
4.9525796e-08
4.9860284e-08
5.0210929e-08
5.0573424e-08
5.0943368e-08
5.1316322e-08
5.1687866e-08
5.2053657e-08
5.2409489e-08
5.2751346e-08
5.307546e-08
5.33784e-08
5.3657263e-08
5.3910231e-08
5.4138087e-08
5.4347548e-08
5.4556498e-08
5.4796986e-08
5.5104108e-08
5.5474433e-08
5.5770545e-08
5.0493008e-08
5.0709244e-08
5.0954759e-08
5.1226442e-08
5.1520868e-08
5.1834358e-08
5.216302e-08
5.2502809e-08
5.2849587e-08
5.3199173e-08
5.3547403e-08
5.3890178e-08
5.4223528e-08
5.4543653e-08
5.484699e-08
5.5130292e-08
5.5390832e-08
5.5626963e-08
5.583968e-08
5.6036025e-08
5.6234447e-08
5.646784e-08
5.6771988e-08
5.7142034e-08
5.7433305e-08
5.2583596e-08
5.2785887e-08
5.3015609e-08
5.3269847e-08
5.3545397e-08
5.3838806e-08
5.4146424e-08
5.4464454e-08
5.4789007e-08
5.511615e-08
5.544196e-08
5.5762576e-08
5.6074253e-08
5.6373404e-08
5.6656663e-08
5.6920964e-08
5.716375e-08
5.7383556e-08
5.7581586e-08
5.7765223e-08
5.7953478e-08
5.8180025e-08
5.8481145e-08
5.8850681e-08
5.9137955e-08
5.4697087e-08
5.488607e-08
5.5100707e-08
5.5338279e-08
5.5595779e-08
5.5869974e-08
5.6157438e-08
5.6454611e-08
5.6757839e-08
5.7063426e-08
5.736768e-08
5.7666969e-08
5.7957762e-08
5.8236682e-08
5.8500552e-08
5.8746484e-08
5.8972088e-08
5.9176077e-08
5.9359879e-08
5.9531235e-08
5.9709746e-08
5.9929853e-08
6.022823e-08
6.0597248e-08
6.0879668e-08
5.6829396e-08
5.7005666e-08
5.7205888e-08
5.7427523e-08
5.7667757e-08
5.7923558e-08
5.8191718e-08
5.8468895e-08
5.8751661e-08
5.9036547e-08
5.9320082e-08
5.9598851e-08
5.9869534e-08
6.0128951e-08
6.037411e-08
6.0602297e-08
6.0811286e-08
6.0999964e-08
6.1169988e-08
6.1329472e-08
6.1498623e-08
6.1712629e-08
6.200834e-08
6.2375799e-08
6.2649048e-08
5.8975704e-08
5.9139824e-08
5.9326266e-08
5.9532657e-08
5.9756368e-08
5.999456e-08
6.0244225e-08
6.0502234e-08
6.0765372e-08
6.1030382e-08
6.1294009e-08
6.1553047e-08
6.1804374e-08
6.2045002e-08
6.2272119e-08
6.2483178e-08
6.2676114e-08
6.284998e-08
6.3006667e-08
6.3154651e-08
6.3314741e-08
6.3522843e-08
6.3815951e-08
6.4182099e-08
6.4450213e-08
6.1130423e-08
6.1282929e-08
6.1456195e-08
6.1648006e-08
6.1855907e-08
6.2077239e-08
6.2309189e-08
6.2548827e-08
6.2793141e-08
6.303908e-08
6.328359e-08
6.3523664e-08
6.3756376e-08
6.397892e-08
6.4188655e-08
6.4383198e-08
6.4560637e-08
6.4720192e-08
6.4863973e-08
6.5000813e-08
6.5152097e-08
6.5354411e-08
6.5644886e-08
6.6009734e-08
6.6271559e-08
6.3287159e-08
6.3428563e-08
6.3589234e-08
6.3767103e-08
6.3959879e-08
6.4165077e-08
6.4380068e-08
6.4602107e-08
6.4828379e-08
6.5056027e-08
6.5282194e-08
6.5504062e-08
6.5718888e-08
6.5924041e-08
6.6117049e-08
6.6295683e-08
6.6458182e-08
6.6603925e-08
6.6735235e-08
6.6861299e-08
6.700407e-08
6.7200821e-08
6.7488838e-08
6.7852512e-08
6.8105638e-08
6.5438686e-08
6.5569484e-08
6.5718119e-08
6.5882664e-08
6.6060981e-08
6.6250751e-08
6.6449516e-08
6.6654712e-08
6.6863708e-08
6.7073833e-08
6.7282417e-08
6.7486821e-08
6.7684481e-08
6.7872934e-08
6.8049865e-08
6.8213197e-08
6.8361312e-08
6.8493745e-08
6.8613026e-08
6.8728691e-08
6.8863268e-08
6.9054754e-08
6.9340706e-08
6.9703695e-08
6.9949237e-08
6.7576934e-08
6.7697609e-08
6.7834754e-08
6.7986578e-08
6.8151087e-08
6.8326118e-08
6.8509378e-08
6.8698475e-08
6.8890949e-08
6.9084309e-08
6.9276059e-08
6.9463739e-08
6.9644947e-08
6.9817385e-08
6.997889e-08
7.0127528e-08
7.0261819e-08
7.0381447e-08
7.0489147e-08
7.0594793e-08
7.0721469e-08
7.0907853e-08
7.1191621e-08
7.155298e-08
7.1787998e-08
6.9693e-08
6.9804025e-08
6.9930217e-08
7.0069911e-08
7.0221252e-08
7.0382225e-08
7.0550692e-08
7.0724422e-08
7.0901124e-08
7.107847e-08
7.1254137e-08
7.1425826e-08
7.1591299e-08
7.1748408e-08
7.1895139e-08
7.2029693e-08
7.2150725e-08
7.2258062e-08
7.2354638e-08
7.2450657e-08
7.256975e-08
7.275125e-08
7.3032886e-08
7.3392279e-08
7.3615358e-08
7.1777171e-08
7.1879013e-08
7.1994782e-08
7.2122933e-08
7.2261741e-08
7.240933e-08
7.2563711e-08
7.2722807e-08
7.288448e-08
7.3046566e-08
7.3206898e-08
7.3363335e-08
7.3513791e-08
7.3656265e-08
7.3788881e-08
7.390997e-08
7.4018314e-08
7.4113883e-08
7.4199799e-08
7.4286596e-08
7.4398454e-08
7.457539e-08
7.4855274e-08
7.5213375e-08
7.5426322e-08
7.3818971e-08
7.3912095e-08
7.4017969e-08
7.4135162e-08
7.426207e-08
7.4396952e-08
7.4537955e-08
7.4683148e-08
7.4830542e-08
7.4978123e-08
7.5123875e-08
7.5265804e-08
7.540197e-08
7.553051e-08
7.5649678e-08
7.5757932e-08
7.5854173e-08
7.5938504e-08
7.6014231e-08
7.6092204e-08
7.6197138e-08
7.6369738e-08
7.6648063e-08
7.7005222e-08
7.720899e-08
7.5807234e-08
7.5892108e-08
7.5988617e-08
7.6095438e-08
7.6211084e-08
7.6333936e-08
7.6462275e-08
7.6594303e-08
7.6728174e-08
7.6862015e-08
7.699395e-08
7.7122128e-08
7.7244742e-08
7.7360061e-08
7.7466464e-08
7.7562525e-08
7.764726e-08
7.7720895e-08
7.7786909e-08
7.7856437e-08
7.7954684e-08
7.8122959e-08
7.8399401e-08
7.8754823e-08
7.8947791e-08
7.7730201e-08
7.7807294e-08
7.7894973e-08
7.7992016e-08
7.8097044e-08
7.8208554e-08
7.832495e-08
7.8444563e-08
7.8565678e-08
7.8686555e-08
7.8805452e-08
7.8920648e-08
7.9030464e-08
7.9133292e-08
7.9227629e-08
7.9312158e-08
7.9386002e-08
7.94495e-08
7.9506287e-08
7.9567754e-08
7.9659522e-08
7.9823383e-08
8.0097376e-08
8.0449661e-08
8.062843e-08
7.9575644e-08
7.9645435e-08
7.9724827e-08
7.9812693e-08
7.9907756e-08
8.0008623e-08
8.0113812e-08
8.0221774e-08
8.0330916e-08
8.0439622e-08
8.0546276e-08
8.0649277e-08
8.0747069e-08
8.0838157e-08
8.0921146e-08
8.0994823e-08
8.105841e-08
8.1112354e-08
8.1160428e-08
8.121425e-08
8.1299803e-08
8.1459257e-08
8.1730351e-08
8.2078133e-08
8.2235628e-08
8.1331022e-08
8.1393995e-08
8.1465653e-08
8.1544957e-08
8.1630723e-08
8.1721661e-08
8.1816394e-08
8.1913485e-08
8.2011455e-08
8.2108804e-08
8.220403e-08
8.2295648e-08
8.2382211e-08
8.2462331e-08
8.2534715e-08
8.2598244e-08
8.2652234e-08
8.2697229e-08
8.2737136e-08
8.2783788e-08
8.2863502e-08
8.3018809e-08
8.3287231e-08
8.3631375e-08
8.3771673e-08
8.2983673e-08
8.3040325e-08
8.3104815e-08
8.3176184e-08
8.3253337e-08
8.3335076e-08
8.3420124e-08
8.3507145e-08
8.3594767e-08
8.3681596e-08
8.3766234e-08
8.3847303e-08
8.3923458e-08
8.3993409e-08
8.4055956e-08
8.4110067e-08
8.4155144e-08
8.4191824e-08
8.4224143e-08
8.4264142e-08
8.4338478e-08
8.4490063e-08
8.4756355e-08
8.5098084e-08
8.5228065e-08
8.452111e-08
8.4571949e-08
8.4629849e-08
8.4693927e-08
8.4763169e-08
8.4836461e-08
8.4912617e-08
8.4990395e-08
8.5068517e-08
8.5145687e-08
8.5220606e-08
8.5291989e-08
8.5358586e-08
8.5419196e-08
8.5472702e-08
8.5518155e-08
8.5555032e-08
8.558406e-08
8.5609393e-08
8.5643278e-08
8.5712706e-08
8.586097e-08
8.6125458e-08
8.6465001e-08
8.6584698e-08
8.5931605e-08
8.5977151e-08
8.6029057e-08
8.6086507e-08
8.6148561e-08
8.6214183e-08
8.6282267e-08
8.6351655e-08
8.6421155e-08
8.6489561e-08
8.6555661e-08
8.6618257e-08
8.6676182e-08
8.6728315e-08
8.6773614e-08
8.6811201e-08
8.6840626e-08
8.6862692e-08
8.6881666e-08
8.6909983e-08
8.6974943e-08
8.7120178e-08
8.7382957e-08
8.7720123e-08
8.7829113e-08
8.7205625e-08
8.7246416e-08
8.7292943e-08
8.7344453e-08
8.7400073e-08
8.7458835e-08
8.7519702e-08
8.7581591e-08
8.7643389e-08
8.7703966e-08
8.7762192e-08
8.7816947e-08
8.7867136e-08
8.7911707e-08
8.7949681e-08
8.7980243e-08
8.8003006e-08
8.801884e-08
8.8032108e-08
8.8055401e-08
8.8116272e-08
8.8258615e-08
8.8519519e-08
8.8853967e-08
8.8952399e-08
8.8339207e-08
8.8375801e-08
8.8417592e-08
8.8463887e-08
8.8513871e-08
8.8566634e-08
8.8621195e-08
8.8676535e-08
8.8731605e-08
8.8785351e-08
8.8836717e-08
8.8884653e-08
8.8928123e-08
8.8966126e-08
8.899773e-08
8.9022174e-08
8.9039126e-08
8.9049515e-08
8.9057769e-08
8.9076584e-08
8.9133656e-08
8.9272989e-08
8.9531421e-08
8.9862488e-08
8.9951386e-08
8.9339905e-08
8.9372894e-08
8.9410633e-08
8.9452493e-08
8.9497709e-08
8.9545413e-08
8.9594664e-08
8.9644483e-08
8.9693883e-08
8.9741883e-08
8.9787502e-08
8.9829757e-08
8.986765e-08
8.9900199e-08
8.9926494e-08
8.9945821e-08
8.9957897e-08
8.9963699e-08
8.9967684e-08
8.9982558e-08
9.0035961e-08
9.0171665e-08
9.0425895e-08
9.0750809e-08
9.0827915e-08
9.0231253e-08
9.0261272e-08
9.02957e-08
9.0333976e-08
9.0375386e-08
9.041908e-08
9.0464116e-08
9.0509542e-08
9.0554421e-08
9.0597857e-08
9.0638956e-08
9.0676799e-08
9.0710399e-08
9.0738745e-08
9.0760909e-08
9.077621e-08
9.0784412e-08
9.0786539e-08
9.0787031e-08
9.0798427e-08
9.0847939e-08
9.0978421e-08
9.1224656e-08
9.1537268e-08
9.1596846e-08
9.1039187e-08
9.1066912e-08
9.1098819e-08
9.1134427e-08
9.1173078e-08
9.1213933e-08
9.1255924e-08
9.1298135e-08
9.1339688e-08
9.1379787e-08
9.1417644e-08
9.1452405e-08
9.1483061e-08
9.1508508e-08
9.1527753e-08
9.1540117e-08
9.1545356e-08
9.1544657e-08
9.1542369e-08
9.1550561e-08
9.1595339e-08
9.1717382e-08
9.1948405e-08
9.2237197e-08
9.2269395e-08
9.1727481e-08
9.1753588e-08
9.1783753e-08
9.1817598e-08
9.1854581e-08
9.1893996e-08
9.1934094e-08
9.1974182e-08
9.2013513e-08
9.2051405e-08
9.2087179e-08
9.2120042e-08
9.2148937e-08
9.2172629e-08
9.2189999e-08
9.2200255e-08
9.2202873e-08
9.2199874e-08
9.2195345e-08
9.2200377e-08
9.2238958e-08
9.2347703e-08
9.2552685e-08
9.2800511e-08
9.2787193e-08
9.1998172e-08
9.2023208e-08
9.2052241e-08
9.208507e-08
9.2121538e-08
9.2161599e-08
9.2200835e-08
9.2239528e-08
9.2277375e-08
9.2313854e-08
9.2348334e-08
9.238004e-08
9.2407882e-08
9.2430498e-08
9.244656e-08
9.2454755e-08
9.2453243e-08
9.244768e-08
9.2441215e-08
9.2443122e-08
9.2474044e-08
9.2564326e-08
9.273193e-08
9.2928795e-08
9.2894139e-08
)
;

boundaryField
{
    Walls
    {
        type            nutUWallFunction;
        Cmu             0.09;
        kappa           0.41;
        E               9.8;
        value           uniform 0;
    }
    Inlet
    {
        type            calculated;
        value           nonuniform List<scalar> 3(1.5242925e-05 3.1061904e-05 7.5310151e-07);
    }
    Outlet
    {
        type            calculated;
        value           nonuniform List<scalar> 
86
(
0
0
0
0
0
0
0
0
0
0
0
0
0
0
0
0
0
0
0
0
0
0
0
0
0
0
0
0
0
0
2.3265779e-06
1.8903292e-06
8.6275426e-07
0
0
0
0
3.6605807e-08
3.6966447e-08
0
0
0
0
0
4.3088394e-08
4.4269327e-08
4.5496697e-08
4.6783714e-08
4.8139254e-08
4.9561702e-08
5.1038287e-08
5.2567465e-08
5.4145365e-08
5.5770545e-08
5.7433305e-08
5.9137955e-08
6.0879668e-08
6.2649048e-08
6.4450213e-08
6.6271559e-08
6.8105638e-08
0
0
0
0
0
0
0
0
0
0
0
0
0
0
0
0
0
0
0
0
0
0
0
7.9478305e-07
1.8026466e-06
)
;
    }
    Front
    {
        type            wedge;
    }
    Back
    {
        type            wedge;
    }
    defaultFaces
    {
        type            empty;
    }
}


// ************************************************************************* //
