/*--------------------------------*- C++ -*----------------------------------*\
| =========                 |                                                 |
| \\      /  F ield         | OpenFOAM: The Open Source CFD Toolbox           |
|  \\    /   O peration     | Version:  4.0                                   |
|   \\  /    A nd           | Web:      www.OpenFOAM.org                      |
|    \\/     M anipulation  |                                                 |
\*---------------------------------------------------------------------------*/
FoamFile
{
    version     2.0;
    format      ascii;
    class       volScalarField;
    location    "0.06";
    object      omega;
}
// * * * * * * * * * * * * * * * * * * * * * * * * * * * * * * * * * * * * * //

dimensions      [0 0 -1 0 0 0 0];

internalField   nonuniform List<scalar> 
1740
(
61.650077
669.72953
14919.48
174.93025
1459.0315
15028.733
290.09175
1937.3366
15113.53
388.18951
2241.6209
15196.36
512.9828
2549.9479
15268.583
624.08931
2843.6555
15321.161
735.13619
3022.0037
15369.463
859.43143
3244.1018
15410.591
969.46803
3418.0051
15441.996
1045.6315
3533.3264
15466.357
1146.3005
3622.1268
15489.352
1245.7874
3721.0512
15508.78
1342.0737
3789.4412
15517.982
1420.6476
3838.5657
15531.087
1485.1299
3936.9378
15547.216
1558.5661
4012.7148
15547.394
1622.1764
4022.994
15554.477
1684.0164
4034.9742
15562.526
1736.1811
4105.7324
15558.754
1762.8922
4122.4848
15564.505
1791.8596
4110.0769
15568.967
1820.9586
4084.3313
15563.499
1840.5218
4050.4933
15568.762
1869.6231
4092.0233
15575.383
1894.8451
4138.1661
15568.733
1924.7277
4132.2189
15569.809
1952.6533
4143.1862
15571.076
1969.7483
4216.8767
15566.495
2001.903
4232.7264
15557.233
2132.4078
4301.9801
15496.928
3191.5116
4578.373
10694.473
3326.8102
4233.0292
5915.0439
1571.4474
1858.2497
2150.5973
827.32632
902.13335
959.96933
487.42096
505.87134
516.4453
319.95333
324.01926
324.75409
240.60588
241.33059
240.80654
210.09626
210.26706
210.10391
201.54745
201.78719
202.03012
198.85118
199.07694
199.2716
196.30114
196.44876
196.56563
194.49594
194.56324
194.60251
193.28734
193.3088
193.30391
192.41255
192.41272
192.38822
191.70377
191.69481
191.66291
191.0752
191.06261
191.0287
190.48533
190.47154
190.43796
189.91389
189.90001
189.86775
189.35069
189.33722
189.30667
188.79043
188.7776
188.74889
188.23038
188.21827
188.19141
187.66914
187.65779
187.63272
187.10614
187.09553
187.07218
186.54129
186.53141
186.50969
185.97486
185.96568
185.94552
185.4074
185.39888
185.38019
184.83967
184.83177
184.81447
184.27262
184.26532
184.24933
183.70741
183.70067
183.68592
183.14537
183.13916
183.12557
182.58799
182.58229
182.56981
182.03697
182.03175
182.0203
181.49415
181.48937
181.47891
180.96153
180.95717
180.94763
180.44125
180.43729
180.42861
179.9356
179.932
179.92414
179.44695
179.44371
179.4366
178.9778
178.97487
178.96848
178.53062
178.528
178.52226
178.10784
178.10549
178.10036
177.71116
177.70907
177.70449
177.33931
177.33746
177.33338
176.97886
176.97721
176.9736
176.5717
176.57024
176.56706
175.91221
175.91093
175.90814
174.36325
174.36215
174.35976
170.19045
170.18953
170.1876
159.30607
159.30537
159.30396
133.67934
133.67888
133.67801
81.176007
81.175781
81.175363
13478.575
13533.214
5975.8122
5316.6391
2081.1
1879.033
925.18314
857.96727
500.38217
473.95901
317.29027
306.12097
237.79692
233.49539
209.28017
208.04321
202.12821
202.05259
199.30204
199.15871
196.55796
196.42693
194.56452
194.45127
193.25037
193.15004
192.32963
192.23862
191.60439
191.5207
190.9724
190.89495
190.38468
190.31278
189.81771
189.75087
189.25987
189.19768
188.70521
188.64735
188.15071
188.09687
187.59483
187.54476
187.03695
186.99042
186.47697
186.43375
185.91515
185.87504
185.35204
185.31487
184.78842
184.75401
184.22525
184.19345
183.66371
183.63437
183.10512
183.0781
182.55101
182.52618
182.00307
181.9803
181.46315
181.44232
180.93326
180.91426
180.41554
180.39826
179.91229
179.89662
179.4259
179.41172
178.95883
178.94606
178.5136
178.50213
178.09261
178.08233
177.69758
177.6884
177.32723
177.31906
176.96815
176.96089
176.56224
176.55584
175.90394
175.89837
174.35621
174.35156
170.18479
170.18127
159.30201
159.29966
133.67676
133.6753
81.174662
81.175677
12058.163
2045.0182
684.95139
361.90103
266.60445
236.08949
224.40854
218.14909
213.61282
209.86259
206.66372
203.93697
201.638
199.73031
198.17598
196.92959
195.93411
195.10691
194.28926
193.1048
190.64563
184.94966
172.56463
149.63486
114.95708
12058.121
2041.2119
700.05506
377.8819
284.91386
255.73113
243.06897
234.94251
228.34219
222.57069
217.47649
213.01627
209.17358
205.93047
203.2539
201.08597
199.34166
197.89448
196.5146
194.68978
191.22309
183.4884
166.33054
130.90855
63.826849
12058.165
2029.989
718.72326
434.40104
364.77644
338.42835
321.2091
306.28066
292.37965
279.32709
267.12816
255.83075
245.53845
236.37355
228.4172
221.67563
216.0676
211.41173
207.35026
203.13289
197.15986
186.18906
164.29459
122.50891
52.567445
12058.523
2028.1045
817.27326
613.32023
558.19101
523.06115
491.03248
460.76624
432.44481
406.06771
381.34715
358.1276
336.45343
316.53063
298.4457
282.24443
267.89705
255.36316
244.44199
234.54423
224.27845
210.82023
188.94564
150.11339
80.848455
12061.559
2147.1051
1232.3172
1082.2678
996.95428
917.3441
841.32461
771.6506
708.88914
652.6383
601.21534
554.15409
511.2763
472.89411
438.62475
408.01001
380.47104
355.868
334.02931
314.7002
297.3231
280.85838
263.19148
242.11294
218.18653
12087.17
3814.54
2800.9574
2399.7035
2095.3126
1831.1125
1599.9135
1400.6128
1229.5737
1082.1001
955.27592
846.64867
753.884
674.81826
607.41686
549.8775
500.66568
458.57279
422.54786
391.69295
365.15223
342.2037
321.80852
303.60823
287.65864
10355.08
7893.5463
6090.0893
4784.0885
3817.9719
3085.8581
2519.4669
2074.9301
1722.7967
1441.9383
1216.6536
1035.1819
888.63302
770.06029
673.85538
595.47949
531.28201
478.36685
434.44701
397.73572
366.80669
340.57461
318.05848
298.80723
283.34009
4076.5914
3296.8395
2836.9677
2464.7011
2149.4509
1873.4274
1632.9171
1425.9457
1248.3176
1096.3893
966.59495
855.8507
761.47939
681.01648
612.2939
553.60877
503.50211
460.71147
424.13185
392.82522
365.91058
342.65218
322.01946
303.65676
287.64336
1592.248
1400.9858
1273.6925
1168.006
1068.6006
974.00842
886.94128
809.56849
740.94322
678.75507
622.37682
571.97725
527.2856
487.46079
451.49528
419.14852
390.2051
364.44522
341.62362
321.43451
303.29613
286.19119
268.07346
246.83775
222.89124
776.29379
715.05535
670.75331
631.91934
593.17029
554.30939
516.95014
482.71052
451.30088
422.10012
394.90609
369.82677
346.85047
325.8792
306.76327
289.50243
274.14125
260.66849
248.8807
238.16499
227.09808
212.85288
190.30316
151.16676
82.070151
445.26113
422.50314
404.72501
388.29708
371.16612
353.24478
335.31903
318.25296
302.29955
287.42322
273.63086
261.02345
249.70317
239.71626
231.05766
223.68704
217.51884
212.36678
207.8349
203.09153
196.42377
184.50737
161.55125
119.27862
50.901726
294.44194
284.61355
276.45308
268.76834
260.79677
252.52426
244.33368
236.63524
229.63324
223.36302
217.81777
212.99546
208.88784
205.45834
202.64473
200.36537
198.52234
196.97871
195.48319
193.48367
189.73596
181.6132
164.12158
128.79706
62.363103
228.99599
224.98238
221.43633
218.05395
214.65549
211.28246
208.08761
205.20728
202.70108
200.55564
198.73631
197.2094
195.94426
194.90697
194.06216
193.37394
192.80299
192.28976
191.70841
190.74084
188.61079
183.66818
173.0011
152.41324
110.27443
206.64582
205.20327
203.70919
202.14305
200.54329
198.99765
197.59101
196.36944
195.34774
194.49018
193.76227
193.1314
192.59144
192.14293
191.76658
191.44651
191.16647
190.89803
190.56689
189.96786
188.59019
185.36171
178.54655
166.62629
151.93637
201.72773
201.08318
200.15815
199.00754
197.69585
196.37835
195.19484
194.20523
193.44208
192.83579
192.34201
191.93102
191.58321
191.28367
191.02191
190.79035
190.58076
190.37515
190.11951
189.65321
188.54397
185.76844
179.28003
166.1423
145.23308
198.81797
198.23904
197.44402
196.49886
195.50361
194.56242
193.74315
193.06388
192.51249
192.06931
191.69777
191.37763
191.09626
190.84556
190.62034
190.41684
190.2299
190.04506
189.81282
189.3698
188.21563
184.94041
175.93636
152.9656
97.9704
196.16238
195.73792
195.18167
194.54942
193.90437
193.29782
192.75782
192.2903
191.88829
191.53963
191.23562
190.96344
190.71654
190.49123
190.28531
190.09696
189.92237
189.74759
189.51964
189.04991
187.72007
183.68954
172.10195
142.09634
75.361911
194.25864
193.97388
193.61491
193.2125
192.79834
192.39688
192.02212
191.67883
191.3661
191.08043
190.81794
190.57711
190.35393
190.147
189.95568
189.77923
189.61438
189.44656
189.21716
188.71184
187.22151
182.66069
169.73264
137.47558
70.508619
193.00179
192.80015
192.55427
192.27919
191.99033
191.7002
191.41714
191.14559
190.8873
190.64247
190.41033
190.19274
189.98813
189.79635
189.61763
189.45177
189.29571
189.13405
188.90366
188.37416
186.79605
182.0338
168.92288
137.4941
74.540433
192.11535
191.95781
191.77081
191.56194
191.33926
191.10985
190.87917
190.65105
190.42798
190.21161
190.00302
189.80326
189.614
189.43536
189.26798
189.1119
188.96412
188.8086
188.5798
188.04203
186.44658
181.72679
169.07673
139.60202
80.713077
191.41256
191.27954
191.12457
190.952
190.76654
190.57268
190.3743
190.17457
189.97601
189.78068
189.5902
189.40586
189.22992
189.06303
188.90604
188.75914
188.61927
188.47009
188.24534
187.71127
186.14101
181.57014
169.49996
141.60817
85.888882
190.79724
190.67962
190.54419
190.39379
190.2316
190.06079
189.88431
189.70481
189.52465
189.34588
189.17035
188.99967
188.83537
188.67913
188.53179
188.39355
188.26131
188.11855
187.89932
187.37449
185.84224
181.42295
169.79064
142.68973
87.94916
190.22318
190.1166
189.9947
189.85962
189.71373
189.55949
189.3993
189.23543
189.07002
188.90504
188.74231
188.58351
188.43019
188.28372
188.14543
188.01542
187.89053
187.75419
187.54099
187.02609
185.52589
181.20876
169.79804
142.85333
87.868091
189.66811
189.57028
189.45883
189.33549
189.2022
189.06098
188.91387
188.76288
188.60995
188.45693
188.30555
188.15746
188.01416
187.87698
187.74725
187.62508
187.50729
187.37727
187.17003
186.66323
185.18143
180.90469
169.5254
142.38155
86.680559
189.12095
189.03058
188.92782
188.8142
188.69136
188.56105
188.42508
188.28523
188.14327
188.00093
187.85985
187.7216
187.58764
187.45929
187.33763
187.22296
187.11199
186.98812
186.78646
186.28519
184.80867
180.52656
169.08004
141.69031
85.617884
188.57609
188.49231
188.39717
188.292
188.17827
188.05753
187.93139
187.80148
187.66944
187.53685
187.40527
187.27617
187.15096
187.0309
186.91699
186.8095
186.70512
186.58719
186.39072
185.89309
184.41388
180.10533
168.58087
141.13473
85.702899
188.03064
187.95286
187.86458
187.76699
187.66144
187.54932
187.43209
187.31126
187.18832
187.06476
186.94203
186.82152
186.70456
186.59236
186.48589
186.38524
186.28719
186.17502
185.98354
185.48885
184.00457
179.66588
168.07933
140.70476
85.914677
187.4832
187.41094
187.32894
187.23831
187.14024
187.03603
186.92701
186.81457
186.7001
186.58497
186.47054
186.35813
186.24899
186.14425
186.04483
185.95078
185.85883
185.75223
185.56567
185.0742
183.58644
179.22416
167.59274
140.3187
86.559026
186.93321
186.86608
186.7899
186.7057
186.61457
186.51769
186.41632
186.31171
186.20515
186.09795
185.99135
185.8866
185.78487
185.68724
185.59456
185.50683
185.42073
185.31954
185.13794
184.65065
183.16427
178.79521
167.15266
139.95085
86.598431
186.38062
186.31828
186.24754
186.16933
186.08467
185.99466
185.90043
185.80317
185.70407
185.60433
185.50514
185.40766
185.31298
185.22212
185.13587
185.0542
184.9737
184.87772
184.70107
184.21897
182.73936
178.38336
166.77901
139.7139
87.141939
185.82575
185.7679
185.70225
185.62966
185.55108
185.4675
185.37999
185.28964
185.19757
185.1049
185.01273
184.92214
184.83417
184.74976
184.66965
184.59376
184.51864
184.42762
184.25571
183.77905
182.30914
177.97803
166.43393
139.44505
87.087566
185.26918
185.21555
185.15469
185.08738
185.0145
184.93698
184.85581
184.77199
184.68657
184.60058
184.51507
184.43103
184.34943
184.27118
184.19693
184.12656
184.05656
183.9702
183.80259
183.33068
181.87003
177.56571
166.088
139.17891
86.75732
184.71171
184.66206
184.60571
184.54337
184.47587
184.40407
184.32887
184.25122
184.17209
184.09244
184.01324
183.93542
183.8599
183.7875
183.71885
183.65374
183.58862
183.50663
183.34281
182.87459
181.4212
177.14202
165.7417
138.99313
86.724052
184.15435
184.10845
184.05634
183.9987
183.93627
183.86986
183.80031
183.7285
183.65532
183.58168
183.50847
183.43657
183.36682
183.3
183.23668
183.17659
183.11611
183.03826
182.87785
182.41247
180.96403
176.70342
165.36014
138.70094
86.39145
183.59828
183.55591
183.50781
183.45459
183.39696
183.33564
183.27143
183.20514
183.1376
183.06965
183.00213
182.93584
182.87159
182.81008
182.75184
182.69654
182.64049
182.56656
182.40931
181.9462
180.50088
176.25266
164.94792
138.34766
86.360737
183.04486
183.00583
182.9615
182.91246
182.85935
182.80285
182.74369
182.68262
182.62042
182.55787
182.49573
182.43478
182.37574
182.31929
182.26588
182.21515
182.16332
182.09312
181.93877
181.47731
180.03297
175.79172
164.52283
138.02618
86.222955
182.49563
182.45974
182.41898
182.37388
182.32504
182.27308
182.2187
182.16257
182.10542
182.04797
181.99095
181.93505
181.88097
181.82931
181.78049
181.73411
181.6863
181.61962
181.46792
181.00734
179.56107
175.31672
164.05792
137.63765
85.859427
181.95228
181.91935
181.88195
181.84058
181.79576
181.7481
181.69822
181.64676
181.59439
181.54177
181.48958
181.43848
181.38909
181.34198
181.29753
181.25528
181.21128
181.14795
180.99869
180.53866
179.08955
174.84024
163.59329
137.26576
85.356696
181.41668
181.38655
181.35232
181.31444
181.27343
181.22982
181.18418
181.13713
181.08926
181.04121
180.9936
180.94702
180.90208
180.85928
180.81897
180.78063
180.74026
180.68009
180.5331
180.07334
178.62055
174.36305
163.11593
136.84354
85.097343
180.89085
180.86335
180.8321
180.79752
180.76008
180.72028
180.67865
180.63575
180.59213
180.54839
180.50509
180.46279
180.42205
180.38333
180.34693
180.3123
180.27535
180.21817
180.07324
179.61338
178.15558
173.88468
162.61743
136.32964
84.582597
180.37696
180.35193
180.32348
180.29199
180.25791
180.22169
180.18383
180.14482
180.10521
180.06552
180.02629
179.98802
179.95123
179.91636
179.88366
179.85252
179.81881
179.76445
179.62146
179.16137
177.69831
173.41269
162.11968
135.80213
84.062517
179.87729
179.85457
179.82874
179.80016
179.76923
179.73637
179.70203
179.66669
179.63083
179.59495
179.55953
179.52505
179.49198
179.46073
179.4315
179.40366
179.37302
179.32134
179.18028
178.72037
177.2536
172.95784
161.65086
135.33759
83.687548
179.39425
179.37368
179.3503
179.32444
179.29645
179.26673
179.23569
179.20378
179.17143
179.13911
179.10726
179.07633
179.04674
179.01888
178.99292
178.96818
178.94042
178.89132
178.75226
178.29317
176.82486
172.52432
161.21206
134.90804
83.340791
178.9303
178.91174
178.89065
178.86731
178.84206
178.81526
178.7873
178.75858
178.72951
178.7005
178.67199
178.64437
178.61804
178.59334
178.57042
178.54859
178.52353
178.47688
178.33986
177.88202
176.41357
172.11112
160.79568
134.48648
82.938329
178.48796
178.47127
178.4523
178.4313
178.40859
178.3845
178.35939
178.33363
178.30759
178.28167
178.25625
178.2317
178.2084
178.18664
178.16656
178.14742
178.12489
178.08054
177.94544
177.48883
176.02012
171.71351
160.3779
133.97212
81.860995
178.06963
178.05467
178.03764
178.01881
177.99845
177.97686
177.95438
177.93135
177.90811
177.88503
177.86247
177.84076
177.82024
177.80121
177.78374
177.7671
177.74691
177.70466
177.57128
177.11553
175.64565
171.33237
159.97201
133.47915
80.884884
177.67705
177.66367
177.64844
177.63158
177.61337
177.59407
177.574
177.55347
177.53281
177.51234
177.49238
177.47327
177.45532
177.43877
177.42371
177.40935
177.3913
177.35096
177.21906
176.76388
175.29251
170.97365
159.60134
133.09319
80.532348
177.30895
177.29701
177.28341
177.26836
177.2521
177.23489
177.21701
177.19875
177.18042
177.16232
177.14474
177.12799
177.11235
177.09806
177.08518
177.0729
177.05678
177.01815
176.88757
176.43286
174.9604
170.63847
159.26398
132.77019
80.292095
176.95191
176.94129
176.92918
176.91578
176.90128
176.88593
176.87001
176.8538
176.83757
176.82161
176.80616
176.79151
176.77791
176.76562
176.75468
176.74424
176.72985
176.69276
176.56337
176.10924
174.63657
170.31455
158.94386
132.46731
80.058197
176.54791
176.53853
176.52782
176.51592
176.50301
176.48931
176.4751
176.46069
176.44636
176.43233
176.41878
176.40591
176.39401
176.38338
176.37407
176.36523
176.35234
176.31661
176.18836
175.73515
174.26378
169.94604
158.58654
132.1258
79.760958
175.8915
175.8834
175.87411
175.86371
175.85229
175.84002
175.82724
175.81438
175.80178
175.78962
175.77778
175.76631
175.75562
175.74617
175.73805
175.73043
175.71872
175.68416
175.55715
175.10558
173.63814
169.33385
158.01538
131.6499
79.460216
174.34593
174.33936
174.33184
174.32331
174.31366
174.30276
174.29108
174.27947
174.26863
174.25867
174.24868
174.23826
174.22811
174.21909
174.21141
174.20429
174.1931
174.15938
174.03404
173.58578
172.12689
167.85082
156.62254
130.49653
78.793651
170.1772
170.17283
170.16811
170.16293
170.15669
170.14817
170.13745
170.12672
170.11797
170.11154
170.10451
170.09525
170.08512
170.07568
170.06689
170.05837
170.04508
170.01067
169.88821
169.44835
168.01192
163.80613
152.80077
127.29476
76.952987
159.29745
159.29619
159.2964
159.2984
159.30116
159.3017
159.29334
159.28319
159.27715
159.277
159.27569
159.26912
159.2596
159.24916
159.23607
159.21963
159.19143
159.14819
159.03007
158.61234
157.23922
153.22596
142.80763
118.92537
72.261405
133.67637
133.67867
133.68594
133.70088
133.72678
133.76833
133.77104
133.76246
133.75958
133.76794
133.77528
133.77416
133.76763
133.75653
133.73378
133.69041
133.59404
133.51396
133.39955
133.03544
131.83135
128.32531
119.36564
99.306462
60.766922
81.189152
81.194592
81.205634
81.231065
81.294128
81.443807
81.477004
81.474622
81.474452
81.486366
81.498091
81.501868
81.500031
81.490773
81.459643
81.368022
81.101135
80.959278
80.859955
80.620041
79.831471
77.546428
71.844235
59.899004
38.021409
)
;

boundaryField
{
    Walls
    {
        Cmu             0.09;
        kappa           0.41;
        E               9.8;
        beta1           0.075;
        type            omegaWallFunction;
        value           nonuniform List<scalar> 
38
(
12058.163
12058.121
12058.165
12058.523
12061.559
12087.17
13478.575
13533.214
14919.48
15028.733
15113.53
15196.36
15268.583
15321.161
15369.463
15410.591
15441.996
15466.357
15489.352
15508.78
15517.982
15531.087
15547.216
15547.394
15554.477
15562.526
15558.754
15564.505
15568.967
15563.499
15568.762
15575.383
15568.733
15569.809
15571.076
15566.495
15557.233
15496.928
)
;
    }
    Inlet
    {
        type            turbulentMixingLengthDissipationRateInlet;
        mixingLength    0.03;
        phi             phi;
        k               k;
        value           nonuniform List<scalar> 3(0.0050753458 0.0043798216 0.0048501442);
    }
    Outlet
    {
        type            inletOutlet;
        inletValue      uniform 1e-05;
        value           nonuniform List<scalar> 
86
(
1e-05
1e-05
1e-05
1e-05
1e-05
1e-05
1e-05
1e-05
1e-05
1e-05
1e-05
1e-05
1e-05
1e-05
1e-05
1e-05
1e-05
1e-05
1e-05
1e-05
1e-05
1e-05
1e-05
1e-05
1e-05
1e-05
1e-05
1e-05
1e-05
1e-05
283.34009
287.64336
222.89124
1e-05
1e-05
1e-05
1e-05
151.93637
145.23308
1e-05
1e-05
1e-05
1e-05
1e-05
85.888882
87.94916
87.868091
86.680559
85.617884
85.702899
85.914677
86.559026
86.598431
87.141939
87.087566
86.75732
86.724052
86.39145
86.360737
86.222955
85.859427
1e-05
1e-05
1e-05
1e-05
1e-05
1e-05
1e-05
1e-05
1e-05
1e-05
1e-05
1e-05
1e-05
1e-05
1e-05
1e-05
1e-05
1e-05
1e-05
1e-05
1e-05
1e-05
1e-05
218.18653
287.65864
)
;
    }
    Front
    {
        type            wedge;
    }
    Back
    {
        type            wedge;
    }
    defaultFaces
    {
        type            empty;
    }
}


// ************************************************************************* //
