/*--------------------------------*- C++ -*----------------------------------*\
| =========                 |                                                 |
| \\      /  F ield         | OpenFOAM: The Open Source CFD Toolbox           |
|  \\    /   O peration     | Version:  4.0                                   |
|   \\  /    A nd           | Web:      www.OpenFOAM.org                      |
|    \\/     M anipulation  |                                                 |
\*---------------------------------------------------------------------------*/
FoamFile
{
    version     2.0;
    format      ascii;
    class       surfaceScalarField;
    location    "0.06";
    object      phi;
}
// * * * * * * * * * * * * * * * * * * * * * * * * * * * * * * * * * * * * * //

dimensions      [0 3 -1 0 0 0 0];

internalField   nonuniform List<scalar> 
3364
(
2.3103022e-11
1.574058e-08
-6.068294e-10
5.1714168e-08
8.4413326e-08
-4.3116498e-10
1.6171731e-08
-1.3233819e-09
5.2606423e-08
8.3089958e-08
-4.7322875e-10
1.6644933e-08
1.4403912e-10
5.1989213e-08
8.3234008e-08
1.3799331e-10
1.6506887e-08
1.6741458e-09
5.0453034e-08
8.4908136e-08
7.1944297e-11
1.6434914e-08
7.1686871e-10
4.9808051e-08
8.5624957e-08
3.9654738e-11
1.6395241e-08
-5.7631607e-11
4.99053e-08
8.5567291e-08
1.4638075e-10
1.6248819e-08
7.817253e-12
5.0043809e-08
8.5575067e-08
-6.8434336e-10
1.6933139e-08
-7.6693652e-10
5.0126344e-08
8.4808083e-08
-7.1762797e-10
1.7650752e-08
-8.8730339e-10
5.0295989e-08
8.3920752e-08
6.2443407e-11
1.7588253e-08
-7.0304338e-10
5.1061454e-08
8.3217692e-08
2.3023109e-10
1.7357991e-08
-1.525958e-10
5.1444228e-08
8.3065053e-08
2.8081201e-10
1.7077147e-08
6.4687369e-10
5.10781e-08
8.3711888e-08
-5.9214313e-11
1.7136308e-08
1.0634744e-09
4.9955372e-08
8.4775341e-08
-2.9131338e-11
1.7165407e-08
2.1395537e-10
4.9712239e-08
8.4989247e-08
1.28639e-10
1.7036739e-08
-4.296876e-10
5.02705e-08
8.4559516e-08
2.0449782e-10
1.683219e-08
-1.6553656e-10
5.0640515e-08
8.4393961e-08
3.6647868e-10
1.6465666e-08
-1.6045275e-10
5.1167444e-08
8.423349e-08
-4.3127396e-10
1.6896923e-08
-2.5559961e-10
5.0991717e-08
8.3977847e-08
-5.0880482e-10
1.7405714e-08
-9.9303958e-10
5.1475912e-08
8.2984769e-08
7.5096206e-11
1.7330574e-08
-5.3886681e-10
5.2089853e-08
8.2445877e-08
-7.1630393e-11
1.7402139e-08
4.7899286e-10
5.1539205e-08
8.2924842e-08
1.5472721e-10
1.7247372e-08
3.547286e-10
5.1339167e-08
8.3279535e-08
3.8194671e-10
1.6865396e-08
2.1893846e-10
5.1502107e-08
8.3498423e-08
-3.4617938e-11
1.6899988e-08
5.5058439e-10
5.091684e-08
8.4048957e-08
3.4024534e-11
1.6865919e-08
-2.3750649e-10
5.1188334e-08
8.3811424e-08
-3.0272092e-10
1.7168597e-08
-6.8509604e-10
5.1570667e-08
8.3126303e-08
-9.4793732e-10
1.8116501e-08
-2.3226747e-10
5.0854951e-08
8.2893982e-08
-1.3766644e-10
1.8254126e-08
-7.5440012e-10
5.1471671e-08
8.2139554e-08
7.7094344e-10
1.7483206e-08
-6.0454531e-10
5.2847294e-08
8.1535021e-08
1.8265614e-09
1.5656852e-08
5.7778887e-09
4.889611e-08
8.7312886e-08
1.1361759e-08
4.2944487e-09
4.9370176e-08
1.0885812e-08
1.0271333e-08
1.2640916e-07
4.8081658e-09
-5.1418679e-10
1.7078904e-08
-1.3864079e-09
-1.6505443e-09
2.8998911e-08
-3.9714704e-10
-1.1700633e-10
-1.4489929e-09
-3.3449375e-10
-5.0557384e-10
-2.5938693e-09
-1.0566775e-10
-1.1323072e-11
-3.9829653e-10
-4.1827747e-11
-9.4665819e-11
-8.0916055e-10
-1.4188919e-11
2.8676661e-12
-6.1502546e-11
5.4908942e-12
-2.3687992e-12
-1.5379234e-10
1.2051037e-12
1.6622336e-12
2.3239655e-12
4.3712845e-12
3.7965134e-12
-3.841912e-12
2.3028407e-12
-6.4073933e-13
8.8736825e-12
-2.1999453e-12
-4.1252609e-12
1.679485e-11
9.3167092e-13
-1.572376e-12
3.6508225e-12
-4.9192302e-12
-8.3191051e-12
7.8443876e-12
9.7924877e-14
-1.670203e-12
1.6041489e-13
-4.98166e-12
-7.9478828e-12
-2.1076415e-13
-4.1726519e-13
-1.2528348e-12
-1.7561978e-12
-3.6425909e-12
-5.623563e-12
-4.0803401e-12
-4.196965e-13
-8.3306277e-13
-1.6878818e-12
-2.3742932e-12
-3.5689406e-12
-3.7423588e-12
-2.6110126e-13
-5.7191025e-13
-1.023749e-12
-1.6115706e-12
-2.3379118e-12
-2.2546913e-12
-1.3141875e-13
-4.4045839e-13
-4.9295328e-13
-1.2499874e-12
-1.804956e-12
-1.0258622e-12
-5.7050876e-14
-3.8338622e-13
-2.1997427e-13
-1.0870328e-12
-1.5985465e-12
-4.2635649e-13
-2.8646759e-14
-3.5472514e-13
-1.0981917e-13
-1.0058392e-12
-1.4575707e-12
-2.507743e-13
-3.6572652e-14
-3.1814253e-13
-1.4181781e-13
-9.0057804e-13
-1.3363212e-12
-2.6304953e-13
-3.4904195e-14
-2.8323154e-13
-1.2619188e-13
-8.0928032e-13
-1.2265583e-12
-2.3594308e-13
-2.750951e-14
-2.5571765e-13
-9.8292947e-14
-7.3849226e-13
-1.1374918e-12
-1.8735426e-13
-1.8525819e-14
-2.3718932e-13
-6.4379472e-14
-6.9263792e-13
-1.0781431e-12
-1.2372919e-13
-9.7431456e-15
-2.2744508e-13
-3.9030924e-14
-6.6335241e-13
-1.0363786e-12
-8.0801346e-14
-6.2804981e-15
-2.211645e-13
-2.2121115e-14
-6.4751618e-13
-1.0193872e-12
-3.9121593e-14
-1.5374874e-15
-2.1962764e-13
-3.0034334e-15
-6.4605598e-13
-1.0272554e-12
4.8535969e-15
1.8269372e-15
-2.2145568e-13
1.041019e-14
-6.5464578e-13
-1.0499548e-12
3.3097356e-14
3.2300404e-15
-2.2468713e-13
1.4921485e-14
-6.6634413e-13
-1.075199e-12
4.0153019e-14
2.4964339e-15
-2.2718513e-13
1.1866025e-14
-6.7572068e-13
-1.0965744e-12
3.3228836e-14
1.6607872e-15
-2.2884757e-13
8.1733125e-15
-6.8224004e-13
-1.1107001e-12
2.2286799e-14
2.2457327e-16
-2.2907382e-13
1.4580333e-15
-6.8348008e-13
-1.1166015e-12
7.3479045e-15
-1.1307693e-15
-2.279447e-13
-3.9998115e-15
-6.8061731e-13
-1.1142321e-12
-6.3801147e-15
-2.5519932e-15
-2.2539432e-13
-9.8245389e-15
-6.7335065e-13
-1.1041891e-12
-1.9877719e-14
-3.8114893e-15
-2.2158437e-13
-1.4898135e-14
-6.6226949e-13
-1.087656e-12
-3.1440638e-14
-4.856559e-15
-2.1672926e-13
-1.9204039e-14
-6.4792707e-13
-1.0651958e-12
-4.1672817e-14
-5.9918065e-15
-2.1073878e-13
-2.3743684e-14
-6.3017978e-13
-1.0368946e-12
-5.2052615e-14
-6.925525e-15
-2.0381444e-13
-2.7380899e-14
-6.097285e-13
-1.0041781e-12
-6.0104279e-14
-7.6413789e-15
-1.961741e-13
-3.0312509e-14
-5.8706097e-13
-9.6719807e-13
-6.7298552e-14
-8.2064952e-15
-1.8796849e-13
-3.2499961e-14
-5.627706e-13
-9.2728317e-13
-7.2420022e-14
-8.599248e-15
-1.7936997e-13
-3.4084796e-14
-5.3728765e-13
-8.8582431e-13
-7.5547992e-14
-8.7785487e-15
-1.70592e-13
-3.4935005e-14
-5.1113334e-13
-8.430606e-13
-7.7702277e-14
-8.803644e-15
-1.6178881e-13
-3.5109642e-14
-4.8482909e-13
-7.99935e-13
-7.8238086e-14
-8.6457811e-15
-1.5314337e-13
-3.4497216e-14
-4.5897905e-13
-7.5749531e-13
-7.6939161e-14
-8.3317698e-15
-1.4481186e-13
-3.3297213e-14
-4.3401471e-13
-7.1645879e-13
-7.4335482e-14
-7.9183579e-15
-1.368937e-13
-3.1598024e-14
-4.1033592e-13
-6.7751613e-13
-7.054204e-14
-7.2793316e-15
-1.2961452e-13
-2.9139225e-14
-3.8847671e-13
-6.4157841e-13
-6.5077997e-14
-6.5168866e-15
-1.2309775e-13
-2.610496e-14
-3.6888919e-13
-6.0918736e-13
-5.8496853e-14
-5.6941108e-15
-1.1740375e-13
-2.3029676e-14
-3.5155411e-13
-5.8052638e-13
-5.1691362e-14
-5.0769098e-15
-1.1232695e-13
-2.0062083e-14
-3.3656941e-13
-5.5589545e-13
-4.46937e-14
-4.1498962e-15
-1.081772e-13
-1.6433268e-14
-3.2428655e-13
-5.357366e-13
-3.6592865e-14
-3.0925592e-15
-1.0508483e-13
-1.2459874e-14
-3.1491979e-13
-5.203334e-13
-2.7863879e-14
-1.9838293e-15
-1.0310118e-13
-8.3957168e-15
-3.0850843e-13
-5.0984423e-13
-1.8885628e-14
-1.1746321e-15
-1.019267e-13
-4.3478132e-15
-3.0533564e-13
-5.0455045e-13
-9.6420839e-15
-1.93907e-16
-5.0936399e-16
-9.8626433e-16
1.3609026e-07
-9.6863736e-09
-8.7695857e-09
1.4485358e-07
2.0980022e-08
-1.6686823e-09
-1.5193582e-09
1.3729256e-08
-3.6531038e-09
-6.0932295e-10
-6.9543261e-10
-4.476884e-09
-1.2674781e-09
-1.5095562e-10
-2.0021198e-10
-1.7626369e-09
-2.9042035e-10
-1.4318535e-11
-1.9912975e-11
-4.7070452e-10
-2.1245065e-11
3.0849074e-12
6.736176e-12
-4.7892896e-11
2.5418182e-11
-5.5393797e-12
-4.1822773e-12
3.6335583e-11
1.3017469e-11
-1.0712876e-11
-1.1240851e-11
2.0075508e-11
-9.0771038e-13
-1.0015897e-11
-1.1061178e-11
-1.087356e-12
-6.94957e-12
-7.1464516e-12
-7.8839316e-12
-1.0126569e-11
-6.5638696e-12
-4.3247533e-12
-4.616908e-12
-9.8306673e-12
-3.8665299e-12
-2.7128116e-12
-2.628929e-12
-5.854386e-12
-1.7346194e-12
-2.0040103e-12
-1.8244292e-12
-2.5390747e-12
-6.3915566e-13
-1.791193e-12
-1.5583233e-12
-9.0525201e-13
-3.5667793e-13
-1.6852768e-12
-1.4999255e-12
-4.1507262e-13
-3.5341141e-13
-1.5949027e-12
-1.4870162e-12
-3.663163e-13
-3.5041331e-13
-1.4804231e-12
-1.462385e-12
-3.750402e-13
-2.6985479e-13
-1.3979189e-12
-1.4397876e-12
-2.9245243e-13
-1.6079446e-13
-1.3608572e-12
-1.4486435e-12
-1.5194559e-13
-1.0749628e-13
-1.3341719e-12
-1.4763359e-12
-7.9817412e-14
-4.8107967e-14
-1.3251995e-12
-1.5394829e-12
1.5020101e-14
2.1823926e-14
-1.3421867e-12
-1.5829757e-12
6.5294243e-14
7.8087237e-14
-1.3871949e-12
-1.6482697e-12
1.43357e-13
8.6510188e-14
-1.4335706e-12
-1.7272777e-12
1.6549357e-13
7.3862418e-14
-1.4742226e-12
-1.7961313e-12
1.4269194e-13
4.9781558e-14
-1.5017349e-12
-1.8440766e-12
9.7703864e-14
2.1642915e-14
-1.5160466e-12
-1.8724191e-12
4.9963858e-14
-4.4895642e-15
-1.5179527e-12
-1.8832079e-12
6.2790708e-15
-2.9217919e-14
-1.5086269e-12
-1.8777474e-12
-3.4697e-14
-5.0818078e-14
-1.4892627e-12
-1.8579084e-12
-7.0673925e-14
-7.0612415e-14
-1.4603351e-12
-1.8260173e-12
-1.0251887e-13
-8.9169283e-14
-1.4232292e-12
-1.7840125e-12
-1.3118771e-13
-1.0306386e-13
-1.3802792e-12
-1.7315679e-12
-1.5552051e-13
-1.1698366e-13
-1.3306023e-12
-1.6703973e-12
-1.7816465e-13
-1.2639867e-13
-1.2766308e-12
-1.6046452e-12
-1.9215978e-13
-1.3257379e-13
-1.219611e-12
-1.5342277e-12
-2.0299872e-13
-1.3601314e-13
-1.1613049e-12
-1.4608878e-12
-2.0935906e-13
-1.370309e-13
-1.102516e-12
-1.3877592e-12
-2.1016432e-13
-1.3494967e-13
-1.0445085e-12
-1.3157612e-12
-2.0695142e-13
-1.3056127e-13
-9.8828503e-13
-1.2456207e-12
-2.007046e-13
-1.2397134e-13
-9.3485752e-13
-1.1788591e-12
-1.907352e-13
-1.1438722e-13
-8.8554967e-13
-1.1169966e-12
-1.7625138e-13
-1.0312227e-13
-8.4092532e-13
-1.0609298e-12
-1.5919032e-13
-9.1161241e-14
-8.0145633e-13
-1.0113167e-12
-1.4077538e-13
-7.8535008e-14
-7.6761589e-13
-9.6890128e-13
-1.2095142e-13
-6.4229005e-14
-7.3998068e-13
-9.3432583e-13
-9.880555e-14
-4.8991367e-14
-7.188542e-13
-9.0786629e-13
-7.5452087e-14
-3.3355027e-14
-7.0438572e-13
-8.8959e-13
-5.1632352e-14
-1.6878489e-14
-6.9714984e-13
-8.8050025e-13
-2.5968786e-14
-1.5861529e-15
-2.1106178e-15
7.5554501e-13
-7.5545331e-13
2.8148994e-12
-2.060884e-12
6.366607e-12
-3.5535296e-12
1.0977533e-11
-4.6127077e-12
1.5665744e-11
-4.6898291e-12
1.9385452e-11
-3.7211119e-12
2.101652e-11
-1.6322416e-12
2.0682508e-11
3.3303365e-13
1.7908023e-11
2.7736815e-12
1.2487035e-11
5.4203193e-12
4.5420943e-12
7.9443928e-12
-5.6961636e-12
1.0237802e-11
-1.7789425e-11
1.2092888e-11
-3.116206e-11
1.3372324e-11
-4.5210905e-11
1.4048596e-11
-5.9380962e-11
1.4169857e-11
-7.3209106e-11
1.3828014e-11
-8.6308648e-11
1.3099471e-11
-9.834727e-11
1.2038629e-11
-1.090367e-10
1.0689477e-11
-1.1812995e-10
9.0933279e-12
-1.2542092e-10
7.2910385e-12
-1.3073784e-10
5.3169451e-12
-1.338891e-10
3.1512488e-12
7.4291124e-13
-2.670978e-11
2.5955289e-11
-5.8322021e-11
2.9552756e-11
-9.6032206e-11
3.4158267e-11
-1.4159092e-10
4.0947665e-11
-1.9742222e-10
5.1143091e-11
-2.6567934e-10
6.4537513e-11
-3.4552201e-10
7.8211773e-11
-4.3445314e-10
8.9265324e-11
-5.32741e-10
1.0106246e-10
-6.3855817e-10
1.1123816e-10
-7.4972371e-10
1.1911034e-10
-8.6381831e-10
1.2433257e-10
-9.7855308e-10
1.2682759e-10
-1.091833e-09
1.2665197e-10
-1.2018215e-09
1.2403662e-10
-1.3069654e-09
1.1931314e-10
-1.4059242e-09
1.127862e-10
-1.4974422e-09
1.0461684e-10
-1.5803345e-09
9.4930328e-11
-1.6534689e-09
8.3823172e-11
-1.7157312e-09
7.1354909e-11
-1.7660015e-09
5.7560566e-11
-1.8031111e-09
4.242576e-11
-1.8256965e-09
2.5735723e-11
7.4874062e-12
-1.400486e-10
1.660076e-10
-3.0456549e-10
1.9407515e-10
-4.9558482e-10
2.2518376e-10
-7.1520951e-10
2.6057818e-10
-9.6377974e-10
2.9971843e-10
-1.2391312e-09
3.3989312e-10
-1.5415186e-09
3.8060228e-10
-1.872133e-09
4.1988178e-10
-2.2501402e-09
4.790707e-10
-2.6810381e-09
5.4213614e-10
-3.1114232e-09
5.4949441e-10
-3.5280267e-09
5.4093407e-10
-3.9226036e-09
5.2140169e-10
-4.2902606e-09
4.9430552e-10
-4.6279507e-09
4.6172242e-10
-4.9336681e-09
4.2502633e-10
-5.2056634e-09
3.8477743e-10
-5.4429366e-09
3.418861e-10
-5.6454777e-09
2.9746747e-10
-5.8140001e-09
2.5234157e-10
-5.9496155e-09
2.0696636e-10
-6.0535439e-09
1.614849e-10
-6.1268935e-09
1.1577131e-10
-6.1704595e-09
6.929766e-11
2.2085653e-11
-4.1948086e-10
5.8549772e-10
-8.9676271e-10
6.7137111e-10
-1.4484314e-09
7.7686732e-10
-2.3135647e-09
1.1257232e-09
-3.2595955e-09
1.2457573e-09
-4.1884532e-09
1.2687551e-09
-5.0476045e-09
1.2397548e-09
-5.8106729e-09
1.1829488e-09
-6.4406447e-09
1.1090392e-09
-6.9219711e-09
1.0234578e-09
-7.3032253e-09
9.3074254e-10
-7.5970627e-09
8.3476464e-10
-7.8175863e-09
7.4191781e-10
-7.9754408e-09
6.5215211e-10
-8.079549e-09
5.6582222e-10
-8.1371456e-09
4.8261426e-10
-8.1554918e-09
4.031147e-10
-8.1442653e-09
3.3065088e-10
-8.1125962e-09
2.6579038e-10
-8.0686909e-09
2.0842873e-10
-8.0199899e-09
1.5825817e-10
-7.9731255e-09
1.1461371e-10
-7.9344041e-09
7.7043157e-11
-7.9095874e-09
4.4474445e-11
1.6939184e-11
-2.2923073e-09
2.8778205e-09
-4.1092823e-09
2.4883628e-09
-5.6972847e-09
2.364885e-09
-6.4948691e-09
1.9233156e-09
-6.7215741e-09
1.4724676e-09
-6.4434255e-09
9.9061e-10
-5.8155365e-09
6.1186854e-10
-4.9850494e-09
3.5246433e-10
-4.0106523e-09
1.3464484e-10
-2.9454058e-09
-4.1785393e-11
-1.8370566e-09
-1.7760288e-10
-7.534791e-10
-2.4880866e-10
2.687955e-10
-2.8035219e-10
1.2294126e-09
-3.084601e-10
2.1308144e-09
-3.3557444e-10
3.0454751e-09
-4.3204132e-10
3.8964447e-09
-4.4784913e-10
4.6515033e-09
-4.2440136e-10
5.3008571e-09
-3.8355622e-10
5.8421914e-09
-3.328976e-10
6.2769949e-09
-2.7653698e-10
6.6086319e-09
-2.1701479e-10
6.8408744e-09
-1.5519083e-10
6.9777161e-09
-9.2358887e-11
-2.5532743e-11
1.0262563e-09
1.8516473e-09
4.2503661e-09
-7.3569679e-10
7.9998872e-09
-1.3845616e-09
1.1722392e-08
-1.7991475e-09
1.5505524e-08
-2.3106339e-09
1.9244912e-08
-2.7487438e-09
2.2859743e-08
-3.0029248e-09
2.6271327e-08
-3.0590771e-09
2.9383536e-08
-2.9775164e-09
3.2162058e-08
-2.8202557e-09
3.4606919e-08
-2.6224086e-09
3.6753698e-08
-2.3955299e-09
3.8633322e-08
-2.159917e-09
4.0251033e-08
-1.9261108e-09
4.1607961e-08
-1.6924411e-09
4.2644408e-08
-1.4684266e-09
4.3455087e-08
-1.2584673e-09
4.4093093e-08
-1.0623462e-09
4.4590509e-08
-8.809105e-10
4.4971822e-08
-7.1415084e-10
4.5256434e-08
-5.6108908e-10
4.5460032e-08
-4.2055406e-10
4.5594789e-08
-2.8989058e-10
4.5671078e-08
-1.6859106e-10
-5.028596e-11
1.490365e-07
-2.3300581e-09
1.4776901e-07
5.3271675e-10
1.4533754e-07
1.047691e-09
1.4209527e-07
1.443816e-09
1.3780375e-07
1.9815038e-09
1.326154e-07
2.4401319e-09
1.2689474e-07
2.7181785e-09
1.2103562e-07
2.800433e-09
1.1532393e-07
2.7345121e-09
1.099037e-07
2.600262e-09
1.0484373e-07
2.4378143e-09
1.0020465e-07
2.2437839e-09
9.6014001e-08
2.0309379e-09
9.2273517e-08
1.8145604e-09
8.898043e-08
1.6008163e-09
8.6118463e-08
1.3936963e-09
8.3663315e-08
1.196826e-09
8.1588693e-08
1.0124111e-09
7.9866629e-08
8.412794e-10
7.8469119e-08
6.8347816e-10
7.7369985e-08
5.3815813e-10
7.654527e-08
4.0426817e-10
7.5976163e-08
2.7931931e-10
7.5644847e-08
1.6282365e-10
4.8931097e-11
1.3153104e-08
-1.7537826e-09
1.5560125e-08
-1.8741906e-09
1.826854e-08
-1.660609e-09
2.104875e-08
-1.3362828e-09
2.3963157e-08
-9.3279508e-10
2.6922794e-08
-5.1940108e-10
2.9903761e-08
-2.6269002e-10
3.2743434e-08
-3.9147635e-11
3.5334723e-08
1.4331446e-10
3.7674114e-08
2.6096267e-10
3.9791337e-08
3.206803e-10
4.1660002e-08
3.7520686e-10
4.3263284e-08
4.2774288e-10
4.4507061e-08
5.7086865e-10
4.5492843e-08
6.1511841e-10
4.6280408e-08
6.0621208e-10
4.6905607e-08
5.7170619e-10
4.7396988e-08
5.2110714e-10
4.7777996e-08
4.6034666e-10
4.8068019e-08
3.9352705e-10
4.8282936e-08
3.2331212e-10
4.843582e-08
2.5145242e-10
4.8536598e-08
1.7860766e-10
4.8593657e-08
1.0582856e-10
2.9659035e-11
-5.2987389e-09
-9.3194194e-10
-6.0362902e-09
-1.1366525e-09
-6.4657639e-09
-1.2311492e-09
-6.5229224e-09
-1.2791376e-09
-6.1754584e-09
-1.2802709e-09
-5.4545356e-09
-1.2403334e-09
-4.5385952e-09
-1.1786372e-09
-3.4783366e-09
-1.09941e-09
-2.325949e-09
-1.0090741e-09
-1.1521661e-09
-9.1281861e-10
-1.4421901e-11
-8.1705987e-10
1.0846834e-09
-7.2389248e-10
2.1446451e-09
-6.3221125e-10
3.2581183e-09
-5.425953e-10
4.3305134e-09
-4.5726593e-10
5.3160412e-09
-3.7930388e-10
6.1971645e-09
-3.094044e-10
6.9659278e-09
-2.4764283e-10
7.6201499e-09
-1.9386158e-10
8.1613565e-09
-1.4766561e-10
8.5932923e-09
-1.0860972e-10
8.920778e-09
-7.6019352e-11
9.148886e-09
-4.9486756e-11
9.2827827e-09
-2.8054854e-11
-1.2184232e-11
-2.4601305e-09
-2.3445392e-10
-3.3163297e-09
-2.8046077e-10
-4.2157059e-09
-3.3178327e-10
-5.1090273e-09
-3.8582899e-10
-5.9481848e-09
-4.4112821e-10
-6.6871718e-09
-5.0136269e-10
-7.2617998e-09
-6.0402645e-10
-7.7272762e-09
-6.3395123e-10
-8.0945422e-09
-6.4182584e-10
-8.3719794e-09
-6.3539901e-10
-8.571489e-09
-6.1756755e-10
-8.7036855e-09
-5.9171288e-10
-8.7761509e-09
-5.5976235e-10
-8.7958098e-09
-5.2295241e-10
-8.7712432e-09
-4.8184802e-10
-8.713109e-09
-4.3745304e-10
-8.6314204e-09
-3.9110687e-10
-8.5351289e-09
-3.4394736e-10
-8.4322445e-09
-2.9675814e-10
-8.3300371e-09
-2.4988439e-10
-8.2350739e-09
-2.035838e-10
-8.1531543e-09
-1.5794919e-10
-8.0898818e-09
-1.1276909e-10
-8.0505466e-09
-6.7399369e-11
-2.1735368e-11
-6.8382944e-10
-2.132966e-11
-9.3494992e-10
-2.9341366e-11
-1.2216401e-09
-4.5095003e-11
-1.541147e-09
-6.6324819e-11
-1.8911397e-09
-9.1139286e-11
-2.2834039e-09
-1.0910309e-10
-2.7601184e-09
-1.2731762e-10
-3.2494335e-09
-1.4464294e-10
-3.7323142e-09
-1.5895288e-10
-4.1981789e-09
-1.6954289e-10
-4.6397311e-09
-1.7602473e-10
-5.0526857e-09
-1.7876845e-10
-5.434262e-09
-1.7819616e-10
-5.7824182e-09
-1.748063e-10
-6.0952251e-09
-1.6905122e-10
-6.3714929e-09
-1.6119522e-10
-6.6108229e-09
-1.5178678e-10
-6.8133837e-09
-1.4139644e-10
-6.9789366e-09
-1.3121488e-10
-7.1038594e-09
-1.2497104e-10
-7.200322e-09
-1.0713051e-10
-7.2722192e-09
-8.6061024e-11
-7.3221273e-09
-6.2869853e-11
-7.3518218e-09
-3.7713439e-11
-9.9248479e-12
-8.3712122e-11
1.4489816e-11
-1.3331055e-10
2.0257259e-11
-2.0074482e-10
2.2339323e-11
-2.8610708e-10
1.9037272e-11
-3.9013215e-10
1.2885351e-11
-5.0793021e-10
8.6942428e-12
-6.3796253e-10
2.71367e-12
-7.7783772e-10
-4.7691197e-12
-9.2382971e-10
-1.296259e-11
-1.0725882e-09
-2.0786389e-11
-1.221123e-09
-2.749218e-11
-1.3674981e-09
-3.2395918e-11
-1.5097126e-09
-3.5984287e-11
-1.6461404e-09
-3.8381265e-11
-1.7756557e-09
-3.9538626e-11
-1.8978982e-09
-3.8955564e-11
-2.0123275e-09
-3.7360323e-11
-2.1185183e-09
-3.5208523e-11
-2.2173496e-09
-3.2386518e-11
-2.313482e-09
-2.8841672e-11
-2.3959858e-09
-2.4629665e-11
-2.4622058e-09
-1.9843953e-11
-2.5105054e-09
-1.4573236e-11
-2.5393852e-09
-8.8364959e-12
-2.6528055e-12
4.9822614e-11
1.0032776e-12
6.3792135e-11
6.2882788e-12
7.5391711e-11
1.0740287e-11
8.0875349e-11
1.3554149e-11
7.9612688e-11
1.4148488e-11
7.4248403e-11
1.4058959e-11
6.4397441e-11
1.2565009e-11
5.0249939e-11
9.3786985e-12
3.1940773e-11
5.34683e-12
9.9929302e-12
1.1616422e-12
-1.5081183e-11
-2.4179416e-12
-4.152798e-11
-5.9490559e-12
-6.8505049e-11
-9.0072109e-12
-9.5431352e-11
-1.1455008e-11
-1.2208943e-10
-1.2880639e-11
-1.4769121e-10
-1.3353906e-11
-1.7177032e-10
-1.3281365e-11
-1.9418966e-10
-1.2789351e-11
-2.1466901e-10
-1.1907358e-11
-2.3284382e-10
-1.0667076e-11
-2.483429e-10
-9.1308105e-12
-2.6083185e-10
-7.3552281e-12
-2.7001064e-10
-5.394689e-12
-2.7555469e-10
-3.2926842e-12
-1.0165755e-12
3.0673699e-11
-9.5945726e-12
4.4347356e-11
-7.384995e-12
6.0264666e-11
-5.1766145e-12
7.6876666e-11
-3.0574266e-12
9.2497874e-11
-1.4722854e-12
1.0683508e-10
-2.7781359e-13
1.1909081e-10
3.097244e-13
1.2836578e-10
1.0415308e-13
1.3519077e-10
-1.477735e-12
1.3945648e-10
-3.1036633e-12
1.4274194e-10
-5.7030022e-12
1.4485804e-10
-8.0647727e-12
1.4602725e-10
-1.0176056e-11
1.4651616e-10
-1.1943563e-11
1.4682458e-10
-1.3188713e-11
1.4728879e-10
-1.3817789e-11
1.479268e-10
-1.3919059e-11
1.4872973e-10
-1.3591976e-11
1.4965406e-10
-1.2831398e-11
1.5069824e-10
-1.1710972e-11
1.5178377e-10
-1.0216071e-11
1.5282588e-10
-8.3970665e-12
1.5370458e-10
-6.2731255e-12
1.5437099e-10
-3.9588415e-12
-1.4074757e-12
4.3288904e-13
-1.1114764e-11
3.3741938e-12
-1.0326188e-11
7.3249763e-12
-9.1272647e-12
1.2341827e-11
-8.0741354e-12
1.7805772e-11
-6.9360839e-12
2.3349363e-11
-5.8212565e-12
2.8492404e-11
-4.8331682e-12
3.2824607e-11
-4.2279027e-12
3.5272301e-11
-3.925286e-12
3.6641767e-11
-4.4729915e-12
3.6572882e-11
-5.6339855e-12
3.5669722e-11
-7.1614868e-12
3.4156844e-11
-8.6630589e-12
3.2140932e-11
-9.9275392e-12
2.9926077e-11
-1.0973754e-11
2.7757823e-11
-1.1649438e-11
2.5764313e-11
-1.1925457e-11
2.3988268e-11
-1.1815846e-11
2.2488015e-11
-1.1331064e-11
2.1248972e-11
-1.0471853e-11
2.0294192e-11
-9.2612175e-12
1.9619594e-11
-7.7223976e-12
1.9233515e-11
-5.8869774e-12
1.9007964e-11
-3.7332235e-12
-1.3634721e-12
-1.3396035e-11
-7.8454089e-12
-1.6173368e-11
-7.5489527e-12
-1.8913797e-11
-6.3868961e-12
-2.1426437e-11
-5.5615406e-12
-2.3446764e-11
-4.9157968e-12
-2.5205873e-11
-4.0621878e-12
-2.684721e-11
-3.1918725e-12
-2.8588803e-11
-2.4863522e-12
-3.077579e-11
-1.7383445e-12
-3.4073123e-11
-1.1757062e-12
-3.8302233e-11
-1.4049274e-12
-4.3258732e-11
-2.2050445e-12
-4.9085596e-11
-2.8362563e-12
-5.5326618e-11
-3.6865854e-12
-6.1694822e-11
-4.605623e-12
-6.7977351e-11
-5.3669889e-12
-7.4077218e-11
-5.8256738e-12
-7.986718e-11
-6.0259726e-12
-8.5241866e-11
-5.9564707e-12
-9.0099231e-11
-5.6145819e-12
-9.4370326e-11
-4.9902183e-12
-9.7972916e-11
-4.1199031e-12
-1.0085822e-10
-3.0017652e-12
-1.0309761e-10
-1.4939242e-12
-3.930559e-13
-1.3282228e-11
-4.3939972e-12
-1.6978149e-11
-3.8531815e-12
-2.0643121e-11
-2.7220558e-12
-2.4310308e-11
-1.894454e-12
-2.8078649e-11
-1.1475441e-12
-3.1790099e-11
-3.5082507e-13
-3.5474017e-11
4.9195809e-13
-3.9240892e-11
1.2804328e-12
-4.3028591e-11
2.0492619e-12
-4.6853879e-11
2.6494874e-12
-5.1201823e-11
2.942919e-12
-5.6311015e-11
2.9040461e-12
-6.1837085e-11
2.6897072e-12
-6.782335e-11
2.2995692e-12
-7.4277106e-11
1.8480185e-12
-8.0623371e-11
9.7915639e-13
-8.6827405e-11
3.7823729e-13
-9.2772793e-11
-8.0711669e-14
-9.8302487e-11
-4.2690531e-13
-1.03252e-10
-6.6520268e-13
-1.0751369e-10
-7.2865103e-13
-1.1090332e-10
-7.3039972e-13
-1.1328379e-10
-6.2142838e-13
-1.1434094e-10
-4.3689545e-13
-1.7004117e-13
-8.0716055e-12
-2.176926e-12
-1.065719e-11
-1.2677385e-12
-1.3127282e-11
-2.5208769e-13
-1.5729031e-11
7.071963e-13
-1.838915e-11
1.5124899e-12
-2.1074536e-11
2.3344794e-12
-2.3766148e-11
3.1834899e-12
-2.6247143e-11
3.761346e-12
-2.8670529e-11
4.4725667e-12
-3.1211811e-11
5.1906869e-12
-3.3964012e-11
5.6950349e-12
-3.715183e-11
6.0917779e-12
-4.0692026e-11
6.2298142e-12
-4.4485101e-11
6.0925533e-12
-4.837008e-11
5.7329031e-12
-5.260346e-11
5.2124396e-12
-5.6836535e-11
4.611214e-12
-6.0989508e-11
4.0721605e-12
-6.4913108e-11
3.496592e-12
-6.8445745e-11
2.8673321e-12
-7.1435608e-11
2.2611109e-12
-7.3886545e-11
1.7204374e-12
-7.5685683e-11
1.1776121e-12
-7.6775094e-11
6.5242062e-13
1.7587483e-13
-3.583683e-12
-1.1324445e-12
-4.6071185e-12
-2.4441669e-13
-5.5209785e-12
6.6167867e-13
-6.4049678e-12
1.5911107e-12
-7.5024857e-12
2.6099422e-12
-8.6565263e-12
3.4884585e-12
-9.4883004e-12
4.0152044e-12
-1.0166291e-11
4.4392788e-12
-1.082472e-11
5.1309378e-12
-1.1653299e-11
6.0192083e-12
-1.2852935e-11
6.8946142e-12
-1.4129669e-11
7.3684538e-12
-1.5520843e-11
7.6209291e-12
-1.7054961e-11
7.626611e-12
-1.8782745e-11
7.460625e-12
-2.0816025e-11
7.2456569e-12
-2.2998613e-11
6.7937373e-12
-2.5149313e-11
6.2227949e-12
-2.7206641e-11
5.5538537e-12
-2.9144233e-11
4.8048587e-12
-3.0892154e-11
4.0089667e-12
-3.2350153e-11
3.1783734e-12
-3.3528216e-11
2.3556133e-12
-3.4313442e-11
1.4375871e-12
3.3702526e-13
-1.1110483e-12
-9.2674828e-13
-1.1914649e-12
-1.640849e-13
-1.2124507e-12
6.8259593e-13
-1.1830206e-12
1.5616233e-12
-9.3167904e-13
2.3585505e-12
-6.4183975e-13
3.1985734e-12
-4.8033304e-13
3.8536545e-12
-3.0220786e-13
4.2611121e-12
-9.2871327e-14
4.921561e-12
1.2732019e-16
5.9261702e-12
2.8538726e-13
6.6093153e-12
5.4845732e-13
7.105345e-12
6.1355264e-13
7.5557949e-12
4.6423997e-13
7.7758843e-12
1.2368226e-13
7.8011426e-12
-2.8814647e-13
7.6574449e-12
-8.4298092e-13
7.3485304e-12
-1.4976303e-12
6.8774027e-12
-2.1932346e-12
6.2494164e-12
-2.8874868e-12
5.4990696e-12
-3.5758361e-12
4.6972755e-12
-4.1762851e-12
3.7787847e-12
-4.5659528e-12
2.7452433e-12
-4.7568213e-12
1.6284207e-12
4.9081911e-13
-2.8524647e-13
-1.0566503e-12
-7.3371112e-15
-4.4205887e-13
3.9576748e-13
2.7943672e-13
9.0829068e-13
1.0490531e-12
1.4453653e-12
1.8214343e-12
2.0745439e-12
2.569357e-12
2.7271899e-12
3.2009734e-12
3.3661286e-12
3.62214e-12
4.0514877e-12
4.2361698e-12
4.8038056e-12
5.1738211e-12
5.5703703e-12
5.8427198e-12
6.3054702e-12
6.3702146e-12
7.0789067e-12
6.7823279e-12
7.7832977e-12
7.0714629e-12
8.4182814e-12
7.1661282e-12
8.9363476e-12
7.1393481e-12
9.2794475e-12
7.0053997e-12
9.5079269e-12
6.6488928e-12
9.627056e-12
6.1302571e-12
9.6554652e-12
5.4706307e-12
9.6732676e-12
4.6794446e-12
9.7084517e-12
3.7435748e-12
9.6054893e-12
2.8481799e-12
9.550431e-12
1.6834555e-12
4.8350722e-13
-2.2948472e-13
-1.1935422e-12
5.4729201e-14
-7.2632665e-13
4.7810847e-13
-1.4399015e-13
1.0233134e-12
5.0380581e-13
1.6562264e-12
1.188483e-12
2.3654772e-12
1.8600708e-12
3.0394096e-12
2.5270079e-12
3.6162231e-12
3.0452949e-12
4.4353656e-12
3.416997e-12
5.4143485e-12
4.1948087e-12
6.3746306e-12
4.8824088e-12
7.3588317e-12
5.385985e-12
8.3666496e-12
5.7744818e-12
9.3647966e-12
6.0732878e-12
1.029352e-11
6.2373771e-12
1.1155096e-11
6.2777442e-12
1.1972839e-11
6.1876294e-12
1.2682054e-11
5.9396505e-12
1.3276195e-11
5.5360898e-12
1.3764657e-11
4.9821433e-12
1.4156507e-11
4.28757e-12
1.4403723e-11
3.4963383e-12
1.4849348e-11
2.4025326e-12
1.5013034e-11
1.5197506e-12
6.7651491e-13
-2.9669017e-13
-1.27194e-12
-8.6772115e-14
-9.3629072e-13
2.4973108e-13
-4.8053648e-13
7.1435858e-13
3.9138296e-14
1.2243942e-12
6.7841031e-13
1.7936633e-12
1.290767e-12
2.4420879e-12
1.8785506e-12
3.0656745e-12
2.4216771e-12
3.6948858e-12
2.7877555e-12
4.6704601e-12
3.2192052e-12
5.6569014e-12
3.8959391e-12
6.7052041e-12
4.3376545e-12
7.7458864e-12
4.7337721e-12
8.7883654e-12
5.0307815e-12
9.8332573e-12
5.1924584e-12
1.084918e-11
5.2617951e-12
1.1830623e-11
5.2061604e-12
1.2744953e-11
5.0252952e-12
1.3563915e-11
4.7171028e-12
1.4270265e-11
4.2757698e-12
1.4851988e-11
3.7058244e-12
1.5343652e-11
3.0046552e-12
1.5545637e-11
2.2005286e-12
1.5704037e-11
1.3613333e-12
5.0532172e-13
-2.3283863e-13
-1.3315968e-12
-5.1813368e-14
-1.1173574e-12
1.8435083e-13
-7.1674007e-13
4.8561747e-13
-2.6216556e-13
9.1469623e-13
2.4929657e-13
1.4275646e-12
7.7786557e-13
2.018897e-12
1.287187e-12
2.6683121e-12
1.7722323e-12
3.2796452e-12
2.1763938e-12
4.0742158e-12
2.424607e-12
5.0563115e-12
2.9138165e-12
6.0384402e-12
3.3554995e-12
7.083124e-12
3.6890626e-12
8.1670243e-12
3.946856e-12
9.2274701e-12
4.1319878e-12
1.0264686e-11
4.2245548e-12
1.1295368e-11
4.175455e-12
1.2285973e-11
4.0346669e-12
1.3194137e-11
3.808917e-12
1.4000189e-11
3.4696961e-12
1.468605e-11
3.0199433e-12
1.5223112e-11
2.4675766e-12
1.5488837e-11
1.9347861e-12
1.5694856e-11
1.1552984e-12
2.9068889e-13
-9.0647337e-14
-1.3929358e-12
1.0408166e-14
-1.2184519e-12
2.3001123e-13
-9.3638008e-13
5.3520309e-13
-5.6739221e-13
9.3549431e-13
-1.5102737e-13
1.4408963e-12
2.7243283e-13
2.0218146e-12
7.0623969e-13
2.6786692e-12
1.1153503e-12
3.3642327e-12
1.4908043e-12
4.0189516e-12
1.7698631e-12
4.9373945e-12
1.9953497e-12
5.931325e-12
2.3615459e-12
6.9429454e-12
2.6774196e-12
7.9788402e-12
2.9109392e-12
9.0452728e-12
3.0655337e-12
1.0125996e-11
3.1438104e-12
1.1161765e-11
3.1396658e-12
1.2139943e-11
3.0564687e-12
1.3063038e-11
2.8858038e-12
1.3883358e-11
2.6493579e-12
1.4593649e-11
2.309635e-12
1.5169361e-11
1.8918503e-12
1.5837304e-11
1.2668293e-12
1.612332e-11
8.6926892e-13
3.8679253e-13
2.6232945e-14
-1.4990251e-12
1.7202204e-13
-1.3642778e-12
4.0392045e-13
-1.1683132e-12
7.3788742e-13
-9.0139172e-13
1.1699693e-12
-5.8313962e-13
1.6767983e-12
-2.344245e-13
2.2711206e-12
1.1189098e-13
2.9350748e-12
4.5137148e-13
3.660376e-12
7.6548012e-13
4.3870731e-12
1.0431444e-12
5.1202794e-12
1.2621229e-12
6.0598551e-12
1.4219506e-12
7.0986284e-12
1.6386276e-12
8.1073696e-12
1.9021799e-12
9.1393867e-12
2.033499e-12
1.0161779e-11
2.121401e-12
1.1159418e-11
2.1420097e-12
1.2119962e-11
2.0959091e-12
1.3010935e-11
1.994816e-12
1.3829402e-11
1.8308761e-12
1.4532527e-11
1.606497e-12
1.509646e-11
1.3279065e-12
1.5296965e-11
1.0663128e-12
1.5552917e-11
6.1330715e-13
1.3359291e-13
1.2200107e-13
-1.6060434e-12
3.236799e-13
-1.5659917e-12
5.9436606e-13
-1.439032e-12
9.4647943e-13
-1.2535355e-12
1.382298e-12
-1.0189863e-12
1.9047301e-12
-7.5688249e-13
2.4995248e-12
-4.8292758e-13
3.1642159e-12
-2.1334153e-13
3.8886424e-12
4.103351e-14
4.6602474e-12
2.7152083e-13
5.4492961e-12
4.7305696e-13
6.231431e-12
6.3979972e-13
7.0868762e-12
7.8316718e-13
8.0890634e-12
8.9997813e-13
9.0983836e-12
1.0241649e-12
1.005357e-11
1.166201e-12
1.0992713e-11
1.2028538e-12
1.1888213e-11
1.2003972e-12
1.2726601e-11
1.1564163e-12
1.3487211e-11
1.0702551e-12
1.4142826e-11
9.508721e-13
1.4692059e-11
7.7866548e-13
1.5258973e-11
4.9938991e-13
1.5503648e-11
3.6862439e-13
1.8408536e-13
2.0547825e-13
-1.746263e-12
4.2177332e-13
-1.78232e-12
7.0803113e-13
-1.7253206e-12
1.0645678e-12
-1.6101005e-12
1.4946368e-12
-1.4490813e-12
1.9991989e-12
-1.2614683e-12
2.5734447e-12
-1.0571949e-12
3.20713e-12
-8.470464e-13
3.8960939e-12
-6.4794797e-13
4.6267633e-12
-4.5916459e-13
5.3899333e-12
-2.9012756e-13
6.1762442e-12
-1.4652438e-13
6.9778304e-12
-1.8431283e-14
7.78811e-12
8.9686954e-14
8.6132533e-12
1.990107e-13
9.4937052e-12
2.8573857e-13
1.0371373e-11
3.2517566e-13
1.1194966e-11
3.767951e-13
1.1954472e-11
3.9690151e-13
1.2607122e-11
4.1759649e-13
1.3172825e-11
3.8516135e-13
1.3632387e-11
3.1909739e-13
1.3882199e-11
2.4957191e-13
1.4098773e-11
1.5204499e-13
3.6966132e-14
2.4123035e-13
-1.8441701e-12
4.214687e-13
-1.9625898e-12