/*--------------------------------*- C++ -*----------------------------------*\
| =========                 |                                                 |
| \\      /  F ield         | OpenFOAM: The Open Source CFD Toolbox           |
|  \\    /   O peration     | Version:  4.0                                   |
|   \\  /    A nd           | Web:      www.OpenFOAM.org                      |
|    \\/     M anipulation  |                                                 |
\*---------------------------------------------------------------------------*/
FoamFile
{
    version     2.0;
    format      ascii;
    class       volVectorField;
    location    "0.06";
    object      U;
}
// * * * * * * * * * * * * * * * * * * * * * * * * * * * * * * * * * * * * * //

dimensions      [0 1 -1 0 0 0 0];

internalField   nonuniform List<vector> 
1740
(
(1.4480438 0.0013629979 4.4358182e-06)
(1.5488197 -0.0098024417 6.5818826e-07)
(1.5569695 -0.0055805419 2.1514261e-08)
(1.4571053 -0.0064826519 7.4511958e-06)
(1.626927 -0.029141484 1.5996476e-06)
(1.5570233 -0.020100271 3.0858526e-07)
(1.5323695 -0.0036912804 1.0917442e-05)
(1.6218487 -0.011173929 2.3269157e-06)
(1.4744284 -0.0055896003 4.5637153e-07)
(1.5339415 0.00039946318 1.3781357e-05)
(1.5769001 0.029172207 3.6034817e-06)
(1.5753627 0.013563653 5.5569802e-07)
(1.4828444 -0.0078225633 1.4902611e-05)
(1.4954318 0.015503371 4.3095293e-06)
(1.5930289 0.0098045892 8.231124e-07)
(1.5183961 -0.002592152 1.6462012e-05)
(1.5133567 0.0022959572 4.9099467e-06)
(1.5037755 -0.00018040199 9.6608014e-07)
(1.4927159 0.0019688463 1.7260191e-05)
(1.5450451 0.0076487296 5.8395865e-06)
(1.6040438 0.00056244282 1.1182864e-06)
(1.4858309 -0.021726455 1.8008143e-05)
(1.5379283 -0.022373804 6.5829022e-06)
(1.5976213 -0.0093874647 1.357779e-06)
(1.6292875 -0.020539284 1.8239442e-05)
(1.5244157 -0.027892593 7.0253515e-06)
(1.5153097 -0.014704269 1.5312653e-06)
(1.6260778 0.0012828054 1.8874093e-05)
(1.5706072 -0.0098408591 7.85247e-06)
(1.5368983 -0.0081419691 1.7472752e-06)
(1.5952249 0.0070383521 1.9330947e-05)
(1.5346034 0.00088669473 8.423358e-06)
(1.5310942 -0.0028547168 1.9382217e-06)
(1.5668988 0.012039105 1.9782444e-05)
(1.5802167 0.013734713 8.8112729e-06)
(1.4914829 0.00068754255 2.1362073e-06)
(1.5587882 -0.001423698 2.019082e-05)
(1.5701452 0.014411159 9.5495535e-06)
(1.5611172 0.0087113239 2.3220117e-06)
(1.5994036 -0.0064263924 2.0514963e-05)
(1.4864473 0.0036163606 1.0003991e-05)
(1.5837927 0.0072773286 2.5075395e-06)
(1.5271373 0.00023596921 2.0462718e-05)
(1.5296412 -0.001101123 1.0348454e-05)
(1.5275412 -0.0051356365 2.7077791e-06)
(1.5716017 0.0098605398 2.063986e-05)
(1.5182759 -0.00044004062 1.0930761e-05)
(1.5220443 -0.0047947617 2.8818323e-06)
(1.546937 0.010422104 2.115844e-05)
(1.5911491 0.0020029406 1.1303751e-05)
(1.5845874 -0.001033196 2.9732371e-06)
(1.4926384 -0.0205498 2.1604891e-05)
(1.5974117 -0.0088557026 1.1794357e-05)
(1.5795979 0.00065725885 3.3005016e-06)
(1.5994268 -0.016966073 2.17901e-05)
(1.5011812 -0.021009207 1.2149712e-05)
(1.4931167 -0.009246567 3.4599196e-06)
(1.582965 0.0071944372 2.1565189e-05)
(1.6072669 -0.006345751 1.2463519e-05)
(1.5095743 -0.0081208709 3.5973808e-06)
(1.5873305 0.0011079186 2.1573408e-05)
(1.6126187 0.0036301986 1.2862511e-05)
(1.5225735 0.0042476401 3.79624e-06)
(1.6182893 0.00031318486 2.1927604e-05)
(1.5360074 0.010264426 1.3203792e-05)
(1.5257711 0.0042549667 3.9851448e-06)
(1.530344 0.0059971995 2.2149039e-05)
(1.5813633 0.010906606 1.3493043e-05)
(1.5214677 0.0038716833 4.1231852e-06)
(1.5478123 0.0014772228 2.2062268e-05)
(1.5637233 0.0048369933 1.3847821e-05)
(1.533091 0.0022212191 4.3146835e-06)
(1.5446496 0.0061816743 2.2127897e-05)
(1.5301535 -0.0037126617 1.4134214e-05)
(1.530037 -0.0057104864 4.4386707e-06)
(1.5161616 -0.011711328 2.237126e-05)
(1.576538 -0.011114427 1.448153e-05)
(1.5203466 -0.006433835 4.5689086e-06)
(1.5864469 -0.026887436 2.2262377e-05)
(1.5542548 -0.021515477 1.4683723e-05)
(1.5124843 -0.00068443331 4.7277332e-06)
(1.6735568 0.0017111972 2.2397436e-05)
(1.4809676 -0.016699271 1.5002099e-05)
(1.4860377 -0.010720571 4.8471977e-06)
(1.5049729 0.025217312 2.2329539e-05)
(1.5034588 -0.0023666946 1.5167813e-05)
(1.4419944 -0.0013710434 4.8710567e-06)
(1.2926706 0.045264677 2.3482652e-05)
(1.3532045 0.11542609 1.5769595e-05)
(1.3426853 0.06531047 5.5332265e-06)
(0.84166916 0.36966386 1.1623975e-05)
(0.80566013 0.94454052 9.9389165e-06)
(0.7394619 1.2517775 5.4068879e-06)
(0.21848323 0.11099777 1.4967282e-06)
(0.18809809 0.36665668 3.0677719e-06)
(0.08334828 0.49935775 6.9749851e-07)
(-0.029935044 -0.013832468 1.2507557e-06)
(-0.027407274 -0.02807299 1.7408117e-06)
(-0.021033975 -0.033268466 6.7359769e-07)
(-0.006773273 -0.0031076505 4.8851131e-07)
(-0.0066291919 -0.0079099764 8.1322431e-07)
(-0.0065114176 -0.010925872 4.5342986e-07)
(-0.00049024295 -0.00038542108 1.5039875e-07)
(-0.00064107435 -0.0010889664 3.0876366e-07)
(-0.00093618885 -0.0018028583 2.1242402e-07)
(5.2924546e-05 3.5427448e-05 3.7753869e-08)
(1.1182859e-05 6.6064114e-05 9.6336165e-08)
(-7.5156437e-05 1.5945415e-05 7.4563056e-08)
(4.6681098e-08 6.3597743e-05 4.5802542e-09)
(-1.3540582e-05 0.00015400658 2.1388945e-08)
(-3.6373562e-05 0.00022658912 1.7744867e-08)
(-8.178328e-05 2.4775819e-05 -1.6678155e-09)
(-8.4995419e-05 5.9890971e-05 1.4197134e-09)
(-8.6553005e-05 9.5282647e-05 9.2954032e-10)
(-0.00012370132 2.0991821e-06 -1.3456766e-09)
(-0.00012278915 5.2285162e-06 -1.2381623e-09)
(-0.00011783825 -2.5440191e-06 -1.368118e-09)
(-0.00012106183 -1.3074293e-05 -1.6717196e-10)
(-0.00011768678 -2.9550119e-05 -2.3794229e-10)
(-0.00010964822 -5.2407795e-05 -4.4267629e-10)
(-9.778399e-05 -1.2345587e-05 2.3869146e-10)
(-9.3921105e-05 -2.9126141e-05 4.3522508e-10)
(-8.5532971e-05 -4.7382214e-05 2.7721679e-10)
(-7.2371314e-05 -8.0921e-06 2.0182478e-10)
(-6.8848459e-05 -1.8025021e-05 4.7052051e-10)
(-6.1387813e-05 -2.8614136e-05 4.2043362e-10)
(-5.2801296e-05 -4.0743364e-06 7.5777351e-12)
(-4.9849767e-05 -8.7224383e-06 2.3220186e-10)
(-4.3659219e-05 -1.3278582e-05 2.7010657e-10)
(-4.1106572e-05 -1.7530989e-06 -1.2435218e-10)
(-3.8701758e-05 -3.6370648e-06 2.5630284e-12)
(-3.3629692e-05 -5.5318033e-06 7.5333173e-11)
(-3.4871242e-05 -1.0255009e-06 -1.754669e-10)
(-3.2913739e-05 -1.5626748e-06 -1.1957422e-10)
(-2.8740758e-05 -3.3746196e-06 -4.3262535e-11)
(-3.0965971e-05 -1.0869291e-06 -1.6498379e-10)
(-2.9382306e-05 -2.1613943e-06 -1.4226257e-10)
(-2.596191e-05 -3.7164727e-06 -8.0074338e-11)
(-2.7816373e-05 -1.1090188e-06 -1.2652527e-10)
(-2.6553441e-05 -1.9709211e-06 -1.1634096e-10)
(-2.3786738e-05 -3.159537e-06 -7.0458999e-11)
(-2.5196906e-05 -9.6207424e-07 -8.7435889e-11)
(-2.4195447e-05 -1.480808e-06 -7.7213785e-11)
(-2.1969837e-05 -2.4432672e-06 -4.4209529e-11)
(-2.3206169e-05 -6.3542709e-07 -6.3020083e-11)
(-2.241169e-05 -1.091438e-06 -4.616822e-11)
(-2.0614921e-05 -1.7353025e-06 -2.0864118e-11)
(-2.1857184e-05 -3.1237253e-07 -5.1389818e-11)
(-2.122162e-05 -5.1138444e-07 -3.1754086e-11)
(-1.9756201e-05 -9.6280938e-07 -8.8832633e-12)
(-2.1069901e-05 -2.0637449e-07 -4.6921091e-11)
(-2.0555661e-05 -2.3594449e-07 -3.0404369e-11)
(-1.9344899e-05 -4.4651657e-07 -7.0656674e-12)
(-2.0726076e-05 -8.0989501e-08 -4.6011518e-11)
(-2.0311367e-05 9.6175584e-08 -3.4436218e-11)
(-1.9305787e-05 8.4093331e-08 -1.0627794e-11)
(-2.0690561e-05 3.14198e-09 -4.5090496e-11)
(-2.0359469e-05 2.8460359e-07 -3.8574945e-11)
(-1.9523482e-05 4.1054003e-07 -1.5588051e-11)
(-2.0813376e-05 2.3123014e-08 -4.2970672e-11)
(-2.0549214e-05 3.1144358e-07 -4.0421191e-11)
(-1.9848903e-05 4.8921374e-07 -1.9195348e-11)
(-2.0968554e-05 2.5619353e-08 -3.9661595e-11)
(-2.0756148e-05 2.7182245e-07 -3.9142438e-11)
(-2.0161065e-05 4.4037015e-07 -2.0221777e-11)
(-2.1079143e-05 4.8370837e-09 -3.6029059e-11)
(-2.0906885e-05 1.744591e-07 -3.6282133e-11)
(-2.0394136e-05 2.8670537e-07 -1.9443445e-11)
(-2.1105606e-05 -3.6429298e-08 -3.3069776e-11)
(-2.0965024e-05 7.0600451e-08 -3.3640406e-11)
(-2.0517609e-05 1.2073642e-07 -1.8348312e-11)
(-2.1027232e-05 -7.7603829e-08 -3.0674665e-11)
(-2.0912055e-05 -3.98646e-08 -3.0971794e-11)
(-2.0516981e-05 -4.0394425e-08 -1.7227584e-11)
(-2.0832674e-05 -1.1961929e-07 -2.8760848e-11)
(-2.0738078e-05 -1.5072998e-07 -2.8443485e-11)
(-2.0386277e-05 -2.1423713e-07 -1.5944655e-11)
(-2.0519452e-05 -1.5686951e-07 -2.7738586e-11)
(-2.0441473e-05 -2.4376552e-07 -2.6786928e-11)
(-2.012618e-05 -3.7980348e-07 -1.5110628e-11)
(-2.0092916e-05 -1.871453e-07 -2.7433582e-11)
(-2.0028348e-05 -3.2116878e-07 -2.5689495e-11)
(-1.9743998e-05 -5.2975972e-07 -1.4535964e-11)
(-1.9563234e-05 -2.1950723e-07 -2.6788593e-11)
(-1.950957e-05 -4.0543677e-07 -2.4414112e-11)
(-1.9251743e-05 -6.7102323e-07 -1.3821451e-11)
(-1.894373e-05 -2.4582368e-07 -2.6376945e-11)
(-1.8898924e-05 -4.7353275e-07 -2.3485812e-11)
(-1.8663978e-05 -7.7856742e-07 -1.3279289e-11)
(-1.8250477e-05 -2.6529351e-07 -2.63292e-11)
(-1.821281e-05 -5.2588774e-07 -2.2971071e-11)
(-1.7997842e-05 -8.691347e-07 -1.292249e-11)
(-1.7501923e-05 -2.8026077e-07 -2.6042689e-11)
(-1.7470025e-05 -5.6714516e-07 -2.244775e-11)
(-1.7272761e-05 -9.3380186e-07 -1.276627e-11)
(-1.6717332e-05 -2.8958708e-07 -2.5505203e-11)
(-1.6690193e-05 -5.9899771e-07 -2.1754971e-11)
(-1.6508782e-05 -9.7601657e-07 -1.2679032e-11)
(-1.5914906e-05 -2.9153482e-07 -2.5092721e-11)
(-1.5891759e-05 -6.1479466e-07 -2.1176018e-11)
(-1.572471e-05 -1.0057276e-06 -1.2499444e-11)
(-1.5110749e-05 -2.9015491e-07 -2.4727417e-11)
(-1.5090942e-05 -6.1812052e-07 -2.0672049e-11)
(-1.4937005e-05 -1.0126469e-06 -1.2357674e-11)
(-1.431889e-05 -2.8336673e-07 -2.4341304e-11)
(-1.4301883e-05 -6.0811538e-07 -2.0201336e-11)
(-1.4159912e-05 -9.9525673e-07 -1.225722e-11)
(-1.3551875e-05 -2.7162873e-07 -2.3958101e-11)
(-1.3537215e-05 -5.8735969e-07 -1.9740916e-11)
(-1.3406075e-05 -9.6094613e-07 -1.2134514e-11)
(-1.282194e-05 -2.5697438e-07 -2.361048e-11)
(-1.28092e-05 -5.5805536e-07 -1.9302625e-11)
(-1.2687761e-05 -9.1195535e-07 -1.1971121e-11)
(-1.2142096e-05 -2.3553285e-07 -2.338202e-11)
(-1.2130953e-05 -5.1443909e-07 -1.8961531e-11)
(-1.2018166e-05 -8.4134962e-07 -1.1853714e-11)
(-1.1523679e-05 -2.1050904e-07 -2.3221626e-11)
(-1.1513949e-05 -4.6110602e-07 -1.8756832e-11)
(-1.1408932e-05 -7.5529232e-07 -1.1841291e-11)
(-1.0971348e-05 -1.8355321e-07 -2.3129588e-11)
(-1.0962981e-05 -4.0582074e-07 -1.8652246e-11)
(-1.0864823e-05 -6.6697655e-07 -1.1899421e-11)
(-1.0485856e-05 -1.6345909e-07 -2.3072213e-11)
(-1.0478486e-05 -3.5592112e-07 -1.8655075e-11)
(-1.0386099e-05 -5.7822274e-07 -1.201574e-11)
(-1.0073499e-05 -1.3369128e-07 -2.3136168e-11)
(-1.0066657e-05 -2.9150566e-07 -1.877103e-11)
(-9.9789409e-06 -4.7354245e-07 -1.2187145e-11)
(-9.7470497e-06 -9.9972488e-08 -2.3361149e-11)
(-9.7406765e-06 -2.2000231e-07 -1.9031122e-11)
(-9.6566314e-06 -3.5997243e-07 -1.2425648e-11)
(-9.5131342e-06 -6.4565353e-08 -2.3658288e-11)
(-9.5073035e-06 -1.4605463e-07 -1.9218843e-11)
(-9.4259378e-06 -2.4339448e-07 -1.2524549e-11)
(-9.3844645e-06 -3.9081551e-08 -2.3462587e-11)
(-9.3790236e-06 -7.7776601e-08 -1.838182e-11)
(-9.2993331e-06 -1.2500623e-07 -1.1700391e-11)
(-9.3244596e-06 -7.5051787e-09 -2.0948761e-11)
(-9.3190011e-06 -9.3032237e-09 -1.4097012e-11)
(-9.240173e-06 -1.3657108e-08 -8.3448088e-12)
(-0.047075499 1.94358 -3.6632082e-07)
(-0.033155366 1.6916697 -3.4366935e-06)
(-0.063346969 0.34069657 -2.4709737e-07)
(-0.043910038 0.15148764 -9.8254968e-07)
(-0.016704858 -0.041686073 -6.5310221e-08)
(-0.012616935 -0.044098704 -4.5294774e-07)
(-0.0058488983 -0.01383757 6.821854e-08)
(-0.0052983141 -0.01554864 -1.7237739e-07)
(-0.0010828933 -0.0027911936 5.2914067e-08)
(-0.0011554217 -0.0037962837 -6.6862787e-08)
(-0.00010816708 -0.00013996612 1.8065654e-08)
(-0.00010114438 -0.00032600954 -3.0758888e-08)
(-3.872105e-05 0.00027684106 5.4075096e-10)
(-9.7004806e-06 0.00031678411 -1.5692225e-08)
(-7.6798432e-05 0.00013376204 -3.3119696e-09)
(-5.2430892e-05 0.00016537869 -7.5503288e-09)
(-0.0001064921 -7.3072492e-06 -2.2502484e-09)
(-8.8378021e-05 -1.0516611e-05 -3.111288e-09)
(-9.7534222e-05 -7.1314351e-05 -7.1157413e-10)
(-8.2348042e-05 -8.5820927e-05 -8.9693558e-10)
(-7.4391342e-05 -6.6106726e-05 1.1896466e-10)
(-6.1947627e-05 -8.256205e-05 2.1815656e-11)
(-5.1784231e-05 -3.9161664e-05 3.2507516e-10)
(-4.1895868e-05 -4.8906953e-05 2.5371952e-10)
(-3.5723128e-05 -1.7656056e-05 2.4200579e-10)
(-2.7268392e-05 -2.1301638e-05 2.0621321e-10)
(-2.7034391e-05 -6.7858954e-06 9.718907e-11)
(-1.9850647e-05 -7.8357198e-06 9.6036977e-11)
(-2.3228003e-05 -4.0390939e-06 -2.4297543e-12)
(-1.7093136e-05 -4.0477346e-06 1.6025425e-11)
(-2.1372023e-05 -3.8886336e-06 -3.9413266e-11)
(-1.6164662e-05 -3.6696283e-06 -1.6059176e-11)
(-2.0023514e-05 -3.7402943e-06 -3.7132819e-11)
(-1.5677695e-05 -3.6820022e-06 -1.6811468e-11)
(-1.891605e-05 -2.9367365e-06 -2.0428363e-11)
(-1.5339565e-05 -2.8654443e-06 -5.5239175e-12)
(-1.8131651e-05 -1.9032434e-06 -4.5422773e-12)
(-1.5192277e-05 -1.6306016e-06 5.4636083e-12)
(-1.7715072e-05 -1.1435446e-06 4.0244658e-12)
(-1.5280377e-05 -9.5707632e-07 1.1264529e-11)
(-1.7647479e-05 -5.0910584e-07 5.25505e-12)
(-1.5608286e-05 -1.4182441e-07 1.1515894e-11)
(-1.788537e-05 2.2171538e-07 1.9189453e-12)
(-1.6158569e-05 4.9717426e-07 8.2168743e-12)
(-1.8330737e-05 7.3543091e-07 -2.6755599e-12)
(-1.6860367e-05 1.1093809e-06 3.8899938e-12)
(-1.8841059e-05 8.0697745e-07 -6.3060714e-12)
(-1.7586818e-05 1.2868477e-06 3.6145269e-13)
(-1.9299731e-05 7.0792738e-07 -8.1282279e-12)
(-1.82215e-05 1.0962807e-06 -1.653915e-12)
(-1.9647871e-05 4.769924e-07 -8.3311953e-12)
(-1.8707715e-05 7.5312065e-07 -2.35013e-12)
(-1.9863004e-05 2.1732269e-07 -8.0450873e-12)
(-1.9032814e-05 3.7739734e-07 -2.4285299e-12)
(-1.9936385e-05 -2.4752389e-08 -7.6930701e-12)
(-1.9196306e-05 2.1105961e-08 -2.3247065e-12)
(-1.9866381e-05 -2.6646934e-07 -7.2297271e-12)
(-1.9201218e-05 -3.1051609e-07 -2.2181232e-12)
(-1.9657516e-05 -4.8857472e-07 -6.9662164e-12)
(-1.905544e-05 -5.9739177e-07 -2.2510426e-12)
(-1.9319334e-05 -6.8096809e-07 -6.8490696e-12)
(-1.8771037e-05 -8.4219196e-07 -2.4022413e-12)
(-1.8864961e-05 -8.6684867e-07 -6.6165798e-12)
(-1.8363097e-05 -1.0729292e-06 -2.4735232e-12)
(-1.8310111e-05 -1.0394469e-06 -6.3889739e-12)
(-1.7849239e-05 -1.282032e-06 -2.443512e-12)
(-1.7673074e-05 -1.1846317e-06 -6.2077715e-12)
(-1.7248988e-05 -1.4505815e-06 -2.403787e-12)
(-1.6974035e-05 -1.2816686e-06 -6.2281687e-12)
(-1.6583049e-05 -1.589872e-06 -2.5157118e-12)
(-1.6233496e-05 -1.3407079e-06 -6.4117782e-12)
(-1.5872505e-05 -1.6891462e-06 -2.7654275e-12)
(-1.5470752e-05 -1.3776199e-06 -6.5458026e-12)
(-1.5137197e-05 -1.7412556e-06 -3.0336741e-12)
(-1.4702641e-05 -1.3902866e-06 -6.6326555e-12)
(-1.439433e-05 -1.7506877e-06 -3.2535805e-12)
(-1.3943523e-05 -1.3693539e-06 -6.7343444e-12)
(-1.3658459e-05 -1.7251779e-06 -3.4481302e-12)
(-1.3206052e-05 -1.3240842e-06 -6.7992208e-12)
(-1.2942264e-05 -1.6734967e-06 -3.5842916e-12)
(-1.2502489e-05 -1.2568812e-06 -6.809589e-12)
(-1.2257973e-05 -1.5900541e-06 -3.678464e-12)
(-1.1846097e-05 -1.159579e-06 -6.8460141e-12)
(-1.1618858e-05 -1.4678601e-06 -3.7907669e-12)
(-1.1248675e-05 -1.0438819e-06 -6.9473601e-12)
(-1.1036843e-05 -1.3246796e-06 -3.9401879e-12)
(-1.0714985e-05 -9.2280197e-07 -7.0871735e-12)
(-1.0516728e-05 -1.1715094e-06 -4.1112192e-12)
(-1.024511e-05 -7.9632381e-07 -7.2473179e-12)
(-1.0058464e-05 -1.0078576e-06 -4.2849069e-12)
(-9.8451766e-06 -6.5162311e-07 -7.4307486e-12)
(-9.6680846e-06 -8.2368651e-07 -4.4646989e-12)
(-9.5285321e-06 -4.9649721e-07 -7.6459827e-12)
(-9.3589055e-06 -6.2849759e-07 -4.6635446e-12)
(-9.3019662e-06 -3.3701668e-07 -7.7458094e-12)
(-9.1377234e-06 -4.292957e-07 -4.7876734e-12)
(-9.1778972e-06 -1.7088377e-07 -7.2025369e-12)
(-9.0169641e-06 -2.1720016e-07 -4.4959312e-12)
(-9.1200827e-06 -1.721771e-08 -5.0114832e-12)
(-8.9609713e-06 -1.896584e-08 -3.1437887e-12)
(0.00045753988 1.3362122e-05 -7.9220432e-09)
(0.00042172345 3.3698219e-06 -1.7509126e-08)
(0.00035908833 3.3470666e-05 -2.2403383e-08)
(0.00029176743 4.3476408e-05 -2.3493262e-08)
(0.00023062877 6.7253539e-05 -2.1913967e-08)
(0.0001795436 7.5867983e-05 -1.8921791e-08)
(0.00013999638 8.1505137e-05 -1.5577366e-08)
(0.0001076671 7.7179762e-05 -1.2466952e-08)
(8.4477306e-05 6.6624276e-05 -9.7867161e-09)
(6.9362936e-05 4.8726427e-05 -7.5236097e-09)
(6.0633665e-05 2.5340886e-05 -5.6105375e-09)
(5.6654564e-05 -1.2986093e-06 -4.0384062e-09)
(5.5803219e-05 -3.0524244e-05 -2.7806282e-09)
(5.656316e-05 -5.9780954e-05 -1.7874599e-09)
(5.7667197e-05 -8.8999224e-05 -1.0162089e-09)
(5.8215831e-05 -0.00011690083 -4.3356888e-10)
(5.7638368e-05 -0.00014132049 -1.1335299e-11)
(5.5612269e-05 -0.00016251929 2.7860959e-10)
(5.2003626e-05 -0.00018020352 4.6658236e-10)
(4.6826947e-05 -0.00019423984 5.7518659e-10)
(4.0216955e-05 -0.00020459178 6.233774e-10)
(3.2403746e-05 -0.00021087735 6.211671e-10)
(2.3686969e-05 -0.0002139563 5.6521302e-10)
(1.435903e-05 -0.00021413526 4.4356039e-10)
(4.5489132e-06 -0.00020556432 2.7215136e-10)
(0.00010503767 -6.8884909e-05 -1.8395975e-08)
(9.6964442e-05 -0.00031846355 -3.9998599e-08)
(9.3568009e-05 -0.00043552459 -5.1169025e-08)
(9.8043267e-05 -0.00064666004 -5.3910975e-08)
(0.00011216165 -0.00080900419 -5.0773718e-08)
(0.0001328524 -0.0010088726 -4.4749522e-08)
(0.00015671564 -0.001213379 -3.7983e-08)
(0.00018407823 -0.001427589 -3.1583607e-08)
(0.00020821906 -0.0016366303 -2.5866381e-08)
(0.00022352829 -0.0018484893 -2.0832289e-08)
(0.00023050603 -0.0020566558 -1.6349902e-08)
(0.00023003313 -0.0022472381 -1.25444e-08)
(0.00022332437 -0.0024190429 -9.3714173e-09)
(0.0002117081 -0.0025708159 -6.7240825e-09)
(0.00019656863 -0.0027012635 -4.5491673e-09)
(0.00017911819 -0.0028099681 -2.8089868e-09)
(0.00016026427 -0.0028967116 -1.4694018e-09)
(0.00014061417 -0.0029618398 -4.790962e-10)
(0.0001206357 -0.0030059477 2.3097081e-10)
(0.00010068955 -0.0030291373 7.016637e-10)
(8.1037406e-05 -0.0030317141 9.8154458e-10)
(6.1857868e-05 -0.003014634 1.1042754e-09)
(4.3239078e-05 -0.0029817832 1.0763136e-09)
(2.504716e-05 -0.0029247447 8.6550141e-10)
(7.1896533e-06 -0.0028004129 4.2065977e-10)
(0.00088700106 -0.00038244196 -4.7850233e-08)
(0.00089541656 -0.0017241675 -1.0103911e-07)
(0.00092905519 -0.0023337207 -1.2644697e-07)
(0.00098031781 -0.0032899342 -1.3012541e-07)
(0.0010279033 -0.0040627898 -1.2149368e-07)
(0.0010588147 -0.0048383283 -1.0844679e-07)
(0.0010670682 -0.0055656764 -9.4655393e-08)
(0.0010543127 -0.0062791756 -8.1835963e-08)
(0.0010201944 -0.0070107921 -6.9924346e-08)
(0.00097095536 -0.0078010167 -5.9132958e-08)
(0.0009101565 -0.0085777367 -4.8915532e-08)
(0.00084102314 -0.0092387824 -4.0035586e-08)
(0.00076715571 -0.0097730656 -3.2282691e-08)
(0.0006912706 -0.010187977 -2.5355452e-08)
(0.00061550497 -0.010493231 -1.9261889e-08)
(0.00054125657 -0.010699807 -1.403519e-08)
(0.00046926792 -0.010816273 -9.7253083e-09)
(0.00040037932 -0.010852878 -6.271399e-09)
(0.00033518624 -0.010819452 -3.5348297e-09)
(0.00027397593 -0.010723782 -1.5091451e-09)
(0.00021673639 -0.010575663 -9.4263945e-11)
(0.00016321806 -0.010385023 7.9840632e-10)
(0.00011300129 -0.010169231 1.2141921e-09)
(6.5310711e-05 -0.0098860786 1.164362e-09)
(1.986986e-05 -0.0094532815 6.3026306e-10)
(0.0037363671 -0.0012025289 -1.2097799e-07)
(0.003723122 -0.005247111 -2.376216e-07)
(0.0036753104 -0.0068495048 -2.7933062e-07)
(0.0035098585 -0.01033158 -2.7385911e-07)
(0.0033088018 -0.013512331 -2.5077373e-07)
(0.0030630555 -0.016369886 -2.2530344e-07)
(0.0027910606 -0.018497336 -2.0085807e-07)
(0.0025109043 -0.019998251 -1.7972704e-07)
(0.0022352118 -0.020852556 -1.5901497e-07)
(0.0019754174 -0.021140128 -1.410823e-07)
(0.0017319439 -0.021041237 -1.2243171e-07)
(0.0015050656 -0.020689745 -1.0623509e-07)
(0.0013005254 -0.020173885 -9.1683108e-08)
(0.0011155528 -0.01955229 -7.7719041e-08)
(0.00094829425 -0.018862038 -6.4556774e-08)
(0.00079644375 -0.018121424 -5.2414601e-08)
(0.00065867234 -0.017356546 -4.1420438e-08)
(0.00053686093 -0.016593437 -3.166983e-08)
(0.00043020289 -0.01584904 -2.3231432e-08)
(0.00033732347 -0.015133327 -1.6179048e-08)
(0.00025669295 -0.014459992 -1.0528251e-08)
(0.00018657375 -0.01383192 -6.2241574e-09)
(0.0001254185 -0.013281069 -3.3312309e-09)
(7.1339314e-05 -0.01270469 -1.4694045e-09)
(2.3485525e-05 -0.012083109 -6.3539102e-10)
(0.012051074 -0.0089561466 -3.023785e-07)
(0.0096648229 -0.026454489 -5.0273983e-07)
(0.0084801873 -0.029312674 -5.3756349e-07)
(0.0067491921 -0.033997912 -5.1302674e-07)
(0.0053435516 -0.032026274 -4.7127805e-07)
(0.0041204245 -0.028744602 -4.2704107e-07)
(0.0031023489 -0.024428807 -3.8507632e-07)
(0.0022858267 -0.019764883 -3.451869e-07)
(0.001647818 -0.015229434 -3.1107922e-07)
(0.0011531664 -0.010894463 -2.807847e-07)
(0.0007765015 -0.0069601736 -2.5211217e-07)
(0.0004969735 -0.0035104125 -2.2585486e-07)
(0.00029047093 -0.00053951233 -2.0339657e-07)
(0.00014130456 0.0019341487 -1.8075615e-07)
(3.7748071e-05 0.0040071947 -1.587619e-07)
(-2.9540465e-05 0.0058563028 -1.377444e-07)
(-6.8809607e-05 0.0074523791 -1.1760386e-07)
(-8.9011854e-05 0.0087488742 -9.8400259e-08)
(-9.5424215e-05 0.0097346079 -8.026895e-08)
(-9.2127508e-05 0.010445174 -6.3430653e-08)
(-8.2019001e-05 0.010893327 -4.8152917e-08)
(-6.7357459e-05 0.011159883 -3.4514021e-08)
(-4.9111705e-05 0.01117214 -2.4161715e-08)
(-2.8882878e-05 0.011174027 -1.5262889e-08)
(-5.0731108e-06 0.010722328 -9.3825845e-09)
(0.015010097 0.023995876 -7.2005629e-07)
(0.0041246886 -0.001496641 -9.892255e-07)
(0.0014017293 0.048628806 -9.7627336e-07)
(-0.000444623 0.051422813 -8.9559188e-07)
(-0.0020475528 0.065808152 -8.1805167e-07)
(-0.0032366831 0.076511312 -7.3338323e-07)
(-0.0038879416 0.083830343 -6.5682034e-07)
(-0.004081457 0.089780712 -5.8828756e-07)
(-0.0039914708 0.094293685 -5.2757444e-07)
(-0.0037580959 0.09712296 -4.7482208e-07)
(-0.0034518102 0.098602935 -4.2746605e-07)
(-0.0030958094 0.098943478 -3.8037666e-07)
(-0.0027422093 0.09863723 -3.4905155e-07)
(-0.0024059466 0.097628359 -3.1409599e-07)
(-0.0020761148 0.096094213 -2.8066169e-07)
(-0.0017641435 0.094127953 -2.4962899e-07)
(-0.0014757112 0.09172337 -2.2020758e-07)
(-0.0012149884 0.089115677 -1.9214111e-07)
(-0.00098215475 0.086421286 -1.6526757e-07)
(-0.00077595681 0.083735266 -1.394685e-07)
(-0.00059399074 0.081017299 -1.1468671e-07)
(-0.00043367829 0.078474389 -9.0944303e-08)
(-0.00029099865 0.075699922 -6.855364e-08)
(-0.00016437036 0.073712779 -4.8989802e-08)
(-4.628106e-05 0.069825696 -2.8942516e-08)
(-0.0015323512 1.1711416 -2.5135411e-06)
(-0.00070816078 0.96080374 -2.0002104e-06)
(-0.0010271536 0.86612237 -1.6160933e-06)
(-0.00072777736 0.77462549 -1.31655e-06)
(-0.00062118326 0.67975697 -1.0909341e-06)
(-0.00053048131 0.58961325 -9.2319053e-07)
(-0.00045061194 0.51224731 -7.9795429e-07)
(-0.00037897866 0.44940168 -7.0067731e-07)
(-0.00031597165 0.39770138 -6.1902292e-07)
(-0.00025922389 0.35373819 -5.5455254e-07)
(-0.0002142144 0.31588439 -5.0131861e-07)
(-0.00017945845 0.28342132 -4.5347511e-07)
(-0.00014631324 0.25582206 -4.1144419e-07)
(-0.00011518821 0.23234955 -3.7256792e-07)
(-8.878235e-05 0.21231824 -3.3600339e-07)
(-6.8978864e-05 0.19520216 -3.0137682e-07)
(-5.4447491e-05 0.18054144 -2.684199e-07)
(-4.2360935e-05 0.16798556 -2.3696269e-07)
(-3.2385102e-05 0.15718327 -2.0687143e-07)
(-2.4210523e-05 0.1479392 -1.7799177e-07)
(-1.7529207e-05 0.13985668 -1.501871e-07)
(-1.209058e-05 0.13313522 -1.2342667e-07)
(-7.6460697e-06 0.12671144 -9.7015587e-08)
(-4.075734e-06 0.12252871 -7.4147328e-08)
(-9.9013908e-07 0.11544623 -4.4669515e-08)
(-0.013564058 0.090808359 -1.1547184e-06)
(-0.0031152041 0.098896656 -1.1731083e-06)
(-0.00069551308 0.10531797 -1.111927e-06)
(0.00098992816 0.10692553 -1.0130532e-06)
(0.0024587292 0.10934414 -9.0691957e-07)
(0.0035438054 0.11126428 -8.0457091e-07)
(0.0041297789 0.11290965 -7.1390726e-07)
(0.0042745621 0.11452375 -6.2983408e-07)
(0.0041203688 0.11530103 -5.4698694e-07)
(0.0038445914 0.11525339 -5.0438044e-07)
(0.0035421391 0.11440683 -4.5591394e-07)
(0.0031990309 0.11292161 -4.0633372e-07)
(0.0028311785 0.11102923 -3.6351506e-07)
(0.0024671398 0.10863448 -3.2517115e-07)
(0.0021192296 0.10569829 -2.8999945e-07)
(0.0017965839 0.10251047 -2.5730272e-07)
(0.0015023129 0.099240383 -2.2660644e-07)
(0.0012372361 0.095972916 -1.9756227e-07)
(0.0010007538 0.092738576 -1.6991826e-07)
(0.0007912975 0.089605923 -1.4349057e-07)
(0.00060628483 0.086513875 -1.1816923e-07)
(0.00044308833 0.083666478 -9.3846392e-08)
(0.00029759693 0.080617967 -7.0965854e-08)
(0.00016823076 0.078454318 -5.0865368e-08)
(4.7649524e-05 0.074283778 -2.9812717e-08)
(-0.010003289 -0.041860048 -6.3249654e-07)
(-0.0084363126 -0.039900657 -6.7385017e-07)
(-0.0069658694 -0.0382406 -6.4979186e-07)
(-0.0055632046 -0.035192298 -6.0150368e-07)
(-0.0042912536 -0.030674748 -5.4531233e-07)
(-0.0031990368 -0.025453699 -4.8703378e-07)
(-0.002301536 -0.019996512 -4.3580539e-07)
(-0.0015935022 -0.014678241 -3.8779021e-07)
(-0.0010505575 -0.0097610513 -3.4735207e-07)
(-0.0006432693 -0.0054029204 -3.1578541e-07)
(-0.00034035056 -0.0016367731 -2.8367061e-07)
(-0.00012151041 0.0015598513 -2.5272681e-07)
(2.8256067e-05 0.0042796018 -2.2415279e-07)
(0.00012461167 0.0067731912 -1.9781536e-07)
(0.00018141985 0.0089859558 -1.731625e-07)
(0.00021008588 0.010841545 -1.498932e-07)
(0.00021789774 0.012320327 -1.2784348e-07)
(0.00021081058 0.013446106 -1.0696839e-07)
(0.00019350915 0.014249343 -8.7341334e-08)
(0.00016954784 0.014779898 -6.9134309e-08)
(0.00014133477 0.015056716 -5.2555564e-08)
(0.00011064134 0.015153763 -3.7482114e-08)
(7.8270159e-05 0.015022727 -2.6662468e-08)
(4.5435672e-05 0.014887348 -1.6761298e-08)
(9.9831825e-06 0.014243551 -9.9885535e-09)
(-0.0049469915 -0.017451646 -2.9297288e-07)
(-0.0046454623 -0.020270934 -3.3314683e-07)
(-0.004323561 -0.023124536 -3.2942326e-07)
(-0.0039797688 -0.025287936 -3.0792772e-07)
(-0.0036123142 -0.026809374 -2.8037644e-07)
(-0.0032281501 -0.027658206 -2.557887e-07)
(-0.0028638283 -0.027842825 -2.280093e-07)
(-0.0025251119 -0.027509586 -2.0002991e-07)
(-0.0022118964 -0.026859 -1.7685752e-07)
(-0.0019253249 -0.026013901 -1.5668997e-07)
(-0.0016678758 -0.025037182 -1.3719597e-07)
(-0.0014381499 -0.023978861 -1.1868178e-07)
(-0.0012303112 -0.022882677 -1.0149278e-07)
(-0.0010417704 -0.021755761 -8.5674317e-08)
(-0.00087218912 -0.020626312 -7.116521e-08)
(-0.00072266718 -0.019526257 -5.7869836e-08)
(-0.00059198758 -0.018471524 -4.5826911e-08)
(-0.00047854886 -0.017473794 -3.5110655e-08)
(-0.0003806314 -0.016541662 -2.5817444e-08)
(-0.00029634942 -0.015677149 -1.8015954e-08)
(-0.00022397682 -0.014888206 -1.1716905e-08)
(-0.00016178511 -0.014174408 -6.8752931e-09)
(-0.00010817951 -0.013561686 -3.739667e-09)
(-6.1368106e-05 -0.012938959 -1.6339911e-09)
(-2.0670605e-05 -0.012292447 -6.993411e-10)
(-0.001250868 -0.0047754666 -1.3336295e-07)
(-0.0013289852 -0.0056945161 -1.5917749e-07)
(-0.0013938476 -0.0066167779 -1.5991062e-07)
(-0.0014356159 -0.0074745744 -1.4915413e-07)
(-0.0014465516 -0.0082985879 -1.3417509e-07)
(-0.0014322649 -0.0091181253 -1.1880569e-07)
(-0.0013926482 -0.01005013 -1.0278954e-07)
(-0.001331093 -0.011026751 -8.7228175e-08)
(-0.001252209 -0.011868783 -7.3950239e-08)
(-0.0011617407 -0.012552497 -6.2409763e-08)
(-0.0010644403 -0.01308441 -5.1858138e-08)
(-0.00096533997 -0.01347685 -4.22509e-08)
(-0.00086684566 -0.013746389 -3.3679958e-08)
(-0.00077066389 -0.013906943 -2.6148371e-08)
(-0.00067783321 -0.013967871 -1.9774502e-08)
(-0.00058909377 -0.013944037 -1.4277479e-08)
(-0.00050544411 -0.01384411 -9.7090896e-09)
(-0.00042748075 -0.013678167 -6.0272858e-09)
(-0.00035526832 -0.013454415 -3.1639284e-09)
(-0.00028871987 -0.013175523 -1.0376595e-09)
(-0.00022739401 -0.012856768 4.4205573e-10)
(-0.00017066762 -0.012519584 1.3522779e-09)
(-0.00011787124 -0.012183153 1.695478e-09)
(-6.8016584e-05 -0.011789116 1.5047421e-09)
(-2.0763661e-05 -0.011255201 7.55055e-10)
(-6.5522856e-05 -0.00053124622 -5.9169828e-08)
(-6.6141224e-05 -0.00075748134 -6.9918973e-08)
(-9.6236309e-05 -0.0010196255 -6.9363902e-08)
(-0.00013916869 -0.0013175891 -6.3349817e-08)
(-0.00018899979 -0.0016353518 -5.5389931e-08)
(-0.00024894893 -0.0019536103 -4.7257612e-08)
(-0.00030193645 -0.0022773099 -3.9343945e-08)
(-0.00033800324 -0.002597948 -3.1988713e-08)
(-0.00035858848 -0.0028951723 -2.5697388e-08)
(-0.00036542998 -0.0031632087 -2.0380973e-08)
(-0.00036062584 -0.0033994903 -1.5796981e-08)
(-0.00034687794 -0.0036032478 -1.1860998e-08)
(-0.00032730713 -0.0037751559 -8.5474542e-09)
(-0.00030390013 -0.0039162386 -5.819445e-09)
(-0.00027791993 -0.0040275512 -3.6519582e-09)
(-0.00025092207 -0.004112237 -1.940876e-09)
(-0.00022337928 -0.0041729271 -6.3839879e-10)
(-0.00019544207 -0.0042118792 3.1375915e-10)
(-0.00016744627 -0.0042326996 9.7013789e-10)
(-0.00013978692 -0.0042421663 1.3852314e-09)
(-0.00011265447 -0.0042359232 1.6034707e-09)
(-8.6145748e-05 -0.0042052959 1.6535519e-09)
(-6.0324555e-05 -0.0041540853 1.5248271e-09)
(-3.5015815e-05 -0.0040685024 1.1708796e-09)
(-1.0218623e-05 -0.0038923448 5.3413075e-10)
(3.0977959e-05 0.00036259992 -2.4848628e-08)
(5.9296898e-05 0.00040436416 -2.7590056e-08)
(7.1419764e-05 0.00043061741 -2.6363227e-08)
(6.9975352e-05 0.00042190479 -2.3258256e-08)
(5.7456647e-05 0.00038550701 -1.9607399e-08)
(4.1507032e-05 0.00033632012 -1.6077399e-08)
(2.281844e-05 0.0002778362 -1.2859768e-08)
(2.5499179e-06 0.00021158565 -1.0018679e-08)
(-1.5507171e-05 0.00014030939 -7.6457788e-09)
(-3.1030988e-05 6.6801526e-05 -5.7064733e-09)
(-4.4238415e-05 -7.117046e-06 -4.1160307e-09)
(-5.3273888e-05 -7.8202605e-05 -2.8191988e-09)
(-5.8933422e-05 -0.00014364938 -1.7805026e-09)
(-6.1748348e-05 -0.00020299332 -9.6885319e-10)
(-6.2282923e-05 -0.00025589045 -3.5658299e-10)
(-6.1320261e-05 -0.00030182764 9.2832468e-11)
(-5.8756782e-05 -0.00034076781 4.0842202e-10)
(-5.4579814e-05 -0.00037327386 6.1615754e-10)
(-4.9086067e-05 -0.0003993772 7.3843153e-10)
(-4.2491413e-05 -0.0004194382 7.9505511e-10)
(-3.5134848e-05 -0.00043356557 8.0042139e-10)
(-2.7357821e-05 -0.00044150209 7.6008375e-10)
(-1.9395436e-05 -0.0004445886 6.6626131e-10)