/*--------------------------------*- C++ -*----------------------------------*\
| =========                 |                                                 |
| \\      /  F ield         | OpenFOAM: The Open Source CFD Toolbox           |
|  \\    /   O peration     | Version:  4.0                                   |
|   \\  /    A nd           | Web:      www.OpenFOAM.org                      |
|    \\/     M anipulation  |                                                 |
\*---------------------------------------------------------------------------*/
FoamFile
{
    version     2.0;
    format      ascii;
    class       volScalarField;
    location    "0.56";
    object      nut;
}
// * * * * * * * * * * * * * * * * * * * * * * * * * * * * * * * * * * * * * //

dimensions      [0 2 -1 0 0 0 0];

internalField   nonuniform List<scalar> 
1740
(
1.3210303e-05
1.333625e-05
1.2188335e-06
1.0135042e-05
6.9257057e-06
1.8100066e-06
1.905997e-05
5.4281227e-06
2.2649631e-06
1.4620957e-05
4.7768678e-06
2.7207977e-06
1.409242e-05
4.3550291e-06
3.1136191e-06
9.8442635e-06
4.0624875e-06
3.3638537e-06
1.4247796e-05
3.8735585e-06
3.6379767e-06
1.2291242e-05
3.7398281e-06
3.8698316e-06
1.0613162e-05
3.6470388e-06
3.9955199e-06
9.5693606e-06
3.5811022e-06
4.1476645e-06
8.7737234e-06
3.5499135e-06
4.2863456e-06
8.1113561e-06
3.5284195e-06
4.3287155e-06
7.5186335e-06
3.503323e-06
4.4277891e-06
7.0089487e-06
3.5058879e-06
4.5198125e-06
6.5803386e-06
3.5364667e-06
4.5417637e-06
6.221609e-06
3.547285e-06
4.5818663e-06
5.8994057e-06
3.5333489e-06
4.5989564e-06
5.6077573e-06
3.5128947e-06
4.6250616e-06
5.3872367e-06
3.50664e-06
4.6136552e-06
5.2120163e-06
3.4925188e-06
4.6225121e-06
5.0273021e-06
3.5133981e-06
4.6859088e-06
4.8755231e-06
3.5869054e-06
4.692949e-06
4.7504546e-06
3.584486e-06
4.6712839e-06
4.6374736e-06
3.5728149e-06
4.678285e-06
4.5196599e-06
3.5544027e-06
4.6742254e-06
4.4026499e-06
3.5542308e-06
4.6534969e-06
4.3074696e-06
3.5677838e-06
4.6518262e-06
4.2278191e-06
3.5968213e-06
4.6226052e-06
4.1848278e-06
3.5804425e-06
4.5826443e-06
2.9271456e-06
3.6436507e-06
4.2738185e-06
1.8547115e-06
2.2206251e-06
4.3973513e-06
7.1978478e-06
7.3783354e-06
6.729918e-06
6.5346489e-06
6.7377925e-06
6.3719318e-06
5.1930092e-06
5.1341616e-06
4.8842455e-06
4.34944e-06
4.2783488e-06
4.1418434e-06
3.8033645e-06
3.7606925e-06
3.7001531e-06
3.4359698e-06
3.4186247e-06
3.4036682e-06
3.1731393e-06
3.1715192e-06
3.1811694e-06
2.9646882e-06
2.9712533e-06
2.9925836e-06
2.7756453e-06
2.785677e-06
2.81116e-06
2.5814991e-06
2.5923338e-06
2.6177986e-06
2.3664422e-06
2.3766838e-06
2.3999666e-06
2.1229785e-06
2.1319657e-06
2.1520711e-06
1.851953e-06
1.8594341e-06
1.8760313e-06
1.5621929e-06
1.5681416e-06
1.5812808e-06
1.2689259e-06
1.2734454e-06
1.2834049e-06
9.9041515e-07
9.9368781e-07
1.000891e-06
7.4332371e-07
7.4557638e-07
7.5053198e-07
5.3856084e-07
5.4003347e-07
5.4327341e-07
3.7948278e-07
3.8039785e-07
3.8241401e-07
2.6292697e-07
2.6346948e-07
2.6466954e-07
1.8203463e-07
1.8235014e-07
1.8304582e-07
1.285087e-07
1.2868922e-07
1.2908566e-07
9.4448033e-08
9.4551202e-08
9.4777345e-08
7.3635073e-08
7.3695934e-08
7.3829322e-08
6.1540381e-08
6.1578969e-08
6.1663719e-08
5.5018323e-08
5.5045446e-08
5.5105348e-08
5.1964891e-08
5.1986064e-08
5.2033257e-08
5.1014934e-08
5.1032837e-08
5.1073178e-08
5.1304155e-08
5.1320057e-08
5.1356231e-08
5.2296323e-08
5.2310826e-08
5.2344011e-08
5.36648e-08
5.3678194e-08
5.3708898e-08
5.5214248e-08
5.5226676e-08
5.5255124e-08
5.682992e-08
5.6841457e-08
5.6867779e-08
5.84453e-08
5.8455997e-08
5.8480301e-08
6.0021857e-08
6.0031759e-08
6.005416e-08
6.1536761e-08
6.1545915e-08
6.1566543e-08
6.2975736e-08
6.2984196e-08
6.3003191e-08
6.4329147e-08
6.4336968e-08
6.435448e-08
6.5590021e-08
6.5597265e-08
6.5613443e-08
6.6753196e-08
6.6759924e-08
6.6774919e-08
6.7815068e-08
6.7821345e-08
6.7835309e-08
6.877372e-08
6.8779621e-08
6.8792711e-08
6.9629032e-08
6.9634668e-08
6.9647067e-08
7.0353746e-08
7.0359118e-08
7.0370903e-08
7.0941391e-08
7.0946533e-08
7.09578e-08
7.1379908e-08
7.138486e-08
7.1395707e-08
7.1645645e-08
7.1650445e-08
7.1660957e-08
7.1687135e-08
7.169181e-08
7.1702048e-08
7.1341669e-08
7.1346224e-08
7.1356196e-08
4.1618313e-06
4.4940918e-06
6.7671444e-06
8.4889528e-06
5.9915912e-06
6.035232e-06
4.7304665e-06
4.8321155e-06
4.0903889e-06
4.1966541e-06
3.7014972e-06
3.8022733e-06
3.4327881e-06
3.5263051e-06
3.2233142e-06
3.3088598e-06
3.0390287e-06
3.1161984e-06
2.8568019e-06
2.9253077e-06
2.6597898e-06
2.7194828e-06
2.4368624e-06
2.4877835e-06
2.1832902e-06
2.2256941e-06
1.90153e-06
1.9358667e-06
1.6013516e-06
1.628256e-06
1.2985714e-06
1.318852e-06
1.0118416e-06
1.0264636e-06
7.580589e-07
7.6810021e-07
5.4819273e-07
5.5475174e-07
3.8547656e-07
3.8955898e-07
2.6649486e-07
2.6892764e-07
1.8410121e-07
1.8550467e-07
1.2968531e-07
1.3048075e-07
9.5118903e-08
9.5571278e-08
7.4030789e-08
7.4297638e-08
6.1792006e-08
6.1962335e-08
5.5196478e-08
5.5318069e-08
5.2105585e-08
5.22027e-08
5.1135496e-08
5.1219672e-08
5.1412467e-08
5.1488756e-08
5.2395788e-08
5.2466179e-08
5.375684e-08
5.382203e-08
5.5299485e-08
5.5359731e-08
5.6908717e-08
5.6964194e-08
5.8517977e-08
5.8568908e-08
6.0088772e-08
6.0135442e-08
6.1598316e-08
6.1641056e-08
6.303237e-08
6.3071535e-08
6.4381314e-08
6.4417266e-08
6.5638184e-08
6.5671278e-08
6.6797811e-08
6.682839e-08
6.7856591e-08
6.788498e-08
6.8812615e-08
6.8839119e-08
6.9665827e-08
6.9690736e-08
7.0388693e-08
7.0412273e-08
7.0974791e-08
7.0997288e-08
7.1412055e-08
7.143369e-08
7.1676795e-08
7.1697749e-08
7.1717473e-08
7.173789e-08
7.1371232e-08
7.1391206e-08
5.824189e-10
1.3320344e-08
1.933324e-07
8.2761667e-07
1.6456906e-06
2.2326814e-06
2.5775866e-06
2.7857546e-06
2.9296353e-06
3.0448613e-06
3.1485449e-06
3.2545398e-06
3.359852e-06
3.46336e-06
3.5642588e-06
3.6611904e-06
3.7516963e-06
3.8316354e-06
3.8943034e-06
3.9291078e-06
3.9194234e-06
3.8389988e-06
3.6453586e-06
3.2619314e-06
2.4534933e-06
2.2108296e-10
2.6934282e-08
3.6046131e-07
1.3793122e-06
2.5738268e-06
3.382747e-06
3.855835e-06
4.1622673e-06
4.3966919e-06
4.6018861e-06
4.7983907e-06
4.9986597e-06
5.2005548e-06
5.4030196e-06
5.6044022e-06
5.8019599e-06
5.9909373e-06
6.1635486e-06
6.3070754e-06
6.4012015e-06
6.4135615e-06
6.2917628e-06
5.9479891e-06
5.2213161e-06
3.6832113e-06
6.6704625e-10
7.8936031e-08
8.5860295e-07
2.5102943e-06
3.7963319e-06
4.5329143e-06
4.9964763e-06
5.3420458e-06
5.6422215e-06
5.929395e-06
6.218869e-06
6.5173638e-06
6.8234743e-06
7.136039e-06
7.4536344e-06
7.7731978e-06
8.0885084e-06
8.3895869e-06
8.6587485e-06
8.8672407e-06
8.9683635e-06
8.8844254e-06
8.4798777e-06
7.4960937e-06
5.2897166e-06
3.1322591e-09
2.855642e-07
2.064096e-06
4.0057994e-06
5.0469299e-06
5.6349514e-06
6.0419199e-06
6.3845824e-06
6.7131393e-06
7.0462242e-06
7.3946776e-06
7.7615319e-06
8.1433684e-06
8.5388895e-06
8.947972e-06
9.3692634e-06
9.7978113e-06
1.0224091e-05
1.0631423e-05
1.0991871e-05
1.1259142e-05
1.1354689e-05
1.1134672e-05
1.0289798e-05
7.8905149e-06
2.3376245e-08
1.1380906e-06
3.9884401e-06
5.5979629e-06
6.4505068e-06
6.9722893e-06
7.3565603e-06
7.7034632e-06
8.0533692e-06
8.4083623e-06
8.7818589e-06
9.18038e-06
9.5941131e-06
1.0018138e-05
1.0455414e-05
1.0910582e-05
1.1382991e-05
1.1868082e-05
1.2355941e-05
1.2828316e-05
1.3254053e-05
1.3582882e-05
1.3738049e-05
1.3623659e-05
1.3211349e-05
1.9519076e-07
2.7552361e-06
5.9007684e-06
7.7052548e-06
8.6211406e-06
9.03917e-06
9.2361933e-06
9.3738638e-06
9.5134163e-06
9.6729057e-06
9.8603893e-06
1.0082075e-05
1.033836e-05
1.0629385e-05
1.0956423e-05
1.1320586e-05
1.1722111e-05
1.2159109e-05
1.2626623e-05
1.3114858e-05
1.3606127e-05
1.4071541e-05
1.4467892e-05
1.4746442e-05
1.4849741e-05
4.3386784e-06
4.3171152e-06
4.3641791e-06
4.4771045e-06
4.6545564e-06
4.8854793e-06
5.1595627e-06
5.4741067e-06
5.8312253e-06
6.232826e-06
6.6786615e-06
7.1657422e-06
7.6879406e-06
8.2374865e-06
8.8071407e-06
9.3919802e-06
9.9896055e-06
1.0598795e-05
1.1217767e-05
1.1842039e-05
1.2461407e-05
1.3056826e-05
1.3597618e-05
1.4046986e-05
1.4337287e-05
9.118048e-06
9.3726364e-06
9.7686195e-06
1.0187825e-05
1.0365736e-05
1.0330602e-05
1.0214327e-05
1.0118253e-05
1.0082321e-05
1.0108264e-05
1.0191804e-05
1.0328223e-05
1.0515482e-05
1.0753241e-05
1.1041402e-05
1.1379495e-05
1.1765703e-05
1.219618e-05
1.2663929e-05
1.3156759e-05
1.3654135e-05
1.4124019e-05
1.4520067e-05
1.4792166e-05
1.4886437e-05
6.4081494e-06
6.8183897e-06
7.2503263e-06
7.6515854e-06
7.9549091e-06
8.1733323e-06
8.3667463e-06
8.5749421e-06
8.8064453e-06
9.0755951e-06
9.379167e-06
9.7081831e-06
1.0057689e-05
1.0434065e-05
1.0841248e-05
1.127986e-05
1.1746981e-05
1.2235384e-05
1.2731606e-05
1.3212895e-05
1.3642666e-05
1.396462e-05
1.4096271e-05
1.3938797e-05
1.3471114e-05
5.1455809e-06
5.5031866e-06
5.8546203e-06
6.1723677e-06
6.4395284e-06
6.6687048e-06
6.8901317e-06
7.1242082e-06
7.3821026e-06
7.6704173e-06
7.9871332e-06
8.3295862e-06
8.6976409e-06
9.0924381e-06
9.513547e-06
9.9573029e-06
1.0415573e-05
1.087408e-05
1.1309776e-05
1.1686688e-05
1.1948985e-05
1.2007766e-05
1.1709281e-05
1.0733934e-05
8.1266463e-06
4.4391304e-06
4.7297358e-06
5.0214296e-06
5.2934846e-06
5.5401415e-06
5.7695727e-06
5.9962513e-06
6.2329832e-06
6.4883292e-06
6.7664557e-06
7.0670613e-06
7.3889466e-06
7.7317785e-06
8.0945214e-06
8.4743111e-06
8.8641889e-06
9.2520383e-06
9.6186875e-06
9.9351787e-06
1.0158658e-05
1.0225812e-05
1.0041332e-05
9.4544463e-06
8.199319e-06
5.6398416e-06
3.9908874e-06
4.2214444e-06
4.4609318e-06
4.6934003e-06
4.9152108e-06
5.1310573e-06
5.3491005e-06
5.577097e-06
5.8207366e-06
6.0828727e-06
6.3637376e-06
6.6624514e-06
6.9777517e-06
7.3069269e-06
7.6446161e-06
7.9817214e-06
8.3040308e-06
8.5905934e-06
8.8116207e-06
8.9256325e-06
8.8753736e-06
8.5812718e-06
7.9284192e-06
6.7286503e-06
4.4974999e-06
3.6779499e-06
3.8634129e-06
4.0615473e-06
4.260736e-06
4.4576805e-06
4.6545906e-06
4.8560684e-06
5.0669116e-06
5.2908442e-06
5.5298198e-06
5.7840619e-06
6.0526338e-06
6.3335692e-06
6.6231822e-06
6.9151255e-06
7.1994979e-06
7.4618908e-06
7.6822672e-06
7.8337301e-06
7.8811792e-06
7.7798162e-06
7.47302e-06
6.8866955e-06
5.9023275e-06
4.1454121e-06
3.4344115e-06
3.5867456e-06
3.7527746e-06
3.9243287e-06
4.098422e-06
4.2757528e-06
4.4588207e-06
4.650489e-06
4.8530545e-06
5.0676848e-06
5.2942958e-06
5.5316571e-06
5.7772858e-06
6.0269443e-06
6.2739872e-06
6.5087116e-06
6.7177222e-06
6.8833396e-06
6.9831838e-06
6.9901309e-06
6.8730713e-06
6.5993815e-06
6.141877e-06
5.5018153e-06
4.7494978e-06
3.2221373e-06
3.3494288e-06
3.4900273e-06
3.6382803e-06
3.7916339e-06
3.9499457e-06
4.1144283e-06
4.2866652e-06
4.4679291e-06
4.6587284e-06
4.8585931e-06
5.0659882e-06
5.2781135e-06
5.4905381e-06
5.6967555e-06
5.8877593e-06
6.0517031e-06
6.1737246e-06
6.2360923e-06
6.2189585e-06
6.1022989e-06
5.8703634e-06
5.5221765e-06
5.0983132e-06
4.7426637e-06
3.015416e-06
3.122798e-06
3.2424276e-06
3.3704135e-06
3.5046506e-06
3.6445811e-06
3.7906201e-06
3.943505e-06
4.1037905e-06
4.2714753e-06
4.4457639e-06
4.6249069e-06
4.8059919e-06
4.9846777e-06
5.1549048e-06
5.3086546e-06
5.4358204e-06
5.5242816e-06
5.5603053e-06
5.5295005e-06
5.418717e-06
5.219665e-06
4.9359974e-06
4.597851e-06
4.2370393e-06
2.795967e-06
2.8866003e-06
2.988165e-06
3.0979482e-06
3.21424e-06
3.3363128e-06
3.4641036e-06
3.5978041e-06
3.7374847e-06
3.8827901e-06
4.0327219e-06
4.1854531e-06
4.3381517e-06
4.4867898e-06
4.6259657e-06
4.7487882e-06
4.8468718e-06
4.910505e-06
4.9290572e-06
4.8916973e-06
4.7884432e-06
4.6112543e-06
4.3534257e-06
3.9989924e-06
3.4384831e-06
2.5520368e-06
2.627936e-06
2.7133591e-06
2.8063825e-06
2.9056297e-06
3.010337e-06
3.1201785e-06
3.2350107e-06
3.3546045e-06
3.4784052e-06
3.6053334e-06
3.7336259e-06
3.86069e-06
3.9829707e-06
4.0958463e-06
4.1935879e-06
4.2694064e-06
4.3156159e-06
4.3239192e-06
4.2857584e-06
4.1924913e-06
4.0345673e-06
3.7968259e-06
3.439123e-06
2.8023773e-06
2.2787472e-06
2.3413335e-06
2.4120183e-06
2.4894196e-06
2.5724411e-06
2.6603575e-06
2.752725e-06
2.8492223e-06
2.9494628e-06
3.0528113e-06
3.158224e-06
3.2641152e-06
3.3682419e-06
3.4676165e-06
3.5584502e-06
3.6361459e-06
3.6953525e-06
3.7300822e-06
3.7338517e-06
3.6997404e-06
3.6200614e-06
3.4848565e-06
3.2769517e-06
2.9559425e-06
2.3857568e-06
1.9786391e-06
2.0290915e-06
2.0862372e-06
2.14908e-06
2.2167642e-06
2.2886458e-06
2.3642564e-06
2.4432061e-06
2.525058e-06
2.6091926e-06
2.6946815e-06
2.7801883e-06
2.8638844e-06
2.943389e-06
3.0157394e-06
3.0773962e-06
3.1242857e-06
3.1518609e-06
3.1551334e-06
3.1285645e-06
3.0655726e-06
2.9571233e-06
2.7880514e-06
2.5268351e-06
2.079619e-06
1.661701e-06
1.7011693e-06
1.7459845e-06
1.7954304e-06
1.8488563e-06
1.9057224e-06
1.9655961e-06
2.0280932e-06
2.0927958e-06
2.1591588e-06
2.2264215e-06
2.293531e-06
2.3590852e-06
2.4212951e-06
2.4779699e-06
2.5265214e-06
2.5639888e-06
2.5870548e-06
2.592011e-06
2.574587e-06
2.529484e-06
2.4493284e-06
2.3223674e-06
2.1268535e-06
1.8053684e-06
1.3440385e-06
1.3737821e-06
1.4076184e-06
1.4450485e-06
1.4855861e-06
1.5288054e-06
1.5743401e-06
1.6218539e-06
1.6709903e-06
1.7213094e-06
1.7722304e-06
1.8229816e-06
1.8725609e-06
1.9197117e-06
1.9629162e-06
2.0003972e-06
2.0301271e-06
2.0498174e-06
2.0568572e-06
2.0481434e-06
2.0197152e-06
1.9660583e-06
1.8787526e-06
1.7432778e-06
1.5235128e-06
1.0446146e-06
1.0660622e-06
1.0904942e-06
1.1175662e-06
1.1469335e-06
1.1782713e-06
1.2112926e-06
1.2457269e-06
1.2812951e-06
1.3176684e-06
1.3544356e-06
1.3910711e-06
1.4269106e-06
1.461137e-06
1.4927756e-06
1.5206932e-06
1.5435957e-06
1.5600114e-06
1.5682302e-06
1.566169e-06
1.5511173e-06
1.5193016e-06
1.4650851e-06
1.3789617e-06
1.2375716e-06
7.8056068e-07
7.9528861e-07
8.1207913e-07
8.3069877e-07
8.5090872e-07
8.7247741e-07
8.9518895e-07
9.1884197e-07
9.432318e-07
9.6813003e-07
9.932661e-07
1.0183085e-06
1.0428521e-06
1.0664089e-06
1.0884031e-06
1.1081668e-06
1.1249349e-06
1.1378298e-06
1.1458209e-06
1.1476352e-06
1.1415977e-06
1.1253718e-06
1.0954792e-06
1.04602e-06
9.6196829e-07
5.628877e-07
5.7250318e-07
5.8346802e-07
5.9562624e-07
6.0881734e-07
6.2288147e-07
6.3766718e-07
6.5303113e-07
6.6883254e-07
6.8492213e-07
7.0113401e-07
7.1727557e-07
7.3312132e-07
7.4840662e-07
7.6282128e-07
7.7600118e-07
7.8752165e-07
7.9689146e-07
8.0353558e-07
8.0674768e-07
8.055991e-07
7.9878843e-07
7.8435186e-07
7.5883522e-07
7.1290109e-07
3.9462089e-07
4.0060132e-07
4.0741824e-07
4.149718e-07
4.2315558e-07
4.3186392e-07
4.4099417e-07
4.5044996e-07
4.6013941e-07
4.6997003e-07
4.7984632e-07
4.8966609e-07
4.9931757e-07
5.0867429e-07
5.1758695e-07
5.2586986e-07
5.3329328e-07
5.3958632e-07
5.4444199e-07
5.4749927e-07
5.4829317e-07
5.4616806e-07
5.4010295e-07
5.2818754e-07
5.0508565e-07
2.7194229e-07
2.7550167e-07
2.7955463e-07
2.8404005e-07
2.8888963e-07
2.940358e-07
2.9941241e-07
3.0495737e-07
3.1061318e-07
3.1632586e-07
3.2204395e-07
3.2771884e-07
3.3330436e-07
3.387526e-07
3.4400344e-07
3.4896719e-07
3.5351202e-07
3.5747628e-07
3.6069242e-07
3.6298642e-07
3.6414609e-07
3.6386942e-07
3.6166338e-07
3.5653683e-07
3.4557716e-07
1.8723975e-07
1.8928285e-07
1.9160231e-07
1.9416051e-07
1.9691625e-07
1.9982713e-07
2.028528e-07
2.059557e-07
2.0910217e-07
2.1226301e-07
2.1541424e-07
2.18539e-07
2.2162896e-07
2.2468252e-07
2.2768956e-07
2.3060403e-07
2.3332674e-07
2.3573954e-07
2.3774266e-07
2.3925812e-07
2.4019959e-07
2.4043911e-07
2.3975289e-07
2.376616e-07
2.3277373e-07
1.3146161e-07
1.3261315e-07
1.3391602e-07
1.353473e-07
1.3688205e-07
1.3849455e-07
1.4016006e-07
1.4185594e-07
1.4356234e-07
1.4526297e-07
1.4694571e-07
1.486041e-07
1.502389e-07
1.5186031e-07
1.5348999e-07
1.5515791e-07
1.5680943e-07
1.5828902e-07
1.595166e-07
1.6046395e-07
1.6110361e-07
1.6138504e-07
1.6120586e-07
1.6032978e-07
1.5807342e-07
9.6128145e-08
9.678058e-08
9.7517021e-08
9.8323726e-08
9.9185662e-08
1.0008751e-07
1.0101435e-07
1.0195258e-07
1.0289062e-07
1.0381931e-07
1.047325e-07
1.0562784e-07
1.0650781e-07
1.0738122e-07
1.082654e-07
1.0918926e-07
1.1018496e-07
1.1113079e-07
1.1190932e-07
1.1251066e-07
1.1293128e-07
1.1315164e-07
1.1311984e-07
1.1270332e-07
1.1151759e-07
7.4626127e-08
7.5011006e-08
7.544545e-08
7.5921316e-08
7.6429614e-08
7.6961154e-08
7.7506964e-08
7.8058899e-08
7.8610048e-08
7.9155119e-08
7.9690801e-08
8.0216216e-08
8.0733584e-08
8.1249225e-08
8.177514e-08
8.2331683e-08
8.295187e-08
8.3602344e-08
8.4139699e-08
8.4555707e-08
8.485379e-08
8.5025808e-08
8.5042638e-08
8.4824769e-08
8.4125979e-08
6.217258e-08
6.241971e-08
6.2699724e-08
6.300777e-08
6.3338422e-08
6.3686071e-08
6.4045173e-08
6.4410644e-08
6.4778165e-08
6.5144346e-08
6.5507026e-08
6.586558e-08
6.6221368e-08
6.6578499e-08
6.6945047e-08
6.7334864e-08
6.7770129e-08
6.8267149e-08
6.8683518e-08
6.9010172e-08
6.9251115e-08
6.9401691e-08
6.9443154e-08
6.9325163e-08
6.888746e-08
5.5468971e-08
5.5647477e-08
5.5851212e-08
5.6077206e-08
5.6322057e-08
5.6582158e-08
5.6853872e-08
5.7133764e-08
5.7418787e-08
5.7706436e-08
5.7994912e-08
5.828338e-08
5.8572352e-08
5.8864332e-08
5.916486e-08
5.948413e-08
5.9839196e-08
6.025468e-08
6.0611919e-08
6.0898348e-08
6.1116211e-08
6.1261091e-08
6.1318021e-08
6.1250345e-08
6.0944168e-08
5.2324025e-08
5.2468629e-08
5.2635047e-08
5.2821339e-08
5.3025197e-08
5.3244086e-08
5.3475369e-08
5.3716445e-08
5.3964876e-08
5.4218516e-08
5.4475646e-08
5.4735195e-08
5.4997062e-08
5.5262697e-08
5.5536028e-08
5.5824968e-08
5.6143673e-08
5.6514744e-08
5.6841617e-08
5.71092e-08
5.7317817e-08
5.7462163e-08
5.7527801e-08
5.7482053e-08
5.7227785e-08
5.1325448e-08
5.1452333e-08
5.1599344e-08
5.1765078e-08
5.1947789e-08
5.2145489e-08
5.2356043e-08
5.257727e-08
5.2807045e-08
5.3043405e-08
5.3284678e-08
5.3529676e-08
5.3777973e-08
5.40304e-08
5.4289853e-08
5.4562654e-08
5.4860679e-08
5.520364e-08
5.5511373e-08
5.5767332e-08
5.5970258e-08
5.6113646e-08
5.6182333e-08
5.6143556e-08
5.5902602e-08
5.1584997e-08
5.1700926e-08
5.1835805e-08
5.1988492e-08
5.2157525e-08
5.2341199e-08
5.2537655e-08
5.274496e-08
5.2961207e-08
5.3184604e-08
5.3413601e-08
5.3647041e-08
5.3884403e-08
5.4126197e-08
5.4374661e-08
5.4634954e-08
5.49171e-08
5.5238212e-08
5.5529731e-08
5.5775244e-08
5.5971972e-08
5.6112093e-08
5.6179244e-08
5.6139177e-08
5.5895385e-08
5.2555139e-08
5.26625e-08
5.2787635e-08
5.2929537e-08
5.3086902e-08
5.3258205e-08
5.344178e-08
5.3635904e-08
5.3838883e-08
5.4049143e-08
5.4265332e-08
5.4486445e-08
5.471201e-08
5.4942408e-08
5.5179444e-08
5.5427384e-08
5.5694675e-08
5.599601e-08
5.6271802e-08
5.6506346e-08
5.6695494e-08
5.6830113e-08
5.6892501e-08
5.6846521e-08
5.6591248e-08
5.3904419e-08
5.4003859e-08
5.4119771e-08
5.4251232e-08
5.4397055e-08
5.4555867e-08
5.4726187e-08
5.4906506e-08
5.509537e-08
5.5291461e-08
5.5493676e-08
5.5701229e-08
5.591378e-08
5.6131684e-08
5.635645e-08
5.6591618e-08
5.6844258e-08
5.7126802e-08
5.7387034e-08
5.7610112e-08
5.7790642e-08
5.7918246e-08
5.7973856e-08
5.7919339e-08
5.7649014e-08
5.5435779e-08
5.5527461e-08
5.5634226e-08
5.575522e-08
5.5889368e-08
5.6035449e-08
5.6192174e-08
5.6358261e-08
5.6532512e-08
5.6713883e-08
5.6901544e-08
5.7094948e-08
5.7293924e-08
5.7498849e-08
5.7711019e-08
5.7933366e-08
5.8171742e-08
5.8436506e-08
5.8681701e-08
5.8893267e-08
5.9064721e-08
5.9184524e-08
5.9232297e-08
5.9168017e-08
5.8883663e-08
5.7034089e-08
5.7118201e-08
5.7215999e-08
5.7326699e-08
5.7449343e-08
5.7582864e-08
5.7726169e-08
5.7878205e-08
5.8038029e-08
5.8204868e-08
5.8378161e-08
5.8557599e-08
5.8743182e-08
5.8935335e-08
5.9135186e-08
5.9345151e-08
5.9570009e-08
5.9818253e-08
6.0049291e-08
6.0249719e-08
6.0412086e-08
6.0523799e-08
6.0563261e-08
6.0488611e-08
6.0186934e-08
5.8632932e-08
5.8709818e-08
5.8799058e-08
5.8899942e-08
5.9011624e-08
5.9133193e-08
5.9263744e-08
5.9402445e-08
5.9548593e-08
5.9701667e-08
5.9861355e-08
6.0027571e-08
6.0200477e-08
6.0380549e-08
6.0568782e-08
6.0767147e-08
6.0979488e-08
6.1212649e-08
6.1430604e-08
6.1620493e-08
6.1774012e-08
6.187761e-08
6.1908579e-08
6.1823341e-08
6.1504298e-08
6.0193976e-08
6.0264122e-08
6.03454e-08
6.0437171e-08
6.05387e-08
6.0649219e-08
6.0768001e-08
6.0894413e-08
6.1027973e-08
6.1168385e-08
6.131556e-08
6.1469608e-08
6.1630837e-08
6.1799774e-08
6.1977303e-08
6.2165018e-08
6.2365952e-08
6.2585513e-08
6.2791481e-08
6.297149e-08
6.3116484e-08
6.3212058e-08
6.323448e-08
6.3138548e-08
6.2802093e-08
6.1694548e-08
6.1758526e-08
6.1832542e-08
6.1916024e-08
6.2008341e-08
6.2108858e-08
6.2217003e-08
6.2332321e-08
6.2454522e-08
6.258351e-08
6.2719387e-08
6.2862435e-08
6.3013088e-08
6.3171919e-08
6.333972e-08
6.3517767e-08
6.3708399e-08
6.3915783e-08
6.4110762e-08
6.4281485e-08
6.441826e-08
6.4505909e-08
6.4519727e-08
6.4412879e-08
6.4058698e-08
6.312046e-08
6.3178875e-08
6.3246365e-08
6.3322421e-08
6.3406503e-08
6.3498094e-08
6.3596759e-08
6.3702198e-08
6.3814284e-08
6.3933092e-08
6.4058887e-08
6.4192095e-08
6.4333259e-08
6.4482992e-08
6.4642014e-08
6.4811326e-08
6.4992681e-08
6.5189188e-08
6.5373988e-08
6.5535886e-08
6.5664659e-08
6.5744445e-08
6.5749601e-08
6.5631644e-08
6.5259494e-08
6.4462104e-08
6.451556e-08
6.4577249e-08
6.4646723e-08
6.4723522e-08
6.480723e-08
6.4897529e-08
6.499425e-08
6.5097407e-08
6.5207214e-08
6.5324072e-08
6.5448531e-08
6.5581222e-08
6.5722797e-08
6.5873914e-08
6.6035344e-08
6.6208329e-08
6.6395062e-08
6.6570244e-08
6.6723593e-08
6.6844461e-08
6.6916392e-08
6.6912894e-08
6.678396e-08
6.6393752e-08
6.5712494e-08
6.5761569e-08
6.581815e-08
6.588184e-08
6.5952248e-08
6.6029045e-08
6.6112012e-08
6.6201089e-08
6.6296406e-08
6.6398293e-08
6.6507263e-08
6.6623964e-08
6.6749106e-08
6.6883383e-08
6.7027407e-08
6.718174e-08
6.734714e-08
6.7524827e-08
6.7690636e-08
6.7835495e-08
6.7948417e-08
6.8012452e-08
6.8000414e-08
6.7861076e-08
6.7455402e-08
6.6866426e-08
6.6911665e-08
6.696378e-08
6.7022419e-08
6.7087251e-08
6.715802e-08
6.7234589e-08
6.7316988e-08
6.7405442e-08
6.7500374e-08
6.7602388e-08
6.7712213e-08
6.7830641e-08
6.7958437e-08
6.8096192e-08
6.8244253e-08
6.8403014e-08
6.8571326e-08
6.8727541e-08
6.8863727e-08
6.896853e-08
6.9024581e-08
6.9004238e-08
6.8855728e-08
6.8439483e-08
6.7920247e-08
6.7962148e-08
6.8010377e-08
6.8064622e-08
6.8124602e-08
6.819012e-08
6.8261108e-08
6.8337671e-08
6.8420109e-08
6.8508921e-08
6.8604781e-08
6.8708494e-08
6.8820973e-08
6.8943202e-08
6.9075685e-08
6.9218479e-08
6.9372713e-08
6.9528279e-08
6.9674072e-08
6.9801208e-08
6.9897611e-08
6.9945529e-08
6.9917167e-08
6.9761352e-08
6.9346627e-08
6.8871997e-08
6.8911003e-08
6.8955854e-08
6.9006267e-08
6.9062003e-08
6.9122916e-08
6.9188998e-08
6.9260413e-08
6.9337524e-08
6.942089e-08
6.9511242e-08
6.9609458e-08
6.9716792e-08
6.9834872e-08
6.9963383e-08
7.010072e-08
7.0244201e-08
7.0387776e-08
7.052325e-08
7.0641157e-08
7.0728872e-08
7.0768355e-08
7.0731731e-08
7.056805e-08
7.0144715e-08
6.9721564e-08
6.9758057e-08
6.9799942e-08
6.9846962e-08
6.9898916e-08
6.9955703e-08
7.0017365e-08
7.0084121e-08
7.0156389e-08
7.0234778e-08
7.0320055e-08
7.0413082e-08
7.0514755e-08
7.0625897e-08
7.0746487e-08
7.0875087e-08
7.1008682e-08
7.1142086e-08
7.126794e-08
7.1376688e-08
7.1455481e-08
7.1486149e-08
7.1440749e-08
7.1268052e-08
7.083295e-08
7.0441411e-08
7.0475852e-08
7.0515334e-08
7.0559617e-08
7.0608527e-08
7.0661995e-08
7.0720096e-08
7.0783084e-08
7.0851406e-08
7.0925692e-08
7.1006711e-08
7.1095286e-08
7.1192158e-08
7.1297792e-08
7.1411971e-08
7.153327e-08
7.1658706e-08
7.178341e-08
7.1900381e-08
7.2000154e-08
7.2069873e-08
7.2091388e-08
7.2036814e-08
7.1854876e-08
7.1409517e-08
7.1025062e-08
7.105786e-08
7.1095425e-08
7.1137533e-08
7.1184024e-08
7.1234854e-08
7.1290119e-08
7.1350092e-08
7.1415232e-08
7.1486171e-08
7.1563664e-08
7.1648495e-08
7.1741305e-08
7.1842373e-08
7.1951288e-08
7.2066524e-08
7.2185061e-08
7.2302107e-08
7.2410822e-08
7.2501858e-08
7.2562463e-08
7.2574639e-08
7.2510695e-08
7.231946e-08
7.186414e-08
7.1460382e-08
7.1491881e-08
7.1527937e-08
7.156833e-08
7.1612919e-08
7.1661666e-08
7.1714685e-08
7.1772259e-08
7.1834841e-08
7.1903056e-08
7.1977634e-08
7.2059334e-08
7.2148738e-08
7.2246019e-08
7.2350637e-08
7.2460926e-08
7.2573657e-08
7.2683944e-08
7.2785019e-08
7.2867669e-08
7.2919327e-08
7.2922269e-08
7.2849219e-08
7.2649582e-08
7.2187195e-08
7.1723595e-08
7.1754076e-08
7.1788947e-08
7.1827999e-08
7.1871106e-08
7.1918209e-08
7.1969436e-08
7.2025103e-08
7.2085643e-08
7.2151656e-08
7.2223816e-08
7.2302906e-08
7.2389507e-08
7.2483785e-08
7.2585213e-08
7.2692037e-08
7.2800367e-08
7.2904956e-08
7.2999169e-08
7.3074025e-08
7.311724e-08
7.3111506e-08
7.3030267e-08
7.2824445e-08
7.2362463e-08
7.1763095e-08
7.1792767e-08
7.182669e-08
7.1864697e-08
7.1906784e-08
7.1952546e-08
7.2002261e-08
7.2056384e-08
7.2115314e-08
7.2179611e-08
7.2249748e-08
7.2326626e-08
7.2410953e-08
7.25031e-08
7.2603061e-08
7.2709808e-08
7.2816519e-08
7.2917051e-08
7.3005505e-08
7.3073531e-08
7.3109305e-08
7.3096088e-08
7.3008379e-08
7.2799674e-08
7.234678e-08
7.1415997e-08
7.1444957e-08
7.1478015e-08
7.1515386e-08
7.1558363e-08
7.160303e-08
7.1651161e-08
7.1703833e-08
7.1761461e-08
7.1824527e-08
7.1892838e-08
7.1967569e-08
7.2049793e-08
7.214056e-08
7.2242481e-08
7.2365372e-08
7.2479428e-08
7.2578849e-08
7.266295e-08
7.2725455e-08
7.2755381e-08
7.2736749e-08
7.2645595e-08
7.2440344e-08
7.2022755e-08
)
;

boundaryField
{
    Walls
    {
        type            nutUWallFunction;
        Cmu             0.09;
        kappa           0.41;
        E               9.8;
        value           uniform 0;
    }
    Inlet
    {
        type            calculated;
        value           nonuniform List<scalar> 3(1.276929e-05 2.340412e-05 7.4735654e-07);
    }
    Outlet
    {
        type            calculated;
        value           nonuniform List<scalar> 
86
(
0
0
0
0
0
0
0
0
0
0
0
0
0
0
0
0
0
0
0
0
0
0
0
0
0
0
0
0
0
0
1.4337287e-05
1.4886437e-05
1.3471114e-05
0
0
0
0
0
4.7426637e-06
4.2370393e-06
0
0
0
0
0
1.5235128e-06
1.2375716e-06
9.6196829e-07
7.1290109e-07
5.0508565e-07
3.4557716e-07
2.3277373e-07
1.5807342e-07
1.1151759e-07
8.4125979e-08
6.888746e-08
6.0944168e-08
5.7227785e-08
5.5902602e-08
5.5895385e-08
5.6591248e-08
5.7649014e-08
5.8883663e-08
6.0186934e-08
6.1504298e-08
6.2802093e-08
6.4058698e-08
6.5259494e-08
0
0
0
0
0
0
0
0
0
0
0
7.2022755e-08
0
0
0
0
1.3211349e-05
1.4849741e-05
)
;
    }
    Front
    {
        type            wedge;
    }
    Back
    {
        type            wedge;
    }
    defaultFaces
    {
        type            empty;
    }
}


// ************************************************************************* //
