/*--------------------------------*- C++ -*----------------------------------*\
| =========                 |                                                 |
| \\      /  F ield         | OpenFOAM: The Open Source CFD Toolbox           |
|  \\    /   O peration     | Version:  4.0                                   |
|   \\  /    A nd           | Web:      www.OpenFOAM.org                      |
|    \\/     M anipulation  |                                                 |
\*---------------------------------------------------------------------------*/
FoamFile
{
    version     2.0;
    format      ascii;
    class       volScalarField;
    location    "0.56";
    object      omega;
}
// * * * * * * * * * * * * * * * * * * * * * * * * * * * * * * * * * * * * * //

dimensions      [0 0 -1 0 0 0 0];

internalField   nonuniform List<scalar> 
1740
(
66.896509
681.49738
14919.096
182.98206
1427.387
15028.768
296.10718
1925.3237
15114.005
394.8999
2246.8289
15199.495
501.90111
2524.2829
15273.224
613.2583
2791.8522
15320.906
715.32621
2986.6517
15372.199
827.12499
3201.4281
15416.901
958.73111
3377.7963
15441.687
1060.9057
3490.4136
15472.735
1148.732
3612.8202
15499.241
1233.6594
3722.2201
15504.76
1319.6497
3781.6152
15523.43
1403.4469
3886.7941
15541.182
1476.4225
4027.6385
15547.462
1544.7642
4072.7269
15555.857
1609.1522
4070.7875
15559.162
1676.8967
4053.2752
15563.804
1721.4111
4056.846
15559.676
1750.1113
4032.4621
15564.992
1797.705
4072.0424
15575.812
1836.0097
4236.4133
15574.044
1863.4273
4218.3928
15572.784
1878.1654
4189.7267
15572.348
1898.6177
4161.4162
15569.983
1932.3974
4182.5039
15566.144
1963.9353
4227.6005
15567.004
1974.6101
4308.7123
15561.422
1990.3292
4235.776
15553.144
2117.5894
4294.9874
15494.541
3196.0949
4552.3165
10690.99
3324.9715
4223.3758
5903.4895
1570.7185
1857.9647
2153.0186
826.4338
901.93431
959.60918
480.07514
498.45787
508.40528
301.50788
305.28507
305.31557
201.59376
201.90183
200.41108
141.98201
141.63948
140.35185
104.48179
104.13699
103.26923
79.852639
79.611331
79.07366
63.088637
62.936952
62.614821
51.340235
51.248684
51.058049
42.922878
42.868406
42.755747
36.80912
36.776687
36.709604
32.350866
32.331261
32.290559
29.12127
29.109043
29.083483
26.822389
26.814406
26.797538
25.231762
25.226285
25.214517
24.173474
24.169591
24.161003
23.504059
23.50133
23.494921
23.103223
23.101346
23.096445
22.854347
22.852506
22.848076
22.670177
22.668409
22.664373
22.523084
22.521491
22.51788
22.397259
22.395857
22.392656
22.282728
22.281528
22.278729
22.17344
22.172468
22.170082
22.066191
22.065468
22.06351
21.960168
21.959687
21.95814
21.856413
21.85613
21.854938
21.756722
21.756572
21.755659
21.662247
21.662173
21.661462
21.572399
21.572359
21.571792
21.484282
21.484253
21.48379
21.392476
21.392448
21.392061
21.288841
21.288811
21.288482
21.162136
21.162104
21.161822
20.997376
20.997343
20.997101
20.774951
20.774919
20.774712
20.4696
20.469572
20.469397
20.049383
20.049362
20.04922
19.474887
19.474873
19.474765
18.698967
18.69896
18.698885
17.667681
17.667671
17.667622
16.329717
16.329723
16.329722
14.62851
14.62854
14.628597
12.517761
12.517815
12.517929
9.9725685
9.9726378
9.9727911
6.9967328
6.9968005
6.996949
3.6201528
3.6201955
3.6202878
13479.138
13534.572
5982.9515
5324.6202
2081.9121
1880.2759
922.09566
853.04661
490.99434
463.40383
296.81435
284.60272
195.99177
190.14936
137.93923
134.9529
101.91523
100.31185
78.300847
77.409104
62.168854
61.660749
50.798426
50.503612
42.603067
42.42934
36.61853
36.514159
32.234884
32.170283
29.048058
29.006142
26.773697
26.744682
25.197433
25.175898
24.148081
24.131127
23.484779
23.470886
23.088226
23.076538
22.840864
22.830653
22.657941
22.648872
22.512134
22.503998
22.387512
22.380153
22.274138
22.267455
22.166024
22.159967
22.059979
22.054533
21.955122
21.950288
21.852398
21.848173
21.753542
21.749908
21.659708
21.656625
21.570341
21.567753
21.482587
21.480429
21.391062
21.389261
21.287647
21.28614
21.161119
21.15985
20.996506
20.995429
20.774208
20.773289
20.468972
20.468187
20.048867
20.048201
19.474482
19.473929
18.698673
18.698237
17.667484
17.667176
16.329674
16.32951
14.628651
14.628645
12.518084
12.518231
9.9730115
9.9732596
6.9971629
6.99744
3.6204341
3.6207465
12058.212
2044.1934
696.99299
369.36566
281.49076
257.24021
250.086
247.03154
244.67577
242.27415
239.74728
236.9983
234.16388
231.25526
228.23812
225.04794
221.57071
217.60934
212.82956
206.67482
198.22078
185.91196
167.05347
136.62651
82.910952
12058.134
2037.8401
698.00144
374.89133
283.41788
254.56304
243.01076
235.78537
229.67022
223.86979
218.1891
212.56192
207.05543
201.65055
196.32542
191.05159
185.7722
180.38259
174.69463
168.38458
160.8996
151.27171
137.70497
116.50601
78.237822
12058.18
2030.4685
718.64214
430.79095
359.46063
332.54302
315.17979
300.68474
287.44785
274.89893
262.92217
251.33694
240.36324
229.90434
219.89902
210.33334
201.18623
192.4112
183.90706
175.49482
166.86036
157.42226
145.97664
129.57149
98.895507
12058.528
2031.6875
817.62029
608.93262
550.09082
512.9018
479.89638
449.39582
421.42189
395.11485
370.44324
347.44162
326.23733
306.37479
287.71335
270.2591
253.99953
238.9029
224.91365
211.94023
199.84194
188.39292
177.1546
164.95037
146.53581
12061.537
2151.1449
1232.5631
1078.5637
989.77935
906.92617
828.43624
757.04024
693.14634
634.06253
579.73553
530.14047
486.06162
445.77872
408.80303
375.13664
344.64116
317.14692
292.47281
270.42472
250.80743
233.44655
218.2295
205.33056
195.82851
12087.257
3818.3526
2807.342
2403.4035
2095.3382
1826.5285
1591.1397
1387.749
1211.7275
1059.833
929.01174
816.43186
719.54032
635.89891
563.57764
501.06116
447.05059
400.41619
360.1843
325.52248
295.7245
270.21792
248.60031
230.96918
218.56231
10356.129
7897.59
6094.0938
4785.9861
3817.4503
3082.962
2514.0696
2066.894
1711.9932
1428.1876
1199.6755
1014.5943
863.98427
740.90568
639.84165
556.40939
487.15561
429.37625
380.95719
340.24159
305.9287
277.01684
252.79404
233.14289
219.34568
4085.2929
3303.5993
2841.5229
2466.9133
2148.0216
1867.5639
1622.7589
1411.0683
1229.5928
1074.0482
940.63369
825.92731
726.94108
641.50278
567.76332
504.12546
449.21297
401.85032
361.03732
325.9254
295.79909
270.0809
248.35894
230.7107
218.32517
1593.7978
1399.4214
1269.3798
1161.2122
1059.0208
961.74548
873.0574
793.99652
721.98192
656.7354
598.37962
546.75057
499.3343
456.00414
416.64459
381.05872
349.01481
320.28076
294.62818
271.84171
251.72432
234.10894
218.88602
206.21021
197.04255
770.70558
707.62815
661.46966
620.93638
580.59991
540.47326
502.90289
468.25878
436.14402
406.52669
379.45172
354.64351
331.41861
309.67967
289.42036
270.62755
253.27171
237.3121
222.6988
209.36851
197.22809
186.11259
175.6571
164.80486
148.75149
433.82953
410.01285
391.30338
374.0728
356.31447
338.00851
320.12193
303.08566
286.98337
271.86826
257.75049
244.50732
231.93304
219.98366
208.69084
198.05155
188.05931
178.69379
169.91075
161.61922
153.62731
145.50825
136.23498
123.03597
96.813244
272.08424
261.57249
252.86041
244.65975
236.1113
227.14239
218.11548
209.29388
200.79844
192.68776
184.97112
177.60049
170.50479
163.66184
157.08488
150.77842
144.73421
138.92268
133.27763
127.66417
121.81083
115.15949
106.51169
93.099012
67.41314
184.26113
179.1314
174.69097
170.44025
165.99918
161.29858
156.47148
151.65917
146.95102
142.39327
137.99714
133.74459
129.60714
125.57025
121.63016
117.7781
113.99236
110.22843
106.40254
102.36189
97.828537
92.291183
84.783154
73.341807
52.808465
131.96564
129.28641
126.88683
124.56052
122.13215
119.55261
116.86943
114.15271
111.45743
108.81498
106.23544
103.71205
101.23014
98.776528
96.338829
93.898333
91.42325
88.859839
86.118995
83.055248
79.43501
74.89588
68.927813
61.050567
51.308157
98.709113
97.237822
95.887201
94.566165
93.191312
91.730164
90.197956
88.628045
87.051063
85.486607
83.941399
82.411551
80.886669
79.353121
77.793606
76.183295
74.484752
72.64116
70.567205
68.137573
65.176438
61.463047
56.806713
51.36116
46.564968
76.514508
75.678061
74.895621
74.126086
73.328281
72.481899
71.590292
70.668272
69.731651
68.790951
67.849227
66.90236
65.940547
64.94918
63.908224
62.78969
61.553993
60.14518
58.485199
56.468265
53.959428
50.809223
46.915627
42.404548
37.439405
61.147473
60.660098
60.197969
59.742032
59.271204
58.773303
58.247303
57.698988
57.13545
56.561072
55.975643
55.37377
54.745005
54.073817
53.338714
52.510388
51.549023
50.400837
48.993943
47.233898
44.999489
42.137186
38.435686
33.465688
25.459244
50.203283
49.914315
49.637486
49.363858
49.082317
48.785535
48.471188
48.140548
47.795724
47.437198
47.062183
46.663866
46.230972
45.747215
45.190341
44.53065
43.728825
42.733094
41.475445
39.866158
37.78424
35.055173
31.384762
26.13477
17.490103
42.250632
42.076499
41.908127
41.741328
41.570078
41.389744
41.197828
40.993432
40.775858
40.543081
40.290526
40.010202
39.690055
39.313226
38.85709
38.291917
37.579024
36.668236
35.494155
33.970081
31.976519
29.33633
25.755187
20.67063
12.838648
36.405515
36.298122
36.193029
36.088267
35.980497
35.866589
35.74415
35.611252
35.465672
35.303875
35.120042
34.905306
34.646994
34.327831
33.924972
33.408768
32.741145
31.873348
30.742601
29.266682
27.334273
24.786528
21.380426
16.717934
10.077662
32.101878
32.032853
31.964027
31.894392
31.821979
31.744532
31.659829
31.565486
31.458441
31.334249
31.186313
31.005135
30.777553
30.485953
30.107325
29.612119
28.962844
28.112214
27.00057
25.552076
23.668686
21.220277
18.028672
13.84789
8.2995932
28.960589
28.913229
28.864547
28.814005
28.760269
28.7016
28.635928
28.56067
28.472331
28.365926
28.234339
28.067619
27.852234
27.570265
27.198525
26.707535
26.06036
25.211224
24.103897
22.669751
20.825353
18.469355
15.478524
11.706637
6.979053
26.712027
26.6767
26.638919
26.598268
26.553771
26.503947
26.446847
26.379804
26.299093
26.199406
26.07327
25.910382
25.696866
25.414507
25.039918
24.543658
23.889292
23.032484
21.920274
20.490791
18.673655
16.391088
13.559179
10.09104
5.9086835
25.150636
25.12206
25.090167
25.054542
25.014353
24.96829
24.914461
24.850172
24.771557
24.673094
24.547042
24.382774
24.166071
23.878385
23.496096
22.989774
22.323457
21.454095
20.331498
18.899304
17.097354
14.865312
12.146214
8.8904374
5.0710204
24.110358
24.085804
24.057288
24.024349
23.986208
23.941634
23.88878
23.824929
23.74612
23.646665
23.518579
23.350914
23.129061
22.834068
22.442035
21.923575
21.243268
20.359252
19.223527
17.783763
15.987053
13.785094
11.138286
8.0161144
4.4147738
23.45314
23.431292
23.405017
23.373809
23.336886
23.293045
23.240455
23.176376
23.096771
22.995812
22.865273
22.693853
22.466459
22.163602
21.76101
21.229441
20.534308
19.635084
18.485514
17.035944
15.238174
13.051888
10.449543
7.4162285
3.9814592
23.061111
23.041507
23.017283
22.987865
22.95242
22.909709
22.857871
22.794117
22.714333
22.612554
22.480309
22.305875
22.073514
21.762931
21.349278
20.803584
20.092812
19.178377
18.015533
16.556099
14.75451
12.575435
9.9998933
7.0263804
3.6968814
22.817141
22.799917
22.778496
22.752236
22.720228
22.681134
22.632973
22.57282
22.496387
22.397485
22.267311
22.093586
21.859629
21.543792
21.120022
20.559451
19.831817
18.902255
17.727528
16.259699
14.454105
12.278077
9.718197
6.7835733
3.5445442
22.636851
22.621485
22.602274
22.578555
22.549393
22.513429
22.468664
22.412158
22.339625
22.244899
22.119254
21.950551
21.722245
21.412299
20.991985
20.425773
19.682852
18.739233
17.555035
16.081379
14.273219
12.099
9.5485679
6.6367461
3.4324178
22.493146
22.479175
22.461575
22.439668
22.412508
22.378729
22.33633
22.282376
22.212608
22.120914
21.998673
21.833935
21.610445
21.306544
20.894006
20.337026
19.593058
18.640438
17.450867
15.974779
14.16636
11.994562
9.4516861
6.5577877
3.3965603
22.370232
22.357331
22.340927
22.320334
22.294602
22.262367
22.221636
22.169499
22.101739
22.012326
21.892774
21.731346
21.512102
21.213794
20.808682
20.261383
19.528094
18.57431
17.3845
15.909571
14.103272
11.934902
9.3985566
6.5187304
3.3813667
22.258313
22.246272
22.230797
22.211199
22.186532
22.155442
22.115961
22.065218
21.999062
21.91157
21.794411
21.636072
21.420906
21.128037
20.730181
20.192571
19.472386
18.523684
17.33815
15.867359
14.065072
11.900873
9.3700417
6.5013176
3.3837512
22.151523
22.140228
22.12554
22.106775
22.083002
22.052895
22.014527
21.965088
21.900515
21.815001
21.700372
21.545308
21.334396
21.047034
20.656261
20.127666
19.41879
18.480455
17.302363
15.837656
14.04057
11.880893
9.3540825
6.4904225
3.3816096
22.046768
22.036198
22.022284
22.00436
21.981525
21.952499
21.915412
21.86753
21.804878
21.721757
21.610111
21.458752
21.252415
20.97068
20.586817
20.066703
19.36815
18.44174
17.272429
15.814677
14.023329
11.868353
9.3449395
6.4831262
3.375594
21.943228
21.933447
21.92042
21.90351
21.881862
21.854244
21.818849
21.773009
21.712821
21.632651
21.52451
21.377269
21.175736
20.899601
20.522316
20.010055
19.321044
18.406264
17.245862
15.795161
14.009561
11.859116
9.3380648
6.4733932
3.357411
21.841865
21.832983
21.821027
21.805397
21.785277
21.759483
21.726251
21.682956
21.625727
21.548955
21.44466
21.301724
21.104975
20.834169
20.462916
19.957684
19.277174
18.372933
17.221061
15.777071
13.996927
11.850773
9.3320704
6.466524
3.3546817
21.744382
21.736496
21.725778
21.711659
21.693354
21.669705
21.638971
21.598534
21.544524
21.471317
21.370912
21.232167
21.03991
20.773945
20.408019
19.908892
19.23575
18.340794
17.196685
15.758846
13.983761
11.841712
9.3255603
6.4591204
3.3426162
21.651873
21.645016
21.635611
21.62311
21.606744
21.585361
21.557217
21.519682
21.46886
21.399091
21.302337
21.167423
20.979169
20.71742
20.356058
19.862116
19.195257
18.308351
17.17114
15.73887
13.968497
11.83047
9.3172116
6.4510593
3.3317018
21.563725
21.557856
21.549728
21.538807
21.524325
21.505123
21.479438
21.444612
21.396713
21.330041
21.236512
21.104924
20.920091
20.661901
20.304363
19.814771
19.153239
18.273285
17.142191
15.715049
13.949247
11.815417
9.3057624
6.4422728
3.3378354
21.477041
21.472062
21.465092
21.455602
21.442819
21.42557
21.402064
21.369612
21.324242
21.260214
21.169409
21.0406
20.858601
20.603353
20.248989
19.76305
19.106072
18.232185
17.106635
15.68443
13.923379
11.794378
9.2896204
6.4307412
3.3304551
21.386418
21.3822
21.376224
21.367961
21.35663
21.341037
21.319367
21.288899
21.245627
21.183774
21.095195
20.968647
20.78896
20.536127
20.184412
19.701596
19.048617
18.180187
17.05991
15.642791
13.887089
11.764076
9.266192
6.4150113
3.3224692
21.283745
21.280157
21.275
21.267749
21.257609
21.24337
21.223195
21.194333
21.15275
21.092644
21.00585
20.881125
20.703319
20.452498
20.103062
19.623036
18.973757
18.110505
16.995627
15.584214
13.835039
11.719911
9.2318209
6.3925071
3.3123152
21.157817
21.154736
21.150241
21.143802
21.134618
21.121461
21.102476
21.07489
21.034648
20.975931
20.890568
20.767324
20.591093
20.342024
19.994677
19.517344
18.871775
18.013839
16.905009
15.500567
13.759887
11.655468
9.1810825
6.3588005
3.2968467
20.993688
20.991013
20.987045
20.981253
20.972825
20.960526
20.942482
20.915907
20.876732
20.819133
20.734944
20.61296
20.438135
20.190734
19.84551
19.371062
18.729609
17.877662
16.776231
15.380904
13.65178
11.56216
9.106646
6.3076933
3.2716145
20.771784
20.769437
20.765892
20.760615
20.752791
20.741175
20.723885
20.698127
20.659827
20.60317
20.520014
20.399203
20.225786
19.980183
19.637397
19.166409
18.529998
17.685437
16.593696
15.210818
13.497801
11.428858
8.9994382
6.2324707
3.2191989
20.466879
20.464803
20.461605
20.456751
20.449423
20.43837
20.42171
20.396647
20.359121
20.303337
20.221202
20.101645
19.929851
19.686456
19.346794
18.880345
18.2506
17.415821
16.337319
14.97181
13.281441
11.241524
8.848443
6.1259071
3.1646493
20.047067
20.045226
20.042328
20.037839
20.030943
20.02039
20.004301
19.979896
19.94314
19.888288
19.807328
19.689318
19.519643
19.279231
18.943868
18.483696
17.863112
17.041988
15.981949
14.640794
12.982183
10.982784
8.6400658
5.9792731
3.0936288
19.472959
19.47134
19.468724
19.464582
19.458102
19.448041
19.43254
19.408849
19.372984
19.319282
19.239863
19.123979
18.95729
18.721105
18.391845
17.940565
17.332588
16.531314
15.497119
14.189926
12.575435
10.632009
8.3582258
5.7797691
2.9882514
18.697437
18.696048
18.693729
18.689957
18.683928
18.674424
18.659616
18.636811
18.60211
18.549985
18.472753
18.359954
18.197592
17.967426
17.646931
17.208697
16.620396
15.84604
14.847403
13.586947
12.032887
10.165669
7.9850804
5.5166165
2.8366723
17.666566
17.665441
17.663468
17.660133
17.654653
17.645844
17.631938
17.61033
17.577258
17.527396
17.453358
17.345124
17.189392
16.968952
16.662297
16.243409
15.681879
14.943786
13.993422
12.796252
11.323498
9.5580713
7.5009996
5.1766386
2.6546219
16.329106
16.328259
16.326644
16.323763
16.31887
16.310843
16.298007
16.277899
16.246963
16.200176
16.130584
16.028784
15.882331
15.6752
15.387386
14.99476
14.469289
13.779889
12.894135
11.781105
10.415538
8.7831678
6.8864373
4.7490775
2.4350042
14.628466
14.627918
14.62669
14.624311
14.620089
14.612999
14.601506
14.583352
14.555274
14.51267
14.449193
14.356296
14.222667
14.033763
13.771498
13.414184
12.93681
12.311859
11.510953
10.507413
9.2799628
7.8173681
6.1232565
4.2197815
2.1634856
12.51827
12.518023
12.517198
12.515367
12.511925
12.505963
12.496139
12.480511
12.456186
12.419129
12.363776
12.282789
12.16635
12.001777
11.77337
11.46248
11.047828
10.506187
9.8139812
8.9493603
7.8953702
6.6438563
5.1993258
3.5815618
1.837837
9.9734686
9.9734662
9.9730114
9.9717559
9.9692705
9.9645805
9.9566705
9.944182
9.9246642
9.8947843
9.849788
9.7840371
9.6896994
9.5563999
9.3713333
9.1195455
8.7842798
8.347104
7.7900173
7.0964839
6.2540079
5.2573543
4.1115841
2.8340662
1.4624568
6.9978186
6.9979625
6.9977993
6.9972783
6.996931
6.9936434
6.9876613
6.9788984
6.9654809
6.9449123
6.9128015
6.8657563
6.7985554
6.7036916
6.5718596
6.3925022
6.1543977
5.8438349
5.4490567
4.9592378
4.366261
3.6673425
2.8673443
1.9803035
1.0327656
3.6214499
3.6216965
3.6218004
3.6229532
3.63063
3.6297202
3.6259789
3.6214613
3.6152658
3.6059795
3.5894978
3.5647122
3.5294152
3.4796554
3.4103598
3.3155158
3.1913479
3.0287741
2.8221956
2.5665887
2.2580323
1.8954889
1.4823741
1.0281845
0.55417358
)
;

boundaryField
{
    Walls
    {
        Cmu             0.09;
        kappa           0.41;
        E               9.8;
        beta1           0.075;
        type            omegaWallFunction;
        value           nonuniform List<scalar> 
38
(
12058.212
12058.134
12058.18
12058.528
12061.537
12087.257
13479.138
13534.572
14919.096
15028.768
15114.005
15199.495
15273.224
15320.906
15372.199
15416.901
15441.687
15472.735
15499.241
15504.76
15523.43
15541.182
15547.462
15555.857
15559.162
15563.804
15559.676
15564.992
15575.812
15574.044
15572.784
15572.348
15569.983
15566.144
15567.004
15561.422
15553.144
15494.541
)
;
    }
    Inlet
    {
        type            turbulentMixingLengthDissipationRateInlet;
        mixingLength    0.03;
        phi             phi;
        k               k;
        value           nonuniform List<scalar> 3(0.0038537392 0.0040085202 0.0050970786);
    }
    Outlet
    {
        type            inletOutlet;
        inletValue      uniform 1e-05;
        value           nonuniform List<scalar> 
86
(
1e-05
1e-05
1e-05
1e-05
1e-05
1e-05
1e-05
1e-05
1e-05
1e-05
1e-05
1e-05
1e-05
1e-05
1e-05
1e-05
1e-05
1e-05
1e-05
1e-05
1e-05
1e-05
1e-05
1e-05
1e-05
1e-05
1e-05
1e-05
1e-05
1e-05
219.34568
218.32517
197.04255
1e-05
1e-05
1e-05
1e-05
1e-05
46.564968
37.439405
1e-05
1e-05
1e-05
1e-05
1e-05
6.979053
5.9086835
5.0710204
4.4147738
3.9814592
3.6968814
3.5445442
3.4324178
3.3965603
3.3813667
3.3837512
3.3816096
3.375594
3.357411
3.3546817
3.3426162
3.3317018
3.3378354
3.3304551
3.3224692
3.3123152
3.2968467
3.2716145
1e-05
1e-05
1e-05
1e-05
1e-05
1e-05
1e-05
1e-05
1e-05
1e-05
1e-05
0.55417358
1e-05
1e-05
1e-05
1e-05
195.82851
218.56231
)
;
    }
    Front
    {
        type            wedge;
    }
    Back
    {
        type            wedge;
    }
    defaultFaces
    {
        type            empty;
    }
}


// ************************************************************************* //
