/*--------------------------------*- C++ -*----------------------------------*\
| =========                 |                                                 |
| \\      /  F ield         | OpenFOAM: The Open Source CFD Toolbox           |
|  \\    /   O peration     | Version:  4.0                                   |
|   \\  /    A nd           | Web:      www.OpenFOAM.org                      |
|    \\/     M anipulation  |                                                 |
\*---------------------------------------------------------------------------*/
FoamFile
{
    version     2.0;
    format      ascii;
    class       volScalarField;
    location    "0.56";
    object      p;
}
// * * * * * * * * * * * * * * * * * * * * * * * * * * * * * * * * * * * * * //

dimensions      [0 2 -2 0 0 0 0];

internalField   nonuniform List<scalar> 
1740
(
491.87851
491.81682
491.91021
475.94257
475.85372
475.78089
459.82727
459.9312
459.47529
443.14441
443.39894
443.0843
426.60282
426.66108
426.77444
410.38399
410.0555
410.19158
393.82311
393.66008
393.67311
377.23291
377.27297
377.39652
360.86324
360.80118
360.95051
344.30329
344.34771
344.14747
327.31789
327.47253
327.21801
310.37544
310.42713
310.46988
293.65196
293.78177
293.90659
277.13391
277.17156
277.33013
260.42067
260.37378
260.64528
243.65109
243.72413
243.85773
227.23143
227.192
227.06569
210.45504
210.28131
210.19917
193.37952
193.34573
193.31994
176.68814
176.65447
176.46822
160.10479
160.02456
159.9493
143.67533
143.73073
143.75234
127.46243
127.49385
127.29716
110.78513
110.94976
110.79692
94.168784
94.37171
94.433269
78.036694
77.945574
77.965531
61.963219
61.673411
61.592833
46.007841
45.87805
45.737457
30.409675
30.543364
30.543391
15.950676
15.743299
15.5685
3.9779056
3.292974
1.5837785
-0.67807976
-0.63169282
-0.39450626
-0.16379582
-0.15299947
-0.10702436
-0.031877121
-0.022264164
-0.0061527731
-0.0089092218
-0.0028296874
0.0068063641
-0.00066911341
0.0023853609
0.0077020307
0.0028055663
0.0043131563
0.0068444481
0.0041437536
0.0048896762
0.0060942912
0.0048807543
0.0052293132
0.005877809
0.0053571502
0.0055389339
0.0058718891
0.0056031004
0.00569066
0.0058415681
0.0055698315
0.0056031323
0.0056558855
0.0053055828
0.0053094421
0.0053090785
0.0048794647
0.0048674914
0.0048393277
0.0043501513
0.0043271753
0.0042770808
0.0037914855
0.0037629138
0.0037035468
0.0032493979
0.0032201329
0.0031595185
0.002738784
0.0027114824
0.0026548719
0.0022634272
0.0022387473
0.0021874324
0.0018250226
0.0018028703
0.0017567669
0.0014253292
0.0014054216
0.0013643856
0.0010661429
0.0010486453
0.0010122527
0.00074798604
0.00073269056
0.00070053272
0.0004707459
0.00045744439
0.00042933688
0.00023337864
0.00022187952
0.00019752978
3.398051e-05
2.4108595e-05
3.1786754e-06
-0.00012991123
-0.00013833559
-0.00015618016
-0.00026112606
-0.00026826098
-0.00028336518
-0.00036269284
-0.00036868949
-0.00038136995
-0.00043774998
-0.00044274756
-0.00045330007
-0.00048948191
-0.00049361159
-0.00050231307
-0.00052104264
-0.00052442602
-0.0005315339
-0.00053547879
-0.00053822593
-0.00054397477
-0.00053566615
-0.00053787591
-0.00054247608
-0.00052427273
-0.00052603199
-0.00052967139
-0.00050373161
-0.00050511881
-0.000507963
-0.00047622518
-0.00047730858
-0.00047950305
-0.00044366806
-0.00044450758
-0.00044617828
-0.00040769865
-0.00040834659
-0.00040959972
-0.00036968666
-0.00037018684
-0.00037110884
-0.00033075816
-0.00033112406
-0.00033180079
-0.00029177644
-0.00029204212
-0.00029252962
-0.00025339291
-0.00025358431
-0.00025392915
-0.00021605419
-0.00021619045
-0.00021642957
-0.0001800276
-0.00018012283
-0.00018028444
-0.0001454157
-0.00014548025
-0.00014558529
-0.00011214149
-0.00011218299
-0.00011224677
-7.9950759e-05
-7.9975139e-05
-8.0008889e-05
-4.8266551e-05
-4.8279129e-05
-4.8292452e-05
-1.6442585e-05
-1.644642e-05
-1.6448078e-05
-1.2983664
-0.91326465
-0.31300994
-0.2427873
-0.081819566
-0.079276939
-0.0008315793
-0.0053485064
0.012832816
0.013991377
0.011873002
0.013789988
0.0091308092
0.010487386
0.0072994996
0.008173995
0.0064857894
0.00689474
0.006169526
0.0063644079
0.0059782215
0.0060562974
0.0056950385
0.0057018353
0.0052906819
0.0052427136
0.0047890248
0.0046992553
0.0042025235
0.0041103196
0.0036225852
0.0035306969
0.0030755565
0.0029875005
0.0025760581
0.0024891082
0.0021155042
0.0020327179
0.0016915064
0.0016159749
0.0013060845
0.0012361535
0.00096014048
0.00089678395
0.00065435656
0.00059750455
0.00038887523
0.00033879441
0.00016242097
0.0001188339
-2.7024406e-05
-6.4593665e-05
-0.00018195554
-0.00021404461
-0.00030517222
-0.00033232004
-0.00039966099
-0.00042240105
-0.00046850361
-0.00048736851
-0.00051482955
-0.00053032211
-0.00054173543
-0.00055431941
-0.00055220039
-0.00056229804
-0.0005490317
-0.00055702889
-0.00053483136
-0.00054107688
-0.00051197067
-0.0005167739
-0.00048257185
-0.00048620421
-0.00044849352
-0.00045119071
-0.00041131926
-0.00041328183
-0.00037236449
-0.0003737593
-0.0003326989
-0.00033366251
-0.00029315887
-0.0002938028
-0.00025435992
-0.00025477281
-0.00021671629
-0.00021696643
-0.00018046817
-0.00018060677
-0.00014569628
-0.00014576081
-0.00011230705
-0.00011232468
-8.0034608e-05
-8.0025147e-05
-4.8297705e-05
-4.8278731e-05
-1.6445186e-05
-1.6432566e-05
0.014104689
0.01372233
0.01316597
0.012615035
0.012013639
0.011365199
0.010667584
0.0099099032
0.0090889682
0.0082206182
0.0073280081
0.0064366073
0.0055730602
0.0047613224
0.0040039573
0.0033064575
0.0026912414
0.0021748818
0.0017407037
0.0013688823
0.0010477353
0.00076684699
0.00051757174
0.00029417178
9.387091e-05
0.01357244
0.013158189
0.01254961
0.011873683
0.011204367
0.010481153
0.0096473749
0.0087073651
0.0077062487
0.0066995793
0.0057355243
0.0048464804
0.0040454858
0.0033310641
0.0027115526
0.0021865656
0.0017426421
0.0013627706
0.0010435892
0.00078293566
0.00057380591
0.00040389614
0.00026390265
0.00014932637
5.571186e-05
0.0082654736
0.0077402383
0.0070006931
0.0061020759
0.0049712051
0.0036316064
0.0022009563
0.00083019884
-0.00032542494
-0.0012623583
-0.0019884496
-0.0025226947
-0.0028900343
-0.0031120278
-0.0031969543
-0.0031580267
-0.0030195426
-0.002803397
-0.0025182013
-0.0021745155
-0.0017877362
-0.0013770145
-0.00095493792
-0.00053362339
-0.00013472492
-0.0096185536
-0.01039715
-0.011801263
-0.013851592
-0.015880259
-0.017492527
-0.01850978
-0.018964026
-0.019002512
-0.018699499
-0.018114406
-0.017322281
-0.016374125
-0.015277499
-0.014067198
-0.012773069
-0.011419549
-0.010027174
-0.0086133542
-0.0071935514
-0.005787034
-0.0044118405
-0.0030661311
-0.0017613523
-0.00053120586
-0.064327859
-0.065014668
-0.065837064
-0.064292028
-0.061800873
-0.058234799
-0.054177608
-0.049933954
-0.04561549
-0.041332097
-0.037268601
-0.033463808
-0.029881303
-0.026248915
-0.02287781
-0.019788506
-0.016968867
-0.014397692
-0.012046452
-0.0098834735
-0.0078727151
-0.0059795585
-0.0041929185
-0.0024900603
-0.00085340016
-0.23228206
-0.19010275
-0.171188
-0.13997415
-0.11403725
-0.091241831
-0.071847466
-0.055940093
-0.043111105
-0.032833157
-0.024592117
-0.018057883
-0.01293935
-0.0091560802
-0.0062265839
-0.0040300939
-0.0024203528
-0.001278888
-0.00051178218
-4.0991608e-05
0.00019971683
0.00027232576
0.00022207924
9.4419513e-05
-0.00011059767
-0.34433566
-0.14225767
-0.089431054
-0.049822905
-0.014633707
0.012960347
0.030529549
0.039270717
0.042491597
0.042866141
0.04161794
0.039358099
0.036487606
0.033276464
0.02992811
0.026572087
0.023285041
0.020111961
0.017068537
0.014153171
0.011354692
0.0086594541
0.0060438949
0.0034983716
0.00093707092
-0.2011043
-0.17768051
-0.15270623
-0.12700634
-0.10276053
-0.081519497
-0.063549097
-0.048930084
-0.037264566
-0.027902904
-0.02055067
-0.014819917
-0.010405441
-0.0070087447
-0.0044348277
-0.002530902
-0.0011732228
-0.00023983717
0.00035065729
0.00066593887
0.00076445602
0.00069924191
0.00051614744
0.00026196208
-6.4522696e-05
-0.08220288
-0.0820881
-0.080055449
-0.07649172
-0.071785397
-0.066254355
-0.060689488
-0.055198387
-0.049835103
-0.044877921
-0.040183141
-0.035659587
-0.031395836
-0.027475931
-0.023895691
-0.020630799
-0.01766915
-0.014940425
-0.01244456
-0.01015894
-0.0080561682
-0.0061067981
-0.0042829837
-0.0025518212
-0.0008848487
-0.011385028
-0.016595242
-0.020965446
-0.02416885
-0.026340044
-0.027515866
-0.027887098
-0.027591983
-0.026799932
-0.025689856
-0.024339847
-0.022821935
-0.021172125
-0.019427872
-0.017627984
-0.015805279
-0.013968475
-0.012175611
-0.010409046
-0.0086702029
-0.0069636978
-0.0052955001
-0.0036736304
-0.0021096304
-0.00063933561
0.012264155
0.0099161388
0.0068651537
0.0037992389
0.0007083916
-0.0019578784
-0.0040241877
-0.0055360077
-0.0065822025
-0.0072503958
-0.0076075501
-0.007712511
-0.0076125499
-0.0073466853
-0.0069505006
-0.0064470051
-0.005854667
-0.0052079302
-0.0045204329
-0.00380424
-0.0030714097
-0.0023345672
-0.0016069425
-0.00090115473
-0.00024368127
0.013835901
0.013359703
0.012727814
0.011589202
0.010261065
0.0086918134
0.0070034759
0.0054372523
0.0040582416
0.0028877593
0.0019359345
0.0011848698
0.00060624141
0.00017500445
-0.00012802168
-0.00032581617
-0.00043800762
-0.0004882116
-0.000491436
-0.00045914306
-0.00040041767
-0.00032338115
-0.00023457748
-0.00013603635
-2.9784716e-05
0.01096736
0.011119599
0.01109651
0.010727647
0.010180876
0.0094605329
0.0086555257
0.0077088755
0.0067376182
0.0058030315
0.0049335585
0.0041497564
0.0034665703
0.0028855056
0.0023958446
0.0019835372
0.0016357228
0.0013386374
0.0010812294
0.00085483994
0.00065470878
0.00047625774
0.00031555401
0.00017364114
5.4338435e-05
0.008662637
0.0089123884
0.009008388
0.0089072396
0.0086624966
0.0082881108
0.0077893633
0.0072044267
0.0065516517
0.0058609505
0.0051626234
0.0045082897
0.003898387
0.0033426614
0.0028412228
0.0023951582
0.0020016159
0.0016543223
0.0013480113
0.0010775705
0.00083621374
0.00061922855
0.00042346068
0.00024359518
7.6692624e-05
0.0071597807
0.0073589471
0.0074752117
0.0074797072
0.0073882122
0.0072037157
0.0069169912
0.0065314999
0.0060668309
0.0055863513
0.005089989
0.004576116
0.0040694097
0.0035789881
0.0031130115
0.0026785394
0.0022786734
0.0019132873
0.0015806119
0.0012782894
0.0010027987
0.00075048846
0.00051776443
0.00030065804
9.536205e-05
0.0064396305
0.0064698675
0.006502366
0.006522891
0.0064988626
0.0064015482
0.0062393935
0.0059971475
0.0056925595
0.0053457431
0.0049680381
0.0045614734
0.0041399799
0.0037144366
0.0032935923
0.0028856612
0.0024955728
0.0021273429
0.0017808884
0.0014567506
0.0011539499
0.00087048267
0.00060380333
0.0003522406
0.00011273571
0.0060772155
0.0060444789
0.006006806
0.0059601224
0.0058875527
0.0058125743
0.0056918813
0.0055390494
0.0053478533
0.0050898459
0.0047915791
0.0044631724
0.004111536
0.0037452555
0.0033704141
0.0029954387
0.0026256119
0.0022655489
0.001917949
0.0015845668
0.0012659742
0.00096187417
0.00067139618
0.00039376661
0.00012690741
0.0056746246
0.0056181766
0.0055346434
0.0054311707
0.0053348521
0.0052479171
0.0051524998
0.0050344698
0.0048882398
0.004703983
0.0044826331
0.0042262883
0.00394098
0.003631606
0.0033067867
0.0029706671
0.0026303711
0.0022910744
0.0019561864
0.0016282652
0.0013089156
0.00099915933
0.00069946646
0.00041024887
0.00013141793
0.0051657749
0.0050638123
0.004957347
0.0048528535
0.0047578467
0.0046710271
0.0045829542
0.004484565
0.0043666454
0.0042225228
0.0040504434
0.0038507911
0.0036231378
0.0033701034
0.0030966148
0.0028077688
0.0025081559
0.0022021503
0.0018935477
0.0015855071
0.001280775
0.00098136498
0.00068877673
0.00040448823
0.00012942873
0.0045929918
0.0044765142
0.0043641254
0.0042579906
0.0041618451
0.0040738849
0.0039891604
0.0039012587
0.003802462
0.0036864592
0.0035500187
0.0033915032
0.0032100842
0.0030066324
0.0027833611
0.0025426861
0.0022877369
0.0020220444
0.0017491055
0.0014722581
0.0011944015
0.00091809643
0.00064560008
0.00037984907
0.00012209467
0.00399857
0.003884411
0.0037681564
0.0036610451
0.0035644304
0.0034766318
0.00339431
0.0033129333
0.003226816
0.0031307598
0.0030212282
0.0028957581
0.0027527578
0.002591522
0.0024122676
0.0022163773
0.0020056105
0.0017826198
0.0015501359
0.0013108168
0.0010673602
0.00082230418
0.00057810285
0.00034079812
0.00011142653
0.0034250179
0.003312342
0.0031991028
0.0030911192
0.0029936485
0.0029057558
0.0028249491
0.0027476942
0.0026698597
0.0025878532
0.0024983326
0.0023985854
0.0022863686
0.0021601739
0.0020192141
0.0018636388
0.0016943914
0.0015129977
0.0013213826
0.0011216914
0.00091624924
0.00070702693
0.00049444906
0.00029232359
0.0001004938
0.0028888892
0.0027787983
0.0026689859
0.0025639141
0.0024664764
0.0023789717
0.0022994782
0.0022254561
0.0021540189
0.002082319
0.0020075819
0.0019271336
0.0018387012
0.001740485
0.0016312388
0.0015102839
0.0013778787
0.0012347685
0.0010821826
0.00092166008
0.00075508353
0.00058443236
0.00041178994
0.00024371432
8.1035267e-05
0.0023947904
0.0022893482
0.0021837105
0.0020823885
0.0019881292
0.0019022453
0.0018249428
0.0017543569
0.0016884048
0.0016248116
0.0015612816
0.0014955428
0.0014255295
0.0013494608
0.0012659357
0.0011740057
0.0010733981
0.0009643046
0.00084738579
0.00072366954
0.00059451591
0.00046165912
0.00032689586
0.00019367484
6.3306853e-05
0.0019433204
0.0018435904
0.0017432658
0.0016468422
0.0015568845
0.0014747512
0.001400699
0.0013339588
0.0012730057
0.0012162341
0.0011617708
0.0011078199
0.0010526384
0.00099460801
0.00093235739
0.00086487115
0.00079155828
0.00071222937
0.00062707967
0.00053666766
0.00044191529
0.00034409054
0.0002445059
0.00014512347
4.7208227e-05
0.0015325165
0.0014397042
0.0013459165
0.0012555554
0.0011709796
0.0010936701
0.0010240511
0.00096179388
0.0009059388
0.00085542558
0.00080893426
0.00076504809
0.000722332
0.0006794262
0.00063509054
0.00058830372
0.00053831082
0.00048466925
0.00042724525
0.00036622015
0.00030210306
0.00023568636
0.00016784227
9.995492e-05
3.2906002e-05
0.0011615398
0.0010764762
0.00099038115
0.00090690027
0.00082866859
0.00075703729
0.00069274301
0.00063576351
0.00058548107
0.00054120337
0.00050212135
0.00046725779
0.00043539033
0.00040544694
0.00037630957
0.00034702436
0.00031679895
0.00028504316
0.00025140526
0.00021577853
0.0001783069
0.00013935044
9.9347799e-05
5.9482009e-05
2.0208772e-05
0.00082764058
0.00075304524
0.00067552333
0.0005998024
0.00052852918
0.00046326557
0.0004049379
0.00035377997
0.00030948162
0.00027168826
0.00023987514
0.00021326249
0.00019104598
0.00017235145
0.00015617754
0.0001416827
0.00012809997
0.00011476542
0.00010118474
8.704656e-05
7.221673e-05
5.6715637e-05
4.0612841e-05
2.4386322e-05
8.2838139e-06
0.0005334827
0.00046893274
0.00040057909
0.00033304757
0.0002691646
0.00021074532
0.00015877615
0.00011374481
7.5713779e-05
4.4525289e-05
1.980872e-05
9.7329665e-07
-1.2540655e-05
-2.1503127e-05
-2.6604835e-05
-2.8658377e-05
-2.8372879e-05
-2.6441902e-05
-2.3440009e-05
-1.9825091e-05
-1.5938086e-05
-1.2037356e-05
-8.3935333e-06
-4.7329442e-06
-1.2016014e-06
0.00028205386
0.00022189942
0.00016353166
0.00010500343
4.8920029e-05
-2.4610066e-06
-4.780425e-05
-8.6500601e-05
-0.00011819111
-0.00014291611
-0.00016087526
-0.00017246412
-0.00017819632
-0.00017863847
-0.00017437573
-0.00016606556
-0.00015441576
-0.0001400693
-0.00012365729
-0.00010575239
-8.684498e-05
-6.7406884e-05
-4.7921246e-05
-2.8339621e-05
-9.0389072e-06
6.9311388e-05
1.6520426e-05
-3.6856053e-05
-8.7570063e-05
-0.00013451718
-0.00017886829
-0.00021735929
-0.00024971075
-0.00027519537
-0.00029372954
-0.00030543051
-0.00031046197
-0.00030926306
-0.0003023381
-0.00029020566
-0.00027342214
-0.00025262112
-0.00022841912
-0.00020146409
-0.0001723965
-0.00014184952
-0.00011040211
-7.8676755e-05
-4.6630618e-05
-1.4882732e-05
-0.00010733794
-0.00015296448
-0.00019925156
-0.00024409574
-0.00028614156
-0.00032215326
-0.00035299482
-0.00037917149
-0.00039864785
-0.00041130956
-0.00041737474
-0.00041666832
-0.00040950203
-0.00039631898
-0.00037767553
-0.00035407354
-0.00032607433
-0.00029426947
-0.00025931287
-0.00022188124
-0.00018264939
-0.00014226649
-0.00010141368
-6.0097444e-05
-1.9152212e-05
-0.00025056326
-0.00028953531
-0.00032907095
-0.00036731936
-0.00040272348
-0.00043382437
-0.00046006204
-0.00047925333
-0.00049234419
-0.00049915885
-0.00050040264
-0.00049475679
-0.00048260394
-0.00046434224
-0.00044050548
-0.00041157651
-0.00037810676
-0.00034066186
-0.00029989738
-0.00025648138
-0.00021109304
-0.00016441691
-0.00011715451
-6.9387873e-05
-2.2056714e-05
-0.00036319864
-0.00039609347
-0.00042936898
-0.00046138069
-0.00049068398
-0.00051606203
-0.00053661232
-0.00055139033
-0.00056038435
-0.00056319597
-0.00055878239
-0.00054847091
-0.00053210363
-0.00050973176
-0.00048209041
-0.00044935244
-0.00041200298
-0.00037062147
-0.00032589806
-0.00027849505
-0.00022908237
-0.00017833735
-0.00012699872
-7.5174042e-05
-2.3843778e-05
-0.0004482282
-0.00047567037
-0.00050327203
-0.00052959948
-0.00055335389
-0.00057343418
-0.00058896092
-0.00059919818
-0.00060376796
-0.00060235492
-0.00059468173
-0.00058105505
-0.00056160824
-0.00053665085
-0.00050606458
-0.00047055376
-0.00043062374
-0.00038686011
-0.00033980251
-0.00029010603
-0.00023844809
-0.00018551195
-0.00013202157
-7.8104539e-05
-2.4727265e-05
-0.00050873583
-0.00053133957
-0.00055389721
-0.00057515558
-0.00059396097
-0.00060931405
-0.00062039745
-0.00062655927
-0.00062736968
-0.00062254173
-0.00061192858
-0.00059562995
-0.00057379451
-0.00054666354
-0.00051443173
-0.00047751892
-0.00043639222
-0.00039157753
-0.00034362796
-0.00029314296
-0.000240773
-0.00018718984
-0.00013311862
-7.870204e-05
-2.4861446e-05
-0.00054780066
-0.00056616962
-0.00058430713
-0.00060112469
-0.00061559965
-0.00062683342
-0.00063407933
-0.0006367549
-0.00063444389
-0.00062688142
-0.00061395264
-0.00059569621
-0.00057224832
-0.00054382308
-0.00051069295
-0.00047322229
-0.00043183753
-0.00038702743
-0.00033930533
-0.00028922689
-0.00023738813
-0.00018441412
-0.00013102574
-7.7413822e-05
-2.4405906e-05
-0.00056843929
-0.00058314816
-0.0005974642
-0.00061045809
-0.00062121654
-0.00062894263
-0.00063296663
-0.00063276269
-0.00062794975
-0.00061828781
-0.0006036726
-0.00058412667
-0.00055977298
-0.00053081518
-0.00049752777
-0.00046025392
-0.00041939775
-0.00037541156
-0.000328772
-0.00027999233
-0.0002296206
-0.00017823188
-0.00012650656
-7.4650794e-05
-2.3401246e-05
-0.00057354415
-0.00058512732
-0.00059620528
-0.00060595405
-0.00061358603
-0.00061839645
-0.00061978903
-0.00061729365
-0.00061056735
-0.00059939482
-0.00058368311
-0.00056345094
-0.00053881261
-0.00050996258
-0.00047716444
-0.00044074311
-0.00040107554
-0.00035857812
-0.00031369978
-0.00026691899
-0.0002187402
-0.00016968807
-0.00012039113
-7.0978446e-05
-2.2143059e-05
-0.00056585127
-0.00057480693
-0.00058316888
-0.0005902181
-0.00059527559
-0.00059772336
-0.0005970356
-0.00059279485
-0.00058469601
-0.00057254841
-0.00055627058
-0.0005358822
-0.00051149143
-0.00048328268
-0.00045150538
-0.0004164644
-0.00037851049
-0.00033803079
-0.00029544406
-0.00025119484
-0.00020574879
-0.00015959117
-0.00011331084
-6.6813079e-05
-2.0816304e-05
-0.00054788409
-0.00055466334
-0.00056078903
-0.00056563124
-0.00056862117
-0.00056921116
-0.00056694203
-0.00056144694
-0.00055245763
-0.00053980655
-0.00052342423
-0.00050333199
-0.00047963282
-0.00045250034
-0.0004221682
-0.00038892074
-0.00035308364
-0.00031501584
-0.00027510424
-0.00023375773
-0.00019140184
-0.00014847713
-0.00010551281
-6.2165352e-05
-1.9243109e-05
-0.00052192804
-0.00052693051
-0.0005312466
-0.00053434164
-0.00053571103
-0.00053489077
-0.00053148117
-0.00052516202
-0.00051569943
-0.00050294809
-0.00048684961
-0.00046742736
-0.00044477874
-0.00041906573
-0.00039050548
-0.00035936134
-0.0003259339
-0.00029055346
-0.00025357385
-0.00021536612
-0.00017631182
-0.00013679898
-9.7299109e-05
-5.7274483e-05
-1.7595699e-05
-0.00049002367
-0.00049360384
-0.0004964902
-0.00049822417
-0.00049836846
-0.00049652928
-0.00049236076
-0.00048558544
-0.00047600119
-0.00046348347
-0.00044798448
-0.00042952908
-0.00040820854
-0.00038417264
-0.00035762148
-0.00032879669
-0.00029797331
-0.0002654524
-0.00023155442
-0.00019661192
-0.00016096213
-0.00012494146
-8.8976469e-05
-5.2337008e-05
-1.5934415e-05
-0.00045395161
-0.00045641537
-0.00045819695
-0.00045890505
-0.00045815727
-0.00045563316
-0.0004510275
-0.00044410224
-0.0004346843
-0.00042266799
-0.00040801489
-0.00039075076
-0.0003709602
-0.00034878048
-0.000324394
-0.00029802038
-0.00026990894
-0.00024033159
-0.00020957598
-0.00017793826
-0.00014571524
-0.00011319734
-8.0776763e-05
-4.7486288e-05
-1.4295026e-05
-0.00041521904
-0.00041682544
-0.00041777488
-0.00041773668
-0.00041639182
-0.00041345523
-0.0004086752
-0.00040184748
-0.00039282408
-0.00038151559
-0.00036789142
-0.00035197724
-0.00033385082
-0.00031363661
-0.00029149918
-0.0002676362
-0.00024227162
-0.00021564904
-0.00018802542
-0.0001596646
-0.00013083013
-0.0001017755
-7.2872569e-05
-4.2816821e-05
-1.2683813e-05
-0.00037506833
-0.00037603449
-0.00037638306
-0.00037583601
-0.0003741228
-0.0003709996
-0.00036625732
-0.00035972121
-0.00035126567
-0.0003408156
-0.00032834676
-0.00031388392
-0.00029749769
-0.00027929965
-0.00025943668
-0.00023808489
-0.00021544366
-0.00019172975
-0.00016717221
-0.00014200774
-0.00011647588
-9.0809381e-05
-6.5399259e-05
-3.8393084e-05
-1.1071191e-05
-0.00033450349
-0.00033500715
-0.00033494342
-0.00033407968
-0.0003321797
-0.0003290499
-0.00032450835
-0.00031840861
-0.00031064482
-0.00030115438
-0.00028991848
-0.00027696028
-0.00026234253
-0.00024616413
-0.00022855462
-0.00020966917
-0.0001896835
-0.00016878904
-0.00014718916
-0.00012509692
-0.00010273518
-8.0333347e-05
-5.8450887e-05
-3.4212899e-05
-9.3995239e-06
-0.00029430535
-0.00029448813
-0.00029415925
-0.00029312326
-0.0002911894
-0.00028818648
-0.00028396372
-0.00027840183
-0.00027141154
-0.00026294049
-0.00025297486
-0.00024153581
-0.00022867685
-0.00021448514
-0.00019907336
-0.00018257628
-0.00016514709
-0.00014695272
-0.00012817131
-0.00010899122
-8.9613328e-05
-7.0239846e-05
-5.1876586e-05
-3.0031703e-05
-7.8423016e-06
-0.00025503929
-0.00025501205
-0.00025453257
-0.0002534393
-0.00025157569
-0.00024879805
-0.00024497586
-0.00024002007
-0.00023385176
-0.00022642814
-0.00021773814
-0.00020780077
-0.00019666317
-0.00018439924
-0.00017110541
-0.00015689732
-0.00014190607
-0.00012627485
-0.0001101564
-9.3711317e-05
-7.7106934e-05
-6.04808e-05
-4.4923416e-05
-2.5947629e-05
-6.6622263e-06
-0.00021707526
-0.00021692252
-0.00021637873
-0.00021531186
-0.00021359382
-0.00021110629
-0.00020774585
-0.000203433
-0.00019810705
-0.00019173281
-0.00018430134
-0.00017582893
-0.00016635574
-0.00015594378
-0.00014467413
-0.00013264395
-0.00011996341
-0.00010675263
-9.313941e-05
-7.9257362e-05
-6.5245748e-05
-5.1247624e-05
-3.775292e-05
-2.2043635e-05
-5.6673596e-06
-0.00018061639
-0.0001804005
-0.00017985513
-0.00017887417
-0.00017735459
-0.00017520125
-0.00017233151
-0.00016867957
-0.0001641974
-0.00015885696
-0.00015265119
-0.00014559366
-0.00013771749
-0.00012907373
-0.00011972899
-0.00010976301
-9.9266076e-05
-8.8336289e-05
-7.7077082e-05
-6.5594428e-05
-5.399325e-05
-4.2367265e-05
-3.0949463e-05
-1.8130187e-05
-4.8575513e-06
-0.00014571347
-0.00014547876
-0.00014497556
-0.00014412068
-0.00014283349
-0.00014103952
-0.00013867403
-0.0001356849
-0.00013203468
-0.00012770154
-0.00012268013
-0.00011698137
-0.00011063174
-0.00010367192
-9.6155e-05
-8.8144429e-05
-7.9711831e-05
-7.0934736e-05
-6.1894105e-05
-5.2671298e-05
-4.3343686e-05
-3.3974565e-05
-2.4714765e-05
-1.4489392e-05
-3.9492445e-06
-0.00011225052
-0.0001120282
-0.00011159707
-0.00011089477
-0.00010986092
-0.00010843963
-0.00010658228
-0.00010424966
-0.00010141371
-9.8058178e-05
-9.4179165e-05
-8.9785144e-05
-8.4896327e-05
-7.9543697e-05
-7.3767644e-05
-6.7616377e-05
-6.1144195e-05
-5.4409663e-05
-4.7473627e-05
-4.0396888e-05
-3.3237315e-05
-2.604431e-05
-1.8945764e-05
-1.1101493e-05
-3.0119159e-06
-7.9946457e-05
-7.9759494e-05
-7.9421895e-05
-7.8890848e-05
-7.81245e-05
-7.7084113e-05
-7.5735905e-05
-7.4052719e-05
-7.2015089e-05
-6.9611874e-05
-6.6840531e-05
-6.3707164e-05
-6.0226091e-05
-5.641914e-05
-5.2314731e-05
-4.794674e-05
-4.3353259e-05
-3.8575296e-05
-3.3655427e-05
-2.8636541e-05
-2.3560811e-05
-1.8466165e-05
-1.3514019e-05
-7.8959106e-06
-2.0756514e-06
-4.8215602e-05
-4.8085371e-05
-4.7863136e-05
-4.7523733e-05
-4.7042656e-05
-4.6397287e-05
-4.5567878e-05
-4.4538522e-05
-4.3297809e-05
-4.1839284e-05
-4.0161631e-05
-3.8268611e-05
-3.6168841e-05
-3.3875374e-05
-3.1405157e-05
-2.8778373e-05
-2.6017667e-05
-2.3147399e-05
-2.0192874e-05
-1.7179948e-05
-1.4136768e-05
-1.1050213e-05
-8.2154014e-06
-4.7409814e-06
-1.2050958e-06
-1.6403696e-05
-1.6351083e-05
-1.6266591e-05
-1.6141897e-05
-1.5968908e-05
-1.5740323e-05
-1.5449778e-05
-1.5092087e-05
-1.4663556e-05
-1.4162133e-05
-1.3587518e-05
-1.294107e-05
-1.222575e-05
-1.1445983e-05
-1.0607482e-05
-9.717022e-06
-8.7821853e-06
-7.8111094e-06
-6.8122387e-06
-5.79413e-06
-4.7651719e-06
-3.7307057e-06
-2.7268426e-06
-1.5891085e-06
-4.3985322e-07
)
;

boundaryField
{
    Walls
    {
        type            zeroGradient;
    }
    Inlet
    {
        type            fixedValue;
        value           uniform 500;
    }
    Outlet
    {
        type            fixedValue;
        value           uniform 0;
    }
    Front
    {
        type            wedge;
    }
    Back
    {
        type            wedge;
    }
    defaultFaces
    {
        type            empty;
    }
}


// ************************************************************************* //
