/*--------------------------------*- C++ -*----------------------------------*\
| =========                 |                                                 |
| \\      /  F ield         | OpenFOAM: The Open Source CFD Toolbox           |
|  \\    /   O peration     | Version:  4.0                                   |
|   \\  /    A nd           | Web:      www.OpenFOAM.org                      |
|    \\/     M anipulation  |                                                 |
\*---------------------------------------------------------------------------*/
FoamFile
{
    version     2.0;
    format      ascii;
    class       volVectorField;
    location    "0.56";
    object      U;
}
// * * * * * * * * * * * * * * * * * * * * * * * * * * * * * * * * * * * * * //

dimensions      [0 1 -1 0 0 0 0];

internalField   nonuniform List<vector> 
1740
(
(1.4118914 -0.006431701 5.1803223e-06)
(1.5379996 -0.015227921 7.1006355e-07)
(1.5466941 -0.0071047713 2.1355685e-08)
(1.5128208 -0.019307697 7.6344211e-06)
(1.6411555 -0.031921187 1.6156945e-06)
(1.5517149 -0.018473495 3.0716043e-07)
(1.5404351 -0.019981794 1.1098517e-05)
(1.5919573 -0.013565664 2.4381521e-06)
(1.4584154 -0.00086234211 4.5535886e-07)
(1.5608132 -0.015612007 1.2969224e-05)
(1.5173877 0.0088020043 3.3427948e-06)
(1.5681916 0.0041595337 5.2437341e-07)
(1.6652051 0.00031325042 1.4801678e-05)
(1.4930963 0.0075585041 4.3227265e-06)
(1.575432 0.0040710073 8.3788958e-07)
(1.5432861 0.023214176 1.6436718e-05)
(1.4783772 0.016429536 5.1986716e-06)
(1.480195 -0.0019003805 1.0164261e-06)
(1.4660979 0.017988867 1.7365852e-05)
(1.5732478 0.0080539166 5.9508809e-06)
(1.5764682 -0.0041250041 1.1060578e-06)
(1.4837769 0.0023141672 1.8185338e-05)
(1.5774926 -0.0082296569 6.7913505e-06)
(1.5725748 -0.0092781898 1.3952622e-06)
(1.4727148 -0.0064890093 1.9040563e-05)
(1.5759573 -0.012416003 7.4367014e-06)
(1.4871871 -0.0076707169 1.5680847e-06)
(1.4813483 -0.012977083 1.9615658e-05)
(1.5949919 0.0021193732 8.071052e-06)
(1.5082121 0.0073743522 1.7005312e-06)
(1.5312769 -0.00053490698 1.9594663e-05)
(1.5175161 0.011361273 8.4793958e-06)
(1.5460423 0.0063915787 1.9507427e-06)
(1.5216515 0.006659526 1.9667035e-05)
(1.5267114 0.015397363 9.0613551e-06)
(1.5271336 0.0053679685 2.1676316e-06)
(1.4842607 -0.014851988 1.9823231e-05)
(1.5080305 0.0020679 9.4588485e-06)
(1.5899841 0.007557236 2.2566186e-06)
(1.5942462 -0.02176468 2.0215911e-05)
(1.49813 -0.019320717 9.9763825e-06)
(1.5942597 -0.010433738 2.5905499e-06)
(1.5932274 -0.0019423437 2.0646734e-05)
(1.5141953 -0.027353463 1.0441347e-05)
(1.4921159 -0.020581705 2.7199973e-06)
(1.5740624 0.010232513 2.0615994e-05)
(1.6103951 -0.0097377786 1.0837192e-05)
(1.4977586 -0.011824832 2.8816482e-06)
(1.5808918 0.0095341669 2.109083e-05)
(1.6062972 0.013974447 1.1461256e-05)
(1.503972 0.0052042595 3.0432143e-06)
(1.5124939 0.0095940831 2.174864e-05)
(1.5225399 0.012008408 1.1865553e-05)
(1.5160432 0.0034741302 3.2363507e-06)
(1.5195791 0.009034403 2.2109878e-05)
(1.6206781 -0.0020023669 1.2192936e-05)
(1.5198045 -0.002703301 3.4343922e-06)
(1.4938949 -0.0015302587 2.2182785e-05)
(1.6003707 0.019375914 1.261159e-05)
(1.4925216 0.017821969 3.5706466e-06)
(1.4726007 -0.0047640611 2.2155632e-05)
(1.4726462 0.014298573 1.2931648e-05)
(1.5676574 0.014983682 3.7937521e-06)
(1.5116908 0.0048486493 2.1826053e-05)
(1.5656378 -0.015095323 1.3187587e-05)
(1.5715658 -0.013818482 3.9357801e-06)
(1.5249626 0.00041228552 2.1637171e-05)
(1.5789748 -0.0039968487 1.3604096e-05)
(1.4882849 -0.0031467794 4.0773186e-06)
(1.4945426 -0.0027477053 2.1573756e-05)
(1.4872556 0.012413064 1.3861503e-05)
(1.5812478 0.011666871 4.2656748e-06)
(1.5677035 -0.0079172052 2.2010338e-05)
(1.4837956 0.0067165426 1.4151396e-05)
(1.5770673 0.0012963568 4.4721378e-06)
(1.5350803 -0.0068954034 2.2604066e-05)
(1.4776941 -0.0039049872 1.4459817e-05)
(1.5494161 0.0028128875 4.5783088e-06)
(1.5234461 -0.0076208965 2.2798303e-05)
(1.437365 -0.0087367061 1.4693122e-05)
(1.5364047 -0.0047829232 4.7562082e-06)
(1.5036804 0.0029010617 2.2665923e-05)
(1.4932051 -0.019938617 1.49307e-05)
(1.5071331 -0.013768768 4.8587333e-06)
(1.4304409 0.00023939386 2.1957518e-05)
(1.4410115 -0.0038803265 1.5101725e-05)
(1.5086022 -0.004786087 4.8826397e-06)
(1.3155619 0.037815879 2.3336083e-05)
(1.2424532 0.08958106 1.5657603e-05)
(1.3500355 0.057936663 5.581854e-06)
(0.80726314 0.37590796 1.1291704e-05)
(0.7890462 0.93341735 9.8455666e-06)
(0.73538091 1.2470044 5.4202753e-06)
(0.20931348 0.10829585 1.4955621e-06)
(0.1735132 0.35626381 3.0721577e-06)
(0.0845435 0.48687561 6.9608624e-07)
(-0.03321731 -0.014755862 1.2340785e-06)
(-0.031563565 -0.031154818 1.6751347e-06)
(-0.020063766 -0.036806518 5.6365957e-07)
(-0.0080298089 -0.0035648761 4.5266176e-07)
(-0.0078220662 -0.0087746727 7.257454e-07)
(-0.0059087063 -0.011422671 3.1892142e-07)
(-0.0016359277 -0.00048333897 1.1303846e-07)
(-0.0012939743 -0.0012024311 2.3126884e-07)
(-0.00071896331 -0.0017170579 9.1741003e-08)
(-0.00061565965 -0.00013560611 1.8237185e-08)
(-0.00037662101 -0.00028210584 4.3369862e-08)
(-6.9563544e-07 -0.00034684646 -2.2807487e-08)
(-0.00025332901 -6.716751e-05 -8.8974715e-09)
(-0.00013263873 -0.00010693599 -2.2561581e-08)
(8.4161316e-05 -9.9626165e-05 -6.7028597e-08)
(-0.00010907161 -1.6863548e-05 -1.7026487e-08)
(-4.848093e-05 -7.7835696e-06 -4.2527715e-08)
(5.0645656e-05 2.8250701e-05 -7.7562729e-08)
(-6.3165728e-05 -5.144368e-06 -1.691638e-08)
(-3.3776686e-05 1.529275e-05 -4.3218411e-08)
(1.2023231e-05 2.8256248e-05 -7.1912392e-08)
(-3.7013234e-05 -9.7858202e-06 -1.3824893e-08)
(-2.3503201e-05 -6.8009458e-06 -3.6635315e-08)
(2.5576546e-06 -1.3241769e-05 -6.0050531e-08)
(-1.0264836e-05 -1.4388319e-05 -1.0348807e-08)
(-2.5705863e-06 -2.7356983e-05 -2.8634089e-08)
(1.2044719e-05 -4.0218977e-05 -4.7379095e-08)
(1.6294669e-05 -1.2673822e-05 -7.6897391e-09)
(2.0701068e-05 -2.6180032e-05 -2.1765444e-08)
(2.8551557e-05 -4.0420344e-05 -3.6362125e-08)
(3.6667016e-05 -8.4263497e-06 -5.8517195e-09)
(3.914875e-05 -1.7295609e-05 -1.6487118e-08)
(4.3321612e-05 -2.7288942e-05 -2.7547536e-08)
(5.0382494e-05 -4.0810607e-06 -4.525533e-09)
(5.1959742e-05 -8.4396946e-06 -1.2476463e-08)
(5.4513801e-05 -1.1855279e-05 -2.0671092e-08)
(5.7211152e-05 -1.0614241e-06 -3.4850475e-09)
(5.8282559e-05 -7.6279212e-07 -9.3507398e-09)
(5.9879648e-05 -4.2633231e-07 -1.5301137e-08)
(5.7812712e-05 5.5457145e-07 -2.6150456e-09)
(5.8346364e-05 2.8559137e-06 -6.8539441e-09)
(5.8868645e-05 4.44874e-06 -1.1092588e-08)
(5.5256732e-05 1.0411004e-06 -1.8862376e-09)
(5.5383405e-05 3.7370672e-06 -4.8674845e-09)
(5.5216662e-05 5.9667877e-06 -7.8275782e-09)
(5.1737519e-05 1.0901836e-06 -1.3158835e-09)
(5.1676303e-05 3.5771548e-06 -3.3486789e-09)
(5.1172177e-05 5.6847058e-06 -5.3669328e-09)
(4.7940592e-05 1.098423e-06 -8.9719415e-10)
(4.7835257e-05 3.3643549e-06 -2.2396482e-09)
(4.7272484e-05 5.2853379e-06 -3.5784791e-09)
(4.3970071e-05 1.1542178e-06 -6.0489029e-10)
(4.3869813e-05 3.3323071e-06 -1.4642768e-09)
(4.3322502e-05 5.2170218e-06 -2.3267183e-09)
(3.9819799e-05 1.2439466e-06 -4.0835009e-10)
(3.9710677e-05 3.4167017e-06 -9.4291856e-10)
(3.9195546e-05 5.33848e-06 -1.4816129e-09)
(3.5553591e-05 1.272332e-06 -2.7645458e-10)
(3.5431462e-05 3.4528441e-06 -6.0125317e-10)
(3.4961497e-05 5.5097066e-06 -9.2806422e-10)
(3.1270308e-05 1.2956066e-06 -1.9393048e-10)
(3.1154827e-05 3.433385e-06 -3.8408746e-10)
(3.0716755e-05 5.5234894e-06 -5.7439966e-10)
(2.7050859e-05 1.2857543e-06 -1.4150279e-10)
(2.69414e-05 3.3776302e-06 -2.4907672e-10)
(2.6528603e-05 5.3978588e-06 -3.5358988e-10)
(2.2987966e-05 1.2340309e-06 -1.0668057e-10)
(2.2883303e-05 3.2113816e-06 -1.6466311e-10)
(2.2503477e-05 5.1308281e-06 -2.1791574e-10)
(1.9154991e-05 1.1787008e-06 -8.4327671e-11)
(1.9055253e-05 2.992218e-06 -1.1235989e-10)
(1.8710359e-05 4.7587602e-06 -1.3582032e-10)
(1.5599651e-05 1.0553704e-06 -6.858899e-11)
(1.5504869e-05 2.7610012e-06 -8.0548552e-11)
(1.5195126e-05 4.3984974e-06 -8.7078063e-11)
(1.2351002e-05 9.6269056e-07 -5.9666708e-11)
(1.2260722e-05 2.5062107e-06 -6.1732992e-11)
(1.1985112e-05 4.0091798e-06 -5.8870622e-11)
(9.4247601e-06 8.6302669e-07 -5.3239517e-11)
(9.3391021e-06 2.2487845e-06 -5.0325989e-11)
(9.0950129e-06 3.6066027e-06 -4.2836958e-11)
(6.8287046e-06 7.5940854e-07 -4.8792641e-11)
(6.7477803e-06 1.976567e-06 -4.3237373e-11)
(6.5331341e-06 3.1621802e-06 -3.3599054e-11)
(4.5633624e-06 6.5242461e-07 -4.5727047e-11)
(4.487425e-06 1.7066324e-06 -3.8866533e-11)
(4.3002425e-06 2.7241511e-06 -2.8467033e-11)
(2.621324e-06 5.4690187e-07 -4.3549926e-11)
(2.5504228e-06 1.4479705e-06 -3.6112534e-11)
(2.3885379e-06 2.3090253e-06 -2.5681728e-11)
(9.8791933e-07 4.489266e-07 -4.196367e-11)
(9.2197658e-07 1.2053661e-06 -3.4273644e-11)
(7.8299135e-07 1.9193521e-06 -2.416663e-11)
(-3.5671094e-07 3.5916403e-07 -4.0783269e-11)
(-4.1785389e-07 9.8197627e-07 -3.2984371e-11)
(-5.3631016e-07 1.5599013e-06 -2.3351634e-11)
(-1.4357258e-06 2.7686243e-07 -3.9777856e-11)
(-1.4921618e-06 7.7964207e-07 -3.2008294e-11)
(-1.5923606e-06 1.2361368e-06 -2.2929073e-11)
(-2.2744873e-06 2.0406312e-07 -3.9068419e-11)
(-2.3263054e-06 5.9600165e-07 -3.1208677e-11)
(-2.4103954e-06 9.3958894e-07 -2.2636916e-11)
(-2.9000415e-06 1.4024783e-07 -3.8473831e-11)
(-2.947422e-06 4.3468605e-07 -3.0524774e-11)
(-3.017411e-06 6.7969842e-07 -2.2443704e-11)
(-3.3407192e-06 8.5983753e-08 -3.7990197e-11)
(-3.383825e-06 2.9664826e-07 -2.9950309e-11)
(-3.4417138e-06 4.5757794e-07 -2.2326698e-11)
(-3.6248934e-06 4.1726564e-08 -3.7622848e-11)
(-3.6640035e-06 1.822622e-07 -2.9492531e-11)
(-3.7118112e-06 2.7393148e-07 -2.228766e-11)
(-3.7793124e-06 6.3399805e-09 -3.7343813e-11)
(-3.8159333e-06 8.875853e-08 -2.9123284e-11)
(-3.8546653e-06 1.24099e-07 -2.2300505e-11)
(-3.8302955e-06 -2.2306133e-08 -3.7126443e-11)
(-3.8645336e-06 1.5199907e-08 -2.8811445e-11)
(-3.8957443e-06 7.2439198e-09 -2.2328868e-11)
(-3.8024711e-06 -4.2608023e-08 -3.6959525e-11)
(-3.833409e-06 -3.9683989e-08 -2.8548452e-11)
(-3.8591416e-06 -7.9589348e-08 -2.2363521e-11)
(-3.7175378e-06 -5.5122885e-08 -3.6864461e-11)
(-3.7457459e-06 -7.6498414e-08 -2.8370179e-11)
(-3.7669839e-06 -1.3727639e-07 -2.2436496e-11)
(-3.595462e-06 -6.0523159e-08 -3.6859188e-11)
(-3.6214236e-06 -9.6361171e-08 -2.830413e-11)
(-3.6391219e-06 -1.6746376e-07 -2.2567519e-11)
(-3.4541297e-06 -5.9520565e-08 -3.6945713e-11)
(-3.4782371e-06 -1.0062071e-07 -2.8345978e-11)
(-3.493234e-06 -1.7196698e-07 -2.2733416e-11)
(-3.3114355e-06 -5.2954489e-08 -3.7105197e-11)
(-3.3340281e-06 -9.0967024e-08 -2.8451898e-11)
(-3.3470079e-06 -1.5337397e-07 -2.2844478e-11)
(-3.1858616e-06 -4.2035241e-08 -3.7240223e-11)
(-3.2072465e-06 -7.0751258e-08 -2.8417411e-11)
(-3.218744e-06 -1.1781309e-07 -2.263608e-11)
(-3.1034554e-06 -2.6600008e-08 -3.7218846e-11)
(-3.1239186e-06 -4.0999752e-08 -2.7830657e-11)
(-3.1342882e-06 -6.8689276e-08 -2.1619091e-11)
(-3.084324e-06 -6.9082595e-09 -3.6605158e-11)
(-3.1042668e-06 -5.5233765e-09 -2.5662143e-11)
(-3.113647e-06 -1.5416985e-08 -1.8852316e-11)
(-3.194012e-06 6.5990063e-09 -3.3181655e-11)
(-3.2141155e-06 1.846197e-08 -1.9273024e-11)
(-3.2221741e-06 2.4427008e-08 -1.2638249e-11)
(-0.045052253 1.9391172 -3.5959213e-07)
(-0.032174527 1.684642 -3.4435656e-06)
(-0.061496845 0.33310522 -2.4996005e-07)
(-0.042963774 0.14633498 -1.0186684e-06)
(-0.016123553 -0.043743842 -2.1575524e-07)
(-0.012280045 -0.045027352 -6.4755642e-07)
(-0.0049021535 -0.013687015 -1.2438735e-07)
(-0.0048330056 -0.015204835 -4.2303018e-07)
(-0.00065425196 -0.0022903592 -1.2568919e-07)
(-0.00099087856 -0.0030442569 -3.0975552e-07)
(0.00019686389 -0.0003906549 -1.358546e-07)
(0.00018608667 -0.00053554996 -2.4675802e-07)
(0.00024015619 -2.6454711e-05 -1.3395114e-07)
(0.00029461791 5.1209533e-05 -2.0349272e-07)
(0.00013869704 0.00010435952 -1.2195297e-07)
(0.00018806263 0.00019191043 -1.6817196e-07)
(5.9543495e-05 6.227027e-05 -1.0398771e-07)
(9.4917312e-05 0.00012096573 -1.3652275e-07)
(2.715109e-05 -7.1632994e-06 -8.4376732e-08)
(4.4265513e-05 1.6328275e-05 -1.0829733e-07)
(2.5464333e-05 -4.7780596e-05 -6.6145982e-08)
(3.512286e-05 -4.9524036e-05 -8.4182937e-08)
(3.6553583e-05 -5.2242258e-05 -5.0749691e-08)
(4.2990384e-05 -5.9783546e-05 -6.4401207e-08)
(4.7899468e-05 -3.3819721e-05 -3.8392716e-08)
(5.2820915e-05 -3.7914493e-05 -4.8625136e-08)
(5.7364236e-05 -1.3546021e-05 -2.8680176e-08)
(5.9564783e-05 -1.4724948e-05 -3.6222011e-08)
(6.1409322e-05 1.1175333e-06 -2.1095359e-08)
(6.1419625e-05 1.1859775e-06 -2.6547523e-08)
(5.9297365e-05 7.2773161e-06 -1.5202706e-08)
(5.8996873e-05 8.731032e-06 -1.906706e-08)
(5.5051275e-05 8.287141e-06 -1.0687674e-08)
(5.4724617e-05 1.0180476e-05 -1.3372005e-08)
(5.0497727e-05 7.8332396e-06 -7.3139411e-09)
(5.0166268e-05 9.7886819e-06 -9.1380109e-09)
(4.6526516e-05 7.2987679e-06 -4.8713812e-09)
(4.5882059e-05 9.2712677e-06 -6.0817473e-09)
(4.2579198e-05 7.098729e-06 -3.1624146e-09)
(4.1867255e-05 9.2175017e-06 -3.945317e-09)
(3.8482489e-05 7.2984049e-06 -2.006307e-09)
(3.7812627e-05 9.531747e-06 -2.4989045e-09)
(3.4306164e-05 7.5729304e-06 -1.2476722e-09)
(3.3593807e-05 9.9189493e-06 -1.5486612e-09)
(3.0089401e-05 7.6910365e-06 -7.6272963e-10)
(2.9370698e-05 1.0010981e-05 -9.4093272e-10)
(2.5934244e-05 7.4981153e-06 -4.5963941e-10)
(2.5219296e-05 9.6673948e-06 -5.6125802e-10)
(2.1953436e-05 7.1078657e-06 -2.740696e-10)
(2.128064e-05 9.1133064e-06 -3.2914132e-10)
(1.8210339e-05 6.5980863e-06 -1.6269462e-10)
(1.7592871e-05 8.4411023e-06 -1.9019732e-10)
(1.4745457e-05 6.0475301e-06 -9.7190957e-11)
(1.4186234e-05 7.6975316e-06 -1.0882491e-10)
(1.1584197e-05 5.5096899e-06 -5.9676123e-11)
(1.1082687e-05 6.9701394e-06 -6.2416902e-11)
(8.7410376e-06 4.9796096e-06 -3.8825136e-11)
(8.296645e-06 6.2918788e-06 -3.6807448e-11)
(6.2232223e-06 4.3656167e-06 -2.7274237e-11)
(5.8341116e-06 5.5379879e-06 -2.2988183e-11)
(4.0313153e-06 3.7579181e-06 -2.1173744e-11)
(3.6936982e-06 4.7616225e-06 -1.5832485e-11)
(2.1572817e-06 3.1809561e-06 -1.8135751e-11)
(1.8668014e-06 4.0221085e-06 -1.2415833e-11)
(5.8586866e-07 2.6421459e-06 -1.6740722e-11)
(3.3832739e-07 3.3402676e-06 -1.1014764e-11)
(-7.02742e-07 2.1448837e-06 -1.6213275e-11)
(-9.112922e-07 2.7093205e-06 -1.0650945e-11)
(-1.7314221e-06 1.6937247e-06 -1.6132005e-11)
(-1.9050675e-06 2.1323399e-06 -1.0797308e-11)
(-2.5253105e-06 1.2852927e-06 -1.6228847e-11)
(-2.6681695e-06 1.6143524e-06 -1.1165221e-11)
(-3.1112453e-06 9.2724921e-07 -1.6414348e-11)
(-3.2272331e-06 1.1606967e-06 -1.1621253e-11)
(-3.5173995e-06 6.205802e-07 -1.6644056e-11)
(-3.6102729e-06 7.7066671e-07 -1.2099503e-11)
(-3.7721657e-06 3.6815446e-07 -1.6915692e-11)
(-3.8455648e-06 4.5191804e-07 -1.2589963e-11)
(-3.9023981e-06 1.6201018e-07 -1.7207764e-11)
(-3.959705e-06 1.9032417e-07 -1.3075983e-11)
(-3.933127e-06 7.4220364e-10 -1.748374e-11)
(-3.9772676e-06 -1.3259915e-08 -1.3526999e-11)
(-3.8880712e-06 -1.1864953e-07 -1.7734917e-11)
(-3.9215786e-06 -1.6344914e-07 -1.3933399e-11)
(-3.7892652e-06 -1.9747656e-07 -1.7986476e-11)
(-3.8144236e-06 -2.6193813e-07 -1.4311602e-11)
(-3.6563016e-06 -2.3812326e-07 -1.8249414e-11)
(-3.6750891e-06 -3.1219266e-07 -1.4663913e-11)
(-3.5065901e-06 -2.4281763e-07 -1.8486559e-11)
(-3.5206382e-06 -3.1722573e-07 -1.494686e-11)
(-3.3575498e-06 -2.1548066e-07 -1.857676e-11)
(-3.3681336e-06 -2.8144921e-07 -1.5036209e-11)
(-3.2272347e-06 -1.6515109e-07 -1.8255714e-11)
(-3.2353008e-06 -2.1247568e-07 -1.4703332e-11)
(-3.1411563e-06 -9.6384544e-08 -1.7087945e-11)
(-3.1472198e-06 -1.251888e-07 -1.35799e-11)
(-3.1191043e-06 -2.3883883e-08 -1.4363251e-11)
(-3.1233902e-06 -3.3045487e-08 -1.1162351e-11)
(-3.2255712e-06 3.1656983e-08 -9.0697797e-12)
(-3.2271244e-06 3.9373692e-08 -6.8221133e-12)
(-0.0014497737 -3.4318463e-06 -1.1462031e-07)
(-0.0014130561 -9.1567677e-05 -2.7183638e-07)
(-0.001351226 -0.00011440486 -3.8461556e-07)
(-0.0012861172 -0.00017057304 -4.5583411e-07)
(-0.0012187898 -0.0002102231 -4.9437221e-07)
(-0.001146354 -0.0002699261 -5.1030554e-07)
(-0.0010657573 -0.00033842114 -5.1120887e-07)
(-0.00097662324 -0.00042041861 -5.0240006e-07)
(-0.00088109709 -0.00051174396 -4.8758444e-07)
(-0.00078287008 -0.00060576912 -4.6933073e-07)
(-0.00068564068 -0.00069883653 -4.494226e-07)
(-0.00059241129 -0.00078705436 -4.2893932e-07)
(-0.00050524199 -0.0008687675 -4.0840414e-07)
(-0.00042530114 -0.00094388652 -3.8791816e-07)
(-0.00035315703 -0.0010105657 -3.6734325e-07)
(-0.00028907556 -0.0010678053 -3.4639928e-07)
(-0.00023352355 -0.0011170043 -3.2468895e-07)
(-0.00018647821 -0.0011572553 -3.0164643e-07)
(-0.00014689341 -0.0011857753 -2.7664435e-07)
(-0.00011362017 -0.0012026402 -2.489588e-07)
(-8.5686837e-05 -0.001210094 -2.1780972e-07)
(-6.1908782e-05 -0.0012082752 -1.8203676e-07)
(-4.1348881e-05 -0.0011953779 -1.406406e-07)
(-2.3474937e-05 -0.0011782062 -9.3067033e-08)
(-7.871362e-06 -0.0011219387 -3.8808086e-08)
(0.00030375288 -0.00013424992 -1.3066501e-07)
(0.00031180808 -0.00052247792 -3.0567266e-07)
(0.00032123083 -0.0007618319 -4.2453624e-07)
(0.00033899339 -0.0011096632 -4.9317048e-07)
(0.00036608767 -0.0014015195 -5.2558671e-07)
(0.00040167146 -0.001718651 -5.3535444e-07)
(0.00043958926 -0.0020337373 -5.3108809e-07)
(0.00047140265 -0.0023697004 -5.1832167e-07)
(0.00048881913 -0.0027211917 -5.0054375e-07)
(0.00049243069 -0.0030613072 -4.8003961e-07)
(0.00048381692 -0.0033862865 -4.5854817e-07)
(0.00046527132 -0.0036931795 -4.3701414e-07)
(0.00043947308 -0.0039773161 -4.1583736e-07)
(0.00040879341 -0.0042365575 -3.9496479e-07)
(0.00037381361 -0.00447087 -3.7416926e-07)
(0.00033551436 -0.0046832485 -3.5314267e-07)
(0.00029632975 -0.004884482 -3.3153983e-07)
(0.00025827159 -0.0050672486 -3.0866518e-07)
(0.00022092017 -0.005208647 -2.8393218e-07)
(0.00018377229 -0.0053012724 -2.5655291e-07)
(0.00014705265 -0.0053429851 -2.2605926e-07)
(0.00011120396 -0.0053364004 -1.906032e-07)
(7.6401484e-05 -0.0052851983 -1.4882226e-07)
(4.2966201e-05 -0.0051747173 -9.9084273e-08)
(1.1875985e-05 -0.0049404831 -4.2867412e-08)
(0.0012066718 -0.00031726598 -1.6905454e-07)
(0.0012276694 -0.0015380226 -3.8134329e-07)
(0.0012679411 -0.002116828 -5.0851295e-07)
(0.0013375653 -0.0030634769 -5.6718653e-07)
(0.0014066848 -0.0038520644 -5.8559045e-07)
(0.0014519843 -0.0046789209 -5.8275473e-07)
(0.0014610574 -0.005490756 -5.6831648e-07)
(0.0014355838 -0.0064418469 -5.481718e-07)
(0.0013854547 -0.0075041789 -5.2502691e-07)
(0.0013173279 -0.0084786963 -5.0029917e-07)
(0.0012367704 -0.0093257516 -4.7594759e-07)
(0.0011493702 -0.010042325 -4.5257274e-07)
(0.001058463 -0.010627935 -4.303975e-07)
(0.00096437941 -0.011091411 -4.0899112e-07)
(0.00086935526 -0.011439027 -3.8795667e-07)
(0.00077487418 -0.011672104 -3.6692395e-07)
(0.00068161658 -0.011783949 -3.4594656e-07)
(0.00058971048 -0.011794024 -3.2366174e-07)
(0.00049988297 -0.011731841 -2.9991756e-07)
(0.0004128365 -0.011612409 -2.7394505e-07)
(0.00032918314 -0.011445568 -2.4482737e-07)
(0.00024923718 -0.011240272 -2.1106816e-07)
(0.00017240276 -0.011003331 -1.7059973e-07)
(9.8950318e-05 -0.010704958 -1.1990111e-07)
(3.0443062e-05 -0.010296742 -5.8856502e-08)
(0.0037759034 -0.0010465433 -2.518479e-07)
(0.0037889415 -0.004731909 -5.2191293e-07)
(0.0037881157 -0.0061313861 -6.4695945e-07)
(0.0036557825 -0.0094456661 -6.7953449e-07)
(0.0034650518 -0.01241203 -6.7292251e-07)
(0.0032090032 -0.015027989 -6.5039109e-07)
(0.0029224823 -0.016870326 -6.2090415e-07)
(0.0026289282 -0.017837558 -5.9150209e-07)
(0.0023458582 -0.018116254 -5.6220743e-07)
(0.002076094 -0.017965833 -5.3159221e-07)
(0.0018275245 -0.017497305 -5.0360194e-07)
(0.0016023632 -0.01683465 -4.7781758e-07)
(0.0013974589 -0.015997862 -4.5468447e-07)
(0.0011975839 -0.015039867 -4.3281488e-07)
(0.0010184155 -0.01401185 -4.1165389e-07)
(0.00086032288 -0.012959468 -3.9092327e-07)
(0.00072140977 -0.011922371 -3.7028103e-07)
(0.00059940602 -0.010934581 -3.4922105e-07)
(0.00049244768 -0.01001976 -3.2722127e-07)
(0.00039829962 -0.0091979051 -3.0361999e-07)
(0.00031433934 -0.0084814702 -2.7756041e-07)
(0.00023774918 -0.0078749152 -2.4779192e-07)
(0.00016729493 -0.007378601 -2.1243788e-07)
(0.00010112003 -0.0069501428 -1.6836086e-07)
(3.7221561e-05 -0.0066365651 -1.0567233e-07)
(0.011556747 -0.008770223 -4.4034603e-07)
(0.0093372314 -0.025810691 -7.5982646e-07)
(0.0082572503 -0.028503654 -8.4645333e-07)
(0.0065281307 -0.03293346 -8.3473001e-07)
(0.0050867016 -0.030464634 -7.9551382e-07)
(0.003820957 -0.02670323 -7.4751086e-07)
(0.0027629602 -0.021971077 -6.9988953e-07)
(0.0019147355 -0.01696896 -6.5547869e-07)
(0.0012482941 -0.011978993 -6.1587393e-07)
(0.00073174136 -0.0073560708 -5.7947436e-07)
(0.00033543767 -0.0031674463 -5.4667199e-07)
(3.8349896e-05 0.00042365493 -5.1619416e-07)
(-0.00017730616 0.0037634776 -4.9174359e-07)
(-0.00031612952 0.0069474201 -4.6862879e-07)
(-0.00040487005 0.0098742006 -4.4639086e-07)
(-0.00045135187 0.012415385 -4.2517234e-07)
(-0.00046443237 0.014539085 -4.0462861e-07)
(-0.00045132856 0.016263681 -3.8432499e-07)
(-0.00041781969 0.017617572 -3.6378284e-07)
(-0.00036876534 0.018629995 -3.4246516e-07)
(-0.00030855236 0.019326443 -3.1970783e-07)
(-0.00024135519 0.019733025 -2.9457804e-07)
(-0.00016922979 0.019848056 -2.6557035e-07)
(-9.5462812e-05 0.019729113 -2.3721244e-07)
(-2.1750975e-05 0.019038529 -2.0895986e-07)
(0.014515555 0.022560423 -7.9985104e-07)
(0.0040017756 -0.0025826214 -1.1324299e-06)
(0.0012204127 0.047147792 -1.1357581e-06)
(-0.00074772344 0.049819374 -1.0634268e-06)
(-0.0024359114 0.064225806 -9.8640699e-07)
(-0.0036812778 0.07464816 -9.0028411e-07)
(-0.0043795246 0.081942842 -8.2300131e-07)
(-0.0046119009 0.088042667 -7.5590199e-07)
(-0.0045549064 0.092561296 -6.97713e-07)
(-0.0043524552 0.095390299 -6.4803118e-07)
(-0.0040773696 0.09701972 -6.0607332e-07)
(-0.0037438464 0.097562583 -5.6233208e-07)
(-0.0034035231 0.097347839 -5.3728627e-07)
(-0.0030672135 0.096084796 -5.1028161e-07)
(-0.002727042 0.093959819 -4.8363281e-07)
(-0.0023934855 0.091560548 -4.5985503e-07)
(-0.002077534 0.088952306 -4.3784056e-07)
(-0.0017804374 0.086221446 -4.1693439e-07)
(-0.0015015462 0.083446037 -3.9659932e-07)
(-0.0012391475 0.08068496 -3.76329e-07)
(-0.00099084475 0.077975735 -3.5559138e-07)
(-0.00075412417 0.075361089 -3.3374464e-07)
(-0.00052719255 0.072813449 -3.101246e-07)
(-0.00030834465 0.070520397 -2.8563348e-07)
(-9.2346679e-05 0.067047206 -2.6161462e-07)
(-0.001615391 1.1669751 -2.5152387e-06)
(-0.00064433488 0.95748912 -1.9975797e-06)
(-0.00095700274 0.86303296 -1.6209447e-06)
(-0.00067154252 0.77145226 -1.3351642e-06)
(-0.00058358989 0.67611436 -1.1216106e-06)
(-0.00050286209 0.58520047 -9.6450074e-07)
(-0.00042908322 0.50707406 -8.4796014e-07)
(-0.00036240257 0.44354389 -7.6130481e-07)
(-0.00030215529 0.39112523 -6.9152902e-07)
(-0.00025477953 0.34636216 -6.3868087e-07)
(-0.00020881165 0.30771866 -5.9840516e-07)
(-0.00016725855 0.27445701 -5.6320035e-07)
(-0.00013083408 0.24601069 -5.3364363e-07)
(-0.00011083893 0.22165501 -5.0750699e-07)
(-9.2448317e-05 0.20073471 -4.8372719e-07)
(-7.7314175e-05 0.18277031 -4.6185079e-07)
(-6.4264869e-05 0.16733354 -4.4135927e-07)
(-5.3505421e-05 0.1540629 -4.2180452e-07)
(-4.4381327e-05 0.1426568 -4.0279016e-07)
(-3.6352237e-05 0.13286652 -3.8393308e-07)
(-2.9025169e-05 0.12447642 -3.6482989e-07)
(-2.1931314e-05 0.11734487 -3.449541e-07)
(-1.5099659e-05 0.11123065 -3.2398738e-07)
(-8.5989249e-06 0.10641607 -3.0169387e-07)
(-2.3629211e-06 0.10041238 -2.775371e-07)
(-0.013469419 0.086898073 -1.2366677e-06)
(-0.0030963763 0.095626238 -1.2775552e-06)
(-0.00048522685 0.10203357 -1.2322591e-06)
(0.0013772472 0.10412808 -1.1416946e-06)
(0.00295235 0.10657601 -1.0387936e-06)
(0.0040926268 0.10850915 -9.3861089e-07)
(0.0047135013 0.11032111 -8.4913907e-07)
(0.0048818583 0.11197258 -7.7206617e-07)
(0.0047712658 0.11287341 -6.912896e-07)
(0.0045077013 0.11301462 -6.4682563e-07)
(0.0042003309 0.11238167 -6.0671898e-07)
(0.003873212 0.11077552 -5.637843e-07)
(0.0035070985 0.10830619 -5.2770741e-07)
(0.0031381004 0.10532796 -4.9682211e-07)
(0.0027795757 0.10208773 -4.6976031e-07)
(0.0024370044 0.098711929 -4.4557652e-07)
(0.002113794 0.09528562 -4.2353131e-07)
(0.0018085725 0.091878572 -4.0299532e-07)
(0.001522208 0.088543608 -3.8340316e-07)
(0.0012534751 0.085319196 -3.6421293e-07)
(0.0010003952 0.08222758 -3.4483285e-07)
(0.00076075236 0.079298792 -3.2449955e-07)
(0.0005318853 0.076495934 -3.0353168e-07)
(0.00031156107 0.074010836 -2.8071106e-07)
(9.3963492e-05 0.070324612 -2.5773371e-07)
(-0.009823942 -0.042550383 -8.6725207e-07)
(-0.008340059 -0.040443106 -9.3224891e-07)
(-0.0068200568 -0.038593379 -9.1891721e-07)
(-0.0053232552 -0.034962381 -8.7234965e-07)
(-0.0039558383 -0.029830923 -8.1361495e-07)
(-0.0027947911 -0.02405196 -7.5192852e-07)
(-0.001845699 -0.018129238 -6.9467933e-07)
(-0.0011044175 -0.012405212 -6.4234928e-07)
(-0.00054179629 -0.0072864807 -5.9393725e-07)
(-0.00011478042 -0.0027623706 -5.5757211e-07)
(0.00019572294 0.0011172778 -5.2419246e-07)
(0.00041355527 0.0048949675 -4.930671e-07)
(0.00055640883 0.0084971657 -4.6511979e-07)
(0.00064169281 0.011721897 -4.4003146e-07)
(0.000681522 0.014500598 -4.1723429e-07)
(0.00068550668 0.016831425 -3.9620086e-07)
(0.00066047057 0.018744579 -3.7649379e-07)
(0.00061586539 0.020281776 -3.5761492e-07)
(0.00055497038 0.02146953 -3.3905317e-07)
(0.00048136953 0.022328992 -3.2022743e-07)
(0.00039833401 0.022881629 -3.003344e-07)
(0.00030891711 0.023148705 -2.7799493e-07)
(0.00021572036 0.023140497 -2.5595519e-07)
(0.00012207498 0.022901092 -2.2932535e-07)
(2.9737925e-05 0.022060199 -2.0316185e-07)
(-0.0048983289 -0.01696042 -5.9630511e-07)
(-0.0047701467 -0.019535053 -6.7204851e-07)
(-0.0045055847 -0.022238976 -6.867709e-07)
(-0.0041591946 -0.024145156 -6.6977338e-07)
(-0.0037535164 -0.025293621 -6.400253e-07)
(-0.0033296157 -0.02559038 -6.0709957e-07)
(-0.0029354637 -0.025223521 -5.6756358e-07)
(-0.0025724433 -0.02442881 -5.3048589e-07)
(-0.002240074 -0.023377568 -4.9686078e-07)
(-0.0019484112 -0.022139378 -4.6808562e-07)
(-0.0016864459 -0.020796804 -4.4193908e-07)
(-0.001446466 -0.019330248 -4.1785092e-07)
(-0.0012306106 -0.017808485 -3.9577864e-07)
(-0.0010412075 -0.016283284 -3.7553005e-07)
(-0.00087620023 -0.014789813 -3.5658127e-07)
(-0.00073310265 -0.013359882 -3.385068e-07)
(-0.00061048008 -0.012024389 -3.2117872e-07)
(-0.00050273213 -0.0108143 -3.0401886e-07)
(-0.00040918414 -0.0097395507 -2.8648887e-07)
(-0.00032804551 -0.0088007135 -2.6794365e-07)
(-0.00025727282 -0.0079977868 -2.4749671e-07)
(-0.00019468463 -0.0073299641 -2.2393075e-07)
(-0.0001381463 -0.0067934736 -1.9599085e-07)
(-8.5258477e-05 -0.0063473847 -1.582014e-07)
(-3.3194866e-05 -0.0060416859 -1.0146956e-07)
(-0.0013073374 -0.004085383 -4.3532932e-07)
(-0.001552914 -0.0051156603 -5.0514525e-07)
(-0.0017468136 -0.0061805189 -5.3252129e-07)
(-0.0018535866 -0.0072234063 -5.3334516e-07)
(-0.0018972431 -0.0082078135 -5.1941839e-07)
(-0.0018768595 -0.0092890742 -4.9787577e-07)
(-0.0018085587 -0.010422144 -4.7152223e-07)
(-0.001712001 -0.011389768 -4.4480824e-07)
(-0.0015993006 -0.012194436 -4.1960755e-07)
(-0.0014808944 -0.012840975 -3.9661318e-07)
(-0.0013613613 -0.013350181 -3.7539974e-07)
(-0.001243524 -0.013723885 -3.5567519e-07)
(-0.0011277633 -0.013968792 -3.3728309e-07)
(-0.0010148421 -0.014066513 -3.2037049e-07)
(-0.00090575417 -0.0140424 -3.0406724e-07)
(-0.0008008863 -0.013937149 -2.8841806e-07)
(-0.00069980327 -0.013774388 -2.727668e-07)
(-0.00060430279 -0.013568543 -2.5680256e-07)
(-0.00051266852 -0.013329256 -2.4002047e-07)
(-0.00042437895 -0.013063412 -2.2177896e-07)
(-0.00033919961 -0.012776473 -2.0111098e-07)
(-0.00025700712 -0.012473734 -1.7657952e-07)
(-0.0001778511 -0.012158348 -1.4609038e-07)
(-0.00010211237 -0.011792032 -1.0527983e-07)
(-3.1600647e-05 -0.011332137 -5.3373394e-08)
(6.9781176e-05 -0.00081515022 -3.3289309e-07)
(-6.0985076e-05 -0.0011926077 -3.8872116e-07)
(-0.0002186469 -0.001620159 -4.1760149e-07)
(-0.00035838944 -0.0020804313 -4.2670048e-07)
(-0.00049036184 -0.0025658964 -4.2276601e-07)
(-0.00059140046 -0.0030663595 -4.1081169e-07)
(-0.00065702258 -0.0035769765 -3.9411045e-07)
(-0.00068639371 -0.0040470683 -3.7552194e-07)
(-0.00069028577 -0.0044702749 -3.567778e-07)
(-0.00067647136 -0.0048428033 -3.3872322e-07)
(-0.00064987914 -0.0051696112 -3.2155306e-07)
(-0.00061462843 -0.0054580205 -3.0526994e-07)
(-0.00057395715 -0.0057238714 -2.8982514e-07)
(-0.00052998116 -0.0059957117 -2.7516024e-07)
(-0.00048399805 -0.0062654976 -2.6094847e-07)
(-0.0004364756 -0.0064963205 -2.4697125e-07)
(-0.00038770603 -0.0066798402 -2.32843e-07)
(-0.00033878258 -0.0068138851 -2.1818608e-07)
(-0.00028983834 -0.0068982729 -2.0251809e-07)
(-0.00024104915 -0.0069327003 -1.8538199e-07)
(-0.00019279072 -0.0069181409 -1.6596187e-07)
(-0.00014547013 -0.0068576929 -1.4281346e-07)
(-9.9550219e-05 -0.0067558144 -1.1461815e-07)
(-5.5692446e-05 -0.006594266 -7.8984602e-08)
(-1.5467534e-05 -0.0062982062 -3.6369628e-08)
(0.00027073177 8.1012608e-05 -2.6211752e-07)
(0.00023234204 5.233176e-05 -3.0441898e-07)
(0.00019428324 -2.0897979e-05 -3.3011937e-07)
(0.00014017076 -0.0001338352 -3.4195248e-07)
(8.3843672e-05 -0.00027662218 -3.4348504e-07)
(2.1726961e-05 -0.00043927191 -3.3792508e-07)
(-4.0103235e-05 -0.00061613553 -3.2782115e-07)
(-9.1051672e-05 -0.00079532863 -3.1523712e-07)
(-0.00012877212 -0.00096771305 -3.0160264e-07)
(-0.00015373139 -0.0011274523 -2.8776738e-07)
(-0.00016694612 -0.0012733107 -2.741404e-07)
(-0.00017203204 -0.0014038805 -2.6089378e-07)
(-0.0001704557 -0.0015192706 -2.4807128e-07)
(-0.0001640257 -0.0016216235 -2.3562608e-07)
(-0.00015375058 -0.0017105943 -2.2339337e-07)
(-0.00014088353 -0.0017837613 -2.1116758e-07)
(-0.00012629898 -0.0018419878 -1.9867153e-07)
(-0.00011090586 -0.0018856406 -1.8558665e-07)
(-9.5210677e-05 -0.0019149298 -1.7153563e-07)
(-7.9543183e-05 -0.0019299559 -1.5610151e-07)
(-6.4020052e-05 -0.0019308064 -1.3875668e-07)
(-4.8814609e-05 -0.0019179072 -1.1876875e-07)
(-3.4097914e-05 -0.0018938747 -9.5341616e-08)
(-1.96886e-05 -0.0018575249 -6.7558168e-08)
(-5.5296397e-06 -0.001765689 -3.382733e-08)
(0.0001988406 0.0002731876 -2.0895058e-07)