/*--------------------------------*- C++ -*----------------------------------*\
| =========                 |                                                 |
| \\      /  F ield         | OpenFOAM: The Open Source CFD Toolbox           |
|  \\    /   O peration     | Version:  4.0                                   |
|   \\  /    A nd           | Web:      www.OpenFOAM.org                      |
|    \\/     M anipulation  |                                                 |
\*---------------------------------------------------------------------------*/
FoamFile
{
    version     2.0;
    format      ascii;
    class       volScalarField;
    location    "0.57";
    object      p;
}
// * * * * * * * * * * * * * * * * * * * * * * * * * * * * * * * * * * * * * //

dimensions      [0 2 -2 0 0 0 0];

internalField   nonuniform List<scalar> 
1740
(
491.57586
491.4973
491.62287
474.87919
474.94094
474.94496
458.35885
458.49226
458.28116
442.10242
441.9824
441.56766
426.06282
425.79098
425.12339
410.19898
410.02888
409.6772
394.12747
394.28196
394.32035
377.69775
377.76247
377.87796
361.00581
360.97959
361.08567
344.3408
344.56493
344.66203
327.97598
327.93094
328.04161
311.72198
311.53504
311.59623
295.5427
295.6507
295.73718
278.98788
279.12888
279.23508
262.2033
262.25753
262.25291
245.55715
245.659
245.56137
228.89019
228.88928
228.78069
212.12882
211.88388
211.80104
195.33577
195.19989
195.08031
178.67904
178.80799
178.77096
162.37708
162.46037
162.55407
146.30929
146.29567
146.1326
129.90556
129.77466
129.62531
113.34082
113.15183
113.2236
96.834502
96.915919
96.916787
80.248802
80.333778
80.297929
63.599457
63.596031
63.5775
46.859346
47.066677
47.190161
30.749584
30.8336
30.972192
16.064666
15.674175
15.283342
3.9931067
3.2533644
1.3138335
-0.80122013
-0.78291886
-0.60657018
-0.33917375
-0.32966971
-0.29047066
-0.21199032
-0.20064925
-0.17588666
-0.16418836
-0.15529242
-0.13779049
-0.13648326
-0.12945123
-0.11595329
-0.11576079
-0.11076807
-0.10104872
-0.09969244
-0.096221463
-0.089327302
-0.086670613
-0.084224642
-0.079282784
-0.075901783
-0.074141106
-0.070528483
-0.066991313
-0.065697034
-0.063004958
-0.059668681
-0.058694623
-0.056646577
-0.05363659
-0.052887204
-0.051298088
-0.04860978
-0.048022047
-0.046767649
-0.044360854
-0.043892158
-0.042886754
-0.040714949
-0.040335405
-0.03951802
-0.037542396
-0.03723062
-0.036557041
-0.03474874
-0.034489297
-0.033927334
-0.032263364
-0.032044949
-0.031570856
-0.030031376
-0.029845557
-0.029441522
-0.028008938
-0.027849337
-0.027501816
-0.026160681
-0.026022412
-0.025720983
-0.024458083
-0.024337357
-0.024073908
-0.022878274
-0.022772124
-0.022540281
-0.021403032
-0.021309113
-0.021103827
-0.020017905
-0.019934349
-0.01975159
-0.018711456
-0.018636764
-0.018473296
-0.017474654
-0.017407614
-0.017260818
-0.016300356
-0.016239982
-0.016107721
-0.015182879
-0.015128361
-0.015008884
-0.014117652
-0.014068325
-0.013960186
-0.013100939
-0.013056249
-0.012958248
-0.012129608
-0.012089094
-0.012000228
-0.011200951
-0.011164223
-0.011083646
-0.010312543
-0.010279272
-0.010206264
-0.0094621314
-0.0094320345
-0.0093659817
-0.0086475518
-0.0086203866
-0.0085607598
-0.0078666691
-0.0078422257
-0.0077885668
-0.0071173333
-0.0070954295
-0.0070473408
-0.0063973481
-0.0063778258
-0.0063349609
-0.0057044477
-0.00568717
-0.0056492273
-0.0050362657
-0.005021116
-0.0049878334
-0.0043901751
-0.0043770423
-0.0043482064
-0.003764015
-0.0037527822
-0.0037281335
-0.0031555674
-0.0031461926
-0.0031256044
-0.0025621071
-0.0025545201
-0.0025378561
-0.0019809557
-0.0019751048
-0.0019622529
-0.0014093132
-0.0014051584
-0.0013960319
-0.00084417238
-0.00084168612
-0.00083622545
-0.00028167638
-0.00028084809
-0.00027902713
-1.4951938
-1.0392433
-0.46832644
-0.35298532
-0.2398629
-0.19723224
-0.1449994
-0.1177655
-0.11560804
-0.093789682
-0.099432829
-0.08268011
-0.088941856
-0.076230948
-0.080471157
-0.070799939
-0.072754942
-0.065396001
-0.065640891
-0.059985604
-0.059285341
-0.054881423
-0.053768835
-0.050294683
-0.049035007
-0.046258789
-0.044962734
-0.042719097
-0.041428029
-0.039595152
-0.038323875
-0.036810033
-0.03556754
-0.034303911
-0.033098092
-0.032032628
-0.030868651
-0.029961788
-0.028841212
-0.028062619
-0.026984136
-0.026310301
-0.025270983
-0.024683457
-0.023679875
-0.023164073
-0.022192965
-0.02173729
-0.020795868
-0.020391042
-0.019477095
-0.019115647
-0.018227515
-0.0179034
-0.017039899
-0.016748193
-0.015908517
-0.015645188
-0.014828809
-0.014590534
-0.013797102
-0.013581128
-0.012810377
-0.012614408
-0.011866079
-0.011688184
-0.010961962
-0.010800507
-0.010095974
-0.0099495685
-0.0092661692
-0.0091336181
-0.0084706346
-0.0083509062
-0.0077074443
-0.0075996431
-0.0069746255
-0.0068779714
-0.0062701339
-0.0061839461
-0.0055918363
-0.0055155208
-0.0049374849
-0.0048705268
-0.0043045823
-0.004246561
-0.0036908411
-0.0036412218
-0.0030944517
-0.0030530014
-0.0025126395
-0.0024790872
-0.0019428041
-0.0019169255
-0.0013822206
-0.0013638426
-0.0008279619
-0.00081696585
-0.00027627123
-0.00027260393
-0.044372396
-0.042613532
-0.03958528
-0.035828314
-0.031832162
-0.02797857
-0.024504555
-0.021482408
-0.018911342
-0.016739567
-0.014894112
-0.013298856
-0.011893687
-0.01063022
-0.0094711144
-0.0083888332
-0.0073641611
-0.0063851235
-0.0054443026
-0.0045364163
-0.0036570005
-0.0028051621
-0.0019800279
-0.0011789462
-0.00039289762
-0.045722939
-0.043685357
-0.040361297
-0.036399079
-0.032309068
-0.028501682
-0.025168199
-0.02232596
-0.019916808
-0.017853418
-0.016056137
-0.014465184
-0.013028884
-0.011710441
-0.010481696
-0.0093210233
-0.0082101792
-0.0071355217
-0.0060940964
-0.0050820166
-0.0040961516
-0.0031400551
-0.0022134751
-0.0013117907
-0.00042717388
-0.051521288
-0.04900616
-0.04510848
-0.040922352
-0.037267078
-0.034245086
-0.03170549
-0.029472695
-0.027360752
-0.025341506
-0.023396396
-0.021512807
-0.019687877
-0.017914001
-0.016178736
-0.01447461
-0.012799713
-0.011154733
-0.009534801
-0.0079405457
-0.0063775668
-0.0048598576
-0.0033898115
-0.0019704724
-0.00061003584
-0.069880488
-0.066422267
-0.06240945
-0.059244809
-0.056611183
-0.054065338
-0.051294514
-0.048293489
-0.045194398
-0.042047181
-0.03889477
-0.035774713
-0.03270948
-0.029682701
-0.02670754
-0.023793132
-0.020944388
-0.018163862
-0.015453496
-0.012818226
-0.010261578
-0.0078084824
-0.0054418868
-0.0031654571
-0.00099607419
-0.12431013
-0.12017814
-0.11484429
-0.10791786
-0.10078129
-0.093269589
-0.08561393
-0.07807691
-0.070769361
-0.063769077
-0.057282188
-0.051265835
-0.045657585
-0.040188403
-0.035133261
-0.03048952
-0.026228337
-0.022314848
-0.018710162
-0.015371538
-0.012259567
-0.0093151799
-0.0065264648
-0.0038635037
-0.0013072786
-0.29747226
-0.24822831
-0.21962039
-0.18226618
-0.15157545
-0.12468313
-0.1017942
-0.082842093
-0.067299464
-0.054595854
-0.04411528
-0.035542431
-0.02854987
-0.023016581
-0.018461335
-0.014747055
-0.011717983
-0.0092468609
-0.0072310607
-0.0055841278
-0.0042320905
-0.0031008965
-0.0021397019
-0.0012976765
-0.00057012771
-0.41875293
-0.19819871
-0.13753067
-0.092161255
-0.052263006
-0.020654929
0.00030706119
0.012030882
0.017939849
0.020733854
0.02172295
0.021534433
0.02058179
0.0191512
0.017462401
0.015657314
0.013821289
0.012004893
0.010233532
0.0085156567
0.006849573
0.0052310264
0.0036434728
0.0020833221
0.00047050718
-0.28000887
-0.23780187
-0.20243545
-0.16991834
-0.14023425
-0.11445072
-0.092761283
-0.074976911
-0.060504626
-0.048781409
-0.039323345
-0.031666688
-0.02546396
-0.020406081
-0.016282029
-0.012919962
-0.010189631
-0.0079753715
-0.0061816833
-0.0047294984
-0.0035516779
-0.0025879907
-0.0017871259
-0.0010970361
-0.00051358098
-0.16669808
-0.14665829
-0.13248274
-0.12080068
-0.11008132
-0.099923894
-0.090482547
-0.081694923
-0.073521848
-0.065969215
-0.058995003
-0.052405916
-0.046290688
-0.040681466
-0.035541188
-0.030802609
-0.026456283
-0.022467895
-0.018795752
-0.015401394
-0.012247897
-0.0092985876
-0.0065191229
-0.0038716241
-0.001322967
-0.096954231
-0.083821305
-0.075756748
-0.070149452
-0.065789245
-0.06192391
-0.05819261
-0.054446556
-0.050677683
-0.046924112
-0.043227286
-0.039604923
-0.036056165
-0.032586722
-0.029213545
-0.025970254
-0.02282799
-0.019780666
-0.016828551
-0.013969227
-0.011200272
-0.0085208797
-0.0059330709
-0.0034431969
-0.0010786494
-0.075218768
-0.060359641
-0.050307938
-0.043843909
-0.039904166
-0.03725705
-0.035005019
-0.032895339
-0.030833683
-0.028789807
-0.026758847
-0.024738703
-0.022723406
-0.020716635
-0.018729358
-0.01676741
-0.014824681
-0.01290617
-0.011018624
-0.0091677805
-0.0073589943
-0.0055983291
-0.0038930302
-0.0022507075
-0.00068934095
-0.067727489
-0.055430227
-0.045376689
-0.037881768
-0.032084705
-0.027781357
-0.024753039
-0.022455886
-0.020560104
-0.018911666
-0.0174234
-0.016032354
-0.014682278
-0.01335981
-0.012056905
-0.010776122
-0.0095166114
-0.0082809083
-0.0070719273
-0.0058924983
-0.0047449005
-0.0036308256
-0.0025510163
-0.0015030065
-0.00048110147
-0.064246632
-0.053644453
-0.044588747
-0.037334519
-0.031639618
-0.027147166
-0.023589432
-0.020797602
-0.01855453
-0.016651345
-0.014970494
-0.013487729
-0.012149298
-0.010913853
-0.0097537229
-0.0086532144
-0.007600874
-0.0065896633
-0.0056158066
-0.0046762748
-0.0037689067
-0.0028914252
-0.0020415844
-0.0012155452
-0.00040341695
-0.061254261
-0.05240612
-0.04454626
-0.037860275
-0.032294654
-0.027713517
-0.023973053
-0.02093607
-0.018460647
-0.016415962
-0.0146766
-0.013127743
-0.011744476
-0.010488275
-0.0093338365
-0.0082569108
-0.0072395096
-0.0062682444
-0.0053382892
-0.0044427828
-0.0035785244
-0.0027417433
-0.001931053
-0.001145327
-0.00038080597
-0.057840714
-0.05054086
-0.043800689
-0.037822898
-0.03264703
-0.028227332
-0.024491656
-0.02136153
-0.018742827
-0.016533489
-0.014640457
-0.012985162
-0.011522122
-0.010214596
-0.0090333971
-0.0079538434
-0.0069515044
-0.0060041344
-0.0051005781
-0.0042353869
-0.0034032817
-0.0026018975
-0.0018295516
-0.0010828165
-0.00035915355
-0.054002847
-0.048036762
-0.042345249
-0.037110615
-0.032417096
-0.028277716
-0.024677628
-0.021578358
-0.018919884
-0.016631216
-0.014647325
-0.012911161
-0.011379397
-0.010017029
-0.0087910239
-0.0076752432
-0.0066517407
-0.00571184
-0.0048300286
-0.0039953465
-0.0032024367
-0.0024459545
-0.0017195162
-0.0010185796
-0.00033959932
-0.050109184
-0.045229949
-0.040450596
-0.035925708
-0.031745877
-0.027960193
-0.024582086
-0.021598861
-0.018978466
-0.016680107
-0.014660655
-0.012882985
-0.011311083
-0.009910969
-0.0086520855
-0.007510463
-0.0064667313
-0.0055096757
-0.0046280196
-0.0038090574
-0.0030403327
-0.0023132354
-0.0016208145
-0.00095740986
-0.0003173609
-0.046450613
-0.042436715
-0.038417563
-0.034521084
-0.030836631
-0.027420812
-0.024303589
-0.021490739
-0.018970593
-0.016721602
-0.014717245
-0.012932003
-0.011339638
-0.0099142115
-0.008632501
-0.0074735156
-0.0064190557
-0.0054547825
-0.0045686613
-0.003748369
-0.0029830926
-0.0022640503
-0.0015839311
-0.00093576838
-0.00031073827
-0.043132636
-0.03980726
-0.036413141
-0.033057289
-0.029821298
-0.026762058
-0.023915442
-0.021298248
-0.018912571
-0.016750693
-0.014798357
-0.013037218
-0.011448793
-0.010014818
-0.0087187858
-0.0075438067
-0.0064739686
-0.005494907
-0.0045953771
-0.0037643609
-0.002991566
-0.0022678195
-0.001585177
-0.00093575769
-0.00031019421
-0.040154002
-0.03738089
-0.034502689
-0.031608008
-0.028768823
-0.026038951
-0.023455553
-0.021041104
-0.018805915
-0.016750984
-0.014870572
-0.013154351
-0.011590198
-0.010165215
-0.0088663281
-0.0076807417
-0.0065961209
-0.0056007617
-0.0046840702
-0.0038361075
-0.0030473323
-0.0023089175
-0.001612999
-0.0009507468
-0.0003133727
-0.037472982
-0.035146893
-0.032697558
-0.030196789
-0.027705976
-0.025274287
-0.022938306
-0.020722957
-0.018643055
-0.016705177
-0.014909527
-0.013251678
-0.011724654
-0.010320057
-0.0090286047
-0.0078408121
-0.006747179
-0.0057383197
-0.0048051083
-0.0039385533
-0.0031301763
-0.0023719542
-0.0016562658
-0.00097495818
-0.00032120104
-0.035039259
-0.033075935
-0.030982921
-0.02881807
-0.026632256
-0.024468734
-0.022361839
-0.020336927
-0.018411106
-0.016594438
-0.014891242
-0.013301474
-0.011822133
-0.010448351
-0.0091740405
-0.0079924647
-0.0068965613
-0.0058789947
-0.0049322793
-0.004048874
-0.003221427
-0.0024428316
-0.0017061626
-0.0010039252
-0.00032974508
-0.032812879
-0.031143623
-0.029345163
-0.027464282
-0.025543167
-0.023618583
-0.021721299
-0.01987558
-0.018099289
-0.016404439
-0.014798059
-0.013283175
-0.011859794
-0.010525818
-0.00927771
-0.0081109898
-0.0070206046
-0.0060010209
-0.0050463416
-0.0041504424
-0.0033071552
-0.0025103842
-0.0017541172
-0.0010322127
-0.00033933908
-0.030766062
-0.029336209
-0.027781576
-0.026139811
-0.024446091
-0.022731648
-0.021023402
-0.019343602
-0.017709665
-0.016134333
-0.014626147
-0.013190108
-0.011828402
-0.010541079
-0.0093266255
-0.0081824079
-0.0071050412
-0.0060904966
-0.0051342836
-0.0042315911
-0.0033774396
-0.0025667948
-0.0017947146
-0.001056341
-0.00034721738
-0.028877036
-0.027643661
-0.026292105
-0.024852598
-0.023354194
-0.02182347
-0.020283933
-0.018755582
-0.01725471
-0.015793938
-0.014382452
-0.013026414
-0.011729474
-0.010493267
-0.0093178493
-0.0082020823
-0.0071439425
-0.0061407151
-0.0051891506
-0.0042856466
-0.0034263637
-0.0026073432
-0.0018246471
-0.0010743657
-0.00035273637
-0.027126408
-0.026055436
-0.024873851
-0.023606082
-0.022275962
-0.020905938
-0.019516362
-0.01812503
-0.016746892
-0.01539401
-0.014075672
-0.01279864
-0.011567479
-0.010384918
-0.0092521965
-0.0081693738
-0.0071355596
-0.0061491581
-0.0052080228
-0.0043096176
-0.0034511282
-0.0026295698
-0.0018418936
-0.0010849012
-0.0003556118
-0.025496413
-0.024560508
-0.023521835
-0.022400206
-0.02121524
-0.019985777
-0.018729271
-0.017461373
-0.016195626
-0.014943327
-0.013713545
-0.012513254
-0.011347539
-0.010219853
-0.009132291
-0.0080858519
-0.007080595
-0.0061158757
-0.0051904794
-0.0043027744
-0.0034508278
-0.0026325067
-0.0018455504
-0.0010873865
-0.00035578411
-0.023971087
-0.023148221
-0.022230318
-0.021233485
-0.020173916
-0.019067409
-0.017928868
-0.016771948
-0.015608769
-0.014449745
-0.013303527
-0.012177048
-0.01107564
-0.010003214
-0.0089624555
-0.007955072
-0.0069818757
-0.0060429934
-0.0051380037
-0.0042660471
-0.0034259402
-0.0026162822
-0.0018355328
-0.0010819113
-0.00035387991
-0.022536605
-0.021808972
-0.020993682
-0.020103883
-0.019152978
-0.01815421
-0.017120302
-0.016063111
-0.014993394
-0.01392063
-0.012852929
-0.011797011
-0.010758273
-0.0097408883
-0.0087479646
-0.007781671
-0.0068433986
-0.0059338775
-0.0050533359
-0.0042015809
-0.0033780834
-0.002582084
-0.001812706
-0.0010688879
-0.00034966403
-0.021181385
-0.02053455
-0.019806958
-0.019009418
-0.018153052
-0.017248987
-0.016308072
-0.015340587
-0.014356027
-0.01336295
-0.012368853
-0.011380142
-0.010402137
-0.0094391347
-0.0084944941
-0.0075707339
-0.0066696513
-0.0057924488
-0.0049398578
-0.0041122199
-0.0033095764
-0.0025317408
-0.0017783954
-0.00104901
-0.00034309042
-0.019895946
-0.019318161
-0.01866602
-0.017948453
-0.017174733
-0.016354245
-0.015496233
-0.01460961
-0.013702736
-0.012783286
-0.011858135
-0.010933303
-0.010013935
-0.0091043279
-0.008207971
-0.0073276305
-0.006465423
-0.0056229098
-0.0048012026
-0.0040010666
-0.0032229956
-0.0024672706
-0.0017340303
-0.0010231171
-0.00033448107
-0.018672652
-0.018154325
-0.017567552
-0.01691975
-0.016218685
-0.015472293
-0.014688487
-0.013874982
-0.013039137
-0.012187804
-0.011327251
-0.010463075
-0.0096001808
-0.0087427722
-0.0078943838
-0.0070579256
-0.006235746
-0.0054296936
-0.0046411918
-0.0038713295
-0.0031209392
-0.0023906558
-0.0016809599
-0.00099201552
-0.00032416013
-0.017505413
-0.017038691
-0.016508963
-0.015922426
-0.015285621
-0.014605284
-0.013888204
-0.013141071
-0.012370352
-0.011582168
-0.010782194
-0.0099755995
-0.0091670097
-0.0083604797
-0.0075595133
-0.0067670829
-0.0059856792
-0.0052173584
-0.0044637924
-0.0037263331
-0.0030060756
-0.0023039129
-0.0016205895
-0.00095655135
-0.00031243255
-0.016389413
-0.015967836
-0.015488262
-0.014955902
-0.014376292
-0.013755178
-0.013098398
-0.012411768
-0.011700973
-0.010971467
-0.010228379
-0.0094764629
-0.0087200389
-0.0079629783
-0.0072086986
-0.0064601724
-0.0057199596
-0.0049902432
-0.0042728689
-0.0035693899
-0.0028811098
-0.0022091309
-0.0015544056
-0.00091760727
-0.00029958605
-0.015320845
-0.01493908
-0.014503932
-0.014019814
-0.013491439
-0.012923727
-0.01232172
-0.011690484
-0.01103502
-0.010360183
-0.0096706028
-0.0089706287
-0.0082642768
-0.0075552104
-0.0068467193
-0.0061417279
-0.00544281
-0.0047522126
-0.0040718859
-0.0034035168
-0.0027485652
-0.0021083006
-0.0014838447
-0.00087604298
-0.00028589896
-0.014296688
-0.013950303
-0.013554801
-0.013113939
-0.012631749
-0.012112467
-0.011560461
-0.010980156
-0.010375958
-0.0097521902
-0.0091130224
-0.0084624203
-0.0078041008
-0.007141502
-0.0064777626
-0.0058157218
-0.0051579216
-0.0045066236
-0.0038638295
-0.0032313058
-0.0026106144
-0.0020031425
-0.0014101446
-0.00083260262
-0.00027162672
-0.013314499
-0.012999793
-0.012639922
-0.012238105
-0.011797807
-0.01132269
-0.010816552
-0.010283268
-0.009726728
-0.0091507807
-0.0085591791
-0.0079555308
-0.0073432586
-0.0067255692
-0.0061054331
-0.0054855753
-0.0048684727
-0.0042563625
-0.0036512562
-0.003054958
-0.0024690841
-0.001895093
-0.0013343291
-0.00078788327
-0.00025693985
-0.012372251
-0.01208611
-0.01175848
-0.01139213
-0.010990052
-0.010555423
-0.010091558
-0.0096018559
-0.0090897578
-0.008558693
-0.0080120351
-0.0074530592
-0.0068849052
-0.0063105483
-0.0057327786
-0.005154187
-0.0045771599
-0.0040038804
-0.003436337
-0.0028763359
-0.0023255144
-0.0017853666
-0.0012572919
-0.00074241179
-0.00024197476
-0.011468184
-0.011207974
-0.010909703
-0.010575761
-0.010208743
-0.009811416
-0.0093866773
-0.0089375194
-0.0084669878
-0.0079781391
-0.0074740036
-0.006957548
-0.0064316436
-0.005899038
-0.0053623346
-0.0048239772
-0.0042862421
-0.0037512359
-0.0032208984
-0.0026970108
-0.0021812067
-0.0016749888
-0.0011797641
-0.00069669349
-0.00022703509
-0.010600701
-0.010364179
-0.010092799
-0.0097886316
-0.0094539375
-0.0090911308
-0.0087027535
-0.0082914412
-0.007859893
-0.0074108333
-0.006946981
-0.0064710182
-0.0059855621
-0.0054931388
-0.0049961639
-0.004496926
-0.0039975779
-0.0035001314
-0.0030064578
-0.002518292
-0.0020372405
-0.0015647906
-0.0011023339
-0.00065100439
-0.00021207788
-0.009768278
-0.0095535188
-0.0093069027
-0.009030232
-0.0087254762
-0.0083947504
-0.008040287
-0.0076644128
-0.0072695183
-0.0068580313
-0.0064323893
-0.0059950111
-0.0055482743
-0.005094492
-0.0046358929
-0.0041746064
-0.0037126524
-0.0032519354
-0.002794241
-0.0023412392
-0.0018944875
-0.0014554359
-0.0010254427
-0.00060560819
-0.00019720429
-0.008969398
-0.00877474
-0.0085510455
-0.0082998836
-0.0080229777
-0.0077221819
-0.0073994592
-0.0070568637
-0.0066965137
-0.0063205714
-0.005931218
-0.0055306296
-0.0051209599
-0.0047043162
-0.0042827438
-0.0038582117
-0.0034326014
-0.003007699
-0.0025851924
-0.0021666704
-0.0017536246
-0.0013474519
-0.00094947007
-0.0005607512
-0.00018253158
-0.0082025062
-0.0080265051
-0.0078241239
-0.0075967336
-0.0073458385
-0.0070730671
-0.0067801464
-0.0064688889
-0.0061411708
-0.0057989143
-0.0054440671
-0.0050785844
-0.0047044071
-0.0043234473
-0.0039375719
-0.0035485891
-0.0031582381
-0.0027681809
-0.0023799978
-0.0019951847
-0.0016151547
-0.0012412402
-0.00087471104
-0.00051660987
-0.00016811091
-0.0074659748
-0.0073073712
-0.0071248963
-0.0069197449
-0.0066932375
-0.0064467965
-0.0061819438
-0.0059002764
-0.0056034539
-0.0052931813
-0.0049711927
-0.0046392373
-0.0042990589
-0.0039523841
-0.003600907
-0.0032462776
-0.0028900914
-0.0025338818
-0.0021791145
-0.0018271855
-0.0014794202
-0.0011370755
-0.00080136398
-0.00047329128
-0.00015395955
-0.0067580849
-0.0066157762
-0.0064519713
-0.0062677109
-0.006064145
-0.0058425261
-0.0056041889
-0.0053505374
-0.0050830354
-0.0048031897
-0.0045125392
-0.004212641
-0.0039050553
-0.0035913325
-0.0032730004
-0.0029515544
-0.002628447
-0.0023050813
-0.0019828051
-0.0016629086
-0.0013466224
-0.0010351201
-0.0007295447
-0.00043086279
-0.00014010007
-0.0060770109
-0.0059500304
-0.0058038061
-0.0056392426
-0.0054573438
-0.0052592026
-0.0050459899
-0.0048189368
-0.0045793293
-0.0043284909
-0.0040677809
-0.0037985788
-0.0035222722
-0.0032402444
-0.0029538635
-0.0026644743
-0.0023733891
-0.0020818805
-0.0017911769
-0.0015024583
-0.0012168565
-0.000935456
-0.00065932832
-0.0003893832
-0.00012656826
-0.0054208128
-0.0053083164
-0.0051787175
-0.0050327987
-0.0048714314
-0.0046955731
-0.0045062429
-0.0043045206
-0.0040915218
-0.003868404
-0.0036363584
-0.0033966004
-0.0031503574
-0.0028988533
-0.002643302
-0.0023849029
-0.0021248304
-0.0018642296
-0.0016042083
-0.0013458356
-0.0010901399
-0.00083811126
-0.000590735
-0.00034886365
-0.00011334892
-0.0047874193
-0.0046886798
-0.004574877
-0.0044466811
-0.0043048431
-0.0041501961
-0.0039836462
-0.0038061269
-0.0036185946
-0.0034220424
-0.0032175048
-0.0030060517
-0.0027887603
-0.0025667029
-0.0023409446
-0.0021125412
-0.0018825353
-0.001651946
-0.0014217622
-0.0011929415
-0.00096640808
-0.00074305303
-0.00052376152
-0.00030928995
-0.00010041424
-0.0041745421
-0.004088977
-0.0039902721
-0.0038790115
-0.0037558242
-0.0036214504
-0.0034767112
-0.0033224137
-0.0031593496
-0.0029883362
-0.0028102701
-0.0026260985
-0.0024367587
-0.0022431762
-0.0020462662
-0.0018469477
-0.0016461367
-0.0014447298
-0.0012435969
-0.0010435828
-0.00084550621
-0.00065015646
-0.00045831026
-0.00027060946
-8.7785774e-05
-0.0035795919
-0.0035063196
-0.0034219395
-0.0033269316
-0.0032218494
-0.0031072409
-0.0029836774
-0.0028518276
-0.0027124255
-0.0025660696
-0.0024135492
-0.0022557527
-0.0020934904
-0.0019275262
-0.0017586222
-0.0015875663
-0.0014151604
-0.0012421843
-0.0010693846
-0.00089748991
-0.00072720957
-0.00055923063
-0.00039423287
-0.00023276536
-7.5481242e-05
-0.0030015239
-0.0029403365
-0.0028698255
-0.0027903965
-0.0027024891
-0.0026065655
-0.002503111
-0.002392662
-0.0022758103
-0.002153317
-0.0020257935
-0.0018937832
-0.0017579286
-0.0016188886
-0.0014772622
-0.0013337412
-0.0011890382
-0.0010438328
-0.00089873079
-0.00075434297
-0.00061127068
-0.00047009133
-0.00033139458
-0.00019566579
-6.3443877e-05
-0.0024374188
-0.0023878883
-0.0023307911
-0.0022664507
-0.002195218
-0.0021174702
-0.0020336156
-0.0019440898
-0.0018493759
-0.0017500058
-0.0016464786
-0.0015392733
-0.0014288948
-0.0013159003
-0.0012009131
-0.0010844556
-0.0009670094
-0.00084907095
-0.00073114973
-0.00061374764
-0.00049737868
-0.0003825309
-0.00026965091
-0.0001592126
-5.1621209e-05
-0.0018847854
-0.0018465773
-0.0018025228
-0.0017528682
-0.0016978831
-0.001637858
-0.0015731144
-0.0015039872
-0.001430844
-0.0013540736
-0.0012740623
-0.0011911956
-0.0011058737
-0.0010185197
-0.00092957267
-0.0008394431
-0.00074852167
-0.00065720032
-0.00056591014
-0.00047505462
-0.0003849977
-0.00029610059
-0.00020877826
-0.00012328066
-3.9975423e-05
-0.0013410167
-0.001313879
-0.0012825842
-0.001247306
-0.0012082357
-0.0011655821
-0.0011195646
-0.0010704308
-0.0010184367
-0.00096385113
-0.00090694929
-0.00084800963
-0.0007873192
-0.00072517552
-0.0006618809
-0.00059772922
-0.00053300689
-0.00046800061
-0.00040300452
-0.00033830246
-0.00027416589
-0.00021086384
-0.00014866207
-8.7778533e-05
-2.8463619e-05
-0.00080330799
-0.00078706903
-0.00076834095
-0.00074722729
-0.00072384244
-0.00069831088
-0.00067076331
-0.00064134817
-0.00061021777
-0.0005775329
-0.00054345673
-0.0005081575
-0.00047180764
-0.00043458406
-0.00039666569
-0.00035822905
-0.00031944783
-0.0002804952
-0.00024154465
-0.00020276561
-0.00016432187
-0.00012637428
-8.9083812e-05
-5.2610752e-05
-1.7079103e-05
-0.0002680488
-0.00026263254
-0.00025638581
-0.00024934318
-0.00024154265
-0.00023302569
-0.00022383648
-0.00021402269
-0.00020363683
-0.00019273168
-0.00018136213
-0.00016958414
-0.00015745528
-0.00014503444
-0.00013238115
-0.00011955434
-0.00010661224
-9.3612747e-05
-8.0613454e-05
-6.7670565e-05
-5.4838496e-05
-4.2170576e-05
-2.9723684e-05
-1.7558569e-05
-5.7089892e-06
)
;

boundaryField
{
    Walls
    {
        type            zeroGradient;
    }
    Inlet
    {
        type            fixedValue;
        value           uniform 500;
    }
    Outlet
    {
        type            fixedValue;
        value           uniform 0;
    }
    Front
    {
        type            wedge;
    }
    Back
    {
        type            wedge;
    }
    defaultFaces
    {
        type            empty;
    }
}


// ************************************************************************* //
