/*--------------------------------*- C++ -*----------------------------------*\
| =========                 |                                                 |
| \\      /  F ield         | OpenFOAM: The Open Source CFD Toolbox           |
|  \\    /   O peration     | Version:  4.0                                   |
|   \\  /    A nd           | Web:      www.OpenFOAM.org                      |
|    \\/     M anipulation  |                                                 |
\*---------------------------------------------------------------------------*/
FoamFile
{
    version     2.0;
    format      ascii;
    class       surfaceScalarField;
    location    "0.57";
    object      phi;
}
// * * * * * * * * * * * * * * * * * * * * * * * * * * * * * * * * * * * * * //

dimensions      [0 3 -1 0 0 0 0];

internalField   nonuniform List<scalar> 
3364
(
1.9463347e-10
1.5933421e-08
-3.8958231e-10
5.40871e-08
8.1179236e-08
-1.2475919e-10
1.6058148e-08
-1.5662799e-10
5.4118972e-08
8.1022584e-08
-3.6298898e-10
1.642111e-08
7.5730141e-10
5.2998679e-08
8.1779872e-08
-5.7520552e-11
1.6478602e-08
1.1676432e-09
5.1773493e-08
8.2947488e-08
2.116179e-10
1.6266946e-08
1.4448633e-09
5.0540251e-08
8.4392336e-08
1.5968179e-10
1.6107225e-08
2.3062356e-10
5.0469292e-08
8.4622944e-08
-5.9106672e-10
1.6698268e-08
-7.8509495e-10
5.0663282e-08
8.3837815e-08
-6.3524731e-10
1.7333498e-08
-1.1181004e-09
5.1146095e-08
8.2719684e-08
3.2441899e-11
1.7301012e-08
-5.8232575e-10
5.1760855e-08
8.213734e-08
1.7147063e-10
1.7129485e-08
7.5729946e-10
5.1174987e-08
8.2894614e-08
6.017239e-10
1.6527726e-08
9.6016998e-10
5.0816454e-08
8.3854727e-08
6.3002092e-10
1.5897664e-08
4.4700476e-10
5.0999384e-08
8.4301679e-08
-3.447853e-10
1.6242414e-08
-2.5191219e-10
5.0906464e-08
8.4049736e-08
-4.3390181e-10
1.6676285e-08
-3.3560571e-10
5.0808121e-08
8.3714077e-08
-1.7254041e-10
1.6848791e-08
-1.0785824e-10
5.0743371e-08
8.3606162e-08
-3.9646298e-10
1.7245216e-08
-1.2300827e-10
5.0469876e-08
8.3483126e-08
-4.1134395e-10
1.7656526e-08
-2.723806e-10
5.0330902e-08
8.3210728e-08
3.9062697e-10
1.7265862e-08
-4.8935374e-10
5.1210856e-08
8.272135e-08
4.4351198e-10
1.6822318e-08
-1.0118336e-10
5.1755546e-08
8.2620153e-08
-8.0155391e-11
1.6902432e-08
3.0145216e-10
5.1373943e-08
8.2921594e-08
-7.3013964e-11
1.6975381e-08
1.1434666e-10
5.118651e-08
8.3035885e-08
-3.2142651e-10
1.7296773e-08
3.4484981e-10
5.0520164e-08
8.3380662e-08
-7.8371036e-11
1.7375147e-08
-1.1249944e-10
5.0554273e-08
8.3268123e-08
5.30527e-10
1.6844583e-08
-5.2655526e-10
5.1611337e-08
8.274155e-08
-1.1278544e-10
1.6957317e-08
4.5717999e-10
5.104132e-08
8.3198698e-08
-6.301465e-10
1.7587431e-08
2.4410489e-10
5.0167033e-08
8.3442752e-08
-3.1288903e-10
1.7900297e-08
-2.3026397e-10
5.0084368e-08
8.3212429e-08
-5.2166067e-10
1.8421939e-08
-6.7667252e-10
5.0239335e-08
8.2535711e-08
1.0526101e-10
1.8316708e-08
-4.2493076e-10
5.0769593e-08
8.2110784e-08
2.223563e-09
1.6093358e-08
5.3033312e-09
4.7689937e-08
8.74141e-08
1.1718016e-08
4.3746976e-09
4.886783e-08
1.0538255e-08
1.0048864e-08
1.2623049e-07
4.8969222e-09
-5.2269197e-10
1.6977058e-08
-1.5433586e-09
-1.7891321e-09
2.8813189e-08
-3.7679872e-10
-1.4585822e-10
-1.4737915e-09
-4.4629296e-10
-6.3941587e-10
-2.6234084e-09
-1.0224579e-10
-4.3598022e-11
-4.1594628e-10
-1.32558e-10
-2.1046584e-10
-8.448614e-10
-1.257544e-11
-3.1021312e-11
-6.0338963e-11
-8.4790825e-11
-1.1323377e-10
-1.5756813e-10
-6.9307733e-12
-2.4090695e-11
-2.6774271e-11
-6.4947624e-11
-8.3488889e-11
-5.6520115e-11
-5.0635532e-12
-1.9027257e-11
-1.8341607e-11
-5.1669862e-11
-6.9232499e-11
-3.2597696e-11
-3.2184852e-12
-1.5808698e-11
-1.1050107e-11
-4.3838196e-11
-6.1111569e-11
-1.9171021e-11
-2.6310186e-12
-1.3177601e-11
-9.3449755e-12
-3.7124154e-11
-5.3457192e-11
-1.6999275e-11
-2.3276903e-12
-1.0849824e-11
-8.5437977e-12
-3.090791e-11
-4.5430777e-11
-1.6570019e-11
-2.0885262e-12
-8.7612081e-12
-7.7587348e-12
-2.5237537e-11
-3.8055344e-11
-1.5133924e-11
-1.6939824e-12
-7.067153e-12
-6.4132391e-12
-2.0518142e-11
-3.1514047e-11
-1.2954326e-11
-1.2518729e-12
-5.8152321e-12
-4.8211621e-12
-1.6948765e-11
-2.6314524e-11
-1.0020549e-11
-9.1523347e-13
-4.8999681e-12
-3.5466856e-12
-1.4317263e-11
-2.2400552e-11
-7.4605817e-12
-6.9133898e-13
-4.2086098e-12
-2.6517245e-12
-1.2356852e-11
-1.9471279e-11
-5.5809614e-12
-5.3457852e-13
-3.6740196e-12
-2.0663336e-12
-1.0825085e-11
-1.7198563e-11
-4.3390353e-12
-4.2951795e-13
-3.2444946e-12
-1.6658464e-12
-9.5887535e-12
-1.5328504e-11
-3.5359037e-12
-3.5433169e-13
-2.890159e-12
-1.3812587e-12
-8.5618292e-12
-1.3756635e-11
-2.9531355e-12
-2.9614148e-13
-2.5940161e-12
-1.1574271e-12
-7.7005503e-12
-1.2425824e-11
-2.4882509e-12
-2.4647484e-13
-2.3475417e-12
-9.6870673e-13
-6.9783287e-12
-1.1304912e-11
-2.0896376e-12
-2.0475839e-13
-2.1427854e-12
-8.0567551e-13
-6.3774248e-12
-1.0364158e-11
-1.7464533e-12
-1.7051947e-13
-1.9722692e-12
-6.7136278e-13
-5.8765969e-12
-9.5763198e-12
-1.4592281e-12
-1.4295537e-13
-1.8293179e-12
-5.639216e-13
-5.4556477e-12
-8.9124946e-12
-1.2277762e-12
-1.2130836e-13
-1.7080142e-12
-4.7886099e-13
-5.0981128e-12
-8.3449772e-12
-1.046409e-12
-1.0431703e-13
-1.6037021e-12
-4.1208633e-13
-4.7903615e-12
-7.8545379e-12
-9.0255675e-13
-9.0889065e-14
-1.5128181e-12
-3.5903934e-13
-4.5222292e-12
-7.4256619e-12
-7.879462e-13
-8.0443464e-14
-1.4323797e-12
-3.1792585e-13
-4.2847641e-12
-7.044696e-12
-6.9892157e-13
-7.226159e-14
-1.360123e-12
-2.8612784e-13
-4.0709144e-12
-6.7014279e-12
-6.2942432e-13
-6.5627677e-14
-1.2944999e-12
-2.6026208e-13
-3.8762957e-12
-6.3878422e-12
-5.7387449e-13
-6.0385395e-14
-1.234119e-12
-2.3972648e-13
-3.6969692e-12
-6.0976489e-12
-5.2994459e-13
-5.6092706e-14
-1.1780304e-12
-2.2289297e-13
-3.5301825e-12
-5.8268808e-12
-4.936839e-13
-5.2355561e-14
-1.1256786e-12
-2.0834013e-13
-3.3742104e-12
-5.5724067e-12
-4.6283519e-13
-4.9349553e-14
-1.0763325e-12
-1.963977e-13
-3.2271736e-12
-5.3321665e-12
-4.36657e-13
-4.6641277e-14
-1.0296944e-12
-1.8560862e-13
-3.0882166e-12
-5.1045862e-12
-4.1320624e-13
-4.399202e-14
-9.857053e-13
-1.7555819e-13
-2.9566597e-12
-4.8888999e-12
-3.9126007e-13
-4.1575532e-14
-9.4413235e-13
-1.6589475e-13
-2.8323489e-12
-4.6848583e-12
-3.6995028e-13
-3.9148805e-14
-9.0498585e-13
-1.5621858e-13
-2.7152866e-12
-4.492443e-12
-3.4864623e-13
-3.6679196e-14
-8.6830871e-13
-1.4642128e-13
-2.6055512e-12
-4.3118306e-12
-3.270446e-13
-3.4150589e-14
-8.3415994e-13
-1.363804e-13
-2.5033273e-12
-4.1434288e-12
-3.0479188e-13
-3.1544201e-14
-8.0261736e-13
-1.2601637e-13
-2.4088603e-12
-3.987693e-12
-2.8176074e-13
-2.8853894e-14
-7.7376489e-13
-1.1531475e-13
-2.322404e-12
-3.8450979e-12
-2.5791735e-13
-2.6059374e-14
-7.4770679e-13
-1.0423396e-13
-2.2442335e-12
-3.7161221e-12
-2.3321631e-13
-2.3175888e-14
-7.2453202e-13
-9.2692332e-14
-2.1747207e-12
-3.6013509e-12
-2.0746945e-13
-2.0258811e-14
-7.0427421e-13
-8.1095286e-14
-2.1138874e-12
-3.5008718e-12
-1.8157957e-13
-1.7330013e-14
-6.8694509e-13
-6.9097539e-14
-2.0621227e-12
-3.4153694e-12
-1.546045e-13
-1.4171941e-14
-6.7277396e-13
-5.6547835e-14
-2.0197494e-12
-3.3454165e-12
-1.2650491e-13
-1.0952949e-14
-6.6182177e-13
-4.3655641e-14
-1.9870491e-12
-3.2914516e-12
-9.7624408e-14
-7.6739947e-15
-6.541485e-13
-3.0547256e-14
-1.9641781e-12
-3.2536951e-12
-6.8307506e-14
-4.3248255e-15
-6.4982439e-13
-1.7433928e-14
-1.9510712e-12
-3.2320127e-12
-3.9119835e-14
-1.1431345e-15
-4.7621705e-15
-1.0785144e-14
1.3602513e-07
-9.7999194e-09
-8.8045171e-09
1.4482338e-07
2.0789444e-08
-1.7773653e-09
-1.5318363e-09
1.3516237e-08
-3.7190243e-09
-6.8161702e-10
-7.0817246e-10
-4.5425422e-09
-1.2871812e-09
-2.3924656e-10
-2.4990372e-10
-1.7453873e-09
-2.8902064e-10
-1.0778485e-10
-9.2329744e-11
-4.4657987e-10
-8.8174134e-11
-7.6128753e-11
-5.3558853e-11
-1.2694196e-10
-3.9770369e-11
-6.8955811e-11
-5.3234477e-11
-4.0094629e-11
-2.1861627e-11
-6.6265399e-11
-5.9251133e-11
-1.584544e-11
-2.2021936e-11
-6.124276e-11
-6.1075092e-11
-2.0198158e-11
-2.3861899e-11
-5.3950671e-11
-5.7249694e-11
-2.7687119e-11
-2.3076331e-11
-4.6007962e-11
-4.9964685e-11
-3.0360997e-11
-1.9964439e-11
-3.8997583e-11
-4.2785477e-11
-2.714333e-11
-1.5928418e-11
-3.3089535e-11
-3.6919757e-11
-2.1793921e-11
-1.199681e-11
-2.8553206e-11
-3.2456552e-11
-1.6459894e-11
-9.0392774e-12
-2.5094844e-11
-2.9087481e-11
-1.2408295e-11
-7.0174703e-12
-2.2416395e-11
-2.6228299e-11
-9.8766376e-12
-5.8156628e-12
-2.0136638e-11
-2.3830254e-11
-8.213712e-12
-4.9014981e-12
-1.8188288e-11
-2.1759357e-11
-6.9724134e-12
-4.1374577e-12
-1.6539103e-11
-1.9927628e-11
-5.9692167e-12
-3.486226e-12
-1.5142543e-11
-1.8342398e-11
-5.0714941e-12
-2.931462e-12
-1.3957569e-11
-1.7018359e-11
-4.2555465e-12
-2.4637653e-12
-1.2953071e-11
-1.5897107e-11
-3.585069e-12
-2.0808453e-12
-1.2100044e-11
-1.4928672e-11
-3.0493347e-12
-1.7799093e-12
-1.1366587e-11
-1.4082493e-11
-2.6261449e-12
-1.5416194e-12
-1.0727568e-11
-1.3338043e-11
-2.2861271e-12
-1.3506795e-12
-1.0164879e-11
-1.2681106e-11
-2.0076732e-12
-1.2023544e-12
-9.6614886e-12
-1.2087279e-11
-1.7962361e-12
-1.0852971e-12
-9.2056561e-12
-1.1541821e-11
-1.6308069e-12
-9.9312079e-13
-8.7864474e-12
-1.1038326e-11
-1.4966642e-12
-9.1764898e-13
-8.3987779e-12
-1.0566601e-11
-1.3894183e-12
-8.578046e-13
-8.0346894e-12
-1.0122025e-11
-1.302422e-12
-8.0751807e-13
-7.6900358e-12
-9.6990994e-12
-1.2304811e-12
-7.624777e-13
-7.3642418e-12
-9.2964567e-12
-1.1651543e-12
-7.2313349e-13
-7.0543386e-12
-8.9126844e-12
-1.1069364e-12
-6.8595857e-13
-6.7596616e-12
-8.5463207e-12
-1.0523496e-12
-6.4908091e-13
-6.4805502e-12
-8.1982961e-12
-9.9712972e-13
-6.1236792e-13
-6.2168455e-12
-7.8686532e-12
-9.4203234e-13
-5.7507228e-13
-5.9688329e-12
-7.557972e-12
-8.8577248e-13
-5.3638043e-13
-5.7372576e-12
-7.2673727e-12
-8.2699652e-13
-4.961668e-13
-5.5228633e-12
-6.9979689e-12
-7.6558537e-13
-4.5432042e-13
-5.3264705e-12
-6.7508012e-12
-7.0150122e-13
-4.109724e-13
-5.1487235e-12
-6.5270346e-12
-6.3475039e-13
-3.6573269e-13
-4.9904683e-12
-6.3277517e-12
-5.650257e-13
-3.203131e-13
-4.8517419e-12
-6.1526969e-12
-4.9537685e-13
-2.7264111e-13
-4.7337116e-12
-6.0038055e-12
-4.2154052e-13
-2.2306504e-13
-4.6371572e-12
-5.8819979e-12
-3.4487985e-13
-1.7211349e-13
-4.5626734e-12
-5.7880765e-12
-2.6604151e-13
-1.2043098e-13
-4.510555e-12
-5.7223121e-12
-1.8620173e-13
-6.9066065e-14
-4.4806135e-12
-5.6845369e-12
-1.0684728e-13
-1.9108753e-14
-2.9600092e-14
-1.7210883e-11
1.7211046e-11
-3.3450728e-11
1.6225555e-11
-4.7021893e-11
1.3557319e-11
-5.8309954e-11
1.1277686e-11
-6.878884e-11
1.0471433e-11
-8.1412323e-11
1.2618502e-11
-9.8902787e-11
1.7487583e-11
-1.2305776e-10
2.4153826e-11
-1.5416089e-10
3.1103364e-11
-1.9118331e-10
3.7023681e-11
-2.324858e-10
4.130447e-11
-2.7662618e-10
4.4142804e-11
-3.2219981e-10
4.5576251e-11
-3.6804978e-10
4.5852602e-11
-4.1326577e-10
4.5218471e-11
-4.5711476e-10
4.3851199e-11
-4.9885143e-10
4.1738513e-11
-5.3759157e-10
3.8741589e-11
-5.7262789e-10
3.5037355e-11
-6.0329694e-10
3.0669703e-11
-6.2898963e-10
2.5693012e-11
-6.4935288e-10
2.0363327e-11
-6.640862e-10
1.4733225e-11
-6.7277804e-10
8.6916444e-12
2.3224665e-12
-5.6356537e-11
7.3572146e-11
-1.2009073e-10
7.9967116e-11
-1.8864942e-10
8.2124732e-11
-2.6573861e-10
8.8376171e-11
-3.5301187e-10
9.7754115e-11
-4.5459091e-10
1.1420682e-10
-5.7381498e-10
1.3672059e-10
-7.1140379e-10
1.6175107e-10
-8.6455644e-10
1.8426381e-10
-1.0302746e-09
2.0274896e-10
-1.2058306e-09
2.1686681e-10
-1.38788e-09
2.261978e-10
-1.5739235e-09
2.3162474e-10
-1.7621064e-09
2.340397e-10
-1.9505676e-09
2.3368329e-10
-2.1382956e-09
2.3158204e-10
-2.3351129e-09
2.3855805e-10
-2.5230843e-09
2.2671461e-10
-2.6941725e-09
2.0612652e-10
-2.8434454e-09
1.7994307e-10
-2.9672939e-09
1.4954144e-10
-3.0631009e-09
1.1616976e-10
-3.1284326e-09
8.0063952e-11
-3.1595967e-09
3.9854454e-11
1.0254204e-11
-1.382517e-10
2.1183298e-10
-2.956139e-10
2.3734405e-10
-4.7385017e-10
2.6037846e-10
-6.7890335e-10
2.9344762e-10
-9.2125196e-10
3.4012075e-10
-1.2040788e-09
3.9705078e-10
-1.5286769e-09
4.6133451e-10
-1.9547593e-09
5.8784767e-10
-2.4136141e-09
6.4313113e-10
-2.8801439e-09
6.6928942e-10
-3.3405002e-09
6.7723215e-10
-3.7871141e-09
6.7281921e-10
-4.2141957e-09
6.5871229e-10
-4.6158025e-09
6.3565122e-10
-4.9859828e-09
6.0386694e-10
-5.3192849e-09
5.6488638e-10
-5.6005308e-09
5.1980515e-10
-5.843109e-09
4.6929308e-10
-6.051492e-09
4.1450885e-10
-6.2279759e-09
3.5642552e-10
-6.3743875e-09
2.9595085e-10
-6.4918889e-09
2.3366842e-10
-6.5805797e-09
1.687515e-10
-6.6423351e-09
1.0160611e-10
3.3724751e-11
-3.9064131e-10
6.0249177e-10
-8.176453e-10
6.6437459e-10
-1.3093055e-09
7.5206805e-10
-2.1120276e-09
1.0961969e-09
-2.9797098e-09
1.2078267e-09
-3.8044668e-09
1.2218277e-09
-4.5337073e-09
1.1905912e-09
-5.0759892e-09
1.1301427e-09
-5.4818182e-09
1.0489708e-09
-5.7662447e-09
9.5372436e-10
-5.9455882e-09
8.5658239e-10
-6.0325652e-09
7.5980132e-10
-6.0376452e-09
6.6379622e-10
-5.9624431e-09
5.6045189e-10
-5.8229558e-09
4.6438158e-10
-5.6364357e-09
3.7836741e-10
-5.4201317e-09
3.035017e-10
-5.1910994e-09
2.4026072e-10
-4.9652714e-09
1.8868039e-10
-4.7569335e-09
1.4808683e-10
-4.5769736e-09
1.1598967e-10
-4.4342025e-09
9.0895783e-11
-4.3333207e-09
6.7867886e-11
-4.2782117e-09
4.6495037e-11
2.4818886e-11
-2.2312262e-09
2.8337461e-09
-4.0031248e-09
2.4363044e-09
-5.5179382e-09
2.2669119e-09
-6.2055896e-09
1.7838704e-09
-6.2824922e-09
1.2847473e-09
-5.8143525e-09
7.5370274e-10
-5.0488036e-09
4.250545e-10
-4.0546471e-09
1.3599646e-10
-2.8986506e-09
-1.0701698e-10
-1.6411976e-09
-3.0372167e-10
-3.9690754e-10
-3.8770329e-10
8.4019212e-10
-4.7729942e-10
2.1468021e-09
-6.4281503e-10
3.5620854e-09
-8.5483147e-10
4.9452358e-09
-9.1876717e-10
6.2561678e-09
-9.3256118e-10
7.4724693e-09
-9.1279457e-10
8.5796805e-09
-8.6694343e-10
9.5677493e-09
-7.9937976e-10
1.0428754e-08
-7.1290782e-10
1.1154216e-08
-6.0946019e-10
1.1735992e-08
-4.9086705e-10
1.216357e-08
-3.5969441e-10
1.2428356e-08
-2.1827593e-10
-6.5364751e-11
9.3421168e-10
1.8996201e-09
4.1119354e-09
-7.413674e-10
7.8352672e-09
-1.4563487e-09
1.1529083e-08
-1.909915e-09
1.5262115e-08
-2.44826e-09
1.8922783e-08
-2.9069386e-09
2.2522586e-08
-3.1747165e-09
2.5902637e-08
-3.2440177e-09
2.8973578e-08
-3.177916e-09
3.1711031e-08
-3.0411289e-09
3.4185589e-08
-2.8622127e-09
3.6358396e-08
-2.6500545e-09
3.8146615e-08
-2.4309798e-09
3.9515796e-08
-2.2239582e-09
4.0605991e-08
-2.0089079e-09
4.1468114e-08
-1.7946287e-09
4.2142052e-08
-1.5866771e-09
4.2661228e-08
-1.3860644e-09
4.3054793e-08
-1.1928901e-09
4.3348238e-08
-1.0062983e-09
4.3563215e-08
-8.2438268e-10
4.3717113e-08
-6.4471066e-10
4.3822026e-08
-4.6455348e-10
4.3885189e-08
-2.8138568e-10
-8.9380849e-11
1.4902859e-07
-2.3043734e-09
1.4770024e-07
5.879021e-10
1.4513312e-07
1.1115566e-09
1.4166109e-07
1.562812e-09
1.3709203e-07
2.1214099e-09
1.315932e-07
2.5924139e-09
1.2553977e-07
2.8791591e-09
1.1932615e-07
2.9699897e-09
1.1322224e-07
2.9263244e-09
1.0737743e-07
2.8039696e-09
1.0186042e-07
2.6550515e-09
9.6721151e-08
2.4894316e-09
9.198981e-08
2.3005598e-09
8.7665451e-08
2.1005785e-09
8.3758692e-08
1.8980113e-09
8.0267129e-08
1.6970797e-09
7.7179662e-08
1.500923e-09
7.4482604e-08
1.3111166e-09
7.216194e-08
1.1278873e-09
7.0205118e-08
9.5062882e-10
6.8602731e-08
7.7810308e-10
6.7349679e-08
6.0843403e-10
6.6446495e-08
4.3871882e-10
6.5898963e-08
2.6623064e-10
8.5117528e-11
1.2873278e-08
-1.6612926e-09
1.52508e-08
-1.7895059e-09
1.7921079e-08
-1.5586084e-09
2.0678493e-08
-1.1944915e-09
2.3522947e-08
-7.2293723e-10
2.6463924e-08
-3.4846262e-10
2.9403413e-08
-6.0237003e-11
3.2182309e-08
1.911826e-10
3.4769249e-08
3.3947261e-10
3.7123819e-08
4.4948709e-10
3.9204885e-08
5.7407103e-10
4.0827134e-08
8.6726745e-10
4.2116367e-08
1.0114108e-09
4.3140838e-08
1.0761878e-09
4.3942651e-08
1.0962774e-09
4.4558796e-08
1.0810117e-09
4.5022418e-08
1.0373755e-09
4.53628e-08
9.70807e-10
4.5606152e-08
8.846042e-10
4.577542e-08
7.8142841e-10
4.5890167e-08
6.6342234e-10
4.5966386e-08
5.3227824e-10
4.6015535e-08
3.8963105e-10
4.604477e-08
2.3705494e-10
7.2088031e-11
-5.3296349e-09
-8.7421044e-10
-6.0258818e-09
-1.0932683e-09
-6.3861207e-09
-1.1983795e-09
-6.32752e-09
-1.2531016e-09
-5.8018535e-09
-1.2486115e-09
-4.9541316e-09
-1.1961901e-09
-3.8962742e-09
-1.1180973e-09
-2.6821687e-09
-1.0229229e-09
-1.4241198e-09
-9.1857382e-10
-1.6312316e-10
-8.1150459e-10
1.1156911e-09
-7.0473609e-10
2.5770218e-09
-5.9405372e-10
4.0756085e-09
-4.8716411e-10
5.5406459e-09
-3.8883578e-10
6.9365833e-09
-2.9964434e-10
8.2438549e-09
-2.2624267e-10
9.4593865e-09
-1.7813746e-10
1.0568267e-08
-1.380543e-10
1.1558439e-08
-1.055469e-10
1.2419995e-08
-8.0106639e-11
1.3144426e-08
-6.0986553e-11
1.3723762e-08
-4.7037079e-11
1.415018e-08
-3.6765338e-11
1.4415102e-08
-2.7845623e-11
-1.6563341e-11
-2.3442992e-09
-2.7529908e-10
-3.1357663e-09
-3.0180315e-10
-3.9724462e-09
-3.617041e-10
-4.7845833e-09
-4.4097146e-10
-5.507208e-09
-5.2599559e-10
-6.0413378e-09
-6.6207026e-10
-6.4444936e-09
-7.1495213e-10
-6.7258494e-09
-7.4157805e-10
-6.8936068e-09
-7.508273e-10
-6.9583553e-09
-7.4676666e-10
-6.9305497e-09
-7.3255191e-10
-6.8138955e-09
-7.107175e-10
-6.6199059e-09
-6.8116262e-10
-6.3639791e-09
-6.4477074e-10
-6.0607827e-09
-6.0284811e-10
-5.7291391e-09
-5.578928e-10
-5.3970297e-09
-5.102527e-10
-5.0754696e-09
-4.5961959e-10
-4.7746957e-09
-4.0632533e-10
-4.5043436e-09
-3.5046274e-10
-4.2732884e-09
-2.9204539e-10
-4.0892862e-09
-2.3104253e-10
-3.9586156e-09
-1.6743894e-10
-3.8850657e-09
-1.0139851e-10
-3.4134431e-11
-6.4729707e-10
-7.4578588e-11
-8.7414154e-10
-7.4955611e-11
-1.1501826e-09
-8.5660734e-11
-1.4747175e-09
-1.164351e-10
-1.8494014e-09
-1.5131127e-10
-2.3240219e-09
-1.8745056e-10
-2.8145013e-09
-2.244747e-10
-3.3023682e-09
-2.5371437e-10
-3.7785343e-09
-2.7466545e-10
-4.2367958e-09
-2.8851028e-10
-4.6723396e-09
-2.9701405e-10
-5.0806433e-09
-3.0242037e-10
-5.45284e-09
-3.0897294e-10
-5.7657679e-09
-3.3185036e-10
-6.0402113e-09
-3.2841243e-10
-6.2818549e-09
-3.1625721e-10
-6.4945295e-09
-2.9758623e-10
-6.6804955e-09
-2.7366179e-10
-6.8416985e-09
-2.4513048e-10
-6.9796815e-09
-2.1248803e-10
-7.0955423e-09
-1.7619275e-10
-7.1897998e-09
-1.3679321e-10
-7.2622413e-09
-9.5005491e-11
-7.3127797e-09
-5.0868162e-11
-1.1892092e-11
-1.752096e-10
-2.6309125e-11
-2.4496687e-10
-5.1963968e-12
-3.3515641e-10
4.5306702e-12
-4.6051106e-10
8.9211765e-12
-6.1094671e-10
-8.7434102e-13
-7.82587e-10
-1.5809412e-11
-9.7600248e-10
-3.1058856e-11
-1.1819426e-09
-4.7774358e-11
-1.394427e-09
-6.2181686e-11
-1.6077837e-09
-7.5154554e-11
-1.8212234e-09
-8.3575867e-11
-2.0364663e-09
-8.7179379e-11
-2.2560097e-09
-8.9431758e-11
-2.4981236e-09
-8.9739134e-11
-2.7383879e-09
-8.8151245e-11
-2.969806e-09
-8.4842534e-11
-3.1874715e-09
-7.9924455e-11
-3.3875163e-09
-7.3620986e-11
-3.5665782e-09
-6.6072822e-11
-3.7216029e-09
-5.746774e-11
-3.8498251e-09
-4.7975084e-11
-3.9488449e-09
-3.7778108e-11
-4.016815e-09
-2.7039999e-11
-4.0518204e-09
-1.5867336e-11
-4.5312897e-12
-3.5376641e-11
-3.1026614e-11
-3.2656493e-11
-7.9160894e-12
-3.8818882e-11
1.0693443e-11
-5.3642926e-11
2.374552e-11
-8.2610267e-11
2.8093199e-11
-1.2395905e-10
2.5539455e-11
-1.7620854e-10
2.1190592e-11
-2.3864205e-10
1.4658981e-11
-3.0689892e-10
6.0748971e-12
-3.7941227e-10
-2.6416245e-12
-4.5218313e-10
-1.0805546e-11
-5.2543235e-10
-1.393081e-11
-5.983415e-10
-1.6523362e-11
-6.6977774e-10
-1.8303755e-11
-7.3892694e-10
-1.9003015e-11
-8.0493477e-10
-1.8835772e-11
-8.6685952e-10
-1.8000858e-11
-9.237327e-10
-1.6749038e-11
-9.7470644e-10
-1.5100378e-11
-1.0189323e-09
-1.3243261e-11
-1.0556716e-09
-1.1237124e-11
-1.0842716e-09
-9.1794332e-12
-1.1042807e-09
-7.0322629e-12
-1.1155204e-09
-4.6288718e-12
-1.5426428e-12
-2.5221917e-12
-4.434965e-11
1.6110553e-11
-2.654866e-11
3.7836166e-11
-1.1032028e-11
5.8450294e-11
3.1315121e-12
7.3020506e-11
1.3523094e-11
8.0627063e-11
1.7932991e-11
8.3424387e-11
1.8393348e-11
8.1457591e-11
1.6625842e-11
7.6337819e-11
1.119472e-11
6.7222419e-11
6.4738106e-12
5.5538385e-11
8.7850893e-13
4.442199e-11
-2.8144051e-12
3.4120707e-11
-6.2220765e-12
2.5198797e-11
-9.3818468e-12
1.8047195e-11
-1.1851415e-11
1.2443262e-11
-1.3231837e-11
8.1568016e-12
-1.371439e-11
5.1801727e-12
-1.3772392e-11
3.0162757e-12
-1.2936455e-11
1.5064747e-12
-1.1733423e-11
3.7744786e-13
-1.0108049e-11
-4.7213225e-13
-8.3297919e-12
-1.2284753e-12
-6.2758456e-12
-1.8506032e-12
-4.0066583e-12
-1.4871516e-12
-1.1031837e-11
-5.3515779e-11
4.311478e-12
-4.1891788e-11
2.2445366e-11
-2.9165734e-11
4.2558704e-11
-1.6981644e-11
6.2638777e-11
-6.5567892e-12
8.0336623e-11
2.3534247e-13
9.4814531e-11
3.9156453e-12
1.0601916e-10
5.4214291e-12
1.128596e-10
4.3544924e-12
1.1765582e-10
1.6778162e-12
1.1971311e-10
-1.178557e-12
1.2132918e-10
-4.4302436e-12
1.2275434e-10
-7.6470039e-12
1.2407599e-10
-1.0703251e-11
1.2536966e-10
-1.3144839e-11
1.2664692e-10
-1.4508838e-11
1.2795484e-10
-1.5022043e-11
1.2947969e-10
-1.529697e-11
1.3131089e-10
-1.4767377e-11
1.3322386e-10
-1.3646102e-11
1.3508412e-10
-1.1968014e-11
1.3671055e-10
-9.9559284e-12
1.378509e-10
-7.4159014e-12
1.3836929e-10
-4.5247615e-12
-1.3367109e-12
-2.6912202e-11
-5.4290542e-11
-2.1612805e-11
-4.7191018e-11
-1.3050197e-11
-3.7728165e-11
-3.3335802e-12
-2.6698075e-11
8.573566e-12
-1.8463741e-11
2.0150448e-11
-1.1341336e-11
3.0056006e-11
-5.9897032e-12
3.7781986e-11
-2.3043377e-12
4.2036506e-11
1.0018525e-13
4.4321182e-11
-6.0664909e-13
4.4167821e-11
-1.0249894e-12
4.2343731e-11
-2.6059517e-12
3.9605287e-11
-4.908364e-12
3.6091938e-11
-7.1897132e-12
3.1973951e-11
-9.0266688e-12
2.7904545e-11
-1.0439256e-11
2.4102586e-11
-1.1219913e-11
2.0034773e-11
-1.1228992e-11
1.6351328e-11
-1.1083772e-11
1.3340854e-11
-1.0635474e-11
1.099221e-11
-9.6192211e-12
9.2124811e-12
-8.1760562e-12
8.101715e-12
-6.3049988e-12
7.6239541e-12
-4.0468735e-12
-1.5195679e-12
-3.5107888e-11
-4.9543555e-11
-3.6974506e-11
-4.5324288e-11
-3.615273e-11
-3.8549816e-11
-3.2221306e-11
-3.062936e-11
-2.8939658e-11
-2.1745242e-11
-2.4678837e-11
-1.5602006e-11
-2.0849782e-11
-9.8186049e-12
-1.789138e-11
-5.2625872e-12
-1.5792084e-11
-1.9989641e-12
-1.7274548e-11
8.7595495e-13
-1.9966641e-11
1.6672314e-12
-2.3452925e-11
8.8044817e-13
-2.8450774e-11
8.9586481e-14
-3.5174416e-11
-4.6598351e-13
-4.2513244e-11
-1.687768e-12
-4.9782059e-11
-3.1703822e-12
-5.6930441e-11
-4.0714863e-12
-6.3628979e-11
-4.5304212e-12
-6.9973718e-11
-4.7390106e-12
-7.5836573e-11
-4.7726065e-12
-8.0958679e-11
-4.4971114e-12
-8.5245239e-11
-3.8894997e-12
-8.8600711e-11
-2.9495377e-12
-9.0950457e-11
-1.6971465e-12
-3.1933876e-13
-3.3255982e-11
-4.3430859e-11
-3.76644e-11
-4.0915813e-11
-4.0047854e-11
-3.6166294e-11
-4.0763901e-11
-2.9913236e-11
-3.9446383e-11
-2.3062676e-11
-3.8594901e-11
-1.6453401e-11
-3.7601199e-11
-1.0812218e-11
-3.6861883e-11
-6.0018186e-12
-3.6900407e-11
-1.9603599e-12
-3.732139e-11
1.2970107e-12
-3.8902471e-11
3.2483749e-12
-4.22726e-11
4.2506278e-12
-4.7428902e-11
5.2459266e-12
-5.2651648e-11
4.7567883e-12
-5.8413939e-11
4.074534e-12
-6.4880498e-11
3.2961746e-12
-7.1458313e-11
2.5063147e-12
-7.7803363e-11
1.8146028e-12
-8.396645e-11
1.4240407e-12
-8.9569298e-11
8.3019694e-13
-9.4404898e-11
3.3843572e-13
-9.8312804e-11
1.8348849e-14
-1.0120776e-10
-5.4649331e-14
-1.0285358e-10
-5.1391718e-14
-2.1256051e-14
-2.7000376e-11
-3.8224397e-11
-3.1109868e-11
-3.68063e-11
-3.3953788e-11
-3.3322342e-11
-3.5253185e-11
-2.8613799e-11
-3.53453e-11
-2.2970516e-11
-3.4659399e-11
-1.7139252e-11
-3.3772109e-11
-1.1699458e-11
-3.2942125e-11
-6.8317532e-12
-3.2293125e-11
-2.6093131e-12
-3.1885054e-11
8.8898081e-13
-3.2205817e-11
3.569173e-12
-3.3479904e-11
5.5247419e-12
-3.5099274e-11
6.8653155e-12
-3.7747224e-11
7.4047478e-12
-4.1119334e-11
7.4466433e-12
-4.5102297e-11
7.279127e-12
-4.9334528e-11
6.7385255e-12
-5.3574448e-11
6.0544952e-12
-5.750153e-11
5.3510868e-12
-6.118547e-11
4.5140942e-12
-6.4471353e-11
3.6242701e-12
-6.7190094e-11
2.7370372e-12
-6.9075836e-11
1.8310356e-12
-7.0114292e-11
9.8700214e-13
2.6946824e-13
-2.0698568e-11
-3.3985739e-11
-2.3869676e-11
-3.3635196e-11
-2.5703029e-11
-3.1488981e-11
-2.6457181e-11
-2.7859629e-11
-2.636221e-11
-2.3065462e-11
-2.5355989e-11
-1.8145443e-11
-2.3820413e-11
-1.3235001e-11
-2.2051579e-11
-8.6005524e-12
-2.0233647e-11
-4.4272121e-12
-1.8534543e-11
-8.1009049e-13
-1.7190392e-11
2.2250503e-12
-1.6293156e-11
4.6275311e-12
-1.5834183e-11
6.406361e-12
-1.6036791e-11
7.6073697e-12
-1.6869863e-11
8.2797221e-12
-1.8107467e-11
8.5167314e-12
-1.9755906e-11
8.3869585e-12
-2.1656025e-11
7.9546027e-12
-2.3577704e-11
7.2727473e-12
-2.5459084e-11
6.3954518e-12
-2.720458e-11
5.3697382e-12
-2.870549e-11
4.2379164e-12
-2.9901543e-11
3.0270542e-12
-3.0673164e-11
1.758584e-12
6.0082975e-13
-1.5523959e-11
-3.0870111e-11
-1.8061697e-11
-3.1097479e-11
-1.9668764e-11
-2.9881925e-11
-2.0142399e-11
-2.7385994e-11
-1.9513307e-11
-2.3694547e-11
-1.8115996e-11
-1.9542739e-11
-1.6115972e-11
-1.5235006e-11
-1.3734709e-11
-1.0981793e-11
-1.1192258e-11
-6.9696379e-12
-8.6457093e-12
-3.3566146e-12
-6.1788959e-12
-2.4173859e-13
-3.9516847e-12
2.4003427e-12
-2.072998e-12
4.5276944e-12
-5.8978458e-13
6.124173e-12
4.7201654e-13
7.2179339e-12
1.1567943e-12
7.8319622e-12
1.4231591e-12
8.120598e-12
1.3380519e-12
8.0397099e-12
1.0363104e-12
7.5744847e-12
6.019398e-13
6.8298145e-12
1.0602323e-13
5.8656429e-12
-3.9013038e-13
4.7340558e-12
-8.5401684e-13
3.4909224e-12
-1.2311058e-12
2.1356515e-12
5.8742643e-13
-1.230714e-11
-2.8439661e-11
-1.428312e-11
-2.9121538e-11
-1.5645707e-11
-2.8519365e-11
-1.6154337e-11
-2.6877381e-11
-1.5716087e-11
-2.4132806e-11
-1.4435665e-11
-2.0823163e-11
-1.2489275e-11
-1.7181391e-11
-1.0069105e-11
-1.3401954e-11
-7.3511372e-12
-9.6875935e-12
-4.490348e-12
-6.2173892e-12
-1.634247e-12
-3.097824e-12
1.1578415e-12
-3.9173024e-13
3.8034311e-12
1.8821196e-12
6.2080163e-12
3.7196009e-12
8.3097387e-12
5.1162224e-12
1.0063795e-11
6.0779143e-12
1.1526729e-11
6.6576694e-12
1.2710203e-11
6.856239e-12
1.360142e-11
6.6832669e-12
1.423968e-11
6.1915518e-12
1.4680256e-11
5.4250609e-12
1.4983014e-11
4.4312904e-12
1.5256573e-11
3.2173525e-12
1.5462469e-11
1.9297416e-12
7.6778558e-13
-1.0361159e-11
-2.6292281e-11
-1.2126792e-11
-2.735596e-11
-1.3357639e-11
-2.7288562e-11
-1.4003791e-11
-2.6231264e-11
-1.3841044e-11
-2.4295578e-11
-1.2957091e-11
-2.1707134e-11
-1.1448494e-11
-1.8689999e-11
-9.4045428e-12
-1.5445912e-11
-6.9391635e-12
-1.2152975e-11
-4.1971813e-12
-8.9593703e-12
-1.3072839e-12
-5.9877183e-12
1.6198259e-12
-3.3188357e-12
4.4970576e-12
-9.9510732e-13
7.2576004e-12
9.5906254e-13
9.8734949e-12
2.5003315e-12
1.2264934e-11
3.6864775e-12
1.4402009e-11
4.5205954e-12
1.6255971e-11
5.0022759e-12
1.7809528e-11
5.1297069e-12
1.907048e-11
4.9305955e-12
2.0046058e-11
4.4494758e-12
2.0782605e-11
3.6947358e-12
2.1205679e-11
2.7942688e-12
2.1419842e-11
1.7155674e-12
4.9017539e-13
-8.9793437e-12
-2.4285432e-11
-1.0646728e-11
-2.5688645e-11
-1.1921272e-11
-2.6014077e-11
-1.2631954e-11
-2.5520632e-11
-1.2795529e-11
-2.4132044e-11
-1.2288525e-11
-2.221417e-11
-1.1192517e-11
-1.9786034e-11
-9.5787485e-12
-1.7059701e-11
-7.5271853e-12
-1.4204554e-11
-5.1235588e-12
-1.1363009e-11
-2.4811701e-12
-8.6301165e-12
2.9413753e-13
-6.0941508e-12
3.1176184e-12
-3.8185943e-12
5.9293624e-12
-1.8526867e-12
8.7199225e-12
-2.9023361e-13
1.1327919e-11
1.0784755e-12
1.3733121e-11
2.1153877e-12
1.5874118e-11
2.8612729e-12
1.776892e-11
3.2348979e-12
1.9404415e-11
3.295092e-12
2.0767445e-11
3.0864364e-12
2.180947e-11
2.6527017e-12
2.2630605e-11
1.9731229e-12
2.3111745e-11
1.2344153e-12
4.6123627e-13
-7.776465e-12
-2.2478273e-11
-9.367625e-12
-2.4097564e-11
-1.060473e-11
-2.4777042e-11
-1.1437836e-11
-2.4687586e-11
-1.17153e-11
-2.3854633e-11
-1.1525742e-11
-2.2403773e-11
-1.078095e-11
-2.0530865e-11
-9.5277476e-12
-1.8312936e-11
-7.8414346e-12
-1.5890895e-11
-5.8060227e-12
-1.3398444e-11
-3.4956761e-12
-1.0940483e-11
-9.8988955e-13
-8.5999541e-12
1.6369041e-12
-6.4454026e-12
4.3378674e-12
-4.5536631e-12
7.1011631e-12
-3.0535413e-12
9.665484e-12
-1.4858566e-12
1.2043678e-11
-2.6281701e-13
1.4268171e-11
6.3676929e-13
1.6275001e-11
1.2280568e-12
1.8022651e-11
1.5474311e-12
1.9480467e-11
1.6286092e-12
2.0641256e-11
1.491902e-12
2.1438129e-11
1.1762391e-12
2.1934736e-11
7.37797e-13
2.6710946e-13
-6.656007e-12
-2.0893854e-11
-8.1092258e-12
-2.2644431e-11
-9.2658761e-12
-2.3620468e-11
-1.0118035e-11
-2.3835495e-11
-1.052415e-11
-2.3448578e-11
-1.0469574e-11
-2.2458402e-11
-9.9800059e-12
-2.102048e-11
-9.0347052e-12
-1.9258277e-11
-7.6707888e-12
-1.7254846e-11
-5.9467561e-12
-1.5122507e-11
-3.934249e-12
-1.2953016e-11
-1.7003608e-12
-1.0833865e-11
6.8152561e-13
-8.8273091e-12
3.1468241e-12
-7.0189794e-12
5.6618274e-12
-5.5685607e-12
8.1175084e-12
-3.9415523e-12
1.0471369e-11
-2.6166911e-12
1.2690544e-11
-1.5824186e-12
1.4710139e-11
-7.9154995e-13
1.6480654e-11
-2.2309552e-13
1.7967811e-11
1.4144036e-13
1.9138369e-11
3.2133437e-13
1.9917093e-11
3.9750409e-13
2.0387742e-11
2.6713843e-13
-4.7602936e-14
-5.6285881e-12
-1.9520908e-11
-6.9108258e-12
-2.136228e-11
-7.9914532e-12
-2.2539919e-11
-8.7959691e-12
-2.303105e-11
-9.255653e-12
-2.2988958e-11
-9.3133134e-12
-2.2400799e-11
-8.9736296e-12
-2.1360214e-11
-8.2517885e-12
-1.9980162e-11
-7.1511365e-12
-1.8355537e-11
-5.71154e-12
-1.6562138e-11
-3.9824209e-12
-1.4682165e-11
-2.0233137e-12
-1.2792998e-11
1.0250931e-13
-1.0953155e-11
2.3125443e-12
-9.2290344e-12
4.5214462e-12
-7.7774804e-12
6.8805197e-12
-6.3006418e-12
9.114123e-12
-4.8503087e-12
1.122115e-11
-3.6894585e-12
1.3159333e-11
-2.7297448e-12
1.4887718e-11
-1.9514913e-12
1.6372738e-11
-1.3435897e-12
1.7578441e-11
-8.8437738e-13
1.85575e-11
-5.8156296e-13
1.9152828e-11
-3.281977e-13
-6.0372103e-14
-4.7669089e-12
-1.833916e-11
-5.8876208e-12
-2.0241653e-11
-6.8714007e-12
-2.1556217e-11
-7.5999803e-12
-2.2302541e-11
-8.076278e-12
-2.2512724e-11
-8.2162014e-12
-2.2260933e-11
-8.0011283e-12
-2.1575338e-11
-7.439988e-12
-2.0541348e-11
-6.5543396e-12
-1.9241226e-11
-5.3611986e-12
-1.7755314e-11
-3.9014034e-12
-1.6141991e-11
-2.2145433e-12
-1.4479885e-11
-3.5458653e-13
-1.2813135e-11
1.6353581e-12
-1.1218999e-11
3.5356119e-12
-9.677752e-12
5.6121033e-12
-8.3771488e-12