/*--------------------------------*- C++ -*----------------------------------*\
| =========                 |                                                 |
| \\      /  F ield         | OpenFOAM: The Open Source CFD Toolbox           |
|  \\    /   O peration     | Version:  4.0                                   |
|   \\  /    A nd           | Web:      www.OpenFOAM.org                      |
|    \\/     M anipulation  |                                                 |
\*---------------------------------------------------------------------------*/
FoamFile
{
    version     2.0;
    format      ascii;
    class       volVectorField;
    location    "0.57";
    object      U;
}
// * * * * * * * * * * * * * * * * * * * * * * * * * * * * * * * * * * * * * //

dimensions      [0 1 -1 0 0 0 0];

internalField   nonuniform List<vector> 
1740
(
(1.4721768 0.006188041 5.662963e-06)
(1.6143798 -0.0020354554 8.9390472e-07)
(1.4924799 -0.0046401642 8.7490894e-08)
(1.4655669 -0.0021865238 9.034411e-06)
(1.7218074 -0.0038484533 1.6563934e-06)
(1.4970328 -0.0029323876 2.7412704e-07)
(1.5069899 -0.010261709 1.1987885e-05)
(1.6335589 0.0042778878 2.7771739e-06)
(1.5040763 0.0040670074 4.0387506e-07)
(1.5013833 -0.0039629116 1.3676613e-05)
(1.5982199 0.015739774 3.3331611e-06)
(1.4936909 0.0082680869 6.1526848e-07)
(1.5199097 0.0034444931 1.4561046e-05)
(1.5612441 0.018570844 4.0491189e-06)
(1.5348937 0.011304623 7.3181783e-07)
(1.5170486 0.0090675001 1.5941035e-05)
(1.5684777 0.0057726847 4.7395399e-06)
(1.6148286 -0.0048160364 9.6429068e-07)
(1.4374781 -0.020027556 1.6981844e-05)
(1.555324 -0.021530076 5.8080317e-06)
(1.5355031 -0.010664159 1.1617463e-06)
(1.5819231 -0.021251528 1.7635088e-05)
(1.4921634 -0.027822279 6.4665728e-06)
(1.497177 -0.01335093 1.3278024e-06)
(1.5980759 0.0040526638 1.8212345e-05)
(1.604964 -0.0098730491 7.0596009e-06)
(1.4969856 -0.0074522175 1.5424027e-06)
(1.579178 0.0050728696 1.8751898e-05)
(1.5977677 0.018835528 7.887398e-06)
(1.5198872 0.004904906 1.7463885e-06)
(1.5690747 0.015527302 1.9566444e-05)
(1.5104051 0.031360152 8.5403882e-06)
(1.5209707 0.011805181 1.9276247e-06)
(1.4532627 0.015238141 1.9903752e-05)
(1.5838496 0.021240921 8.9070262e-06)
(1.5581104 0.0057391329 2.1288656e-06)
(1.4703767 -0.016085676 2.0351226e-05)
(1.5734389 -0.0059258321 9.6271835e-06)
(1.5607056 -0.0024146998 2.3269681e-06)
(1.5099327 -0.016360943 2.056686e-05)
(1.5257814 -0.010447054 1.0048036e-05)
(1.5136735 -0.0005193715 2.5082529e-06)
(1.5497895 -0.0053252383 2.0452399e-05)
(1.567116 -0.0035147062 1.044176e-05)
(1.5458261 -0.001914122 2.7183918e-06)
(1.535467 -0.010734421 2.0778242e-05)
(1.5509777 -0.0087268416 1.0864989e-05)
(1.5285095 -0.0049344349 2.899428e-06)
(1.6158799 -0.013037697 2.1053436e-05)
(1.5296116 -0.012491844 1.1274866e-05)
(1.5214385 -0.0047275721 3.0711314e-06)
(1.6183 0.010680996 2.1040871e-05)
(1.5218008 -0.0036853259 1.1613111e-05)
(1.527723 -0.0077390787 3.2513585e-06)
(1.5541284 0.019035875 2.1193152e-05)
(1.6024759 0.0017333099 1.2011887e-05)
(1.4923227 -0.0074491367 3.3946527e-06)
(1.530901 0.0049089317 2.1487969e-05)
(1.5790345 0.0021517541 1.2463088e-05)
(1.5319328 -0.00045695396 3.554816e-06)
(1.5598644 -0.0029566845 2.1830482e-05)
(1.5666963 0.00086781905 1.2758324e-05)
(1.5393495 0.0046591866 3.7384766e-06)
(1.5705102 -0.012750357 2.2302211e-05)
(1.5781369 -0.0023186441 1.314442e-05)
(1.5202657 0.0067683148 3.9224926e-06)
(1.597299 -0.0023165193 2.213507e-05)
(1.483682 -0.0070128592 1.3385428e-05)
(1.5188479 -0.0037298428 4.0874018e-06)
(1.5917744 0.019279037 2.1984982e-05)
(1.5859875 0.00014437987 1.3728517e-05)
(1.5144542 -0.0087191845 4.2304613e-06)
(1.4770824 -0.0074218096 2.2342869e-05)
(1.5844889 0.008862427 1.400111e-05)
(1.5253499 0.002997323 4.3991847e-06)
(1.6035584 -0.026092483 2.268697e-05)
(1.5127864 -0.0037406629 1.4412082e-05)
(1.5068051 0.0098339418 4.5256352e-06)
(1.6026552 -0.012153008 2.2526719e-05)
(1.5117482 -0.0098767833 1.465833e-05)
(1.5189274 0.0023464716 4.6467028e-06)
(1.5811425 -0.017556463 2.2684213e-05)
(1.4803234 -0.018825763 1.4917592e-05)
(1.4965778 -0.010680934 4.7972856e-06)
(1.6063182 0.0069363079 2.213144e-05)
(1.4448413 -0.0083667873 1.5040979e-05)
(1.4478804 -0.0047392253 4.8332635e-06)
(1.3611882 0.060740684 2.3468929e-05)
(1.297354 0.1149347 1.5686694e-05)
(1.3464551 0.058643761 5.467589e-06)
(0.83825573 0.38120588 1.1653059e-05)
(0.79961096 0.94297664 9.9601109e-06)
(0.73651091 1.245015 5.3799838e-06)
(0.22188516 0.11383885 1.5014623e-06)
(0.18236159 0.36691729 3.0540972e-06)
(0.080133911 0.4965536 6.8091449e-07)
(-0.030745863 -0.013196723 1.2272212e-06)
(-0.030602959 -0.028042178 1.6744528e-06)
(-0.022670975 -0.033872197 5.6830212e-07)
(-0.0092492761 -0.0029964198 4.5200585e-07)
(-0.0092565444 -0.0081387329 7.2607831e-07)
(-0.0080960125 -0.011352219 3.1828154e-07)
(-0.0040420331 -0.00030803747 1.1540338e-07)
(-0.0038226775 -0.0010054865 2.3124925e-07)
(-0.0032105763 -0.0017877419 9.0772347e-08)
(-0.0025962838 -0.00021841614 2.0247822e-08)
(-0.0023966951 -0.00047153459 4.2951932e-08)
(-0.0019771596 -0.00070265294 -2.3730522e-08)
(-0.0019703612 -0.00015857886 -8.3848448e-09)
(-0.0017883146 -0.00032983705 -2.3275625e-08)
(-0.0014350151 -0.00045144948 -6.8056311e-08)
(-0.0015559565 -0.00010251616 -1.6810061e-08)
(-0.0014267247 -0.00019963769 -4.303918e-08)
(-0.001171707 -0.00027333748 -7.8400502e-08)
(-0.0012708181 -8.2710644e-05 -1.6685723e-08)
(-0.0011851288 -0.00016994105 -4.3605188e-08)
(-0.0010102434 -0.00023877356 -7.2684672e-08)
(-0.0010501758 -7.1882307e-05 -1.3674591e-08)
(-0.00099336906 -0.00015283229 -3.7019908e-08)
(-0.00087363938 -0.00022397297 -6.0794313e-08)
(-0.00086589972 -6.3698724e-05 -1.0270444e-08)
(-0.00082774767 -0.00013982871 -2.9042134e-08)
(-0.00074459377 -0.00020464729 -4.8108325e-08)
(-0.00071236413 -5.1215623e-05 -7.6835683e-09)
(-0.00068639241 -0.00011512009 -2.2195605e-08)
(-0.00062783359 -0.00017329122 -3.7059886e-08)
(-0.00058999311 -3.7615096e-05 -5.9231714e-09)
(-0.00057189926 -8.485098e-05 -1.6922021e-08)
(-0.00052979791 -0.00013169906 -2.8199869e-08)
(-0.00049493682 -2.8195965e-05 -4.5641683e-09)
(-0.00048202451 -6.2714967e-05 -1.2832469e-08)
(-0.00045108361 -9.7164069e-05 -2.1235785e-08)
(-0.0004212909 -2.1435866e-05 -3.4748407e-09)
(-0.0004118949 -4.7298866e-05 -9.6293337e-09)
(-0.00038874705 -7.2564967e-05 -1.5776164e-08)
(-0.00036385255 -1.6612561e-05 -2.593297e-09)
(-0.00035691899 -3.6894103e-05 -7.078438e-09)
(-0.00033935508 -5.6698104e-05 -1.1487244e-08)
(-0.00031835181 -1.3379349e-05 -1.8669141e-09)
(-0.00031316984 -2.9693161e-05 -5.057555e-09)
(-0.00029965967 -4.6218589e-05 -8.154498e-09)
(-0.00028165158 -1.1032088e-05 -1.2953215e-09)
(-0.00027772917 -2.4609973e-05 -3.5012124e-09)
(-0.00026718567 -3.859554e-05 -5.6275801e-09)
(-0.00025164603 -9.186419e-06 -8.6885583e-10)
(-0.00024864482 -2.0650362e-05 -2.3534557e-09)
(-0.00024030481 -3.2807875e-05 -3.776726e-09)
(-0.00022690708 -7.664854e-06 -5.7130811e-10)
(-0.00022459169 -1.7247671e-05 -1.5464119e-09)
(-0.0002179139 -2.7534762e-05 -2.4729071e-09)
(-0.00020639265 -6.3664047e-06 -3.7287693e-10)
(-0.00020459529 -1.4371986e-05 -1.0001228e-09)
(-0.00019918783 -2.2889806e-05 -1.5861407e-09)
(-0.00018928541 -5.304611e-06 -2.4284179e-10)
(-0.00018788448 -1.1983567e-05 -6.4079025e-10)
(-0.00018345944 -1.904723e-05 -1.0006056e-09)
(-0.00017491888 -4.4701288e-06 -1.5916691e-10)
(-0.00017382469 -1.0046329e-05 -4.1023996e-10)
(-0.00017016755 -1.5997227e-05 -6.2355375e-10)
(-0.00016274441 -3.8034421e-06 -1.0640023e-10)
(-0.00016188952 -8.51677e-06 -2.6492224e-10)
(-0.00015883803 -1.3618027e-05 -3.8588563e-10)
(-0.00015231405 -3.2776737e-06 -7.2644997e-11)
(-0.00015164708 -7.3272576e-06 -1.7366536e-10)
(-0.00014907695 -1.1736092e-05 -2.3864241e-10)
(-0.00014326679 -2.8615614e-06 -5.1441488e-11)
(-0.00014274813 -6.3840119e-06 -1.1719642e-10)
(-0.00014056327 -1.023631e-05 -1.4894463e-10)
(-0.00013531427 -2.5357044e-06 -3.8285109e-11)
(-0.00013491309 -5.6541316e-06 -8.2537172e-11)
(-0.00013303875 -9.0751041e-06 -9.524628e-11)
(-0.00012822825 -2.2791458e-06 -3.0517815e-11)
(-0.00012792042 -5.091226e-06 -6.1617092e-11)
(-0.00012629819 -8.1769022e-06 -6.3806863e-11)
(-0.00012183063 -2.070511e-06 -2.6387429e-11)
(-0.0001215971 -4.6284178e-06 -4.941308e-11)
(-0.00012018087 -7.4517639e-06 -4.5836308e-11)
(-0.00011598444 -1.9049266e-06 -2.3971294e-11)
(-0.00011581 -4.2619048e-06 -4.1906887e-11)
(-0.00011456309 -6.878378e-06 -3.5465609e-11)
(-0.00011058589 -1.7689844e-06 -2.2853296e-11)
(-0.0001104584 -3.9618368e-06 -3.7415499e-11)
(-0.00010935151 -6.4032188e-06 -2.9696397e-11)
(-0.00010555826 -1.6504539e-06 -2.2973941e-11)
(-0.00010546799 -3.7002783e-06 -3.5069704e-11)
(-0.00010447761 -5.9952022e-06 -2.6703731e-11)
(-0.00010084651 -1.5543938e-06 -2.2688808e-11)
(-0.0001007857 -3.4902024e-06 -3.3051616e-11)
(-9.989298e-05 -5.6564163e-06 -2.4896071e-11)
(-9.6412571e-05 -1.4675462e-06 -2.2692356e-11)
(-9.6375098e-05 -3.2999324e-06 -3.1692036e-11)
(-9.5564865e-05 -5.3502163e-06 -2.3922121e-11)
(-9.2231863e-05 -1.3826017e-06 -2.3339278e-11)
(-9.2212794e-05 -3.1179284e-06 -3.1001912e-11)
(-9.1472707e-05 -5.064025e-06 -2.3454307e-11)
(-8.8290028e-05 -1.3051588e-06 -2.3502923e-11)
(-8.828542e-05 -2.9476963e-06 -3.0161403e-11)
(-8.7605376e-05 -4.7881199e-06 -2.3086781e-11)
(-8.4580298e-05 -1.2277426e-06 -2.3738711e-11)
(-8.4587033e-05 -2.7765891e-06 -2.947275e-11)
(-8.39587e-05 -4.5110734e-06 -2.2847712e-11)
(-8.1101485e-05 -1.1490927e-06 -2.4069192e-11)
(-8.1117066e-05 -2.6024587e-06 -2.8955765e-11)
(-8.0533454e-05 -4.230055e-06 -2.2709519e-11)
(-7.7856372e-05 -1.0689485e-06 -2.4374201e-11)
(-7.7878794e-05 -2.4242406e-06 -2.85143e-11)
(-7.7333969e-05 -3.9414655e-06 -2.2635674e-11)
(-7.4850675e-05 -9.8654483e-07 -2.4656908e-11)
(-7.4878313e-05 -2.2401556e-06 -2.8142835e-11)
(-7.4367177e-05 -3.6430495e-06 -2.2604984e-11)
(-7.2093021e-05 -9.0171807e-07 -2.4899931e-11)
(-7.212448e-05 -2.0500059e-06 -2.7822161e-11)
(-7.1642595e-05 -3.334386e-06 -2.2595327e-11)
(-6.9602177e-05 -8.1384069e-07 -2.512047e-11)
(-6.9636996e-05 -1.852849e-06 -2.7556526e-11)
(-6.9179712e-05 -3.0146671e-06 -2.2604739e-11)
(-6.7366963e-05 -7.2335882e-07 -2.5345715e-11)
(-6.7406028e-05 -1.6478487e-06 -2.7376051e-11)
(-6.6973249e-05 -2.6814709e-06 -2.2657856e-11)
(-6.5365471e-05 -6.3197123e-07 -2.5608814e-11)
(-6.54059e-05 -1.4414278e-06 -2.7314312e-11)
(-6.4993075e-05 -2.3465282e-06 -2.2775053e-11)
(-6.3627393e-05 -5.4054141e-07 -2.5869217e-11)
(-6.3667622e-05 -1.2295843e-06 -2.7363204e-11)
(-6.326826e-05 -1.9984133e-06 -2.293512e-11)
(-6.2176893e-05 -4.4214025e-07 -2.6159158e-11)
(-6.2218445e-05 -1.006228e-06 -2.7468944e-11)
(-6.1831844e-05 -1.6353161e-06 -2.3038243e-11)
(-6.1017673e-05 -3.4201507e-07 -2.639081e-11)
(-6.105997e-05 -7.7716918e-07 -2.7432243e-11)
(-6.068358e-05 -1.2621776e-06 -2.2822573e-11)
(-6.0166878e-05 -2.4009659e-07 -2.6418478e-11)
(-6.0209735e-05 -5.43778e-07 -2.6821077e-11)
(-5.9840864e-05 -8.8315195e-07 -2.177998e-11)
(-5.9680123e-05 -1.3601212e-07 -2.5775537e-11)
(-5.9723293e-05 -3.0846153e-07 -2.4539976e-11)
(-5.9358845e-05 -5.0516929e-07 -1.891694e-11)
(-5.9422315e-05 -3.6766547e-08 -2.2502e-11)
(-5.9465099e-05 -8.2779063e-08 -1.7961314e-11)
(-5.9102815e-05 -1.3872953e-07 -1.255059e-11)
(-0.048073159 1.9439535 -3.8651551e-07)
(-0.033396928 1.6907006 -3.4649422e-06)
(-0.064451104 0.33856996 -2.5812592e-07)
(-0.043925629 0.14925148 -1.012477e-06)
(-0.016974447 -0.042395614 -2.1791947e-07)
(-0.012337069 -0.044812523 -6.4267517e-07)
(-0.006572753 -0.014118716 -1.2459323e-07)
(-0.0054567541 -0.015607125 -4.2352304e-07)
(-0.0024361276 -0.0027980227 -1.2661711e-07)
(-0.0018704223 -0.0036766507 -3.1116872e-07)
(-0.0014364188 -0.00089517061 -1.3702447e-07)
(-0.00094779607 -0.0010555706 -2.4823041e-07)
(-0.0010250715 -0.00046154589 -1.351826e-07)
(-0.00064595551 -0.00039771287 -2.0496049e-07)
(-0.00087384387 -0.00026825076 -1.2308902e-07)
(-0.00058800788 -0.00018981962 -1.6957597e-07)
(-0.00079852187 -0.00025445453 -1.0507739e-07)
(-0.00058422256 -0.00021433968 -1.3787722e-07)
(-0.0007239278 -0.00026240055 -8.5414737e-08)
(-0.00056633475 -0.00026254227 -1.0960053e-07)
(-0.00063751109 -0.00024747235 -6.7144212e-08)
(-0.00052123422 -0.00027123825 -8.5424444e-08)
(-0.00055026957 -0.00021264268 -5.1690824e-08)
(-0.00046352417 -0.00023819802 -6.5563482e-08)
(-0.00047269682 -0.00016756858 -3.9252186e-08)
(-0.00040714645 -0.00019084247 -4.9683185e-08)
(-0.00040829113 -0.00012528079 -2.9437513e-08)
(-0.00035805921 -0.00014388841 -3.7162404e-08)
(-0.00035626486 -9.3794538e-05 -2.1745914e-08)
(-0.00031741475 -0.00010826355 -2.7361846e-08)
(-0.00031440768 -7.2463858e-05 -1.5750078e-08)
(-0.0002841103 -8.5053816e-05 -1.9754795e-08)
(-0.00028026352 -5.9483625e-05 -1.1137169e-08)
(-0.0002564031 -7.0317051e-05 -1.3936067e-08)
(-0.00025191807 -5.0226746e-05 -7.6705177e-09)
(-0.00023293508 -5.9648799e-05 -9.5853545e-09)
(-0.00022814138 -4.2435991e-05 -5.1445455e-09)
(-0.00021287895 -5.0611831e-05 -6.4247266e-09)
(-0.000208112 -3.5750668e-05 -3.3644719e-09)
(-0.00019571538 -4.2844421e-05 -4.1991257e-09)
(-0.00019120522 -3.0161898e-05 -2.1505947e-09)
(-0.00018104175 -3.6105033e-05 -2.680515e-09)
(-0.00017689452 -2.5286449e-05 -1.3476656e-09)
(-0.0001684889 -3.03716e-05 -1.6746059e-09)
(-0.00016471725 -2.1324669e-05 -8.3007689e-10)
(-0.00015770479 -2.5697923e-05 -1.0255933e-09)
(-0.00015427082 -1.8234644e-05 -5.0380993e-10)
(-0.00014836916 -2.1972745e-05 -6.1655548e-10)
(-0.00014521441 -1.5769267e-05 -3.0240049e-10)
(-0.000140204 -1.9095527e-05 -3.6434754e-10)
(-0.00013726658 -1.3799951e-05 -1.8044699e-10)
(-0.0001329754 -1.6881436e-05 -2.1214266e-10)
(-0.00013019939 -1.2275516e-05 -1.081117e-10)
(-0.00012649201 -1.5112718e-05 -1.2228709e-10)
(-0.00012383099 -1.1070203e-05 -6.635238e-11)
(-0.00012060023 -1.3710443e-05 -7.0564338e-11)
(-0.00011801848 -1.0119538e-05 -4.280689e-11)
(-0.00011517916 -1.2573312e-05 -4.1637774e-11)
(-0.00011265185 -9.3503303e-06 -2.9716973e-11)
(-0.00011013592 -1.1651505e-05 -2.584923e-11)
(-0.00010764848 -8.7323345e-06 -2.2662704e-11)
(-0.00010540137 -1.0912e-05 -1.7523381e-11)
(-0.00010294834 -8.2089874e-06 -1.9119044e-11)
(-0.00010092626 -1.0296777e-05 -1.3428657e-11)
(-9.8509764e-05 -7.748851e-06 -1.7438807e-11)
(-9.6677366e-05 -9.7382644e-06 -1.1679101e-11)
(-9.4305368e-05 -7.344037e-06 -1.6711243e-11)
(-9.2633998e-05 -9.247158e-06 -1.1079666e-11)
(-9.0318739e-05 -6.9621163e-06 -1.6523853e-11)
(-8.8785059e-05 -8.7843501e-06 -1.108933e-11)
(-8.6542019e-05 -6.5867544e-06 -1.6560681e-11)
(-8.5126839e-05 -8.3183684e-06 -1.1406364e-11)
(-8.2973622e-05 -6.2117834e-06 -1.6702591e-11)
(-8.1661004e-05 -7.8545133e-06 -1.1817163e-11)
(-7.961629e-05 -5.8306622e-06 -1.69033e-11)
(-7.8392834e-05 -7.3822482e-06 -1.2257914e-11)
(-7.6475895e-05 -5.436607e-06 -1.7147131e-11)
(-7.5330162e-05 -6.8896464e-06 -1.2723705e-11)
(-7.3560578e-05 -5.0277763e-06 -1.7406749e-11)
(-7.2482652e-05 -6.3760303e-06 -1.3185533e-11)
(-7.0880803e-05 -4.6031692e-06 -1.7659436e-11)
(-6.9861844e-05 -5.8406087e-06 -1.3620771e-11)
(-6.8455596e-05 -4.1634288e-06 -1.7896278e-11)
(-6.7486369e-05 -5.2843535e-06 -1.4018472e-11)
(-6.6286773e-05 -3.7046384e-06 -1.8137293e-11)
(-6.5368328e-05 -4.7035229e-06 -1.43896e-11)
(-6.4337539e-05 -3.2437286e-06 -1.8390737e-11)
(-6.3459901e-05 -4.1222341e-06 -1.4734089e-11)
(-6.2633621e-05 -2.7613323e-06 -1.8619946e-11)
(-6.1782762e-05 -3.5081979e-06 -1.5008938e-11)
(-6.1216864e-05 -2.2593339e-06 -1.8704875e-11)
(-6.0392315e-05 -2.8700831e-06 -1.5095346e-11)
(-6.0084385e-05 -1.7433229e-06 -1.8382904e-11)
(-5.9280943e-05 -2.2140399e-06 -1.4760748e-11)
(-5.9253297e-05 -1.2197671e-06 -1.7198427e-11)
(-5.8465353e-05 -1.5493802e-06 -1.3627335e-11)
(-5.8778149e-05 -6.9915452e-07 -1.4411938e-11)
(-5.7999342e-05 -8.8883857e-07 -1.1168058e-11)
(-5.8525536e-05 -1.9308724e-07 -9.0543626e-12)
(-5.7751281e-05 -2.4594229e-07 -6.8031514e-12)
(0.0047992113 -5.2194492e-05 -1.1525019e-07)
(0.0046266807 -0.00018886144 -2.7328097e-07)
(0.0042888855 -0.00023507322 -3.866823e-07)
(0.0038792541 -0.00028664067 -4.5834349e-07)
(0.0034499564 -0.00030337123 -4.9717218e-07)
(0.0030420008 -0.00032763697 -5.1328931e-07)
(0.0026782406 -0.00035762473 -5.1429807e-07)
(0.002363957 -0.00040562147 -5.0553336e-07)
(0.0020963992 -0.00047019398 -4.9071803e-07)
(0.001868388 -0.00054525138 -4.7242615e-07)
(0.0016719299 -0.00062559416 -4.5245244e-07)
(0.001499862 -0.00070634623 -4.3188048e-07)
(0.0013462649 -0.000783642 -4.1123845e-07)
(0.0012066175 -0.00085472652 -3.9063039e-07)
(0.0010774381 -0.00091809493 -3.6991933e-07)
(0.00095610743 -0.0009726523 -3.4882656e-07)
(0.00084062318 -0.0010192631 -3.2695297e-07)
(0.00072961463 -0.0010575195 -3.0373298e-07)
(0.00062251413 -0.0010854749 -2.7853661e-07)
(0.00051882007 -0.0011027281 -2.5063828e-07)
(0.00041811284 -0.0011099896 -2.192588e-07)
(0.00032052405 -0.0011092513 -1.8324069e-07)
(0.00022599253 -0.0010991331 -1.4159291e-07)
(0.00013414301 -0.0010835827 -9.382062e-08)
(4.3824714e-05 -0.0010312684 -3.9504284e-08)
(0.00037834009 -0.000172624 -1.3125215e-07)
(0.00033921382 -0.00064068192 -3.0708096e-07)
(0.00029245541 -0.00089954533 -4.2654864e-07)
(0.00026880771 -0.0012254667 -4.955927e-07)
(0.00028589694 -0.0014817689 -5.2827508e-07)
(0.00032910225 -0.0017597346 -5.3820793e-07)
(0.00037796275 -0.0020373536 -5.3403291e-07)
(0.00041935615 -0.0023444015 -5.2130015e-07)
(0.00044346737 -0.0026739063 -5.0351309e-07)
(0.00045149422 -0.0029973148 -4.8296903e-07)
(0.00044627621 -0.0033098927 -4.6141147e-07)
(0.00043113364 -0.0036073826 -4.3979056e-07)
(0.00040907979 -0.0038842546 -4.1851085e-07)
(0.00038226118 -0.0041385596 -3.9752231e-07)
(0.00035198906 -0.00436933 -3.7659916e-07)
(0.00031932111 -0.0045779474 -3.554332e-07)
(0.00028517051 -0.0047755852 -3.3367878e-07)
(0.00025020443 -0.004956229 -3.106408e-07)
(0.00021455945 -0.0050969189 -2.8572831e-07)
(0.00017853179 -0.0051897319 -2.5815287e-07)
(0.00014267766 -0.0052323383 -2.2744406e-07)
(0.00010777467 -0.0052273426 -1.9175783e-07)
(7.3968293e-05 -0.0051782006 -1.497262e-07)
(4.1545972e-05 -0.0050706988 -9.9726305e-08)
(1.1408556e-05 -0.0048409707 -4.3219714e-08)
(0.0012750631 -0.000383534 -1.696593e-07)
(0.0012020501 -0.0016699298 -3.8272481e-07)
(0.0011632547 -0.0022328985 -5.1044083e-07)
(0.0012024563 -0.0031304633 -5.6945151e-07)
(0.0012769649 -0.0038644101 -5.8806915e-07)
(0.0013420925 -0.0046528338 -5.8536448e-07)
(0.0013710413 -0.0054442998 -5.7099525e-07)
(0.0013623743 -0.0063824709 -5.5086532e-07)
(0.0013259643 -0.0074306525 -5.2770443e-07)
(0.0012689165 -0.0083899849 -5.0293678e-07)
(0.0011976401 -0.0092223333 -4.7852257e-07)
(0.0011172438 -0.0099262736 -4.5506743e-07)
(0.0010316304 -0.01050241 -4.327983e-07)
(0.00094187842 -0.010959369 -4.1128818e-07)
(0.00085015908 -0.011303454 -3.9014247e-07)
(0.00075804883 -0.011536465 -3.6898637e-07)
(0.00066685987 -0.011650777 -3.478843e-07)
(0.00057739602 -0.011663727 -3.2546257e-07)
(0.00048991949 -0.011603972 -3.0156862e-07)
(0.00040489689 -0.011487367 -2.7543142e-07)
(0.00032264581 -0.011323687 -2.4613184e-07)
(0.00024432106 -0.011121792 -2.1217213e-07)
(0.00016901662 -0.010888519 -1.7147666e-07)
(9.7077765e-05 -0.010594411 -1.2051482e-07)
(2.9843554e-05 -0.010191554 -5.9162418e-08)
(0.0038356227 -0.0011163428 -2.5235169e-07)
(0.0037547858 -0.0048450166 -5.2309131e-07)
(0.0036720563 -0.0061797558 -6.4853209e-07)
(0.0035213314 -0.0094264778 -6.8136124e-07)
(0.003334832 -0.01234931 -6.7492974e-07)
(0.0030971456 -0.014936285 -6.5251138e-07)
(0.0028265522 -0.016756953 -6.2308345e-07)
(0.0025455418 -0.017705941 -5.9366849e-07)
(0.0022736716 -0.017971063 -5.6440077e-07)
(0.0020134259 -0.017810538 -5.3376536e-07)
(0.0017750022 -0.017335144 -5.0574458e-07)
(0.0015580851 -0.016668429 -4.7991387e-07)
(0.0013595882 -0.0158297 -4.5671758e-07)
(0.0011657822 -0.014871649 -4.3477353e-07)
(0.00099171987 -0.013846043 -4.1352761e-07)
(0.00083764395 -0.01279818 -3.9270541e-07)
(0.00070213405 -0.011766968 -3.7196851e-07)
(0.00058329315 -0.010785866 -3.5081045e-07)
(0.00047939961 -0.0098781266 -3.2870485e-07)
(0.00038813236 -0.0090637526 -3.0498657e-07)
(0.00030718448 -0.0083540988 -2.7879487e-07)
(0.0002326702 -0.0077532862 -2.4887519e-07)
(0.00016384003 -0.0072622209 -2.1334493e-07)
(9.8916902e-05 -0.0068390388 -1.6905794e-07)
(3.6515749e-05 -0.0065316401 -1.0609304e-07)
(0.011963994 -0.0087878684 -4.4042798e-07)
(0.009568147 -0.025853178 -7.6000773e-07)
(0.0082464427 -0.028456099 -8.4688473e-07)
(0.0064452132 -0.032774304 -8.3531827e-07)
(0.004979707 -0.030226674 -7.9629458e-07)
(0.0037013581 -0.026424207 -7.4844766e-07)
(0.0026459345 -0.021690143 -7.0095624e-07)
(0.0018091813 -0.016692273 -6.5664742e-07)
(0.0011571414 -0.011706947 -6.1712287e-07)
(0.00065655177 -0.0070961549 -5.8080555e-07)
(0.00027285033 -0.0029295684 -5.4808357e-07)
(-1.2471149e-05 0.00064267653 -5.176781e-07)
(-0.00021785359 0.003973581 -4.9326612e-07)
(-0.00034880291 0.0071478738 -4.7017225e-07)
(-0.0004312393 0.010058781 -4.4791733e-07)
(-0.00047284862 0.012584535 -4.2665152e-07)
(-0.00048206493 0.014694129 -4.0604549e-07)
(-0.00046570478 0.016406096 -3.8567728e-07)
(-0.0004292587 0.017749099 -3.6507296e-07)
(-0.00037753213 0.018752892 -3.4369271e-07)
(-0.00031453317 0.01944174 -3.2086423e-07)
(-0.00024550366 0.019841378 -2.9564665e-07)
(-0.00017201287 0.019950593 -2.6652723e-07)
(-9.7258881e-05 0.019826974 -2.3805456e-07)
(-2.2300806e-05 0.019130714 -2.0968569e-07)
(0.015471385 0.022972856 -7.9861215e-07)
(0.004104845 -0.0019977762 -1.1302982e-06)
(0.0011962134 0.04764023 -1.1333851e-06)
(-0.00081840313 0.050532343 -1.0610396e-06)
(-0.0025319267 0.064853563 -9.8434836e-07)
(-0.0037972478 0.075220068 -8.9878282e-07)
(-0.0044936229 0.082467656 -8.2205602e-07)
(-0.0047128468 0.08851003 -7.5533365e-07)
(-0.0046396329 0.092964463 -6.9735938e-07)
(-0.0044193066 0.095733505 -6.4786321e-07)
(-0.0041313207 0.097313278 -6.0612476e-07)
(-0.0037865227 0.097811125 -5.6271629e-07)
(-0.0034377415 0.097553437 -5.3789128e-07)
(-0.0030944139 0.096250414 -5.111096e-07)
(-0.0027480155 0.094103033 -4.8471176e-07)
(-0.0024103736 0.091684498 -4.6102624e-07)
(-0.0020912219 0.089061998 -4.3901525e-07)
(-0.0017913983 0.086320133 -4.1806958e-07)
(-0.001510213 0.083536096 -3.9769211e-07)
(-0.0012458798 0.080768237 -3.7739332e-07)
(-0.0009963045 0.078053477 -3.5663526e-07)
(-0.00075813675 0.075434249 -3.3476114e-07)
(-0.00052989476 0.072882966 -3.1109485e-07)
(-0.00030979453 0.070586741 -2.8653959e-07)
(-9.2769208e-05 0.067110028 -2.6245365e-07)
(-0.00087695533 1.171961 -2.5321753e-06)
(-0.00053352531 0.96028955 -2.0083953e-06)
(-0.00089297279 0.86498626 -1.6242377e-06)
(-0.00064310224 0.77300886 -1.3319149e-06)
(-0.00059214834 0.67708093 -1.1149867e-06)
(-0.00053506314 0.58577808 -9.5777686e-07)
(-0.00047291834 0.50745574 -8.432516e-07)
(-0.00041218889 0.44378009 -7.5880021e-07)
(-0.0003563619 0.39126975 -6.9017859e-07)
(-0.00030512541 0.34646082 -6.3764792e-07)
(-0.00025157984 0.3077897 -5.9744111e-07)
(-0.00020357624 0.27451325 -5.6242923e-07)
(-0.00016214935 0.2460593 -5.3321378e-07)
(-0.00013718253 0.22170004 -5.0754885e-07)
(-0.0001145339 0.2007783 -4.84235e-07)
(-9.6023635e-05 0.182814 -4.6268692e-07)
(-8.0312498e-05 0.1673782 -4.4234415e-07)
(-6.6801028e-05 0.1541086 -4.2280713e-07)
(-5.5115215e-05 0.14270319 -4.0376233e-07)
(-4.4866824e-05 0.13291314 -3.8488289e-07)
(-3.5711205e-05 0.12452282 -3.6577695e-07)
(-2.6914012e-05 0.11739063 -3.4590271e-07)
(-1.8497814e-05 0.1112756 -3.2492361e-07)
(-1.0525664e-05 0.10645959 -3.025954e-07)
(-2.9692218e-06 0.10045404 -2.783895e-07)
(-0.013091974 0.088528909 -1.2322184e-06)
(-0.0026738538 0.096982619 -1.2744237e-06)
(-0.00026117714 0.10316893 -1.2291087e-06)
(0.0014974562 0.10515474 -1.1386876e-06)
(0.003021196 0.1074122 -1.0362967e-06)
(0.0041419519 0.10924106 -9.3680185e-07)
(0.0047443291 0.11097487 -8.4795307e-07)
(0.0048980296 0.11254033 -7.7110333e-07)
(0.0047798196 0.11336296 -6.9071733e-07)
(0.0045084908 0.11344731 -6.4688895e-07)
(0.0041964934 0.11274152 -6.0631749e-07)
(0.0038617863 0.11106719 -5.6377064e-07)
(0.003493579 0.10854251 -5.280738e-07)
(0.0031252065 0.10552309 -4.9748448e-07)
(0.0027678616 0.10225146 -4.7064381e-07)
(0.0024254701 0.098852113 -4.4657495e-07)
(0.0021020616 0.095409173 -4.2455135e-07)
(0.0017984874 0.091989894 -4.0398923e-07)
(0.0015139246 0.088645153 -3.8436745e-07)
(0.0012468247 0.08541286 -3.6516328e-07)
(0.0009951833 0.082314814 -3.4577937e-07)
(0.00075687437 0.0793808 -3.254358e-07)
(0.00052923388 0.076573723 -3.0444163e-07)
(0.0003100598 0.074084866 -2.8157167e-07)
(9.3525778e-05 0.070394409 -2.5853687e-07)
(-0.0095991105 -0.042306894 -8.6638755e-07)
(-0.0080670015 -0.039910033 -9.3170739e-07)
(-0.006634694 -0.038032738 -9.1866396e-07)
(-0.0052251146 -0.034433527 -8.7241912e-07)
(-0.0038993017 -0.029338995 -8.1389242e-07)
(-0.0027510296 -0.023590837 -7.5240057e-07)
(-0.0018110823 -0.017698541 -6.9526533e-07)
(-0.0010761858 -0.011993821 -6.4301595e-07)
(-0.00051590057 -0.0069103562 -5.9471333e-07)
(-9.8737233e-05 -0.0024326894 -5.5843131e-07)
(0.0002027519 0.0014215126 -5.2511184e-07)
(0.00041379382 0.0051896314 -4.9408548e-07)
(0.00055257032 0.0087742726 -4.6621968e-07)
(0.00063556905 0.011973745 -4.4118521e-07)
(0.00067473817 0.014723655 -4.1840567e-07)
(0.00068085451 0.017027661 -3.973566e-07)
(0.00065920239 0.018923595 -3.7761578e-07)
(0.00061556979 0.020448691 -3.5870134e-07)
(0.00055498349 0.021624204 -3.4010901e-07)
(0.00048147354 0.022472538 -3.2125459e-07)
(0.00039843925 0.023015497 -3.0132505e-07)
(0.00030887597 0.023274194 -2.7890069e-07)
(0.0002156735 0.023259154 -2.5685693e-07)
(0.00012205881 0.023013968 -2.3009082e-07)
(2.9543733e-05 0.022165933 -2.0383491e-07)
(-0.0048130305 -0.016924679 -5.9743759e-07)
(-0.0045326979 -0.019190945 -6.7329535e-07)
(-0.0043124596 -0.021846364 -6.8812864e-07)
(-0.0040354792 -0.023783557 -6.712253e-07)
(-0.0036753895 -0.024960758 -6.4136033e-07)
(-0.0032825242 -0.025283881 -6.086712e-07)
(-0.002908795 -0.024944696 -5.690593e-07)
(-0.0025585142 -0.024171412 -5.3198632e-07)
(-0.0022379054 -0.023135194 -4.9836648e-07)
(-0.0019488771 -0.021907175 -4.6958032e-07)
(-0.0016894873 -0.020570846 -4.43421e-07)
(-0.0014497495 -0.01910984 -4.1931834e-07)
(-0.0012346493 -0.017593669 -3.9722353e-07)
(-0.0010456664 -0.016074024 -3.7694027e-07)
(-0.0008802807 -0.014583773 -3.5795178e-07)
(-0.00073461504 -0.013158208 -3.3983197e-07)
(-0.00060862486 -0.011834468 -3.2245367e-07)
(-0.00050016129 -0.010638339 -3.0524201e-07)
(-0.00040668897 -0.0095745719 -2.8765639e-07)
(-0.00032588865 -0.0086449997 -2.6904662e-07)
(-0.00025554149 -0.0078500788 -2.4851975e-07)
(-0.00019340414 -0.0071892576 -2.2485193e-07)
(-0.00013728998 -0.0066589542 -1.9678365e-07)
(-8.4777319e-05 -0.0062187118 -1.5882509e-07)
(-3.3203904e-05 -0.0059192223 -1.0185549e-07)
(-0.0015505309 -0.0045259164 -4.3706734e-07)
(-0.0014985548 -0.0053571604 -5.0695166e-07)
(-0.0015986578 -0.0062131269 -5.3437566e-07)
(-0.0016952183 -0.007089233 -5.3523304e-07)
(-0.001769585 -0.008012413 -5.2129351e-07)
(-0.0017922274 -0.00910009 -4.9976086e-07)
(-0.0017551201 -0.010253935 -4.7340192e-07)
(-0.0016788923 -0.011234799 -4.4667459e-07)
(-0.0015804132 -0.012045933 -4.2144902e-07)
(-0.0014697299 -0.012693661 -3.984182e-07)
(-0.0013535857 -0.013200834 -3.771638e-07)
(-0.0012362368 -0.013571864 -3.5739579e-07)
(-0.0011204776 -0.013815229 -3.389529e-07)
(-0.0010076492 -0.013912715 -3.2197672e-07)
(-0.00089900031 -0.013888022 -3.0562335e-07)
(-0.00079588542 -0.013783316 -2.8990931e-07)
(-0.0006970508 -0.013623366 -2.7418968e-07)
(-0.0006020114 -0.013421479 -2.5815064e-07)
(-0.00051062993 -0.013186285 -2.4128483e-07)
(-0.0004226342 -0.012924655 -2.2294719e-07)
(-0.00033777474 -0.012641988 -2.0216454e-07)
(-0.00025590842 -0.012343491 -1.7749638e-07)
(-0.00017707542 -0.012032244 -1.4683638e-07)
(-0.00010163082 -0.011670432 -1.0580625e-07)
(-3.1353843e-05 -0.011216192 -5.3630747e-08)
(-0.00059413203 -0.0012296932 -3.3459537e-07)
(-0.00036419766 -0.0014627238 -3.9057903e-07)
(-0.00030759756 -0.0017774167 -4.1955111e-07)
(-0.00034595729 -0.0021506769 -4.287146e-07)
(-0.00043629456 -0.0025762458 -4.2481567e-07)
(-0.00053226825 -0.0030291717 -4.1287387e-07)
(-0.00060033984 -0.0035040185 -3.9617588e-07)
(-0.00063581042 -0.0039588682 -3.7757532e-07)
(-0.00064502054 -0.0043776083 -3.5880644e-07)
(-0.00063741405 -0.0047493517 -3.4071634e-07)
(-0.00061889448 -0.0050746313 -3.2350272e-07)
(-0.00059056628 -0.0053621763 -3.0716915e-07)
(-0.00055492234 -0.0056264075 -2.916667e-07)
(-0.00051432603 -0.0058948949 -2.7693597e-07)
(-0.00047081553 -0.0061615393 -2.626565e-07)
(-0.00042552623 -0.0063902182 -2.4860419e-07)
(-0.00037873999 -0.0065726576 -2.3439221e-07)
(-0.00033109813 -0.0067065259 -2.1964264e-07)
(-0.00028314397 -0.0067913438 -2.0387117e-07)
(-0.00023536431 -0.0068267405 -1.8662024e-07)
(-0.00018814331 -0.0068136397 -1.6706522e-07)
(-0.00014189314 -0.006755062 -1.4376293e-07)
(-9.7103284e-05 -0.0066553643 -1.1537708e-07)
(-5.4330435e-05 -0.0064965949 -7.9500331e-08)
(-1.5026874e-05 -0.0062048155 -3.6590789e-08)
(-0.00035619971 -0.00030696332 -2.6380539e-07)
(-0.00017068816 -0.00023330183 -3.0627024e-07)
(-5.2086526e-05 -0.00021558663 -3.3207734e-07)
(-7.2630628e-06 -0.00024786548 -3.4399795e-07)
(6.737726e-06 -0.00032672501 -3.4559325e-07)
(-6.5593243e-06 -0.00044981937 -3.4007064e-07)
(-4.3172547e-05 -0.00059806618 -3.299852e-07)
(-8.1452255e-05 -0.00076017306 -3.1740168e-07)
(-0.00011141518 -0.00092565883 -3.037518e-07)
(-0.00013189259 -0.0010840291 -2.8988771e-07)
(-0.00014486802 -0.0012289716 -2.7622063e-07)
(-0.00015304721 -0.0013567577 -2.6292351e-07)
(-0.00015471235 -0.0014696838 -2.5004104e-07)
(-0.00015115643 -0.0015701905 -2.3752725e-07)
(-0.00014329473 -0.0016573199 -2.2521865e-07)
(-0.00013252997 -0.001728877 -2.1290854e-07)
(-0.00011976396 -0.0017857711 -2.0031886e-07)
(-0.00010583691 -0.001828304 -1.8713071e-07)
(-9.1151988e-05 -0.0018566419 -1.7296494e-07)
(-7.6220692e-05 -0.0018708278 -1.5740093e-07)
(-6.1328656e-05 -0.0018710464 -1.3992279e-07)
(-4.6759302e-05 -0.0018579757 -1.197719e-07)