/*--------------------------------*- C++ -*----------------------------------*\
| =========                 |                                                 |
| \\      /  F ield         | OpenFOAM: The Open Source CFD Toolbox           |
|  \\    /   O peration     | Version:  4.0                                   |
|   \\  /    A nd           | Web:      www.OpenFOAM.org                      |
|    \\/     M anipulation  |                                                 |
\*---------------------------------------------------------------------------*/
FoamFile
{
    version     2.0;
    format      ascii;
    class       volScalarField;
    location    "0.51";
    object      k;
}
// * * * * * * * * * * * * * * * * * * * * * * * * * * * * * * * * * * * * * //

dimensions      [0 2 -2 0 0 0 0];

internalField   nonuniform List<scalar> 
1740
(
0.0087601421
0.0090755126
0.018297252
0.0092012614
0.0098781347
0.027162266
0.0095530442
0.010372876
0.034362499
0.0098220987
0.01073284
0.041548328
0.0098990577
0.011114045
0.047777929
0.009953651
0.011531358
0.052328852
0.010013137
0.011862611
0.056254178
0.0099723196
0.012178013
0.059273171
0.009942869
0.012216814
0.061793997
0.0099269305
0.012367081
0.064310115
0.009917459
0.012900891
0.066613806
0.0098535082
0.013625499
0.067877149
0.0098081243
0.013556525
0.068966489
0.0097376705
0.013742875
0.069751555
0.0096572913
0.014011437
0.070142007
0.0095200406
0.013934581
0.070877716
0.0093851249
0.013858964
0.071605951
0.009297509
0.013950657
0.071919743
0.0092072979
0.014099462
0.072193852
0.0090967561
0.014348917
0.072335773
0.0089897545
0.014353008
0.072873072
0.0089186832
0.01452937
0.073259157
0.008831024
0.014660259
0.073337575
0.0087015071
0.014633218
0.07304626
0.0085776565
0.014821909
0.072893233
0.0084757001
0.014945586
0.072590228
0.0083761275
0.01497051
0.07205592
0.0083350259
0.014850855
0.072055231
0.0083241045
0.014965755
0.07149597
0.0089634943
0.016105939
0.066429777
0.012696752
0.018073687
0.04716215
0.023859672
0.031047066
0.039673587
0.010263529
0.01251931
0.013707766
0.0042652569
0.00460429
0.0046729962
0.0020739639
0.0021185653
0.002093973
0.0011397581
0.0011410428
0.0011235065
0.00068913371
0.0006867193
0.00067892581
0.00044804919
0.00044675047
0.00044411392
0.00030729668
0.00030695785
0.00030659271
0.00021879309
0.00021890706
0.00021939319
0.0001594913
0.00015975881
0.00016046832
0.00011762626
0.00011790838
0.00011858688
8.689256e-05
8.7135183e-05
8.7695529e-05
6.3768941e-05
6.3957546e-05
6.4384358e-05
4.6196572e-05
4.6333573e-05
4.6640287e-05
3.2888976e-05
3.2983171e-05
3.3192718e-05
2.2959009e-05
2.3020638e-05
2.3157061e-05
1.5720368e-05
1.5758781e-05
1.5843526e-05
1.0593839e-05
1.0616681e-05
1.0666963e-05
7.0761578e-06
7.089117e-06
7.1176326e-06
4.741267e-06
4.7483452e-06
4.7639188e-06
3.2445306e-06
3.2483229e-06
3.256649e-06
2.3186012e-06
2.3206417e-06
2.3251115e-06
1.7673905e-06
1.7685447e-06
1.7710696e-06
1.4546941e-06
1.4554248e-06
1.4570228e-06
1.2895368e-06
1.2900755e-06
1.2912544e-06
1.2131832e-06
1.2136369e-06
1.2146308e-06
1.1888524e-06
1.1892656e-06
1.1901714e-06
1.1941392e-06
1.1945275e-06
1.195379e-06
1.2157287e-06
1.2160958e-06
1.216901e-06
1.2458676e-06
1.2462134e-06
1.2469717e-06
1.280094e-06
1.2804177e-06
1.2811271e-06
1.3158179e-06
1.316119e-06
1.3167786e-06
1.3514529e-06
1.3517315e-06
1.3523418e-06
1.3858885e-06
1.3861454e-06
1.3867078e-06
1.4181633e-06
1.4183995e-06
1.4189164e-06
1.4472489e-06
1.4474656e-06
1.4479395e-06
1.4718885e-06
1.4720869e-06
1.4725208e-06
1.4904597e-06
1.4906412e-06
1.491038e-06
1.5008458e-06
1.5010116e-06
1.501374e-06
1.5003137e-06
1.5004651e-06
1.5007958e-06
1.4854129e-06
1.4855508e-06
1.485852e-06
1.4519206e-06
1.4520458e-06
1.4523191e-06
1.394885e-06
1.3949978e-06
1.3952442e-06
1.3088269e-06
1.3089273e-06
1.3091466e-06
1.1881959e-06
1.1882832e-06
1.1884743e-06
1.0281442e-06
1.0282174e-06
1.0283782e-06
8.2570324e-07
8.2576091e-07
8.2588914e-07
5.8158349e-07
5.816242e-07
5.817168e-07
3.0163248e-07
3.0165418e-07
3.0170514e-07
0.056146301
0.060822464
0.046059657
0.046574187
0.012465844
0.011345598
0.0043603672
0.0041244366
0.0020021288
0.0019423447
0.0010943803
0.0010793539
0.00067014514
0.00066831813
0.00044238789
0.00044441535
0.00030726693
0.00031011753
0.0002207391
0.00022341882
0.00016183453
0.00016406092
0.00011975112
0.00012148949
8.8607544e-05
8.9908846e-05
6.5060034e-05
6.599954e-05
4.7118163e-05
4.7772385e-05
3.3516083e-05
3.3954418e-05
2.3366325e-05
2.3648099e-05
1.5972959e-05
1.6146398e-05
1.0743484e-05
1.0845666e-05
7.1609373e-06
7.2186278e-06
4.7875334e-06
4.8189123e-06
3.2692423e-06
3.285921e-06
2.3318548e-06
2.3407576e-06
1.7748714e-06
1.7798795e-06
1.4594273e-06
1.4625932e-06
1.2930295e-06
1.2953694e-06
1.2161289e-06
1.2181075e-06
1.1915378e-06
1.1933449e-06
1.1966639e-06
1.1983643e-06
1.2181158e-06
1.2197234e-06
1.2481153e-06
1.249628e-06
1.2821965e-06
1.28361e-06
1.3177723e-06
1.3190848e-06
1.3532606e-06
1.354473e-06
1.387554e-06
1.3886698e-06
1.4196935e-06
1.4207173e-06
1.4486517e-06
1.4495892e-06
1.4731725e-06
1.4740294e-06
1.4916335e-06
1.4924159e-06
1.5019176e-06
1.5026311e-06
1.5012914e-06
1.5019413e-06
1.486303e-06
1.4868939e-06
1.4527282e-06
1.4532636e-06
1.3956128e-06
1.396095e-06
1.309475e-06
1.3099049e-06
1.1887614e-06
1.1891391e-06
1.0286223e-06
1.0289479e-06
8.260882e-07
8.26363e-07
5.8186714e-07
5.8208694e-07
3.0179275e-07
3.0192884e-07
5.8750163e-06
2.7035714e-05
0.00013447213
0.00030507443
0.00046232547
0.00057328295
0.00064355476
0.00068715725
0.00071587016
0.00073682194
0.0007540504
0.00077056479
0.00078604308
0.00080023978
0.00081284313
0.00082330347
0.00083063753
0.00083318014
0.0008282142
0.00081145767
0.00077635663
0.00071321965
0.00060853941
0.00044524693
0.0002029712
2.5988293e-06
5.4793767e-05
0.00025122459
0.00051624056
0.00072823866
0.0008597401
0.00093561877
0.00098007326
0.0010085459
0.001029064
0.0010458733
0.0010615023
0.0010758335
0.0010885959
0.0010993928
0.0011076024
0.0011120927
0.0011109495
0.0011009751
0.0010770443
0.0010311556
0.00095104505
0.00081843982
0.00060780226
0.00028783104
7.9970562e-06
0.00016016693
0.00061663614
0.0010806803
0.001363665
0.001506273
0.0015736013
0.0016050555
0.0016206378
0.0016287929
0.0016339037
0.001636906
0.0016389833
0.0016394926
0.0016379437
0.0016338653
0.0016261972
0.0016131418
0.0015912882
0.0015550366
0.0014953611
0.0013975463
0.0012368895
0.0009704603
0.00052262208
3.768262e-05
0.00058032721
0.0016882431
0.0024396685
0.0027762936
0.0028898316
0.0028988122
0.0028682391
0.0028279487
0.0027828528
0.0027380143
0.0026953254
0.0026552809
0.002614708
0.0025730585
0.0025307467
0.0024872713
0.0024411986
0.0023897815
0.0023282433
0.0022486723
0.002137782
0.0019712413
0.0016960888
0.0011553174
0.0002814802
0.002449279
0.0049202922
0.0060424998
0.0063887966
0.0063268219
0.0060969664
0.0058333856
0.0055831943
0.0053318315
0.0050910602
0.004866307
0.0046624307
0.0044649023
0.0042731457
0.0040918488
0.0039219284
0.003762798
0.003612635
0.0034679374
0.0033230379
0.0031696783
0.002996835
0.0027961467
0.0025859772
0.0023548463
0.010519727
0.016573888
0.018531589
0.018074719
0.016519146
0.014704662
0.013016574
0.011534523
0.010257513
0.0091651316
0.0082348334
0.0074413198
0.0067608456
0.0061757531
0.0056727244
0.0052403857
0.0048684185
0.0045474156
0.004268529
0.004022888
0.0038014982
0.0035957442
0.0034049205
0.0032444726
0.044926625
0.034056617
0.026546433
0.02137826
0.017726604
0.01503168
0.01295407
0.011307342
0.0099831633
0.0089059869
0.0080181129
0.0072757512
0.0066462069
0.0061055118
0.0056361486
0.0052257993
0.0048658522
0.0045497981
0.0042721421
0.004027642
0.0038106927
0.0036152916
0.0034356865
0.0032732147
0.0031430499
0.037245698
0.03096895
0.027774295
0.025149899
0.022278513
0.019302936
0.016584272
0.014285407
0.012403844
0.010862188
0.0095908799
0.0085332178
0.0076458765
0.0068990936
0.0062690809
0.00573635
0.0052845629
0.004899998
0.0045709039
0.004286736
0.0040374027
0.0038130912
0.003604621
0.0034111372
0.0032485003
0.010215504
0.0095460321
0.0092092135
0.0088908974
0.0084292537
0.0078644697
0.0073077103
0.0068106461
0.006359097
0.0059604569
0.0056117767
0.0053069936
0.0050208645
0.0047564811
0.0045152562
0.0042964387
0.0040979119
0.0039167541
0.0037490716
0.0035898051
0.0034322094
0.0032673176
0.0030836426
0.0028726142
0.0026527998
0.0039676615
0.0038956065
0.0038737057
0.0038332097
0.00373881
0.0036037393
0.0034640561
0.0033346396
0.0032180374
0.0031163843
0.0030287042
0.0029518668
0.0028802832
0.002813376
0.0027509605
0.0026921988
0.0026354086
0.0025779795
0.0025161203
0.0024443212
0.0023542627
0.002232527
0.0020547598
0.0017672547
0.0012076396
0.0019248122
0.0019384316
0.001963837
0.001978857
0.0019725383
0.0019484764
0.0019176875
0.0018871612
0.001859955
0.0018373804
0.0018192228
0.0018042255
0.0017907182
0.0017780299
0.0017657952
0.0017527871
0.0017371163
0.0017159803
0.0016853095
0.0016391325
0.0015684016
0.0014587438
0.0012859737
0.0010071974
0.00054509069
0.0010839438
0.0011026006
0.0011264293
0.0011466805
0.0011588295
0.0011636698
0.0011647899
0.0011651835
0.001166581
0.001169729
0.0011745857
0.001180577
0.0011869115
0.0011928998
0.0011977742
0.0012003088
0.0011986702
0.0011902225
0.0011712397
0.0011364433
0.0010782516
0.00098559392
0.00084217723
0.00062461444
0.00030216184
0.00067577654
0.00069024355
0.00070769483
0.00072431615
0.00073798765
0.00074866652
0.00075757776
0.00076602144
0.00077489367
0.00078461828
0.00079519908
0.00080632871
0.00081751307
0.00082814715
0.00083742547
0.00084418516
0.00084679331
0.00084300788
0.00082980288
0.00080314071
0.0007576913
0.0006865433
0.00058102288
0.00043046127
0.00021736261
0.00045113241
0.00046160729
0.00047400193
0.00048653185
0.00049812329
0.00050858593
0.00051832139
0.00052787984
0.0005376978
0.00054799557
0.00055876233
0.00056978989
0.00058071184
0.00059101082
0.00059997072
0.00060660036
0.00060955885
0.00060708102
0.00059690904
0.00057625574
0.00054187348
0.00049043242
0.00041977471
0.00033266527
0.00024507077
0.00031552153
0.00032306839
0.00033190671
0.00034116574
0.00035027374
0.00035905006
0.00036760516
0.00037616406
0.00038492143
0.00039397234
0.00040328079
0.0004126804
0.00042187634
0.00043043605
0.00043776049
0.0004430421
0.00044522602
0.00044298331
0.00043471196
0.00041860431
0.00039286418
0.00035626326
0.00030946251
0.00025796512
0.00021746897
0.00022759235
0.00023306486
0.00023942475
0.00024623241
0.00025317381
0.00026011245
0.00026705722
0.00027408676
0.00028127677
0.00028865088
0.00029615561
0.00030364722
0.0003108829
0.0003175084
0.00032303869
0.00032683629
0.0003280947
0.00032583828
0.0003189526
0.00030627419
0.00028679138
0.00026004783
0.00022692042
0.00019103281
0.00015787261
0.00016721337
0.00017119192
0.00017579021
0.00018077797
0.000185976
0.0001912885
0.00019669207
0.00020220274
0.00020783815
0.00021358669
0.00021938704
0.00022511473
0.00023057139
0.00023547284
0.00023943681
0.00024197188
0.00024247297
0.00024023019
0.00023446021
0.00022437145
0.00020927081
0.00018869331
0.00016242962
0.00012990843
8.5142537e-05
0.00012382655
0.00012670773
0.00013002387
0.00013364988
0.0001374808
0.00014145012
0.0001455279
0.00014970514
0.00015397337
0.00015830608
0.00016264347
0.00016688108
0.00017086008
0.000174358
0.00017708102
0.00017865805
0.00017864066
0.00017651222
0.00017170915
0.00016365414
0.00015178888
0.00013555813
0.00011420265
8.6001204e-05
4.6241088e-05
9.1606427e-05
9.3668753e-05
9.6035347e-05
9.8635158e-05
0.00010140511
0.00010429962
0.00010729073
0.00011036143
0.00011349375
0.00011665758
0.00011980016
0.00012283729
0.00012564577
0.00012805653
0.00012984931
0.00013074946
0.00013042881
0.0001285118
0.00012458697
0.00011822019
0.00010895764
9.6289424e-05
7.9517462e-05
5.7460478e-05
2.8144689e-05
6.7203028e-05
6.8651071e-05
7.0309098e-05
7.2135068e-05
7.4090007e-05
7.6142738e-05
7.8270569e-05
8.0455442e-05
8.2678167e-05
8.4911072e-05
8.7111005e-05
8.9213012e-05
9.1124857e-05
9.2722068e-05
9.3844255e-05
9.4293021e-05
9.3832403e-05
9.219209e-05
8.9073107e-05
8.4153147e-05
7.7086359e-05
6.7490325e-05
5.4919884e-05
3.8879708e-05
1.9032938e-05
4.8600831e-05
4.95911e-05
5.0722636e-05
5.1970153e-05
5.3308889e-05
5.4717558e-05
5.6178782e-05
5.7676988e-05
5.9195199e-05
6.0710684e-05
6.2190335e-05
6.3586361e-05
6.4832399e-05
6.5840093e-05
6.6496434e-05
6.6662196e-05
6.6171807e-05
6.483482e-05
6.2438792e-05
5.8752891e-05
5.35321e-05
4.6525554e-05
3.7505787e-05
2.6381308e-05
1.3540212e-05
3.4505219e-05
3.5160503e-05
3.5907597e-05
3.6731121e-05
3.7615206e-05
3.8545404e-05
3.9508945e-05
4.0493579e-05
4.1485975e-05
4.2468818e-05
4.3418086e-05
4.4300259e-05
4.5069604e-05
4.5665859e-05
4.6012318e-05
4.6014571e-05
4.5560027e-05
4.4518465e-05
4.2743765e-05
4.007745e-05
3.6355998e-05
3.1427639e-05
2.5192936e-05
1.7702152e-05
9.3016845e-06
2.4000212e-05
2.4417504e-05
2.4892094e-05
2.5414451e-05
2.5974469e-05
2.6562485e-05
2.716945e-05
2.7786387e-05
2.8403466e-05
2.9008392e-05
2.958466e-05
3.0109752e-05
3.0553531e-05
3.0876574e-05
3.1028836e-05
3.0948631e-05
3.0562055e-05
2.9783094e-05
2.8514827e-05
2.6652716e-05
2.4092094e-05
2.0744065e-05
1.6567343e-05
1.1628359e-05
6.1545252e-06
1.6362189e-05
1.6617016e-05
1.6905987e-05
1.7223183e-05
1.7562207e-05
1.79167e-05
1.8280532e-05
1.8647451e-05
1.9010619e-05
1.9361723e-05
1.9689958e-05
1.9980895e-05
2.0215439e-05
2.0368793e-05
2.0409527e-05
2.0298771e-05
1.9989669e-05
1.9427313e-05
1.8549597e-05
1.7289857e-05
1.5582881e-05
1.3376598e-05
1.065245e-05
7.4590113e-06
3.9517083e-06
1.0972324e-05
1.1121366e-05
1.1289784e-05
1.1473924e-05
1.1669805e-05
1.1873324e-05
1.2080455e-05
1.2287055e-05
1.2488586e-05
1.2679677e-05
1.2853506e-05
1.3001164e-05
1.311098e-05
1.316787e-05
1.3152681e-05
1.3041639e-05
1.2805882e-05
1.2411328e-05
1.1819249e-05
1.0988187e-05
9.8781674e-06
8.4583113e-06
6.718642e-06
4.6870962e-06
2.4709527e-06
7.2899009e-06
7.3734818e-06
7.4675501e-06
7.5698916e-06
7.6780566e-06
7.7894925e-06
7.9016156e-06
8.0117715e-06
8.1170681e-06
8.2141372e-06
8.2987936e-06
8.3656613e-06
8.4077562e-06
8.4160693e-06
8.3791326e-06
8.2826296e-06
8.1091031e-06
7.8377362e-06
7.4447178e-06
6.9045725e-06
6.1929433e-06
5.2913209e-06
4.1938448e-06
2.9162342e-06
1.5210622e-06
4.857557e-06
4.9026927e-06
4.9532431e-06
5.0078884e-06
5.0651546e-06
5.1234896e-06
5.1812978e-06
5.2369218e-06
5.2885722e-06
5.3341866e-06
5.3712446e-06
5.3965456e-06
5.4059554e-06
5.3941174e-06
5.3541284e-06
5.2771857e-06
5.1525031e-06
4.9673985e-06
4.7072162e-06
4.3562093e-06
3.8994123e-06
3.3255872e-06
2.6313701e-06
1.826632e-06
9.4999683e-07
3.3063865e-06
3.3301709e-06
3.3566446e-06
3.3850312e-06
3.4144565e-06
3.4439887e-06
3.4726606e-06
3.4994584e-06
3.5232759e-06
3.5428474e-06
3.5566363e-06
3.5626989e-06
3.5585254e-06
3.5408479e-06
3.5054166e-06
3.4467609e-06
3.3579491e-06
3.2306764e-06
3.0556574e-06
2.8228829e-06
2.522874e-06
2.1485723e-06
1.6979747e-06
1.1774844e-06
6.1168758e-07
2.351639e-06
2.3642272e-06
2.3781499e-06
2.3929552e-06
2.4081243e-06
2.4230973e-06
2.4372822e-06
2.4500477e-06
2.4606949e-06
2.468411e-06
2.4722024e-06
2.4708046e-06
2.4625714e-06
2.4453464e-06
2.4163199e-06
2.3718827e-06
2.3074107e-06
2.2171195e-06
2.094562e-06
1.9329467e-06
1.7258773e-06
1.4686312e-06
1.1599788e-06
8.0452e-07
4.1874886e-07
1.7859849e-06
1.7930258e-06
1.8007847e-06
1.8089926e-06
1.8173376e-06
1.8254751e-06
1.8330312e-06
1.8395932e-06
1.844692e-06
1.8477647e-06
1.848107e-06
1.8448068e-06
1.8366615e-06
1.8220806e-06
1.7989762e-06
1.7646517e-06
1.7156991e-06
1.6479039e-06
1.5563231e-06
1.43587e-06
1.2817952e-06
1.0906228e-06
8.6151258e-07
5.980131e-07
3.1174698e-07
1.4664528e-06
1.4709072e-06
1.4758238e-06
1.4810375e-06
1.4863513e-06
1.491542e-06
1.496357e-06
1.5005048e-06
1.5036387e-06
1.5053265e-06
1.5050101e-06
1.5019509e-06
1.4951616e-06
1.4833257e-06
1.4647076e-06
1.4370629e-06
1.3975631e-06
1.3427721e-06
1.2686233e-06
1.1708967e-06
1.0456825e-06
8.9014024e-07
7.0357782e-07
4.8881935e-07
2.550913e-07
1.2982297e-06
1.3015457e-06
1.3052309e-06
1.3091758e-06
1.3132472e-06
1.3172869e-06
1.3211079e-06
1.324483e-06
1.3271281e-06
1.3286752e-06
1.3286352e-06
1.3263483e-06
1.3209235e-06
1.3111656e-06
1.2954965e-06
1.2718769e-06
1.2377449e-06
1.1900042e-06
1.1250448e-06
1.0390698e-06
9.2857723e-07
7.9104062e-07
6.2582355e-07
4.3528588e-07
2.2731669e-07
1.220534e-06
1.2233622e-06
1.2265298e-06
1.2299569e-06
1.2335436e-06
1.2371665e-06
1.2406726e-06
1.2438676e-06
1.2464979e-06
1.2482251e-06
1.248589e-06
1.2469611e-06
1.2424862e-06
1.2340135e-06
1.2200222e-06
1.1985489e-06
1.1671337e-06
1.1228123e-06
1.0621691e-06
9.8159291e-07
8.7776105e-07
7.4828919e-07
5.9255104e-07
4.1257918e-07
2.1531142e-07
1.1955665e-06
1.1981656e-06
1.2010927e-06
1.2042832e-06
1.2076546e-06
1.2111015e-06
1.2144886e-06
1.2176376e-06
1.2203092e-06
1.2221768e-06
1.2227901e-06
1.2215284e-06
1.2175432e-06
1.2096898e-06
1.196455e-06
1.1758865e-06
1.1455418e-06
1.1024839e-06
1.0433517e-06
9.6459157e-07
8.6293881e-07
7.360626e-07
5.8333772e-07
4.0664545e-07
2.1333237e-07
1.2004568e-06
1.2029097e-06
1.2056798e-06
1.2087109e-06
1.2119294e-06
1.2152396e-06
1.2185151e-06
1.2215855e-06
1.2242176e-06
1.2260885e-06
1.2267482e-06
1.2255734e-06
1.2217081e-06
1.2139961e-06
1.2009074e-06
1.1804686e-06
1.1502128e-06
1.1071775e-06
1.047985e-06
9.690694e-07
8.6715846e-07
7.3992071e-07
5.8670976e-07
4.0931848e-07
2.1582198e-07
1.2217021e-06
1.2240226e-06
1.2266457e-06
1.2295194e-06
1.2325754e-06
1.2357234e-06
1.2388416e-06
1.2417636e-06
1.2442586e-06
1.246003e-06
1.2465436e-06
1.2452489e-06
1.2412497e-06
1.2333695e-06
1.2200505e-06
1.1992829e-06
1.168555e-06
1.1248524e-06
1.0647448e-06
9.8461748e-07
8.8115399e-07
7.519924e-07
5.9646127e-07
4.1635493e-07
2.2022125e-07
1.2514891e-06
1.253671e-06
1.2561365e-06
1.2588367e-06
1.2617064e-06
1.2646586e-06
1.2675744e-06
1.2702894e-06
1.272573e-06
1.2740997e-06
1.2744107e-06
1.2728644e-06
1.2685753e-06
1.2603434e-06
1.2465777e-06
1.2252252e-06
1.1937196e-06
1.1489824e-06
1.0875131e-06
1.005628e-06
8.9994653e-07
7.680601e-07
6.092694e-07
4.2533817e-07
2.2489854e-07
1.2853478e-06
1.2873834e-06
1.2896813e-06
1.2921945e-06
1.2948603e-06
1.2975939e-06
1.3002784e-06
1.3027503e-06
1.3047784e-06
1.3060343e-06
1.3060529e-06
1.3041814e-06
1.2995171e-06
1.2908345e-06
1.2765078e-06
1.2544376e-06
1.2219995e-06
1.1760452e-06
1.1129963e-06
1.0290903e-06
9.2087275e-07
7.858833e-07
6.2340878e-07
4.3520521e-07
2.2889678e-07
1.3206968e-06
1.3225829e-06
1.324709e-06
1.3270299e-06
1.3294845e-06
1.33199e-06
1.3344307e-06
1.3366436e-06
1.3383966e-06
1.3393576e-06
1.3390547e-06
1.3368238e-06
1.3317442e-06
1.3225649e-06
1.3076245e-06
1.2847768e-06
1.2513383e-06
1.2040894e-06
1.139372e-06
1.0533415e-06
9.4246866e-07
8.0424846e-07
6.3799865e-07
4.4559313e-07
2.3455183e-07
1.3559606e-06
1.3576989e-06
1.359655e-06
1.3617852e-06
1.3640302e-06
1.3663083e-06
1.368505e-06
1.3704574e-06
1.3719318e-06
1.3725926e-06
1.3719607e-06
1.3693602e-06
1.3638529e-06
1.3541621e-06
1.3385914e-06
1.3149485e-06
1.2804917e-06
1.2319318e-06
1.1655322e-06
1.0773689e-06
9.6384074e-07
8.2240452e-07
6.5242773e-07
4.5601457e-07
2.4088052e-07
1.3900373e-06
1.3916329e-06
1.3934251e-06
1.3953713e-06
1.3974137e-06
1.3994719e-06
1.401432e-06
1.4031309e-06
1.4043333e-06
1.4046995e-06
1.4037432e-06
1.4007771e-06
1.3948453e-06
1.3846463e-06
1.3684498e-06
1.3440191e-06
1.3085569e-06
1.2587079e-06
1.1906618e-06
1.1004204e-06
9.8431766e-07
8.3977485e-07
6.6617598e-07
4.6564111e-07
2.4546536e-07
1.4219708e-06
1.4234311e-06
1.4250678e-06
1.4268397e-06
1.42869e-06
1.4305393e-06
1.4322743e-06
1.4337316e-06
1.4346736e-06
1.4347568e-06
1.4334876e-06
1.4301674e-06
1.4238233e-06
1.4131301e-06
1.3963254e-06
1.3711309e-06
1.3346982e-06
1.2836111e-06
1.2139931e-06
1.1217801e-06
1.0032498e-06
8.5579215e-07
6.787964e-07
4.7442815e-07
2.4936346e-07
1.4507356e-06
1.452069e-06
1.4535599e-06
1.4551683e-06
1.4568385e-06
1.4584918e-06
1.4600152e-06
1.4612446e-06
1.4619406e-06
1.4617553e-06
1.4601883e-06
1.4565297e-06
1.4497912e-06
1.4386252e-06
1.4212401e-06
1.3953202e-06
1.3579717e-06
1.3057263e-06
1.2346509e-06
1.1406274e-06
1.0198874e-06
8.6979208e-07
6.8971073e-07
4.8174264e-07
2.5267212e-07
1.4750761e-06
1.4762914e-06
1.4776468e-06
1.479103e-06
1.4806055e-06
1.4820762e-06
1.4834022e-06
1.4844185e-06
1.4848837e-06
1.484446e-06
1.4825982e-06
1.4786204e-06
1.4715098e-06
1.4598994e-06
1.4419721e-06
1.4153809e-06
1.377195e-06
1.3239054e-06
1.2515367e-06
1.1559327e-06
1.0332943e-06
8.8096282e-07
6.9829421e-07
4.8737216e-07
2.5519271e-07
1.4933702e-06
1.4944761e-06
1.4957059e-06
1.4970214e-06
1.4983685e-06
1.4996698e-06
1.5008125e-06
1.5016307e-06
1.5018811e-06
1.5012081e-06
1.4990986e-06
1.494824e-06
1.4873693e-06
1.4753516e-06
1.4569342e-06
1.4297468e-06
1.3908335e-06
1.3366598e-06
1.2632281e-06
1.1663665e-06
1.0422671e-06
8.8826563e-07
7.0371886e-07
4.90816e-07
2.571309e-07
1.5035002e-06
1.5045051e-06
1.505619e-06
1.5068044e-06
1.5080081e-06
1.5091529e-06
1.5101262e-06
1.5107614e-06
1.5108134e-06
1.5099236e-06
1.5075743e-06
1.5030302e-06
1.4952675e-06
1.4828928e-06
1.4640572e-06
1.436379e-06
1.3968924e-06
1.342059e-06
1.2678851e-06
1.1702147e-06
1.0452639e-06
8.9039129e-07
7.0497205e-07
4.9126511e-07
2.5712647e-07
1.5027316e-06
1.5036433e-06
1.5046503e-06
1.5057157e-06
1.506787e-06
1.5077878e-06
1.5086052e-06
1.5090725e-06
1.5089436e-06
1.5078581e-06
1.5052954e-06
1.5005169e-06
1.492495e-06
1.479833e-06
1.460681e-06
1.4326608e-06
1.3928182e-06
1.3376382e-06
1.2631662e-06
1.165303e-06
1.0403327e-06
8.8567574e-07
7.0074991e-07
4.8786388e-07
2.539879e-07
1.4876111e-06
1.4884365e-06
1.4893445e-06
1.490299e-06
1.4912482e-06
1.4921164e-06
1.4927914e-06
1.4931068e-06
1.4928166e-06
1.4915606e-06
1.4888186e-06
1.4838531e-06
1.47564e-06
1.4627897e-06
1.4434662e-06
1.4153152e-06
1.3754218e-06
1.3203304e-06
1.2461696e-06
1.1489488e-06
1.025074e-06
8.7207509e-07
6.89435e-07
4.7949436e-07
2.4928724e-07
1.4539124e-06
1.4546571e-06
1.4554728e-06
1.4563242e-06
1.4571606e-06
1.4579073e-06
1.4584536e-06
1.4586347e-06
1.4582066e-06
1.4568123e-06
1.4539366e-06
1.4488503e-06
1.4405426e-06
1.4276454e-06
1.4083565e-06
1.380373e-06
1.3408548e-06
1.2864501e-06
1.213426e-06
1.1179631e-06
9.966533e-07
8.4719209e-07
6.69154e-07
4.6487111e-07
2.4132628e-07
1.3966787e-06
1.397347e-06
1.398076e-06
1.3988314e-06
1.3995637e-06
1.4002e-06
1.4006324e-06
1.4006997e-06
1.4001632e-06
1.3986735e-06
1.3957272e-06
1.3906133e-06
1.3823482e-06
1.3696047e-06
1.3506406e-06
1.3232391e-06
1.2846797e-06
1.2317706e-06
1.1609831e-06
1.0687399e-06
9.5189085e-07
8.0835929e-07
6.3784483e-07
4.4263454e-07
2.2951441e-07
1.3104256e-06
1.3110214e-06
1.3116694e-06
1.3123361e-06
1.3129734e-06
1.3135115e-06
1.3138474e-06
1.3138266e-06
1.3132201e-06
1.3116931e-06
1.3087637e-06
1.3037528e-06
1.2957226e-06
1.2834116e-06
1.2651713e-06
1.2389149e-06
1.2020968e-06
1.1517518e-06
1.0846304e-06
9.9747546e-07
8.8747063e-07
7.5282859e-07
5.934059e-07
4.1143125e-07
2.1349008e-07
1.1895991e-06
1.1901273e-06
1.190702e-06
1.1912898e-06
1.1918431e-06
1.1922966e-06
1.1925568e-06
1.1924798e-06
1.1918528e-06
1.1903654e-06
1.1875717e-06
1.1828417e-06
1.1753077e-06
1.163805e-06
1.1468201e-06
1.1224488e-06
1.0883857e-06
1.0419686e-06
9.8030919e-07
9.0055256e-07
8.0028737e-07
6.7806768e-07
5.3392866e-07
3.6996888e-07
1.9203851e-07
1.029351e-06
1.0298195e-06
1.0303324e-06
1.0308536e-06
1.0313326e-06
1.0317103e-06
1.0319173e-06
1.0318211e-06
1.0312332e-06
1.0298827e-06
1.0273787e-06
1.023161e-06
1.0164618e-06
1.0062499e-06
9.911955e-07
9.6963713e-07
9.3958188e-07
8.9875473e-07
8.4471656e-07
7.7509348e-07
6.8793275e-07
5.8215773e-07
4.5797563e-07
3.1730865e-07
1.6502985e-07
8.2671426e-07
8.2713019e-07
8.2758939e-07
8.2804751e-07
8.2844099e-07
8.2872404e-07
8.288952e-07
8.2881787e-07
8.2833351e-07
8.2723457e-07
8.2521298e-07
8.2178468e-07
8.1632076e-07
8.0797025e-07
7.9564182e-07
7.7798011e-07
7.5337875e-07
7.2003205e-07
6.7605457e-07
6.1963224e-07
5.4927681e-07
4.6427743e-07
3.6497465e-07
2.5304656e-07
1.3227388e-07
5.8237999e-07
5.8273053e-07
5.8311505e-07
5.8347523e-07
5.8372161e-07
5.8383622e-07
5.8397372e-07
5.8394696e-07
5.8362664e-07
5.8290359e-07
5.8158608e-07
5.792298e-07
5.753965e-07
5.6948094e-07
5.6069402e-07
5.4804895e-07
5.3038565e-07
5.064119e-07
4.7498542e-07
4.349473e-07
3.8516185e-07
3.2524271e-07
2.5559627e-07
1.7756366e-07
9.3613531e-08
3.0211592e-07
3.0233705e-07
3.0257092e-07
3.0275895e-07
3.0280469e-07
3.0272361e-07
3.0281119e-07
3.0283628e-07
3.0270847e-07
3.0242928e-07
3.0193689e-07
3.0082243e-07
2.9888481e-07
2.9583448e-07
2.9125348e-07
2.8457778e-07
2.7515003e-07
2.6218908e-07
2.4555551e-07
2.2478676e-07
1.9894804e-07
1.6789603e-07
1.3198206e-07
9.2187315e-08
5.0388581e-08
)
;

boundaryField
{
    Walls
    {
        type            kqRWallFunction;
        value           nonuniform List<scalar> 
38
(
5.8750163e-06
2.5988293e-06
7.9970562e-06
3.768262e-05
0.0002814802
0.0023548463
0.056146301
0.060822464
0.018297252
0.027162266
0.034362499
0.041548328
0.047777929
0.052328852
0.056254178
0.059273171
0.061793997
0.064310115
0.066613806
0.067877149
0.068966489
0.069751555
0.070142007
0.070877716
0.071605951
0.071919743
0.072193852
0.072335773
0.072873072
0.073259157
0.073337575
0.07304626
0.072893233
0.072590228
0.07205592
0.072055231
0.07149597
0.066429777
)
;
    }
    Inlet
    {
        type            turbulentIntensityKineticEnergyInlet;
        intensity       0.05;
        value           nonuniform List<scalar> 3(0.0080187951 0.008493037 0.0096284944);
    }
    Outlet
    {
        type            inletOutlet;
        inletValue      uniform 0;
        value           nonuniform List<scalar> 
86
(
0
0
0
0
0
0
0
0
0
0
0
0
0
0
0
0
0
0
0
0
0
0
0
0
0
0
0
0
0
0
0.0031430499
0.0032485003
0.0026527998
0
0
0
0
0.00024507077
0.00021746897
0.00015787261
0
0
0
0
1.3540212e-05
9.3016845e-06
6.1545252e-06
3.9517083e-06
2.4709527e-06
1.5210622e-06
9.4999683e-07
6.1168758e-07
4.1874886e-07
3.1174698e-07
2.550913e-07
2.2731669e-07
2.1531142e-07
2.1333237e-07
2.1582198e-07
2.2022125e-07
2.2489854e-07
0
0
0
0
0
0
0
0
0
0
0
0
0
0
0
0
0
0
0
0
0
0
0
0.0025859772
0.0032444726
)
;
    }
    Front
    {
        type            wedge;
    }
    Back
    {
        type            wedge;
    }
    defaultFaces
    {
        type            empty;
    }
}


// ************************************************************************* //
