/*--------------------------------*- C++ -*----------------------------------*\
| =========                 |                                                 |
| \\      /  F ield         | OpenFOAM: The Open Source CFD Toolbox           |
|  \\    /   O peration     | Version:  4.0                                   |
|   \\  /    A nd           | Web:      www.OpenFOAM.org                      |
|    \\/     M anipulation  |                                                 |
\*---------------------------------------------------------------------------*/
FoamFile
{
    version     2.0;
    format      ascii;
    class       volScalarField;
    location    "0.51";
    object      nut;
}
// * * * * * * * * * * * * * * * * * * * * * * * * * * * * * * * * * * * * * //

dimensions      [0 2 -1 0 0 0 0];

internalField   nonuniform List<scalar> 
1740
(
4.0780689e-05
1.4045702e-05
1.2264438e-06
2.2356807e-05
7.3392082e-06
1.8075228e-06
1.6011472e-05
5.7925395e-06
2.273336e-06
1.1687586e-05
4.9799534e-06
2.7332341e-06
1.7207122e-05
4.4197235e-06
3.1278135e-06
1.5931253e-05
4.0565511e-06
3.4133757e-06
1.345325e-05
3.8366771e-06
3.6581495e-06
1.1874106e-05
3.6987761e-06
3.8460768e-06
1.0561785e-05
3.6024452e-06
4.0014474e-06
9.3119794e-06
3.5413562e-06
4.1561105e-06
8.4206966e-06
3.5297764e-06
4.2979917e-06
7.8036157e-06
3.5426876e-06
4.3755575e-06
7.2542038e-06
3.5140156e-06
4.4421261e-06
6.8372468e-06
3.5122352e-06
4.4892663e-06
6.4964068e-06
3.5192468e-06
4.5134039e-06
6.1922e-06
3.4995876e-06
4.5577834e-06
5.8827684e-06
3.4840297e-06
4.6019377e-06
5.6005124e-06
3.4870835e-06
4.6210839e-06
5.3504059e-06
3.4960302e-06
4.6373946e-06
5.157651e-06
3.5125178e-06
4.6470367e-06
4.9880442e-06
3.5108998e-06
4.6797924e-06
4.8264797e-06
3.5246459e-06
4.7023505e-06
4.6837172e-06
3.5364004e-06
4.7075135e-06
4.5761282e-06
3.5369237e-06
4.6897747e-06
4.4749789e-06
3.554504e-06
4.6803099e-06
4.3859489e-06
3.5647904e-06
4.6622079e-06
4.3018304e-06
3.5620181e-06
4.6297479e-06
4.2138898e-06
3.5507923e-06
4.6292641e-06
4.1661119e-06
3.5649073e-06
4.5954126e-06
2.5671421e-06
3.4905948e-06
4.2865798e-06
1.8265315e-06
2.1935591e-06
4.3997331e-06
7.1753316e-06
7.3427185e-06
6.702743e-06
6.5323019e-06
6.7367367e-06
6.3690602e-06
5.177126e-06
5.1190512e-06
4.8755258e-06
4.3363165e-06
4.2657112e-06
4.1313897e-06
3.7935474e-06
3.7511386e-06
3.6918049e-06
3.4266399e-06
3.4094485e-06
3.3948958e-06
3.1592684e-06
3.1576063e-06
3.16711e-06
2.9404186e-06
2.9467401e-06
2.9674875e-06
2.7345303e-06
2.7441213e-06
2.7686169e-06
2.5171627e-06
2.5273789e-06
2.5514894e-06
2.273791e-06
2.2832634e-06
2.3048729e-06
1.9997779e-06
2.0078782e-06
2.0260563e-06
1.7004269e-06
1.7069454e-06
1.7214508e-06
1.3899424e-06
1.3949061e-06
1.4059053e-06
1.0882549e-06
1.0918303e-06
1.0997356e-06
8.1567392e-07
8.1810534e-07
8.2347212e-07
5.8714586e-07
5.8870373e-07
5.9214004e-07
4.0885399e-07
4.0979449e-07
4.1187164e-07
2.7857987e-07
2.7911592e-07
2.8030564e-07
1.8889457e-07
1.8919217e-07
1.8985161e-07
1.3038371e-07
1.3054666e-07
1.3090567e-07
9.3816057e-08
9.3905436e-08
9.4101863e-08
7.1933882e-08
7.1985387e-08
7.209859e-08
5.9525529e-08
5.9558542e-08
5.9631343e-08
5.3039668e-08
5.3063955e-08
5.3117912e-08
5.0152463e-08
5.0172574e-08
5.0217735e-08
4.9392065e-08
4.9409968e-08
4.9450611e-08
4.9850578e-08
4.986708e-08
4.990484e-08
5.0980465e-08
5.0995889e-08
5.1031301e-08
5.245857e-08
5.247304e-08
5.2506235e-08
5.4098385e-08
5.4111942e-08
5.4142939e-08
5.5794556e-08
5.5807216e-08
5.583603e-08
5.748841e-08
5.750019e-08
5.752687e-08
5.9147079e-08
5.9158004e-08
5.9182634e-08
6.0751285e-08
6.0761392e-08
6.0784083e-08
6.2288542e-08
6.2297875e-08
6.2318758e-08
6.37496e-08
6.3758214e-08
6.3777428e-08
6.512679e-08
6.5134742e-08
6.5152435e-08
6.6413395e-08
6.6420745e-08
6.6437067e-08
6.7603564e-08
6.7610375e-08
6.7625476e-08
6.869247e-08
6.8698808e-08
6.871284e-08
6.9676585e-08
6.9682521e-08
6.9695639e-08
7.0553844e-08
7.0559475e-08
7.0571849e-08
7.1304491e-08
7.1309843e-08
7.1321574e-08
7.1918398e-08
7.1923509e-08
7.19347e-08
7.2381301e-08
7.2386214e-08
7.2396967e-08
7.2666856e-08
7.2671609e-08
7.2682017e-08
7.2720523e-08
7.2725149e-08
7.2735282e-08
7.23788e-08
7.2383308e-08
7.2393188e-08
4.1653736e-06
4.4939932e-06
6.7046011e-06
8.4251401e-06
5.9887774e-06
6.0344425e-06
4.7280751e-06
4.831729e-06
4.0840602e-06
4.1927894e-06
3.6949754e-06
3.7968608e-06
3.4244042e-06
3.5179421e-06
3.2088551e-06
3.2936929e-06
3.0129342e-06
3.0887559e-06
2.8127326e-06
2.8792457e-06
2.5914513e-06
2.6485133e-06
2.3392762e-06
2.3869677e-06
2.0544041e-06
2.0930702e-06
1.7438266e-06
1.7740777e-06
1.4227732e-06
1.4454667e-06
1.1118207e-06
1.1280343e-06
8.3166363e-07
8.4263517e-07
5.9738112e-07
6.0439381e-07
4.1503968e-07
4.1927765e-07
2.8212332e-07
2.8455603e-07
1.9085716e-07
1.922002e-07
1.3145112e-07
1.3217746e-07
9.4399719e-08
9.479567e-08
7.2270284e-08
7.2498612e-08
5.9742098e-08
5.9889868e-08
5.3200506e-08
5.3311324e-08
5.0287402e-08
5.0381447e-08
4.9513753e-08
4.9599398e-08
4.9963773e-08
5.0043922e-08
5.1086657e-08
5.1161977e-08
5.2558073e-08
5.262852e-08
5.419121e-08
5.4256658e-08
5.588074e-08
5.5941189e-08
5.7568111e-08
5.7623706e-08
5.9220568e-08
5.9271563e-08
6.0818918e-08
6.0865629e-08
6.2350726e-08
6.23935e-08
6.3806773e-08
6.3845964e-08
6.5179403e-08
6.5215363e-08
6.6461904e-08
6.6494978e-08
6.7648425e-08
6.7678948e-08
6.8734136e-08
6.876243e-08
6.9715515e-08
6.9741887e-08
7.0590534e-08
7.0615276e-08
7.1339253e-08
7.1362631e-08
7.1951551e-08
7.1973818e-08
7.2413155e-08
7.2434546e-08
7.269769e-08
7.2718414e-08
7.275056e-08
7.2770793e-08
7.2408112e-08
7.2427926e-08
4.8722177e-10
1.3229553e-08
1.9305905e-07
8.2664632e-07
1.6439256e-06
2.2305336e-06
2.5753718e-06
2.7836398e-06
2.9276674e-06
3.0430414e-06
3.1468617e-06
3.2529346e-06
3.3583278e-06
3.4618917e-06
3.5628239e-06
3.6597689e-06
3.7502725e-06
3.8302001e-06
3.8928574e-06
3.9276628e-06
3.9180025e-06
3.8376335e-06
3.6440698e-06
3.2606873e-06
2.4518824e-06
2.1552502e-10
2.6891191e-08
3.6004645e-07
1.3778731e-06
2.5713615e-06
3.3796887e-06
3.8525862e-06
4.1591054e-06
4.3936913e-06
4.599059e-06
4.7957256e-06
4.9960578e-06
5.198016e-06
5.4005303e-06
5.6019206e-06
5.7994484e-06
5.9883617e-06
6.1608852e-06
6.3043175e-06
6.3983595e-06
6.4106731e-06
6.2889018e-06
5.9452976e-06
5.2190941e-06
3.6817357e-06
6.6320594e-10
7.8878591e-08
8.5805619e-07
2.5087957e-06
3.7940914e-06
4.5303333e-06
4.9937293e-06
5.3392403e-06
5.6394181e-06
5.9266093e-06
6.2161043e-06
6.5146242e-06
6.8207385e-06
7.1332841e-06
7.4508325e-06
7.7703113e-06
8.0854806e-06
8.3863654e-06
8.6553095e-06
8.8635768e-06
8.9645051e-06
8.880464e-06
8.476021e-06
7.4928027e-06
5.2877424e-06
3.124977e-09
2.8561686e-07
2.0646192e-06
4.0056774e-06
5.0459556e-06
5.6332875e-06
6.0397114e-06
6.3819701e-06
6.7102762e-06
7.0431762e-06
7.3914839e-06
7.7583189e-06
8.1401269e-06
8.5356341e-06
8.9447061e-06
9.3659853e-06
9.7944815e-06
1.0220648e-05
1.0627805e-05
1.0988019e-05
1.1255025e-05
1.1350331e-05
1.1130214e-05
1.0285692e-05
7.8879205e-06
2.3337021e-08
1.138584e-06
3.9915135e-06
5.6012628e-06
6.4532122e-06
6.9741277e-06
7.3573335e-06
7.7031392e-06
8.0522465e-06
8.4064608e-06
8.7792515e-06
9.17749e-06
9.5908943e-06
1.0014872e-05
1.0452124e-05
1.0907331e-05
1.1379817e-05
1.1864971e-05
1.2352842e-05
1.282515e-05
1.325072e-05
1.3579304e-05
1.3734216e-05
1.3619696e-05
1.3207538e-05
1.9482156e-07
2.7513161e-06
5.8996272e-06
7.7077252e-06
8.625122e-06
9.043921e-06
9.2411857e-06
9.378425e-06
9.5170123e-06
9.6753533e-06
9.861572e-06
1.0082023e-05
1.033729e-05
1.0627571e-05
1.0954086e-05
1.1317895e-05
1.1719202e-05
1.2156093e-05
1.2623562e-05
1.3111753e-05
1.3602919e-05
1.4068132e-05
1.4464195e-05
1.4742449e-05
1.4845521e-05
4.3351257e-06
4.3086201e-06
4.3527861e-06
4.4644296e-06
4.6424943e-06
4.875924e-06
5.1535738e-06
5.4717658e-06
5.8319843e-06
6.2356716e-06
6.6821434e-06
7.1683319e-06
7.6886277e-06
8.2360653e-06
8.8039856e-06
9.387628e-06
9.9844973e-06
1.059323e-05
1.1211947e-05
1.1836086e-05
1.2455364e-05
1.3050665e-05
1.359128e-05
1.4040449e-05
1.4330602e-05
9.1101951e-06
9.3659363e-06
9.7687311e-06
1.0191556e-05
1.037047e-05
1.033558e-05
1.0219293e-05
1.0122572e-05
1.0085476e-05
1.0109993e-05
1.0192052e-05
1.0327051e-05
1.0513075e-05
1.0749873e-05
1.1037322e-05
1.1374884e-05
1.1760673e-05
1.2190811e-05
1.2658294e-05
1.3150898e-05
1.3648061e-05
1.4117736e-05
1.4513613e-05
1.4785646e-05
1.487995e-05
6.4092557e-06
6.8202843e-06
7.2533393e-06
7.6547614e-06
7.957418e-06
8.174817e-06
8.3671547e-06
8.574208e-06
8.804473e-06
9.072607e-06
9.3753747e-06
9.7036587e-06
1.0052621e-05
1.042853e-05
1.0835277e-05
1.127349e-05
1.174025e-05
1.2228328e-05
1.2724242e-05
1.3205249e-05
1.3634805e-05
1.3956688e-05
1.4088516e-05
1.393158e-05
1.3464744e-05
5.145228e-06
5.5026462e-06
5.8537817e-06
6.1709668e-06
6.4374047e-06
6.6658159e-06
6.8865172e-06
7.119972e-06
7.3772762e-06
7.6650319e-06
7.981217e-06
8.3231161e-06
8.6905829e-06
9.0847458e-06
9.5051888e-06
9.9482721e-06
1.0405892e-05
1.0863796e-05
1.1298978e-05
1.1675536e-05
1.1937743e-05
1.1996839e-05
1.1699254e-05
1.0725766e-05
8.1219288e-06
4.4360805e-06
4.726529e-06
5.0177735e-06
5.289353e-06
5.5355064e-06
5.7644043e-06
5.9905342e-06
6.2266705e-06
6.4813526e-06
6.7587269e-06
7.058492e-06
7.3794379e-06
7.7212441e-06
8.0829051e-06
8.4615943e-06
8.8504032e-06
9.2372728e-06
9.6031007e-06
9.9190175e-06
1.0142278e-05
1.02097e-05
1.0026128e-05
9.4410045e-06
8.1889008e-06
5.6342658e-06
3.9858732e-06
4.2162712e-06
4.4552427e-06
4.6871146e-06
4.9081989e-06
5.1232387e-06
5.3403407e-06
5.5672474e-06
5.809651e-06
6.0704021e-06
6.3497434e-06
6.6468181e-06
6.9604015e-06
7.2878297e-06
7.6238154e-06
7.9593494e-06
8.2803165e-06
8.5658708e-06
8.7863341e-06
8.9003366e-06
8.8507262e-06
8.558036e-06
7.9075492e-06
6.7116843e-06
4.4874826e-06
3.669263e-06
3.8541297e-06
4.0514343e-06
4.2496319e-06
4.4454003e-06
4.6409122e-06
4.8407671e-06
5.049769e-06
5.2716366e-06
5.5083523e-06
5.7601746e-06
6.0262076e-06
6.3045567e-06
6.5916263e-06
6.8811773e-06
7.163433e-06
7.4241164e-06
7.6433212e-06
7.7942665e-06
7.8419364e-06
7.7415594e-06
7.4364678e-06
6.8525712e-06
5.8720516e-06
4.124105e-06
3.4182433e-06
3.5693729e-06
3.7339976e-06
3.9039109e-06
4.0760873e-06
4.2511977e-06
4.4317335e-06
4.6205664e-06
4.8200107e-06
5.0312855e-06
5.2543735e-06
5.4881227e-06
5.7301575e-06
5.9763763e-06
6.2202863e-06
6.4523512e-06
6.6593409e-06
6.8237296e-06
6.9232544e-06
6.9308435e-06
6.8153164e-06
6.5437786e-06
6.08861e-06
5.4511683e-06
4.7401031e-06
3.1930186e-06
3.3183705e-06
3.4567706e-06
3.6025159e-06
3.7529948e-06
3.9080412e-06
4.0688543e-06
4.2370463e-06
4.4139304e-06
4.6000875e-06
4.7951493e-06
4.9977046e-06
5.2051093e-06
5.4131163e-06
5.6154255e-06
5.8032464e-06
5.9649428e-06
6.0858397e-06
6.148347e-06
6.1326767e-06
6.018711e-06
5.7903436e-06
5.4459992e-06
5.0260158e-06
4.6750363e-06
2.9669504e-06
3.0715652e-06
3.1880725e-06
3.3125289e-06
3.442774e-06
3.5782286e-06
3.7193054e-06
3.8667795e-06
4.0212731e-06
4.1828841e-06
4.3509579e-06
4.5239174e-06
4.6990607e-06
4.8722889e-06
5.0378088e-06
5.1878797e-06
5.3126675e-06
5.4003013e-06
5.4372576e-06
5.4092876e-06
5.3032689e-06
5.110765e-06
4.8352951e-06
4.5082259e-06
4.1861713e-06
2.7218401e-06
2.8088245e-06
2.9062658e-06
3.0114129e-06
3.1225122e-06
3.2388179e-06
3.3602777e-06
3.4871338e-06
3.6195474e-06
3.7572959e-06
3.8995543e-06
4.0447142e-06
4.1902091e-06
4.3323147e-06
4.4659638e-06
4.584618e-06
4.6802493e-06
4.7434918e-06
4.7640403e-06
4.7313645e-06
4.6357444e-06
4.4693382e-06
4.2257751e-06
3.8911044e-06
3.3603174e-06
2.4473318e-06
2.5187172e-06
2.5990255e-06
2.6863154e-06
2.7791867e-06
2.8768611e-06
2.9790368e-06
3.0856366e-06
3.1965386e-06
3.3113426e-06
3.4291762e-06
3.5485354e-06
3.6671389e-06
3.7817912e-06
3.8882778e-06
3.9813071e-06
4.0545465e-06
4.1007764e-06
4.1121735e-06
4.080671e-06
3.9981497e-06
3.8556186e-06
3.6385502e-06
3.3075839e-06
2.698262e-06
2.141597e-06
2.1989104e-06
2.263607e-06
2.3343024e-06
2.4098982e-06
2.4896688e-06
2.5732003e-06
2.6602485e-06
2.7505445e-06
2.8436232e-06
2.9386655e-06
3.0343703e-06
3.128843e-06
3.2195049e-06
3.3030338e-06
3.3753485e-06
3.431654e-06
3.4665513e-06
3.4741784e-06
3.4482766e-06
3.3818811e-06
3.2658382e-06
3.0838828e-06
2.7962478e-06
2.2585696e-06
1.8118723e-06
1.8565001e-06
1.9070201e-06
1.9624427e-06
2.0219251e-06
2.0848394e-06
2.1507589e-06
2.2193684e-06
2.2903515e-06
2.3632593e-06
2.4373945e-06
2.5117127e-06
2.5847475e-06
2.654551e-06
2.7186654e-06
2.7741229e-06
2.8174817e-06
2.8448787e-06
2.8520591e-06
2.8342677e-06
2.7857635e-06
2.6984274e-06
2.5581537e-06
2.334794e-06
1.9353727e-06
1.4737535e-06
1.5071642e-06
1.545069e-06
1.5867754e-06
1.6316508e-06
1.6791847e-06
1.7289909e-06
1.7807575e-06
1.8341787e-06
1.8888703e-06
1.9442871e-06
1.9996556e-06
2.0539243e-06
2.1057296e-06
2.1533839e-06
2.1948806e-06
2.227913e-06
2.249886e-06
2.2578763e-06
2.2484555e-06
2.2172217e-06
2.1577613e-06
2.0594353e-06
1.9022469e-06
1.6370321e-06
1.1482192e-06
1.1720703e-06
1.1991686e-06
1.2290435e-06
1.2612366e-06
1.2953547e-06
1.3310783e-06
1.3681352e-06
1.4062687e-06
1.4451773e-06
1.4844675e-06
1.523612e-06
1.5619182e-06
1.598512e-06
1.6323324e-06
1.6621371e-06
1.6865073e-06
1.7038366e-06
1.7122672e-06
1.7095189e-06
1.6925263e-06
1.6567633e-06
1.5950223e-06
1.494924e-06
1.3281997e-06
8.5628328e-07
8.7241351e-07
8.9075315e-07
9.1098863e-07
9.328022e-07
9.5590665e-07
9.8005539e-07
1.0050334e-06
1.030641e-06
1.056662e-06
1.0828347e-06
1.1088271e-06
1.1342251e-06
1.1585211e-06
1.1811135e-06
1.2013073e-06
1.2183121e-06
1.2312238e-06
1.2389704e-06
1.2401857e-06
1.2329732e-06
1.2145152e-06
1.1804432e-06
1.1235756e-06
1.027243e-06
6.1311184e-07
6.2341372e-07
6.3512657e-07
6.4804683e-07
6.6196209e-07
6.7667187e-07
6.9199912e-07
7.0778575e-07
7.2388761e-07
7.4015947e-07
7.5644042e-07
7.7254091e-07
7.8823682e-07
8.0326615e-07
8.1732659e-07
8.3007124e-07
8.4110155e-07
8.4995367e-07
8.5606702e-07
8.5871249e-07
8.5686096e-07
8.4897973e-07
8.3271934e-07
8.0424307e-07
7.5450895e-07
4.245434e-07
4.3076325e-07
4.3783028e-07
4.4561597e-07
4.5398364e-07
4.6279901e-07
4.7194142e-07
4.8130255e-07
4.9078481e-07
5.0029679e-07
5.0974596e-07
5.1903451e-07
5.2805684e-07
5.3669814e-07
5.4482933e-07
5.5229786e-07
5.5891797e-07
5.6446286e-07
5.6865786e-07
5.711526e-07
5.71455e-07
5.6882878e-07
5.6213347e-07
5.4945097e-07
5.2631252e-07
2.8757702e-07
2.9114342e-07
2.9519087e-07
2.9964082e-07
3.0440802e-07
3.0940758e-07
3.1456061e-07
3.1979689e-07
3.2505448e-07
3.3027886e-07
3.354208e-07
3.4043583e-07
3.4528406e-07
3.4992938e-07
3.5433273e-07
3.5843734e-07
3.6215768e-07
3.6537349e-07
3.6794498e-07
3.6971519e-07
3.7047341e-07
3.6989788e-07
3.6746585e-07
3.6222906e-07
3.5181582e-07
1.9386425e-07
1.9582289e-07
1.9803809e-07
2.0046312e-07
2.0304696e-07
2.0573856e-07
2.0849008e-07
2.11259e-07
2.1400934e-07
2.1671172e-07
2.193436e-07
2.2189027e-07
2.2434633e-07
2.2671482e-07
2.289995e-07
2.3118626e-07
2.3321998e-07
2.3501598e-07
2.3648787e-07
2.3756937e-07
2.3818127e-07
2.381925e-07
2.3736916e-07
2.3524962e-07
2.3063964e-07
1.3307491e-07
1.3412736e-07
1.3531262e-07
1.366033e-07
1.3796934e-07
1.3938037e-07
1.4080792e-07
1.4222673e-07
1.4361562e-07
1.4495834e-07
1.4624399e-07
1.4746788e-07
1.4863304e-07
1.4975217e-07
1.5085176e-07
1.5197509e-07
1.5311476e-07
1.5415185e-07
1.5499593e-07
1.5562449e-07
1.5601698e-07
1.5612402e-07
1.5584128e-07
1.549482e-07
1.5287054e-07
9.528396e-08
9.5855416e-08
9.6497131e-08
9.7193446e-08
9.7926867e-08
9.8679639e-08
9.9435006e-08
1.0017816e-07
1.0089687e-07
1.0158209e-07
1.022284e-07
1.0283462e-07
1.0340452e-07
1.039482e-07
1.0448436e-07
1.0504426e-07
1.0566835e-07
1.0631905e-07
1.0684714e-07
1.0723816e-07
1.0749318e-07
1.075948e-07
1.0749279e-07
1.0706897e-07
1.0600333e-07
7.2780358e-08
7.3110344e-08
7.3481328e-08
7.3884335e-08
7.430927e-08
7.4745767e-08
7.5183971e-08
7.561508e-08
7.6031926e-08
7.6429225e-08
7.6803964e-08
7.7155723e-08
7.7487135e-08
7.7804693e-08
7.8120126e-08
7.8452668e-08
7.8831232e-08
7.9286006e-08
7.9672076e-08
7.996246e-08
8.016158e-08
8.0262672e-08
8.0238466e-08
8.0022986e-08
7.9431906e-08
6.0072944e-08
6.0288473e-08
6.0532373e-08
6.0799485e-08
6.1083868e-08
6.1379333e-08
6.1679879e-08
6.1980033e-08
6.2275211e-08
6.2561914e-08
6.2837935e-08
6.3102583e-08
6.3357042e-08
6.3604941e-08
6.3853399e-08
6.4114907e-08
6.441066e-08
6.4771579e-08
6.5104144e-08
6.5363946e-08
6.555307e-08
6.5667473e-08
6.5688975e-08
6.5575264e-08
6.5210258e-08
5.3449515e-08
5.361355e-08
5.3801057e-08
5.4008944e-08
5.4233537e-08
5.4470882e-08
5.471702e-08
5.4968189e-08
5.5221041e-08
5.547279e-08
5.5721369e-08
5.5965613e-08
5.6205556e-08
5.6442899e-08
5.6681823e-08
5.6930468e-08
5.7203842e-08
5.7528544e-08
5.7846337e-08
5.8103178e-08
5.8299113e-08
5.8430488e-08
5.848245e-08
5.842078e-08
5.8152812e-08
5.0499483e-08
5.0640709e-08
5.0803658e-08
5.0986283e-08
5.1186076e-08
5.1400218e-08
5.162576e-08
5.185976e-08
5.209943e-08
5.234226e-08
5.2586158e-08
5.2829625e-08
5.3072017e-08
5.3313915e-08
5.3557757e-08
5.3808991e-08
5.4078588e-08
5.4387974e-08
5.4701524e-08
5.4960955e-08
5.5164878e-08
5.5309254e-08
5.5380271e-08
5.5346235e-08
5.5119956e-08
4.9707388e-08
4.9837301e-08
4.9988111e-08
5.0158278e-08
5.034584e-08
5.0548527e-08
5.0763876e-08
5.0989351e-08
5.1222451e-08
5.1460837e-08
5.1702461e-08
5.1945732e-08
5.2189725e-08
5.2434483e-08
5.2681477e-08
5.2934512e-08
5.3201822e-08
5.3500726e-08
5.3808847e-08
5.4067887e-08
5.4275283e-08
5.4426129e-08
5.4506402e-08
5.4484603e-08
5.4275432e-08
5.0145214e-08
5.0267394e-08
5.0409631e-08
5.0570614e-08
5.0748641e-08
5.0941713e-08
5.1147639e-08
5.1364134e-08
5.1588934e-08
5.1819904e-08
5.2055162e-08
5.2293226e-08
5.2533169e-08
5.2774849e-08
5.301924e-08
5.3269122e-08
5.3530784e-08
5.3818133e-08
5.4117121e-08
5.4371259e-08
5.4577078e-08
5.4728499e-08
5.481054e-08
5.4790737e-08
5.4584085e-08
5.1257192e-08
5.1372089e-08
5.1505912e-08
5.1657459e-08
5.1825177e-08
5.2007248e-08
5.2201689e-08
5.2406448e-08
5.2619511e-08
5.2839012e-08
5.3063334e-08
5.3291226e-08
5.3521919e-08
5.375528e-08
5.3992051e-08
5.4234367e-08
5.4487174e-08
5.4761889e-08
5.5047938e-08
5.5293547e-08
5.5494036e-08
5.5641881e-08
5.5720723e-08
5.5696533e-08
5.5482225e-08
5.2717464e-08
5.2824673e-08
5.2949417e-08
5.3090568e-08
5.3246693e-08
5.3416142e-08
5.3597136e-08
5.3787874e-08
5.3986625e-08
5.4191826e-08
5.4402175e-08
5.4616712e-08
5.4834897e-08
5.5056702e-08
5.528277e-08
5.551481e-08
5.5756762e-08
5.6017995e-08
5.6289375e-08
5.6524515e-08
5.671753e-08
5.6859389e-08
5.6932214e-08
5.6900065e-08
5.6671371e-08
5.4339115e-08
5.4438301e-08
5.4553502e-08
5.4683662e-08
5.4827471e-08
5.4983448e-08
5.5150035e-08
5.5325688e-08
5.550897e-08
5.5698637e-08
5.5893711e-08
5.6093533e-08
5.6297812e-08
5.6506662e-08
5.6720697e-08
5.6941313e-08
5.7171646e-08
5.7419305e-08
5.7675788e-08
5.7899875e-08
5.8084526e-08
5.82193e-08
5.8284882e-08
5.8243608e-08
5.7999131e-08
5.6017152e-08
5.6108303e-08
5.6213947e-08
5.6333104e-08
5.6464591e-08
5.6607104e-08
5.6759302e-08
5.6919897e-08
5.7087739e-08
5.7261889e-08
5.7441677e-08
5.7626738e-08
5.7817019e-08
5.8012787e-08
5.8214654e-08
5.8423772e-08
5.8642605e-08
5.8877234e-08
5.9119522e-08
5.9332758e-08
5.9508924e-08
5.9636302e-08
5.9694285e-08
5.9643744e-08
5.938507e-08
5.7693385e-08
5.7776785e-08
5.7873238e-08
5.7981843e-08
5.8101546e-08
5.8231213e-08
5.836971e-08
5.8515991e-08
5.866917e-08
5.8828588e-08
5.8993859e-08
5.9164882e-08
5.9341829e-08
5.9525108e-08
5.9715346e-08
5.9913496e-08
6.0121445e-08
6.0343947e-08
6.0573139e-08
6.0776136e-08
6.0944075e-08
6.1064093e-08
6.1114325e-08
6.1053913e-08
6.077939e-08
5.9335316e-08
5.9411442e-08
5.9499306e-08
5.9598087e-08
5.9706852e-08
5.9824626e-08
5.9950468e-08
6.0083546e-08
6.0223214e-08
6.0369064e-08
6.0520959e-08
6.0679035e-08
6.0843663e-08
6.1015381e-08
6.1194834e-08
6.138281e-08
6.1580703e-08
6.1792113e-08
6.2009403e-08
6.2202896e-08
6.2362983e-08
6.2475757e-08
6.2518087e-08
6.2446854e-08
6.2151119e-08
6.0923895e-08
6.0993321e-08
6.1073308e-08
6.1163113e-08
6.1261916e-08
6.1368885e-08
6.1483248e-08
6.1604368e-08
6.1731806e-08
6.1865373e-08
6.2005152e-08
6.2151484e-08
6.2304914e-08
6.2466096e-08
6.2635694e-08
6.2814356e-08
6.3003057e-08
6.3204409e-08
6.3410902e-08
6.359558e-08
6.3748165e-08
6.3853779e-08
6.3888051e-08
6.3805699e-08
6.3488203e-08
6.2446749e-08
6.2510079e-08
6.258293e-08
6.2664633e-08
6.2754468e-08
6.285173e-08
6.2955798e-08
6.3066201e-08
6.318268e-08
6.3305236e-08
6.343414e-08
6.3569911e-08
6.3713242e-08
6.3864887e-08
6.4025527e-08
6.4195697e-08
6.4376022e-08
6.4568289e-08
6.4764901e-08
6.4941322e-08
6.5086667e-08
6.5185156e-08
6.5211198e-08
6.511732e-08
6.4779138e-08
6.389467e-08
6.3952505e-08
6.4018948e-08
6.4093397e-08
6.4175223e-08
6.4263831e-08
6.4358729e-08
6.445959e-08
6.4566311e-08
6.4679051e-08
6.4798244e-08
6.4924556e-08
6.5058809e-08
6.5201838e-08
6.5354342e-08
6.5516764e-08
6.568946e-08
6.587355e-08
6.606094e-08
6.6229479e-08
6.6367732e-08
6.6459087e-08
6.6476824e-08
6.6371569e-08
6.6014697e-08
6.5259989e-08
6.531291e-08
6.5373641e-08
6.544164e-08
6.5516358e-08
6.5597296e-08
6.5684072e-08
6.5776481e-08
6.5874551e-08
6.5978578e-08
6.6089126e-08
6.6206989e-08
6.6333089e-08
6.6468333e-08
6.6613432e-08
6.6768773e-08
6.6934519e-08
6.7111285e-08
6.7289816e-08
6.7450623e-08
6.7581789e-08
6.7665955e-08
6.7675388e-08
6.7559105e-08
6.7185581e-08
6.6535974e-08
6.6584533e-08
6.6640209e-08
6.6702512e-08
6.6770961e-08
6.684514e-08
6.6924761e-08
6.700972e-08
6.7100155e-08
6.7196473e-08
6.7299349e-08
6.7409677e-08
6.7528461e-08
6.7656661e-08
6.7795008e-08
6.7943858e-08
6.8103254e-08
6.827343e-08
6.8443175e-08
6.8596169e-08
6.8720094e-08
6.8796954e-08
6.8798198e-08
6.8671425e-08
6.828113e-08
6.7716742e-08
6.7761464e-08
6.78127e-08
6.7870008e-08
6.7932963e-08
6.8001221e-08
6.8074571e-08
6.8152995e-08
6.823672e-08
6.8326244e-08
6.8422329e-08
6.8525947e-08
6.8638164e-08
6.8759982e-08
6.8892147e-08
6.9035013e-08
6.9188501e-08
6.9352434e-08
6.9513274e-08
6.9658196e-08
6.9774578e-08
6.9843925e-08
6.9837117e-08
6.9700862e-08
6.9293178e-08
6.8797429e-08
6.8838805e-08
6.8886172e-08
6.8939125e-08
6.8997293e-08
6.9060388e-08
6.9128264e-08
6.9200974e-08
6.9278817e-08
6.9362364e-08
6.9452443e-08
6.9550085e-08
6.9656397e-08
6.9772404e-08
6.9898878e-08
7.0036234e-08
7.0184087e-08
7.0341089e-08
7.0492794e-08
7.0629295e-08
7.0737733e-08
7.0799272e-08
7.0784571e-08
7.0640613e-08
7.0230461e-08
6.9774472e-08
6.981295e-08
6.985696e-08
6.990613e-08
6.9960131e-08
7.0018723e-08
7.0081815e-08
7.0149518e-08
7.0222188e-08
7.0300453e-08
7.0385195e-08
7.0477481e-08
7.0578443e-08
7.0689105e-08
7.0810286e-08
7.0943013e-08
7.1085859e-08
7.1232533e-08
7.1374628e-08
7.1502335e-08
7.1602372e-08
7.1655663e-08
7.163285e-08
7.1481492e-08
7.1070535e-08
7.0645794e-08
7.0681772e-08
7.0722863e-08
7.0768726e-08
7.0819065e-08
7.0873682e-08
7.0932532e-08
7.0995776e-08
7.1063818e-08
7.1137333e-08
7.1217241e-08
7.1304641e-08
7.1400663e-08
7.1506271e-08
7.1622007e-08
7.1747691e-08
7.1881484e-08
7.2018464e-08
7.2151272e-08
7.227003e-08
7.2361233e-08
7.2405709e-08
7.237414e-08
7.2214104e-08
7.1794126e-08
7.1391432e-08
7.1425346e-08
7.1464038e-08
7.1507187e-08
7.1554523e-08
7.1605877e-08
7.1661237e-08
7.1720794e-08
7.178498e-08
7.1854488e-08
7.1930247e-08
7.201334e-08
7.2104852e-08
7.2205643e-08
7.2316042e-08
7.2435443e-08
7.2561701e-08
7.2690356e-08
7.2814472e-08
7.2924285e-08
7.30063e-08
7.3041421e-08
7.3000485e-08
7.2831132e-08
7.2401739e-08
7.2001235e-08
7.2033496e-08
7.2070279e-08
7.2111273e-08
7.2156219e-08
7.2204971e-08
7.2257542e-08
7.2314138e-08
7.2375207e-08
7.2441444e-08
7.2513769e-08
7.2593233e-08
7.2680863e-08
7.2777416e-08
7.288306e-08
7.2996959e-08
7.3116746e-08
7.3238005e-08
7.3353932e-08
7.3454875e-08
7.3527472e-08
7.3552849e-08
7.3502196e-08
7.3323538e-08
7.2884927e-08
7.2460882e-08
7.2491865e-08
7.2527179e-08
7.2566509e-08
7.2609594e-08
7.2656301e-08
7.2706679e-08
7.2760936e-08
7.281952e-08
7.2883128e-08
7.2952665e-08
7.302914e-08
7.311352e-08
7.3206477e-08
7.3308073e-08
7.3417312e-08
7.3531587e-08
7.3646269e-08
7.3754533e-08
7.3846835e-08
7.3910011e-08
7.3925546e-08
7.3865213e-08
7.3677975e-08
7.3233258e-08
7.2743945e-08
7.2773986e-08
7.2808216e-08
7.2846296e-08
7.2887935e-08
7.2933014e-08
7.2981691e-08
7.3034127e-08
7.309076e-08
7.3152302e-08
7.3219658e-08
7.3293756e-08
7.3375529e-08
7.3465618e-08
7.3564097e-08
7.3669946e-08
7.3780133e-08
7.3889349e-08
7.3990732e-08
7.4074965e-08
7.4129132e-08
7.4135228e-08
7.4065899e-08
7.387178e-08
7.3426271e-08
7.2795749e-08
7.2825118e-08
7.285856e-08
7.2895673e-08
7.2936077e-08
7.2979708e-08
7.302704e-08
7.3078057e-08
7.3133162e-08
7.3193144e-08
7.3258945e-08
7.3331247e-08
7.3411022e-08
7.3499046e-08
7.3595796e-08
7.3701032e-08
7.3810345e-08
7.3915897e-08
7.4011564e-08
7.4088874e-08
7.4135086e-08
7.4132903e-08
7.4056239e-08
7.3858476e-08
7.3419639e-08
7.2452403e-08
7.2481199e-08
7.2513927e-08
7.2550056e-08
7.2589007e-08
7.263087e-08
7.2676958e-08
7.2726733e-08
7.2780512e-08
7.2839334e-08
7.2904252e-08
7.2975168e-08
7.3053253e-08
7.3139823e-08
7.3237251e-08
7.3353779e-08
7.3474986e-08
7.3579788e-08
7.3670855e-08
7.3743131e-08
7.3783293e-08
7.3775024e-08
7.3694229e-08
7.350057e-08
7.3105225e-08
)
;

boundaryField
{
    Walls
    {
        type            nutUWallFunction;
        Cmu             0.09;
        kappa           0.41;
        E               9.8;
        value           uniform 0;
    }
    Inlet
    {
        type            calculated;
        value           nonuniform List<scalar> 3(3.5260005e-05 2.2002659e-05 7.8825962e-07);
    }
    Outlet
    {
        type            calculated;
        value           nonuniform List<scalar> 
86
(
0
0
0
0
0
0
0
0
0
0
0
0
0
0
0
0
0
0
0
0
0
0
0
0
0
0
0
0
0
0
1.4330602e-05
1.487995e-05
1.3464744e-05
0
0
0
0
4.7401031e-06
4.6750363e-06
4.1861713e-06
0
0
0
0
1.6370321e-06
1.3281997e-06
1.027243e-06
7.5450895e-07
5.2631252e-07
3.5181582e-07
2.3063964e-07
1.5287054e-07
1.0600333e-07
7.9431906e-08
6.5210258e-08
5.8152812e-08
5.5119956e-08
5.4275432e-08
5.4584085e-08
5.5482225e-08
5.6671371e-08
0
0
0
0
0
0
0
0
0
0
0
0
0
0
0
0
0
0
0
0
0
0
0
1.3207538e-05
1.4845521e-05
)
;
    }
    Front
    {
        type            wedge;
    }
    Back
    {
        type            wedge;
    }
    defaultFaces
    {
        type            empty;
    }
}


// ************************************************************************* //
