/*--------------------------------*- C++ -*----------------------------------*\
| =========                 |                                                 |
| \\      /  F ield         | OpenFOAM: The Open Source CFD Toolbox           |
|  \\    /   O peration     | Version:  4.0                                   |
|   \\  /    A nd           | Web:      www.OpenFOAM.org                      |
|    \\/     M anipulation  |                                                 |
\*---------------------------------------------------------------------------*/
FoamFile
{
    version     2.0;
    format      ascii;
    class       volScalarField;
    location    "0.51";
    object      omega;
}
// * * * * * * * * * * * * * * * * * * * * * * * * * * * * * * * * * * * * * //

dimensions      [0 0 -1 0 0 0 0];

internalField   nonuniform List<scalar> 
1740
(
57.978728
646.14162
14918.949
154.94134
1345.9401
15027.343
266.97784
1790.7303
15115.451
380.4403
2155.2089
15201.16
497.75623
2514.6472
15275.185
624.78769
2842.6506
15330.528
744.29129
3091.8972
15377.769
839.83754
3292.4439
15411.333
941.40039
3391.2562
15442.911
1066.0387
3492.1878
15473.63
1177.748
3654.8749
15498.822
1262.685
3846.0909
15512.8
1352.0607
3857.8444
15525.558
1424.2093
3912.8573
15537.406
1486.5589
3981.3736
15540.822
1537.4246
3981.778
15550.918
1595.3586
3977.8547
15559.957
1660.1176
4000.6661
15563.393
1720.8597
4032.992
15567.761
1763.7401
4085.0802
15566
1802.2604
4088.128
15571.86
1847.865
4122.2211
15579.263
1885.4733
4145.5313
15578.835
1901.4998
4137.2729
15575.644
1916.8038
4169.8951
15574.446
1932.4667
4192.5568
15569.925
1947.1078
4202.8171
15563.681
1977.9886
4182.406
15565.159
1998.0511
4198.0768
15558.118
2127.0488
4284.4463
15497.151
3183.4401
4552.8182
10719.321
3325.2361
4228.2795
5919.0076
1571.1964
1858.3642
2152.2431
823.86577
899.44207
958.45994
478.2778
496.64995
506.84472
300.44652
304.18573
304.32445
201.11063
201.41653
199.98429
141.82055
141.4839
140.22687
104.5078
104.16862
103.31727
80.011213
79.773101
79.242884
63.361538
63.211261
62.89202
51.731342
51.64029
51.450506
43.451105
43.396648
43.283855
37.501724
37.469005
37.401219
33.236321
33.216266
33.174558
30.221757
30.209065
30.182453
28.147289
28.138965
28.121244
26.774213
26.768611
26.756384
25.911057
25.907329
25.898756
25.400823
25.398469
25.392399
25.100071
25.098
25.092854
24.884479
24.882466
24.877829
24.714332
24.712538
24.708454
24.569653
24.568107
24.564552
24.438155
24.436877
24.433842
24.312687
24.31171
24.309209
24.189903
24.18925
24.187288
24.069704
24.069345
24.06788
23.954371
23.95423
23.953168
23.846951
23.846938
23.846169
23.749552
23.749594
23.749022
23.662332
23.662386
23.661943
23.583266
23.583312
23.582956
23.508266
23.508297
23.508003
23.431224
23.43124
23.430992
23.343758
23.343763
23.343552
23.234593
23.234589
23.234409
23.088591
23.088584
23.088432
22.885509
22.885501
22.885376
22.59854
22.598536
22.598439
22.19282
22.192823
22.192757
21.624101
21.624113
21.62408
20.837999
20.83802
20.83802
19.770504
19.770524
19.770549
18.355463
18.355492
18.355548
16.521446
16.521486
16.521572
14.204555
14.204602
14.204714
11.362859
11.362909
11.363047
7.9975153
7.9975663
7.9977251
4.1674147
4.1674551
4.1675902
13479.295
13534.169
5990.2048
5329.8077
2081.5341
1880.1402
922.22884
853.61504
490.22999
463.25835
296.18068
284.27534
195.69686
189.97417
137.86471
134.9292
101.98262
100.40208
78.478521
77.596303
62.449383
61.944535
51.191527
50.896998
43.130533
42.955485
37.308774
37.202169
33.117129
33.049799
30.145224
30.100517
28.095884
28.064457
26.738305
26.715029
25.885439
25.867503
25.382295
25.368037
25.08438
25.072358
24.870403
24.85992
24.701926
24.692664
24.5588
24.550532
24.428793
24.421379
24.304834
24.298204
24.18357
24.177699
24.064784
24.059666
23.950631
23.94625
23.844109
23.840427
23.747358
23.744312
23.6606
23.658111
23.58187
23.579849
23.507121
23.505482
23.430272
23.428938
23.342959
23.341866
23.233919
23.233016
23.088026
23.087277
22.885043
22.884422
22.598173
22.597663
22.192555
22.192149
21.623943
21.623637
20.837947
20.837744
19.770538
19.770439
18.355602
18.355613
16.521693
16.521829
14.204909
14.20521
11.363335
11.363875
7.9981122
7.9989089
4.1679412
4.16868
12058.198
2043.5848
696.53369
369.05073
281.23261
257.01605
249.8881
246.85566
244.51895
242.13339
239.61981
236.88297
234.05788
231.15679
228.14575
224.96051
221.48724
217.52914
212.75226
206.60064
198.15113
185.84882
166.99444
136.55003
82.781784
12058.133
2037.6103
697.75604
374.66482
283.21131
254.38441
242.85472
235.64521
229.54409
223.75534
218.08449
212.46798
206.97003
201.57204
196.25283
190.98409
185.70901
180.32303
174.63828
168.33132
160.84982
151.22593
137.66171
116.45743
78.178084
12058.179
2030.5501
718.64308
430.75661
359.41808
332.48613
315.11546
300.61496
287.37678
274.82711
262.85011
251.26638
240.29411
229.83701
219.83364
210.27025
201.12561
192.35291
183.8511
175.4412
166.80911
157.37311
145.92808
129.519
98.836525
12058.527
2031.8381
817.70196
609.05266
550.20174
512.99203
479.95873
449.42848
421.43551
395.11333
370.42823
347.41101
326.1965
306.3285
287.66272
270.20614
253.94619
238.8497
224.86125
211.88926
199.79274
188.34534
177.10723
164.89787
146.46667
12061.531
2151.1623
1232.6883
1078.7746
990.01805
907.18469
828.6924
757.27382
693.37102
634.25402
579.89684
530.24378
486.13096
445.82719
408.83037
375.14668
344.63895
317.13503
292.45376
270.40131
250.78169
233.4198
218.20212
205.3017
195.79555
12087.196
3823.5255
2809.311
2404.2877
2095.59
1826.547
1591.2095
1387.9275
1211.99
1060.1693
929.37836
816.78383
719.85211
636.16095
563.78536
501.21727
447.16233
400.49206
360.23237
325.54982
295.73711
270.22054
248.59623
230.96031
218.54892
10363.396
7904.2979
6098.722
4788.5759
3818.3361
3082.8371
2513.6091
2066.4886
1711.7953
1428.2322
1199.9313
1014.9852
864.42044
741.31415
640.18149
556.66877
487.34073
429.50053
381.03481
340.28496
305.94792
277.01973
252.78609
233.12749
219.32435
4088.3535
3306.5515
2843.1835
2467.7192
2148.2645
1867.6201
1622.8395
1411.2427
1229.8719
1074.4011
941.01562
826.2976
727.27309
641.78373
567.9893
504.29962
449.34189
401.94191
361.09953
325.96526
295.82244
270.09226
248.36138
230.706
218.31393
1593.8675
1399.6531
1269.6516
1161.4859
1059.2951
962.03617
873.38056
794.31781
722.25754
656.9729
598.56559
546.90645
499.45827
456.10275
416.71812
381.10992
349.0481
320.3017
294.64007
271.84683
251.72413
234.10409
218.87632
206.19443
197.01822
771.13424
707.95148
661.74414
621.16842
580.79462
540.62989
503.02003
468.3501
436.20942
406.5716
379.479
354.65886
331.42578
309.68131
289.41671
270.61974
253.26119
237.30006
222.68567
209.35409
197.2117
186.09295
175.63169
164.76723
148.68877
433.89929
410.11735
391.37618
374.1208
356.34288
338.0187
320.11961
303.0771
286.9702
271.85303
257.73533
244.49362
231.92095
219.97411
208.68351
198.04602
188.0551
178.69024
169.90689
161.61383
153.61878
145.49423
136.21154
122.99544
96.745647
271.94637
261.51084
252.83232
244.64529
236.10076
227.13558
218.11153
209.29257
200.80053
192.69382
184.98159
177.61537
170.52342
163.68382
157.10955
150.80489
144.7614
138.94938
133.30244
127.68543
121.82635
115.1659
106.50294
93.063739
67.334375
184.17228
179.09194
174.6776
170.44209
166.01152
161.31883
156.49953
151.69435
146.993
142.44156
138.05121
133.80367
129.67019
125.63624
121.69799
117.84645
114.05981
110.2934
106.46324
102.41612
97.873215
92.321155
84.789032
73.306793
52.705402
131.97785
129.32448
126.94222
124.62678
122.20624
119.63356
116.95681
114.2457
111.55531
108.91761
106.34233
103.82237
101.34309
98.891166
96.453875
94.012297
91.534411
88.96616
86.217985
83.143666
79.508192
74.946366
68.94426
61.026416
51.70157
98.816065
97.357538
96.016412
94.702078
93.331796
91.874686
90.346112
88.779784
87.206049
85.644532
84.101822
82.573989
81.050428
79.517236
77.95678
76.343837
74.64045
72.789185
70.703875
68.25801
65.273807
61.527137
56.823827
51.325967
46.517065
76.709186
75.878207
75.10016
74.333665
73.537737
72.693078
71.802982
70.882438
69.947195
69.00762
68.066761
67.120416
66.15852
65.16617
64.122857
62.999975
61.757055
60.337055
58.660565
56.620061
54.078226
50.882369
46.930004
42.374277
37.712888
61.433941
60.947889
60.486625
60.030949
59.559735
59.06121
58.534468
57.985369
57.421032
56.845852
56.259516
55.656523
55.026226
54.352663
53.613694
52.779072
51.807704
50.644166
49.214572
47.422144
45.142872
42.21952
38.437829
33.386004
25.337647
50.596551
50.306455
50.027931
49.752119
49.467999
49.168215
48.850655
48.516775
48.168782
47.807217
47.429313
47.028158
46.592202
46.104606
45.542276
44.874219
44.059344
43.043609
41.756299
40.104713
37.964782
35.158595
31.386856
26.001216
17.13736
42.774821
42.597803
42.425804
42.254661
42.078586
41.892969
41.695444
41.485386
41.262283
41.024276
40.766857
40.48197
40.157264
39.775226
39.312134
38.73658
38.007563
37.071946
35.860844
34.283847
32.218059
29.483832
25.784852
20.549137
12.461289
37.090378
36.978759
36.868568
36.757797
36.643299
36.522112
36.392071
36.251504
36.098462
35.929646
35.739395
35.518796
35.25484
34.929473
34.518502
33.990211
33.303642
32.406335
31.231158
29.691319
27.671537
25.010984
21.468563
16.652307
9.8342493
32.977585
32.903582
32.82872
32.752054
32.671751
32.585788
32.492237
32.38902
32.273409
32.141266
31.986188
31.798656
31.565136
31.267116
30.879972
30.371673
29.701252
28.816935
27.65377
26.130334
24.143774
21.561956
18.211685
13.868498
8.2711954
30.051073
29.99863
29.943742
29.885941
29.824068
29.756639
29.681909
29.597644
29.500745
29.386579
29.248257
29.075815
28.85529
28.567729
28.188081
27.68398
27.014426
26.128365
24.963256
23.4437
21.480315
18.969299
15.794724
11.841506
7.0032275
28.028355
27.988453
27.944997
27.89766
27.845635
27.78774
27.722362
27.647227
27.559031
27.452859
27.321493
27.154595
26.937802
26.651714
26.270834
25.762459
25.085572
24.189829
23.014937
21.490907
19.539836
17.080119
14.03485
10.349423
5.9913039
26.68712
26.654876
26.618297
26.577065
26.530532
26.477678
26.416988
26.346181
26.261837
26.158854
26.029754
25.863867
25.646403
25.357465
24.97108
24.454251
23.766059
22.856908
21.668393
20.134628
18.186009
15.756086
12.792366
9.2745734
5.2374571
25.844999
25.817816
25.785753
25.748459
25.705343
25.655465
25.597362
25.528755
25.446154
25.34431
25.215514
25.048747
24.82873
24.534965
24.14092
23.613415
22.911916
21.987855
20.784464
19.238618
17.285993
14.869696
11.95204
8.5305086
4.6948393
25.349386
25.325943
25.297361
25.263219
25.222912
25.175506
25.119533
25.052688
24.971408
24.870309
24.74144
24.573387
24.350259
24.050765
23.647639
23.107608
22.391084
21.451299
20.233237
18.675382
16.716296
14.304815
11.412883
8.0508012
4.3234616
25.056487
25.036361
25.011567
24.981594
24.945729
24.902914
24.851532
24.789107
24.711876
24.614204
24.487811
24.320785
24.096474
23.792522
23.380524
22.826554
22.092889
21.136429
19.904683
18.336578
16.371616
13.961763
11.08556
7.7646543
4.1189659
24.846054
24.828423
24.80659
24.78001
24.747937
24.70928
24.662396
24.604787
24.532679
24.440452
24.31988
24.159151
23.941685
23.644719
23.237492
22.679775
21.93093
20.957752
19.714436
18.139066
16.170509
13.761959
10.895539
7.599213
4.0013437
24.680325
24.664513
24.644773
24.620541
24.591048
24.55519
24.511309
24.456905
24.388217
24.299668
24.183128
24.026974
23.814929
23.524664
23.12614
22.579841
21.836346
20.853456
19.603351
18.024803
16.055691
13.649649
10.791224
7.514035
3.9503369
24.53938
24.524927
24.506698
24.484116
24.456405
24.422454
24.380611
24.328391
24.262071
24.176154
24.062651
23.910175
23.702793
23.418646
23.028331
22.493202
21.764205
20.784297
19.53411
17.956801
15.990144
13.58817
10.736902
7.4730166
3.9247073
24.411202
24.397818
24.380737
24.359375
24.33296
24.300394
24.26005
24.209487
24.145059
24.061388
23.950662
23.801734
23.598981
23.32092
22.938601
22.413866
21.697698
20.730885
19.48606
17.913495
15.951693
13.555269
10.710744
7.4543253
3.9118278
24.288895
24.276433
24.26032
24.239982
24.214671
24.183323
24.144369
24.095445
24.033014
23.951836
23.844266
23.699344
23.501654
23.229949
22.85559
22.340882
21.637444
20.685457
19.448851
17.883183
15.927811
13.538148
10.701049
7.4508742
3.9089543
24.169237
24.157683
24.14255
24.12329
24.099202
24.069285
24.032046
23.985216
23.925366
23.847367
23.743681
23.603445
23.411325
23.146181
22.77956
22.274138
21.582177
20.644495
19.417541
17.859823
15.911592
13.529186
10.699678
7.4545121
3.9062335
24.052088
24.041543
24.027567
24.009661
23.987177
23.959186
23.924268
23.880233
23.823718
23.749649
23.65052
23.515473
23.329173
23.070501
22.711114
22.213986
21.532002
20.606896
19.389967
17.840378
15.899296
13.524067
10.702187
7.4634931
3.9305514
23.939609
23.930217
23.917648
23.901448
23.881022
23.855492
23.823486
23.782849
23.730237
23.66057
23.566313
23.436562
23.255937
23.003308
22.650408
22.160467
21.486942
20.572574
19.365127
17.823192
15.888693
13.519843
10.704324
7.4705782
3.9539361
23.834745
23.826608
23.81563
23.801392
23.783333
23.760599
23.731829
23.694864
23.646335
23.581118
23.491619
23.366866
23.191427
22.944155
22.596854
22.11297
21.446423
20.540788
19.342138
17.807096
15.878355
13.514863
10.704478
7.4754192
3.9692217
23.739555
23.732678
23.723331
23.711118
23.695489
23.675588
23.650039
23.61665
23.572005
23.51092
23.42573
23.305401
23.134452
22.891734
22.549119
22.07024
21.409414
20.510951
19.320042
17.791006
15.867167
13.508061
10.701663
7.4751791
3.9684682
23.654191
23.648485
23.640669
23.630358
23.616999
23.599719
23.577108
23.546933
23.505721
23.448227
23.366724
23.250121
23.082906
22.843934
22.50515
22.030359
21.374223
20.481704
19.297462
17.773618
15.854011
13.498673
10.695892
7.4721541
3.9465553
23.576651
23.571964
23.565487
23.556839
23.545456
23.530439
23.510343
23.482889
23.444554
23.390035
23.311554
23.197978
23.033775
22.797817
22.462119
21.990651
21.338381
20.450848
19.272347
17.753119
15.837434
13.485887
10.687768
7.4709115
3.9496767
23.502878
23.499038
23.493675
23.486408
23.476659
23.463503
23.445465
23.42022
23.384204
23.332067
23.255991
23.144814
22.982993
22.749426
22.416204
21.94745
21.298418
20.415167
19.241734
17.726841
15.815167
13.46789
10.675529
7.4690474
3.9631941
23.426811
23.423651
23.419182
23.413022
23.404579
23.392906
23.376498
23.352998
23.318804
23.268532
23.194333
23.085026
22.925071
22.693398
22.362179
21.895691
21.249463
20.370041
19.201311
17.690822
15.783685
13.441611
10.655732
7.4565983
3.9494923
23.340116
23.337491
23.333726
23.328434
23.321013
23.310498
23.295359
23.273213
23.240428
23.191596
23.118847
23.010993
22.852504
22.622353
22.292807
21.828305
21.184657
20.308886
19.144864
17.639277
15.737705
13.402373
10.624779
7.4355137
3.9277133
23.231563
23.229358
23.226141
23.221525
23.214896
23.205276
23.191116
23.170012
23.138312
23.09059
23.018965
22.912251
22.754943
22.526074
22.198022
21.735416
21.09437
20.222408
19.063581
17.563969
15.669683
13.343407
10.576569
7.3980723
3.9005168
23.086059
23.084184
23.081397
23.077307
23.071295
23.062369
23.048966
23.028668
22.99781
22.950955
22.880222
22.77444
22.618149
22.390464
22.063906
21.603339
20.965236
20.097677
18.945185
17.453447
15.569228
13.255716
10.504326
7.3430864
3.8656954
22.883396
22.881787
22.879342
22.87567
22.870143
22.861762
22.848956
22.829296
22.79911
22.752962
22.682984
22.578039
22.422735
22.196308
21.871477
21.413405
20.779016
19.917065
18.772946
17.292153
15.422307
13.127216
10.398446
7.2649867
3.8271739
22.596801
22.595414
22.593252
22.58992
22.584789
22.576854
22.564536
22.545407
22.515796
22.47028
22.401023
22.29695
22.142775
21.917912
21.595354
21.140674
20.51139
19.65712
18.524639
17.059476
15.210455
12.942307
10.246955
7.1538505
3.7657032
22.191434
22.190242
22.188326
22.185289
22.180499
22.172951
22.161068
22.142424
22.113367
22.068505
22.000061
21.897063
21.74439
21.521719
21.202432
20.75267
20.130776
19.287545
18.171583
16.728872
14.90991
12.680784
10.034061
6.9993953
3.6654099
21.623063
21.622056
21.62037
21.617608
21.613141
21.605966
21.594516
21.576384
21.547952
21.503889
21.436518
21.33503
21.184559
20.965161
20.650778
20.208329
19.597346
18.7704
17.677971
16.267312
14.491191
12.317571
9.739905
6.7878001
3.5495601
20.837312
20.836494
20.835043
20.832568
20.828443
20.821679
20.810728
20.793224
20.76561
20.722658
20.656852
20.557634
20.410518
20.196116
19.889152
19.45749
18.862469
18.059868
17.000804
15.635337
13.919278
11.8231
9.3414404
6.5033773
3.3955884
19.770161
19.769553
19.768374
19.766237
19.762527
19.756276
19.745981
19.729339
19.702899
19.661596
19.598165
19.502423
19.360439
19.153631
18.857899
18.44295
17.872193
17.103538
16.090959
14.788148
13.154708
11.164303
8.8131593
6.129475
3.196841
18.355502
18.355129
18.354258
18.352506
18.349272
18.343628
18.334144
18.318629
18.293801
18.254852
18.194901
18.104323
17.969977
17.774394
17.49503
17.103711
16.566547
15.84463
14.895808
13.678234
12.156083
10.306872
8.1287939
5.6491124
2.9486872
16.521926
16.52186
16.521401
16.52016
16.517539
16.512666
16.504254
16.490271
16.467694
16.432105
16.377189
16.294104
16.170801
15.991293
15.73507
15.376652
14.885588
14.227158
13.364099
12.259943
10.884195
9.218782
7.2641184
5.0457042
2.6348179
14.20561
14.206001
14.206156
14.205639
14.203806
14.199873
14.192882
14.180977
14.161494
14.130605
14.082813
14.010312
13.902515
13.745367
13.52096
13.2072
12.777936
12.20367
11.45308
10.495961
9.3077073
7.8749195
6.2001531
4.3066962
2.2534822
11.364716
11.36574
11.366703
11.36705
11.365955
11.362811
11.357577
11.348364
11.332944
11.308388
11.270375
11.212206
11.125245
10.997937
10.815627
10.560346
10.211133
9.7447339
9.1370169
8.3649347
7.4097294
6.2625751
4.9277017
3.4254834
1.8014516
8.0001923
8.0017794
8.0033843
8.0042505
8.0031946
7.9999802
7.9966778
7.9907291
7.9803284
7.9639096
7.9387723
7.8988129
7.8380124
7.7481405
7.6185605
7.4361095
7.1857902
6.8511907
6.417719
5.8706157
5.1954057
4.3872922
3.4513806
2.4041067
1.2750476
4.1698537
4.1712479
4.1725905
4.1731043
4.1714952
4.1679744
4.1665364
4.1640297
4.1591967
4.152005
4.1415539
4.1222575
4.0913278
4.0447798
3.9768488
3.8795244
3.7448123
3.5633302
3.3331432
3.0482399
2.6963834
2.2757841
1.7909416
1.2542395
0.68926101
)
;

boundaryField
{
    Walls
    {
        Cmu             0.09;
        kappa           0.41;
        E               9.8;
        beta1           0.075;
        type            omegaWallFunction;
        value           nonuniform List<scalar> 
38
(
12058.198
12058.133
12058.179
12058.527
12061.531
12087.196
13479.295
13534.169
14918.949
15027.343
15115.451
15201.16
15275.185
15330.528
15377.769
15411.333
15442.911
15473.63
15498.822
15512.8
15525.558
15537.406
15540.822
15550.918
15559.957
15563.393
15567.761
15566
15571.86
15579.263
15578.835
15575.644
15574.446
15569.925
15563.681
15565.159
15558.118
15497.151
)
;
    }
    Inlet
    {
        type            turbulentMixingLengthDissipationRateInlet;
        mixingLength    0.03;
        phi             phi;
        k               k;
        value           nonuniform List<scalar> 3(0.0051531737 0.0041333503 0.0050570272);
    }
    Outlet
    {
        type            inletOutlet;
        inletValue      uniform 1e-05;
        value           nonuniform List<scalar> 
86
(
1e-05
1e-05
1e-05
1e-05
1e-05
1e-05
1e-05
1e-05
1e-05
1e-05
1e-05
1e-05
1e-05
1e-05
1e-05
1e-05
1e-05
1e-05
1e-05
1e-05
1e-05
1e-05
1e-05
1e-05
1e-05
1e-05
1e-05
1e-05
1e-05
1e-05
219.32435
218.31393
197.01822
1e-05
1e-05
1e-05
1e-05
51.70157
46.517065
37.712888
1e-05
1e-05
1e-05
1e-05
8.2711954
7.0032275
5.9913039
5.2374571
4.6948393
4.3234616
4.1189659
4.0013437
3.9503369
3.9247073
3.9118278
3.9089543
3.9062335
3.9305514
3.9539361
3.9692217
3.9684682
1e-05
1e-05
1e-05
1e-05
1e-05
1e-05
1e-05
1e-05
1e-05
1e-05
1e-05
1e-05
1e-05
1e-05
1e-05
1e-05
1e-05
1e-05
1e-05
1e-05
1e-05
1e-05
1e-05
195.79555
218.54892
)
;
    }
    Front
    {
        type            wedge;
    }
    Back
    {
        type            wedge;
    }
    defaultFaces
    {
        type            empty;
    }
}


// ************************************************************************* //
