/*--------------------------------*- C++ -*----------------------------------*\
| =========                 |                                                 |
| \\      /  F ield         | OpenFOAM: The Open Source CFD Toolbox           |
|  \\    /   O peration     | Version:  4.0                                   |
|   \\  /    A nd           | Web:      www.OpenFOAM.org                      |
|    \\/     M anipulation  |                                                 |
\*---------------------------------------------------------------------------*/
FoamFile
{
    version     2.0;
    format      ascii;
    class       volScalarField;
    location    "0.51";
    object      p;
}
// * * * * * * * * * * * * * * * * * * * * * * * * * * * * * * * * * * * * * //

dimensions      [0 2 -2 0 0 0 0];

internalField   nonuniform List<scalar> 
1740
(
491.67916
491.6203
491.71681
474.97377
474.92148
475.14667
458.35499
458.43477
458.57268
441.79792
442.12874
442.11632
425.20207
425.46169
425.69707
408.92539
408.75205
409.04216
392.42576
392.24552
392.08459
375.84222
375.78835
375.54862
359.96408
360.02996
359.83207
344.17303
344.22813
344.01863
327.88439
327.7231
327.66862
311.34825
311.33468
311.33088
294.94827
295.20094
295.31222
278.30238
278.59547
278.79442
261.20383
261.48749
261.86366
244.52616
244.68742
245.05341
228.29323
228.34616
228.37741
212.08959
211.99305
211.96548
195.71781
195.52815
195.24294
179.20648
179.17033
178.65562
162.74854
162.72863
162.59675
146.02879
145.81513
145.95661
129.45219
129.06345
129.16156
112.97344
112.88608
112.94537
96.31301
96.418739
96.500145
79.945584
79.796521
79.756064
63.380649
63.427104
63.344281
46.800469
47.062882
46.973758
31.012745
31.053153
30.75237
16.307477
15.970571
15.462016
4.1492088
3.4232368
1.5912598
-0.64477596
-0.61056426
-0.40457602
-0.1846266
-0.17046513
-0.12827761
-0.052768314
-0.042010526
-0.026880526
-0.026512285
-0.020561759
-0.01144777
-0.016068549
-0.013074705
-0.0082429604
-0.011058746
-0.0095832265
-0.0071770662
-0.0082248805
-0.0075392683
-0.0063296168
-0.0062488161
-0.0059383357
-0.0053486342
-0.0046777918
-0.0045476446
-0.0042748995
-0.0034613091
-0.0034166932
-0.0033173864
-0.0026399754
-0.0026393359
-0.0026302705
-0.0021565383
-0.0021783069
-0.0022155419
-0.0019070351
-0.0019383192
-0.0019965544
-0.0018043574
-0.0018388847
-0.0019056913
-0.0017854171
-0.0018197924
-0.001886942
-0.0018083855
-0.0018403449
-0.0019037055
-0.0018488138
-0.0018775244
-0.0019355743
-0.0018927679
-0.0019182067
-0.0019700415
-0.001932101
-0.0019543985
-0.002000022
-0.0019614106
-0.0019807841
-0.0020205936
-0.0019768713
-0.0019935893
-0.0020280475
-0.0019758642
-0.001990205
-0.0020198114
-0.0019569726
-0.0019691944
-0.0019944418
-0.0019200264
-0.0019303779
-0.0019517774
-0.0018659659
-0.0018746906
-0.0018927261
-0.0017965153
-0.0018038331
-0.0018189062
-0.0017138027
-0.0017199028
-0.0017324452
-0.0016202022
-0.0016252601
-0.0016356498
-0.0015181801
-0.0015223538
-0.0015309222
-0.0014101911
-0.0014136247
-0.0014206696
-0.0012985959
-0.0013014172
-0.0013071989
-0.0011855976
-0.0011879178
-0.0011926594
-0.0010731934
-0.0010751052
-0.0010790023
-0.00096314251
-0.00096472391
-0.00096794081
-0.00085694277
-0.00085825939
-0.00086093178
-0.00075581838
-0.00075692349
-0.00075916327
-0.00066071666
-0.0006616533
-0.00066355027
-0.00057231366
-0.00057311589
-0.0005747403
-0.0004910274
-0.00049172062
-0.00049312584
-0.00041703352
-0.00041763648
-0.00041886119
-0.00035028715
-0.00035081284
-0.00035188385
-0.00029054658
-0.00029100391
-0.00029193834
-0.00023740053
-0.00023779459
-0.00023860213
-0.00019029024
-0.00019062338
-0.00019130805
-0.00014852084
-0.00014879362
-0.00014935566
-0.00011125419
-0.00011146621
-0.0001119038
-7.7500509e-05
-7.7651385e-05
-7.79625e-05
-4.5955513e-05
-4.6045731e-05
-4.6230626e-05
-1.5418039e-05
-1.5448423e-05
-1.5508957e-05
-1.3110466
-0.92025696
-0.32026803
-0.24628499
-0.099149922
-0.089069365
-0.019293437
-0.019263586
-0.0049648108
-0.001481153
-0.0039375983
-0.00085880922
-0.004737731
-0.0025201864
-0.0049758486
-0.0035472058
-0.0046259465
-0.0038750188
-0.0039132036
-0.0034902411
-0.0031680082
-0.0029622633
-0.0025998681
-0.0025303855
-0.002249119
-0.0022571655
-0.0020623127
-0.0021138973
-0.0019865028
-0.002061623
-0.0019720402
-0.0020569705
-0.0019863094
-0.0020727086
-0.002011953
-0.002094874
-0.002039203
-0.0021159992
-0.0020617592
-0.0021312537
-0.0020749383
-0.0021369117
-0.0020753773
-0.0021299432
-0.0020606653
-0.002108021
-0.0020294046
-0.0020701317
-0.0019815188
-0.002016142
-0.0019178
-0.0019470021
-0.0018398689
-0.0018643933
-0.0017499053
-0.0017702872
-0.0016501191
-0.001666965
-0.0015428315
-0.0015567486
-0.0014304349
-0.0014418132
-0.0013151878
-0.0013244577
-0.001199193
-0.0012067348
-0.0010843541
-0.001090499
-0.00097234397
-0.00097737469
-0.00086458046
-0.00086873266
-0.00076221629
-0.00076568244
-0.00066613488
-0.00066906848
-0.00057695574
-0.00057947551
-0.00049504667
-0.00049724082
-0.00042054098
-0.00042247169
-0.00035335881
-0.00035506663
-0.00029323098
-0.00029473925
-0.00023972414
-0.00024104304
-0.00019226315
-0.00019339331
-0.00015014228
-0.00015107815
-0.00011251768
-0.00011325085
-7.8399358e-05
-7.8922079e-05
-4.6490075e-05
-4.6800478e-05
-1.5593452e-05
-1.5694156e-05
0.0049508338
0.0048299392
0.0047081253
0.0046740353
0.004757485
0.0049117492
0.0049599329
0.0049189828
0.0047657088
0.0045082769
0.0041792277
0.0038126687
0.0034319415
0.0030510219
0.0026779919
0.0023176675
0.0019766904
0.0016590827
0.0013655973
0.0010961911
0.00085097224
0.00062814009
0.00042484077
0.00023933326
7.2665076e-05
0.0045348325
0.0044204877
0.0043288085
0.0042926797
0.0043530739
0.0044151915
0.0044423018
0.0043284992
0.0040794551
0.0037305115
0.0033185861
0.0028815363
0.0024472277
0.0020346069
0.0016555395
0.001320043
0.0010329125
0.00079535007
0.00060024326
0.00044233043
0.00031708786
0.00021736922
0.00013727737
7.5029884e-05
2.8846837e-05
-0.00028517671
-0.00048364942
-0.00061823959
-0.00061157562
-0.00075846782
-0.0011687777
-0.0017773798
-0.0024614133
-0.0030426513
-0.0034919639
-0.0038086676
-0.0040017266
-0.0040872502
-0.0040773517
-0.0039750975
-0.0037877886
-0.0035272086
-0.0032067477
-0.0028327796
-0.0024156737
-0.0019692502
-0.00150818
-0.0010437284
-0.00058624573
-0.00015494865
-0.017355254
-0.017560946
-0.017905587
-0.018679926
-0.019671567
-0.020501248
-0.020938381
-0.020935711
-0.020602762
-0.019994445
-0.019157868
-0.018149891
-0.01702149
-0.015784909
-0.014465486
-0.013086114
-0.011665248
-0.010218196
-0.0087595593
-0.0073036563
-0.0058713784
-0.0044718087
-0.0031065426
-0.0017862322
-0.00054250539
-0.070531382
-0.06975374
-0.069080081
-0.066402474
-0.063128405
-0.059126108
-0.054852173
-0.050447732
-0.046018834
-0.041670766
-0.037551837
-0.033667218
-0.030009858
-0.026348745
-0.022961738
-0.019861136
-0.017031015
-0.014448933
-0.012086704
-0.0099132994
-0.0078905588
-0.0059921093
-0.0042021887
-0.0024971376
-0.00085921273
-0.23601134
-0.19191351
-0.17070188
-0.13882762
-0.11268186
-0.089921647
-0.070646233
-0.054947739
-0.042336956
-0.032248386
-0.024180998
-0.017826924
-0.012859677
-0.0091629676
-0.0062930298
-0.0041328184
-0.0025413674
-0.0014042808
-0.00063135716
-0.00014777389
0.00011072279
0.00020166162
0.0001702066
6.1558676e-05
-0.00012431577
-0.34138506
-0.13612231
-0.08431745
-0.046466251
-0.012356845
0.014496142
0.031497244
0.039802437
0.04269993
0.042832037
0.041424749
0.039056705
0.036115977
0.032870176
0.029513099
0.026166375
0.022905385
0.019768245
0.016766726
0.013897
0.011145981
0.0084979431
0.0059287778
0.0034287105
0.00091197167
-0.20029169
-0.174719
-0.14923771
-0.12384056
-0.10012093
-0.079291427
-0.061728685
-0.047472673
-0.036115062
-0.02704684
-0.019946505
-0.014431341
-0.01017258
-0.0068914959
-0.0044045817
-0.0025670351
-0.0012416829
-0.00032647504
0.00025716784
0.00057490265
0.00068282979
0.00063159362
0.00046521685
0.00022934745
-7.795028e-05
-0.087170719
-0.083792344
-0.0798978
-0.075533888
-0.070602734
-0.06517528
-0.059743954
-0.054396799
-0.049181093
-0.04432789
-0.039727883
-0.035279469
-0.031099051
-0.027252001
-0.023734517
-0.020539784
-0.017593345
-0.014890196
-0.012415878
-0.010145809
-0.0080530952
-0.0061095249
-0.0042883411
-0.0025577525
-0.00089004284
-0.021296062
-0.022793729
-0.024574219
-0.026244696
-0.027460936
-0.028106286
-0.028195292
-0.027761604
-0.026905442
-0.02576124
-0.024388906
-0.022862004
-0.021213782
-0.019478184
-0.017687686
-0.015855095
-0.014049415
-0.012264339
-0.010497162
-0.0087524308
-0.0070360193
-0.0053549412
-0.0037182875
-0.0021385169
-0.00065202513
-0.00034479392
-4.782278e-06
-0.00024797912
-0.0014427401
-0.0029318814
-0.004563186
-0.0059342829
-0.0069748891
-0.007705673
-0.0081608131
-0.008356363
-0.0083437605
-0.0081570763
-0.0078252406
-0.0073738585
-0.006818431
-0.0061897442
-0.0055066126
-0.0047816101
-0.0040267675
-0.0032543281
-0.0024772608
-0.0017092723
-0.00096366605
-0.00026709559
0.0011698282
0.0024304871
0.0034302843
0.0041865497
0.0042030599
0.0039295776
0.003348684
0.0025930535
0.0017853503
0.0010035202
0.00038266151
-0.00011978066
-0.00050580008
-0.00078023201
-0.0009525455
-0.0010384746
-0.0010574649
-0.001023617
-0.0009480231
-0.0008400501
-0.0007080425
-0.00055973742
-0.0004014981
-0.00023590448
-6.489935e-05
-0.00072838131
0.00066607446
0.0018157226
0.0027183181
0.0033026546
0.0036049258
0.003640963
0.0034845072
0.0032186851
0.002912096
0.0025089455
0.0021105889
0.0017413325
0.0014138371
0.0011336327
0.00089740425
0.00070126963
0.00053878229
0.00040550368
0.00029684407
0.00020831888
0.00013645288
7.8771419e-05
3.4790241e-05
7.6746573e-06
-0.0022674443
-0.0011226579
-6.974155e-05
0.00086131023
0.0015953669
0.0021138221
0.0024195477
0.002541531
0.0025244768
0.0024038304
0.0022071837
0.0019714492
0.0017216857
0.0014748781
0.0012399614
0.0010226494
0.00083169176
0.00066572896
0.00052376545
0.00040270819
0.0002995422
0.0002119285
0.00013734748
7.362198e-05
1.9692417e-05
-0.0030842872
-0.0022336193
-0.0013657662
-0.00054514378
0.0001787986
0.00077729921
0.0012311122
0.0015371766
0.0017108022
0.0017720865
0.0017436544
0.0016503424
0.001510284
0.001349218
0.0011880141
0.0010328611
0.00087921173
0.00073472395
0.00060109295
0.00047930931
0.00036976752
0.00027152928
0.00018339364
0.00010375168
3.0341234e-05
-0.0030183262
-0.0025344932
-0.0019238802
-0.0012970013
-0.00068494723
-0.0001272459
0.00035119976
0.00073562405
0.0010208745
0.0012059906
0.0013042869
0.0013329555
0.0013103563
0.0012462349
0.0011523662
0.0010398441
0.00092139844
0.00079881805
0.00067559739
0.0005549948
0.00043961083
0.00033052736
0.00022768785
0.00013092982
3.9218638e-05
-0.0026865879
-0.0023760923
-0.0020123371
-0.0015622784
-0.0011022001
-0.00064642267
-0.00022036579
0.00015508516
0.00046833964
0.00071266846
0.00088784038
0.0010012194
0.0010620022
0.0010759069
0.0010477528
0.00098990862
0.00090765201
0.00081006063
0.00070336251
0.00059229895
0.00047915588
0.00036734766
0.00025763006
0.00015119442
4.8008518e-05
-0.0024028767
-0.0021967618
-0.0019653355
-0.0016844317
-0.0013479344
-0.0009917076
-0.00063606493
-0.00030014894
1.0634916e-06
0.00025767308
0.00046469097
0.00062180061
0.00073153948
0.00079612397
0.00082057788
0.00081123464
0.00077365878
0.00071406109
0.00063787836
0.00054973041
0.00045393634
0.00035259843
0.00024904378
0.00014604198
4.5023702e-05
-0.0022181037
-0.0021130229
-0.0019779742
-0.001790576
-0.001549539
-0.0012749776
-0.00098492305
-0.00069651504
-0.00042340687
-0.00017626209
3.7823229e-05
0.00021487199
0.00035306581
0.00045269624
0.00051591962
0.00054681452
0.00054978771
0.00052888316
0.0004883878
0.00043234301
0.00036421127
0.0002871638
0.00020458621
0.00012043183
3.7445648e-05
-0.002130859
-0.0020950786
-0.002023989
-0.0019028541
-0.001733674
-0.001526975
-0.001295575
-0.0010544922
-0.00081487665
-0.00058708498
-0.0003789453
-0.00019602424
-4.1835616e-05
8.204696e-05
0.00017568891
0.00024078226
0.00027976656
0.00029555016
0.00029120612
0.00027001029
0.00023521524
0.0001898592
0.00013691194
8.1524584e-05
2.6284174e-05
-0.0021124935
-0.0021277969
-0.0020946983
-0.0020204478
-0.0019032751
-0.0017493096
-0.0015677082
-0.001368753
-0.0011623559
-0.00095762535
-0.00076213622
-0.00058176066
-0.0004207454
-0.00028175179
-0.00016610425
-7.380517e-05
-3.9567343e-06
4.5044772e-05
7.5250094e-05
8.9102105e-05
8.9275248e-05
7.8470556e-05
5.9385968e-05
3.6367315e-05
1.158467e-05
-0.0021257231
-0.0021677451
-0.0021641143
-0.0021260858
-0.0020478421
-0.0019346037
-0.0017929927
-0.0016302602
-0.0014546408
-0.0012736431
-0.0010939692
-0.00092128994
-0.00075995826
-0.00061321063
-0.00048311026
-0.00037070164
-0.00027623727
-0.00019914326
-0.00013827625
-9.2025222e-05
-5.8412588e-05
-3.5245144e-05
-2.0217861e-05
-1.0347024e-05
-3.7434739e-06
-0.0021490431
-0.002204131
-0.0022277115
-0.0022101933
-0.0021604458
-0.0020787288
-0.0019691565
-0.0018370375
-0.0016886712
-0.0015302295
-0.0013674157
-0.0012052491
-0.0010479398
-0.00089883503
-0.00076035795
-0.00063415604
-0.00052112563
-0.00042149434
-0.00033490264
-0.00026049392
-0.00019700977
-0.00014287167
-9.6299337e-05
-5.512617e-05
-1.7785952e-05
-0.0021718734
-0.0022321628
-0.0022668904
-0.0022682474
-0.002240751
-0.0021835139
-0.0020994883
-0.0019926502
-0.0018677095
-0.0017295933
-0.001583125
-0.0014325971
-0.0012818127
-0.0011339645
-0.00099157599
-0.00085658564
-0.00073028916
-0.00061344367
-0.0005062914
-0.00040861157
-0.00031977073
-0.00023886438
-0.00016478603
-9.5581205e-05
-3.0346697e-05
-0.0021897942
-0.0022510218
-0.0022918917
-0.002307562
-0.0022934267
-0.0022539174
-0.0021895417
-0.0021029233
-0.0019974385
-0.0018769556
-0.0017453709
-0.0016063268
-0.0014631878
-0.0013187951
-0.0011756252
-0.0010357008
-0.00090050244
-0.00077114651
-0.00064832066
-0.00053228086
-0.00042295558
-0.00031996077
-0.00022273417
-0.00013024616
-4.1890085e-05
-0.0021998079
-0.0022589923
-0.0023018743
-0.0023236612
-0.0023211672
-0.0022941927
-0.0022445766
-0.0021735854
-0.0020837271
-0.0019779827
-0.0018594333
-0.0017310696
-0.0015957479
-0.0014560631
-0.0013142651
-0.0011722623
-0.0010317054
-0.00089390269
-0.00075982794
-0.00063009217
-0.00050506075
-0.00038484641
-0.00026941762
-0.00015828514
-5.1267116e-05
-0.0021991613
-0.0022544291
-0.0022967017
-0.0023214267
-0.0023255898
-0.0023077627
-0.0022686772
-0.0022093581
-0.0021317475
-0.0020380214
-0.0019305881
-0.0018118509
-0.0016841445
-0.0015497325
-0.0014107015
-0.0012688733
-0.0011258573
-0.00098308001
-0.00084165252
-0.00070250551
-0.00056632222
-0.00043360694
-0.00030473418
-0.00017946078
-5.8116863e-05
-0.0021854222
-0.0022357076
-0.0022756534
-0.0023008335
-0.0023083048
-0.0022964358
-0.002264794
-0.0022143711
-0.0021461885
-0.0020620434
-0.0019639808
-0.0018537066
-0.0017331842
-0.0016043804
-0.0014691392
-0.0013291639
-0.0011860837
-0.0010412582
-0.00089592623
-0.00075118737
-0.00060796561
-0.00046703936
-0.00032906629
-0.00019404623
-6.2742968e-05
-0.0021568117
-0.0022017724
-0.0022381726
-0.0022621326
-0.0022707597
-0.0022622813
-0.0022360339
-0.0021922465
-0.0021315497
-0.0020546744
-0.0019646217
-0.0018617485
-0.0017479224
-0.0016248984
-0.0014942135
-0.0013574622
-0.0012161944
-0.0010717845
-0.00092547991
-0.00077846087
-0.00063180273
-0.00048646983
-0.000343316
-0.00020260048
-6.5389891e-05
-0.0021124687
-0.002151883
-0.0021841811
-0.0022059378
-0.0022143891
-0.0022077442
-0.0021851312
-0.0021463017
-0.0020916592
-0.0020223002
-0.0019379611
-0.0018411874
-0.0017334666
-0.0016163454
-0.0014907987
-0.0013583096
-0.0012203959
-0.0010784406
-0.00093359566
-0.00078707678
-0.00064004857
-0.0004935876
-0.00034872475
-0.00020588844
-6.6340178e-05
-0.0020524301
-0.0020864256
-0.002114488
-0.0021334803
-0.0021409041
-0.0021349743
-0.0021146699
-0.0020794995
-0.0020295513
-0.0019652982
-0.0018873586
-0.0017971722
-0.0016957231
-0.0015840899
-0.0014638962
-0.0013363094
-0.0012029228
-0.0010651817
-0.00092379006
-0.00078004735
-0.00063516969
-0.00049031868
-0.00034661473
-0.0002046923
-6.5854083e-05
-0.0019777795
-0.0020066635
-0.0020305194
-0.0020465379
-0.0020524362
-0.0020464892
-0.0020275809
-0.001995124
-0.0019490284
-0.0018895215
-0.0018170954
-0.0017326604
-0.0016372271
-0.0015318991
-0.0014180396
-0.0012969098
-0.0011693589
-0.0010363948
-0.00089974778
-0.00076050774
-0.00061978891
-0.00047870521
-0.00033840323
-0.00019986997
-6.4268376e-05
-0.0018902006
-0.0019143937
-0.0019342594
-0.0019473209
-0.0019514798
-0.001945108
-0.0019270663
-0.0018967149
-0.0018538299
-0.0017985272
-0.0017311887
-0.0016524284
-0.001563084
-0.0014641409
-0.0013567047
-0.0012418922
-0.0011207397
-0.00099436825
-0.00086404763
-0.00073092261
-0.00059612172
-0.00046077355
-0.00032606096
-0.00019256422
-6.165997e-05
-0.0017917282
-0.0018117373
-0.0018279671
-0.0018382442
-0.0018406723
-0.0018337269
-0.0018163052
-0.0017877193
-0.0017476582
-0.0016961501
-0.0016334923
-0.0015601889
-0.0014769194
-0.0013844956
-0.0012838534
-0.0011760145
-0.0010620004
-0.00094287073
-0.00081976205
-0.00069379124
-0.0005660569
-0.0004376441
-0.00030970786
-0.00018286675
-5.8502133e-05
-0.0016845982
-0.0017009481
-0.0017139659
-0.0017217446
-0.0017225891
-0.001715101
-0.0016982312
-0.0016712644
-0.0016338463
-0.0015859318
-0.0015277325
-0.001459678
-0.0013823411
-0.001296431
-0.0012027781
-0.0011022755
-0.00099586652
-0.00088453872
-0.00076934165
-0.00065133582
-0.00053157177
-0.00041108763
-0.00029096513
-0.00017180333
-5.4900739e-05
-0.0015710896
-0.0015842992
-0.0015945496
-0.0016001701
-0.0015996623
-0.0015917591
-0.0015754726
-0.0015501108
-0.0015152871
-0.0014708975
-0.0014170828
-0.0013541848
-0.0012827019
-0.0012032712
-0.001116634
-0.0010235907
-0.00092501138
-0.00082182417
-0.0007149867
-0.00060547633
-0.00049427784
-0.0003823709
-0.00027076032
-0.00015980888
-5.0915993e-05
-0.0014534897
-0.0014640354
-0.001471947
-0.0014757755
-0.0014741848
-0.0014660403
-0.0014504379
-0.001426723
-0.0013944962
-0.0013536091
-0.0013041475
-0.0012463771
-0.001180724
-0.0011077541
-0.0010281262
-0.00094258005
-0.00085191934
-0.00075700082
-0.00065870532
-0.00055793116
-0.00045558503
-0.00035256467
-0.000249782
-0.00014733408
-4.6753522e-05
-0.0013338938
-0.0013422652
-0.0013482816
-0.0013506797
-0.0013482972
-0.0013401207
-0.0013253363
-0.0013033211
-0.0012736919
-0.0012362674
-0.0011911107
-0.0011384164
-0.0010785482
-0.0010119914
-0.00093933783
-0.00086126175
-0.00077850209
-0.00069184134
-0.00060209023
-0.00051007564
-0.00041662715
-0.00032255546
-0.00022867949
-0.00013479558
-4.2578783e-05
-0.0012143396
-0.0012209546
-0.0012254714
-0.0012267964
-0.0012239107
-0.0012159143
-0.001202077
-0.0011818463
-0.0011548047
-0.0011207565
-0.0010798286
-0.0010321182
-0.00097792321
-0.00091766612
-0.000851871
-0.00078114717
-0.00070616398
-0.00062763286
-0.000546295
-0.00046290919
-0.00037823765
-0.00029301626
-0.00020798262
-0.00012248926
-3.8447234e-05
-0.0010966358
-0.0011018627
-0.0011052294
-0.0011057916
-0.0011026595
-0.0010950414
-0.0010822795
-0.0010638732
-0.0010395238
-0.0010086126
-0.0009718753
-0.00092900553
-0.00088030553
-0.00082615417
-0.00076701317
-0.00070342424
-0.00063598593
-0.00056534043
-0.0004921621
-0.00041714738
-0.00034100667
-0.00026443027
-0.00018812413
-0.00011061564
-3.4339723e-05
-0.00098235198
-0.00098650644
-0.00098902337
-0.00098908737
-0.00098592433
-0.00097883831
-0.00096724098
-0.00095067108
-0.00092879987
-0.00090138153
-0.00086853904
-0.00083030022
-0.0007868658
-0.00073856958
-0.00068579693
-0.00062903546
-0.00056881504
-0.00050571096
-0.0004403327
-0.0003733167
-0.00030533366
-0.00023706507
-0.00016948255
-9.931502e-05
-3.0098246e-05
-0.00087280956
-0.00087615478
-0.00087807016
-0.000877853
-0.00087483128
-0.00086839567
-0.00085802489
-0.00084330355
-0.00082393231
-0.00079973247
-0.00077069639
-0.0007368835
-0.00069846562
-0.00065571535
-0.00060898074
-0.00055868158
-0.00050528764
-0.00044931018
-0.00039129266
-0.00033180483
-0.00027146122
-0.00021085705
-0.00015172859
-8.8417772e-05
-2.6020194e-05
-0.00076906993
-0.00077181907
-0.00077333206
-0.00077300421
-0.00077025377
-0.00076454906
-0.00075543092
-0.00074252956
-0.00072557607
-0.00070441008
-0.00067898805
-0.0006493581
-0.00061566173
-0.00057813098
-0.0005370638
-0.00049282442
-0.00044582545
-0.00039651675
-0.00034537567
-0.00029290108
-0.00023961676
-0.00018605476
-0.00013298079
-7.7879558e-05
-2.3356354e-05
-0.00067193352
-0.00067425324
-0.00067551648
-0.00067520383
-0.00067281274
-0.00066788059
-0.00066000444
-0.00064885647
-0.00063419486
-0.00061587036
-0.00059382841
-0.00056810099
-0.00053880277
-0.00050612634
-0.00047032658
-0.00043171744
-0.00039065656
-0.0003475346
-0.00030276595
-0.00025677742
-0.00021000359
-0.00016286197
-0.00011583741
-6.7952182e-05
-2.0646815e-05
-0.00058194552
-0.00058396031
-0.00058508364
-0.00058487022
-0.0005828868
-0.00057873195
-0.00057205319
-0.00056256077
-0.00055003721
-0.00053434402
-0.00051542263
-0.00049329169
-0.00046804272
-0.00043983402
-0.00040888213
-0.00037545428
-0.00033985742
-0.00030242801
-0.00026352248
-0.00022350796
-0.00018274353
-0.0001415663
-0.0001003742
-5.885839e-05
-1.7914453e-05
-0.00049940847
-0.00050120563
-0.00050226091
-0.00050219336
-0.00050063054
-0.00049722528
-0.0004916704
-0.00048371068
-0.00047315146
-0.00045986482
-0.00044379128
-0.0004249387
-0.00040337858
-0.00037924087
-0.0003527071
-0.0003240031
-0.00029339018
-0.00026115642
-0.00022760785
-0.00019305849
-0.00015781471
-0.00012216222
-8.6451153e-05
-5.0614823e-05
-1.5327896e-05
-0.0004244002
-0.00042603542
-0.00042706204
-0.00042715534
-0.00042599672
-0.00042328722
-0.00041876027
-0.00041219215
-0.00040340996
-0.00039229665
-0.00037879346
-0.00036289955
-0.00034466922
-0.00032420795
-0.00030166653
-0.00027723426
-0.00025113209
-0.00022360512
-0.00019491473
-0.00016532993
-0.00013511733
-0.00010453215
-7.3898255e-05
-4.321338e-05
-1.3034762e-05
-0.00035679458
-0.0003582974
-0.00035930867
-0.00035955313
-0.0003587598
-0.00035667274
-0.00035306203
-0.00034773315
-0.00034053383
-0.00033135822
-0.00032014969
-0.00030690081
-0.00029165146
-0.00027448589
-0.00025552774
-0.00023493439
-0.00021289113
-0.00018960503
-0.00016529822
-0.00014020185
-0.00011455116
-8.8585046e-05
-6.2596061e-05
-3.6599554e-05
-1.1046218e-05
-0.00029628564
-0.00029766502
-0.00029865422
-0.00029902188
-0.00029853872
-0.00029698771
-0.00029417265
-0.00028992615
-0.00028411538
-0.00027664613
-0.00026746515
-0.00025656051
-0.00024396072
-0.00022973165
-0.00021397336
-0.00019681541
-0.0001784118
-0.00015893618
-0.00013857667
-0.00011753212
-9.6010054e-05
-7.422894e-05
-5.2445225e-05
-3.0666947e-05
-9.2718147e-06
-0.0002424123
-0.00024366237
-0.00024460829
-0.00024505798
-0.00024481961
-0.00024371159
-0.00024156896
-0.00023824962
-0.00023363947
-0.00022765615
-0.00022025088
-0.00021140936
-0.000201151
-0.00018952668
-0.00017661626
-0.00016252514
-0.00014738014
-0.00013132553
-0.00011451976
-9.7132889e-05
-7.9345192e-05
-6.13475e-05
-4.3352314e-05
-2.5342384e-05
-7.6507906e-06
-0.00019457965
-0.00019568436
-0.0001965566
-0.00019703943
-0.0001969762
-0.00019621753
-0.00019462724
-0.0001920872
-0.00018850161
-0.00018380014
-0.00017793969
-0.00017090524
-0.00016270936
-0.00015339073
-0.00014301223
-0.00013165819
-0.00011943152
-0.00010645061
-9.2846848e-05
-7.8762647e-05
-6.4349347e-05
-4.9764865e-05
-3.5176711e-05
-2.0552657e-05
-6.1865467e-06
-0.00015206932
-0.00015300667
-0.00015377061
-0.00015423638
-0.00015427982
-0.00015378153
-0.00015263218
-0.00015073649
-0.00014801662
-0.00014441464
-0.00013989412
-0.00013444087
-0.0001280626
-0.0001207881
-0.00011266575
-0.00010376147
-9.4156792e-05
-8.3946456e-05
-7.3236245e-05
-6.2141012e-05
-5.0782087e-05
-3.9283569e-05
-2.7773827e-05
-1.6219826e-05
-4.8674195e-06
-0.00011403221
-0.00011477915
-0.00011540117
-0.00011580359
-0.00011589194
-0.00011557522
-0.00011476971
-0.00011340218
-0.00011141244
-0.00010875527
-0.0001054017
-0.00010133957
-9.6573429e-05
-9.112407e-05
-8.5027264e-05
-7.8332601e-05
-7.1102018e-05
-6.3407922e-05
-5.5331458e-05
-4.6960466e-05
-3.8386753e-05
-2.9702763e-05
-2.1003631e-05
-1.2261477e-05
-3.667818e-06
-7.948096e-05
-8.0018294e-05
-8.0470774e-05
-8.0772143e-05
-8.085592e-05
-8.0658144e-05
-8.0119807e-05
-7.9189134e-05
-7.7823399e-05
-7.5990295e-05
-7.3668857e-05
-7.0849874e-05
-6.7535943e-05
-6.3741118e-05
-5.9490179e-05
-5.4817832e-05
-4.976755e-05
-4.4390446e-05
-3.8743829e-05
-3.2889461e-05
-2.6891215e-05
-2.0812551e-05
-1.4719976e-05
-8.5899565e-06
-2.5603496e-06
-4.7132496e-05
-4.7452038e-05
-4.7721662e-05
-4.7902164e-05
-4.7954107e-05
-4.7839541e-05
-4.7523424e-05
-4.6974954e-05
-4.6168651e-05
-4.508518e-05
-4.3711913e-05
-4.2043171e-05
-4.0080314e-05
-3.7831524e-05
-3.531147e-05
-3.2540757e-05
-2.9545253e-05
-2.6355442e-05
-2.3005517e-05
-1.953216e-05
-1.5972989e-05
-1.2364871e-05
-8.7473786e-06
-5.1032423e-06
-1.5153439e-06
-1.580142e-05
-1.5903987e-05
-1.5989474e-05
-1.6044911e-05
-1.6057244e-05
-1.6013919e-05
-1.5903358e-05
-1.571536e-05
-1.5441499e-05
-1.5075384e-05
-1.4612843e-05
-1.4052013e-05
-1.3393366e-05
-1.2639651e-05
-1.1795784e-05
-1.0868658e-05
-9.8669339e-06
-8.8008232e-06
-7.6817835e-06
-6.5220758e-06
-5.3342553e-06
-4.1304655e-06
-2.9276115e-06
-1.7077615e-06
-5.0097095e-07
)
;

boundaryField
{
    Walls
    {
        type            zeroGradient;
    }
    Inlet
    {
        type            fixedValue;
        value           uniform 500;
    }
    Outlet
    {
        type            fixedValue;
        value           uniform 0;
    }
    Front
    {
        type            wedge;
    }
    Back
    {
        type            wedge;
    }
    defaultFaces
    {
        type            empty;
    }
}


// ************************************************************************* //
