/*--------------------------------*- C++ -*----------------------------------*\
| =========                 |                                                 |
| \\      /  F ield         | OpenFOAM: The Open Source CFD Toolbox           |
|  \\    /   O peration     | Version:  4.0                                   |
|   \\  /    A nd           | Web:      www.OpenFOAM.org                      |
|    \\/     M anipulation  |                                                 |
\*---------------------------------------------------------------------------*/
FoamFile
{
    version     2.0;
    format      ascii;
    class       volVectorField;
    location    "0.51";
    object      U;
}
// * * * * * * * * * * * * * * * * * * * * * * * * * * * * * * * * * * * * * //

dimensions      [0 1 -1 0 0 0 0];

internalField   nonuniform List<vector> 
1740
(
(1.4652853 0.0019890977 5.0614892e-06)
(1.5023225 -0.0088294613 8.4040994e-07)
(1.6026824 -0.0069161009 7.0069988e-08)
(1.4756386 -0.00053841666 9.1481544e-06)
(1.5544343 -0.02431078 1.9111171e-06)
(1.6035794 -0.020080518 3.1327389e-07)
(1.459219 0.00063618045 1.2388255e-05)
(1.5877189 -0.009119756 2.8100243e-06)
(1.4846644 -0.0090231708 4.4423671e-07)
(1.4545454 -0.011964532 1.3770704e-05)
(1.5984079 0.0047373193 3.5866458e-06)
(1.5911781 0.0059959166 5.4838353e-07)
(1.5610924 -0.011954875 1.4769054e-05)
(1.5145825 -0.0094972617 4.2684465e-06)
(1.5997412 -0.0077015022 7.9203478e-07)
(1.5648257 0.0040397947 1.6121944e-05)
(1.6166489 -0.0070199503 4.9303564e-06)
(1.5168311 -0.0091667939 9.3968723e-07)
(1.4774172 0.0007318749 1.7015128e-05)
(1.6062016 0.0067758165 5.788385e-06)
(1.5176857 0.00097376274 1.1481399e-06)
(1.5061496 0.01508737 1.7647498e-05)
(1.5604666 -0.0028446493 6.2668937e-06)
(1.5570109 -0.0067614143 1.3305746e-06)
(1.4711532 0.0060243788 1.8364436e-05)
(1.6554144 0.0010653532 7.1533706e-06)
(1.5219202 -0.0022175935 1.5198082e-06)
(1.5127188 -0.014635695 1.9086205e-05)
(1.5684391 0.018598998 7.7016447e-06)
(1.5592986 0.015892733 1.7111437e-06)
(1.5497717 -0.0064396227 1.9670927e-05)
(1.4969313 0.0082370073 8.3528466e-06)
(1.5911974 0.0040643127 1.9313103e-06)
(1.475525 -0.0027708801 1.9881438e-05)
(1.5820796 -0.018479735 8.7206711e-06)
(1.5698944 -0.011641618 2.107806e-06)
(1.5880047 -0.024696488 2.0149681e-05)
(1.586422 -0.021142435 9.466277e-06)
(1.5747623 -0.010559464 2.293099e-06)
(1.6242847 -0.014896407 2.0234902e-05)
(1.5184102 -0.014038418 9.8372494e-06)
(1.5018301 -0.00545522 2.5073295e-06)
(1.6236724 -0.005648899 2.0123884e-05)
(1.531407 -0.017797541 1.025741e-05)
(1.5166781 -0.010072239 2.6892092e-06)
(1.7127837 -0.0027433683 2.0427344e-05)
(1.6076206 -0.0092356444 1.0727366e-05)
(1.5045993 -0.0093401073 2.8489166e-06)
(1.6891193 0.002364497 2.0816971e-05)
(1.6223051 0.0058330259 1.1169855e-05)
(1.5113835 0.0066120171 3.0476936e-06)
(1.6973645 0.0095783262 2.1430706e-05)
(1.5769944 0.020473765 1.1622019e-05)
(1.5162029 0.010596722 3.2256898e-06)
(1.5910729 0.010209792 2.1752086e-05)
(1.5756765 0.025829424 1.2046705e-05)
(1.5035925 0.011545527 3.4135231e-06)
(1.5930774 0.0012097885 2.1657633e-05)
(1.5310957 0.004017673 1.2369053e-05)
(1.5742461 0.0054729747 3.5736689e-06)
(1.6415724 -0.012089049 2.172019e-05)
(1.5316622 -0.015039351 1.2733874e-05)
(1.5815659 -0.0097604146 3.7796977e-06)
(1.6451885 -0.012169844 2.1950415e-05)
(1.5254289 -0.017793583 1.3084515e-05)
(1.5069443 -0.011246002 3.9483227e-06)
(1.7184776 -0.0017683573 2.2299658e-05)
(1.592956 -0.0069331889 1.3473445e-05)
(1.5271231 -0.0049509702 4.0989139e-06)
(1.5891143 0.0062133301 2.2265944e-05)
(1.6297442 0.0098779351 1.3830295e-05)
(1.5070304 0.0041992228 4.25405e-06)
(1.580429 0.012509452 2.1994978e-05)
(1.5532585 0.004499527 1.4123993e-05)
(1.4969126 0.0025761827 4.3853245e-06)
(1.5795259 0.018195986 2.185883e-05)
(1.6121709 0.004600116 1.4359661e-05)
(1.5042433 -0.0060654357 4.53972e-06)
(1.4784923 0.00024087829 2.1843269e-05)
(1.5891671 -0.011661847 1.4616471e-05)
(1.4859935 -0.0055882502 4.66719e-06)
(1.5581754 -0.015210735 2.234913e-05)
(1.573068 -0.012063879 1.4850207e-05)
(1.4757798 -0.004285297 4.8538801e-06)
(1.5541287 0.0027946481 2.2002355e-05)
(1.5106911 0.0088402696 1.5015916e-05)
(1.4868557 0.0056789423 4.8273172e-06)
(1.3348466 0.046719723 2.3596845e-05)
(1.2776477 0.11004268 1.5664703e-05)
(1.3793676 0.057514101 5.5095669e-06)
(0.84254883 0.37684544 1.162457e-05)
(0.80720086 0.93984703 9.9292042e-06)
(0.73741707 1.253704 5.4014542e-06)
(0.22199637 0.11396829 1.5433721e-06)
(0.18306036 0.36711156 3.0917755e-06)
(0.086781754 0.4984963 6.9622107e-07)
(-0.030832726 -0.013211643 1.2280231e-06)
(-0.029799938 -0.028196302 1.6749166e-06)
(-0.01977665 -0.033550568 5.6840626e-07)
(-0.0083057091 -0.0032759211 4.5225748e-07)
(-0.0079046352 -0.0083369716 7.2720876e-07)
(-0.0061456973 -0.010909763 3.2334891e-07)
(-0.0019406732 -0.00046857398 1.1929423e-07)
(-0.0015329163 -0.0011934922 2.3773655e-07)
(-0.00098140496 -0.0016411355 9.8350095e-08)
(-0.00081658568 -0.00018921269 2.2508971e-08)
(-0.00058187802 -0.00037154886 4.8532721e-08)
(-0.00022503479 -0.00043990591 -1.6551819e-08)
(-0.00041370608 -8.9135935e-05 -6.6682977e-09)
(-0.00029324506 -0.0001627576 -1.8538578e-08)
(-0.00010149077 -0.00016659521 -6.1597526e-08)
(-0.00025253232 -2.2705679e-05 -1.5820464e-08)
(-0.00019222297 -2.4562541e-05 -3.934565e-08)
(-9.6520047e-05 -1.9171256e-05 -7.2643045e-08)
(-0.00018522416 -1.2025491e-05 -1.5693565e-08)
(-0.00015695312 -7.7355842e-06 -4.0196501e-08)
(-0.00010786905 7.7130108e-06 -6.7303337e-08)
(-0.00014496858 -1.4844726e-05 -1.2703387e-08)
(-0.0001318192 -2.5125779e-05 -3.3895526e-08)
(-0.00010631876 -3.1281506e-05 -5.5762328e-08)
(-0.00010556459 -1.9032863e-05 -9.3333007e-09)
(-9.9404479e-05 -4.016183e-05 -2.6157047e-08)
(-8.5825581e-05 -6.0198568e-05 -4.3423536e-08)
(-6.7171061e-05 -1.6749245e-05 -6.8127901e-09)
(-6.4131001e-05 -3.7270833e-05 -1.956372e-08)
(-5.7203581e-05 -5.860022e-05 -3.2777765e-08)
(-3.7287203e-05 -1.0986589e-05 -5.0905364e-09)
(-3.589792e-05 -2.5058751e-05 -1.4536226e-08)
(-3.256736e-05 -3.9745478e-05 -2.4353919e-08)
(-1.7434411e-05 -6.0421154e-06 -3.8691205e-09)
(-1.6941728e-05 -1.2739002e-05 -1.0769364e-08)
(-1.5554477e-05 -2.0779641e-05 -1.7866614e-08)
(-5.4521687e-06 -4.0691458e-06 -2.8901332e-09)
(-5.3968432e-06 -6.1878037e-06 -7.8624048e-09)
(-5.0620525e-06 -8.9191029e-06 -1.2881996e-08)
(1.0379089e-06 -1.2010239e-06 -2.1144282e-09)
(8.3786542e-07 -3.1127247e-06 -5.5977724e-09)
(5.4893837e-07 -4.2031048e-06 -9.0675294e-09)
(4.0637066e-06 -6.2184695e-07 -1.4774268e-09)
(3.7246318e-06 -1.1147205e-06 -3.8579248e-09)
(3.1591577e-06 -1.3444373e-06 -6.1977687e-09)
(5.0882984e-06 -1.7479227e-07 -9.9328478e-10)
(4.7172524e-06 4.1402136e-07 -2.5646393e-09)
(4.039927e-06 -3.070805e-07 -4.1022742e-09)
(4.9656629e-06 4.8200081e-09 -6.4684366e-10)
(4.6068559e-06 5.5542236e-07 -1.6479945e-09)
(3.8939753e-06 3.35052e-07 -2.6317916e-09)
(4.1420175e-06 1.9357734e-07 -4.1753737e-10)
(3.8038881e-06 8.7863782e-07 -1.0357272e-09)
(3.1213475e-06 1.2449823e-06 -1.644907e-09)
(2.8426621e-06 3.64218e-07 -2.7353842e-10)
(2.5295717e-06 1.2164214e-06 -6.4540292e-10)
(1.8994063e-06 1.827061e-06 -1.0087158e-09)
(1.2123838e-06 4.8693421e-07 -1.8351198e-10)
(9.2543361e-07 1.469692e-06 -4.023485e-10)
(3.5133641e-07 2.2437092e-06 -6.1023568e-10)
(-6.2354428e-07 5.6034708e-07 -1.2614401e-10)
(-8.8634475e-07 1.611631e-06 -2.5187406e-10)
(-1.4040733e-06 2.5035962e-06 -3.6593857e-10)
(-2.537547e-06 5.8625793e-07 -9.0367339e-11)
(-2.7785822e-06 1.6296531e-06 -1.6082871e-10)
(-3.2402733e-06 2.5320914e-06 -2.197493e-10)
(-4.4066843e-06 5.4798938e-07 -6.6708853e-11)
(-4.626988e-06 1.5094005e-06 -1.0534655e-10)
(-5.0338295e-06 2.3675575e-06 -1.335673e-10)
(-6.1321625e-06 4.8696387e-07 -5.313164e-11)
(-6.333059e-06 1.3201828e-06 -7.2693324e-11)
(-6.6913938e-06 2.0833923e-06 -8.3364383e-11)
(-7.6521922e-06 4.1355603e-07 -4.5391989e-11)
(-7.8360687e-06 1.1527779e-06 -5.4680856e-11)
(-8.1490083e-06 1.78284e-06 -5.5104882e-11)
(-8.9331569e-06 3.336539e-07 -4.0326091e-11)
(-9.1016597e-06 9.6052314e-07 -4.4099288e-11)
(-9.3706843e-06 1.4843864e-06 -3.9625994e-11)
(-9.9576929e-06 2.5079057e-07 -3.7084279e-11)
(-1.0111651e-05 7.5354065e-07 -3.7753166e-11)
(-1.0342236e-05 1.1641495e-06 -3.1117077e-11)
(-1.0721916e-05 1.6739311e-07 -3.5060216e-11)
(-1.0862139e-05 5.457784e-07 -3.389434e-11)
(-1.105864e-05 8.3358166e-07 -2.6415268e-11)
(-1.1231715e-05 8.7952316e-08 -3.3901207e-11)
(-1.1358933e-05 3.4948801e-07 -3.1527449e-11)
(-1.1525176e-05 5.1433362e-07 -2.3828847e-11)
(-1.1500587e-05 1.6538861e-08 -3.3296001e-11)
(-1.1615706e-05 1.7181827e-07 -2.9903651e-11)
(-1.1755676e-05 2.203657e-07 -2.2327674e-11)
(-1.1547846e-05 -5.5291159e-08 -3.2325634e-11)
(-1.1651949e-05 -9.5576272e-09 -2.8374361e-11)
(-1.1769092e-05 -4.9034488e-08 -2.1510034e-11)
(-1.1397016e-05 -1.1449391e-07 -3.2191779e-11)
(-1.1491149e-05 -1.6074002e-07 -2.7890256e-11)
(-1.1588575e-05 -2.9224881e-07 -2.135436e-11)
(-1.1074491e-05 -1.6453522e-07 -3.2110716e-11)
(-1.1159467e-05 -2.8911361e-07 -2.7526377e-11)
(-1.1240341e-05 -5.0133423e-07 -2.1365164e-11)
(-1.0608498e-05 -2.0714692e-07 -3.1944303e-11)
(-1.0685113e-05 -3.9449542e-07 -2.7034599e-11)
(-1.0752207e-05 -6.6979419e-07 -2.1313251e-11)
(-1.0028059e-05 -2.3868021e-07 -3.1843707e-11)
(-1.0097096e-05 -4.7472134e-07 -2.6587116e-11)
(-1.0152835e-05 -7.9755862e-07 -2.1245778e-11)
(-9.3620455e-06 -2.6071087e-07 -3.1732472e-11)
(-9.4242176e-06 -5.3342778e-07 -2.6153068e-11)
(-9.4708109e-06 -8.9038148e-07 -2.1154947e-11)
(-8.6383213e-06 -2.7375719e-07 -3.1631529e-11)
(-8.6943595e-06 -5.7470212e-07 -2.5699022e-11)
(-8.7337476e-06 -9.5419322e-07 -2.1033329e-11)
(-7.8832139e-06 -2.7782478e-07 -3.1566176e-11)
(-7.9338255e-06 -5.9160182e-07 -2.5359023e-11)
(-7.9676984e-06 -9.7936016e-07 -2.0977186e-11)
(-7.1210669e-06 -2.7382621e-07 -3.1558633e-11)
(-7.1668988e-06 -5.8930586e-07 -2.5112003e-11)
(-7.1966898e-06 -9.7413237e-07 -2.097867e-11)
(-6.3738204e-06 -2.6357682e-07 -3.1520558e-11)
(-6.4154662e-06 -5.6842597e-07 -2.4983529e-11)
(-6.4423513e-06 -9.3717867e-07 -2.1080083e-11)
(-5.6607285e-06 -2.4628415e-07 -3.1553705e-11)
(-5.6987532e-06 -5.3501603e-07 -2.4876665e-11)
(-5.7236819e-06 -8.8141222e-07 -2.1169842e-11)
(-4.9984487e-06 -2.2343571e-07 -3.1593843e-11)
(-5.0334107e-06 -4.8822118e-07 -2.4814222e-11)
(-5.0571266e-06 -8.0355895e-07 -2.1275224e-11)
(-4.4018783e-06 -1.9551408e-07 -3.168445e-11)
(-4.4342862e-06 -4.2826803e-07 -2.4842877e-11)
(-4.4573446e-06 -7.0391917e-07 -2.1407042e-11)
(-3.8856906e-06 -1.6328403e-07 -3.1821916e-11)
(-3.9160149e-06 -3.5726264e-07 -2.4927216e-11)
(-3.9387874e-06 -5.8623277e-07 -2.1481365e-11)
(-3.4653601e-06 -1.2734391e-07 -3.1938259e-11)
(-3.4940367e-06 -2.7679119e-07 -2.4881687e-11)
(-3.5167137e-06 -4.5263137e-07 -2.1263855e-11)
(-3.1653907e-06 -8.7789663e-08 -3.1883741e-11)
(-3.1928704e-06 -1.8864908e-07 -2.427639e-11)
(-3.2154461e-06 -3.0820551e-07 -2.0232619e-11)
(-2.996584e-06 -4.4755945e-08 -3.1275237e-11)
(-3.0233185e-06 -9.6075099e-08 -2.216848e-11)
(-3.0456692e-06 -1.6121986e-07 -1.7479037e-11)
(-3.0192118e-06 -6.8079346e-09 -2.8427648e-11)
(-3.0459628e-06 -1.3115281e-08 -1.6419232e-11)
(-3.0674566e-06 -2.5622714e-08 -1.1572537e-11)
(-0.04583662 1.9521416 -3.7678372e-07)
(-0.032705795 1.696508 -3.4615075e-06)
(-0.062024382 0.34143104 -2.5310543e-07)
(-0.043339658 0.15119574 -1.0169856e-06)
(-0.015741849 -0.04104809 -2.154478e-07)
(-0.011886706 -0.043043336 -6.3659799e-07)
(-0.004945205 -0.013193717 -1.1699422e-07)
(-0.0045979519 -0.014657282 -4.1347843e-07)
(-0.0008055897 -0.0023462581 -1.1754359e-07)
(-0.00096704368 -0.0031070712 -3.0063043e-07)
(-1.0569627e-05 -0.00048203134 -1.2834778e-07)
(5.5864525e-05 -0.00057352627 -2.3823882e-07)
(5.4374529e-05 -0.00010000289 -1.2713261e-07)
(0.00014109747 -2.8143285e-05 -1.9546788e-07)
(-6.2529793e-06 4.3893112e-05 -1.1553294e-07)
(7.0743831e-05 0.0001365411 -1.6043584e-07)
(-5.5924696e-05 3.9900167e-05 -9.7895071e-08)
(-3.2448088e-06 9.1070811e-05 -1.2908666e-07)
(-7.6456024e-05 -2.5764194e-05 -7.8619421e-08)
(-4.8107351e-05 -6.6955351e-06 -1.0121227e-07)
(-6.8685161e-05 -7.1859574e-05 -6.0787799e-08)
(-5.0390825e-05 -7.4267412e-05 -7.754506e-08)
(-4.7837355e-05 -7.536935e-05 -4.585071e-08)
(-3.685367e-05 -8.5781526e-05 -5.8294766e-08)
(-2.7731488e-05 -5.2497232e-05 -3.3999474e-08)
(-2.1592061e-05 -6.2483475e-05 -4.3123855e-08)
(-1.3255756e-05 -2.8340441e-05 -2.4814731e-08)
(-9.922879e-06 -3.3986918e-05 -3.1373448e-08)
(-4.1976421e-06 -1.1703081e-05 -1.7772284e-08)
(-2.6079568e-06 -1.3559524e-05 -2.2381259e-08)
(5.1747948e-07 -3.83051e-06 -1.2430607e-08)
(9.727654e-07 -3.9160416e-06 -1.5594199e-08)
(2.5967081e-06 -8.6402145e-07 -8.455575e-09)
(2.3753278e-06 -5.7523649e-07 -1.0575407e-08)
(3.2470885e-06 -3.9196523e-07 -5.5814739e-09)
(2.6447966e-06 2.440146e-07 -6.9670967e-09)
(3.0527653e-06 6.3600492e-07 -3.5764163e-09)
(2.2646193e-06 1.107839e-06 -4.4586972e-09)
(2.2824875e-06 1.5556764e-06 -2.2300423e-09)
(1.4335584e-06 1.9773542e-06 -2.7759657e-09)
(1.0913054e-06 2.3430313e-06 -1.3583525e-09)
(2.4730655e-07 2.9669866e-06 -1.6854114e-09)
(-4.0104901e-07 2.9905088e-06 -8.1143024e-10)
(-1.2201751e-06 3.6135649e-06 -1.000523e-09)
(-2.0912151e-06 3.4309678e-06 -4.7708384e-10)
(-2.8623138e-06 4.3636632e-06 -5.8215847e-10)
(-3.8563865e-06 3.4524654e-06 -2.7751677e-10)
(-4.563374e-06 4.2978004e-06 -3.3269321e-10)
(-5.5814773e-06 3.2133706e-06 -1.6086235e-10)
(-6.2200028e-06 4.0135024e-06 -1.8725973e-10)
(-7.1772996e-06 2.8639914e-06 -9.3840437e-11)
(-7.7365518e-06 3.5875446e-06 -1.0426644e-10)
(-8.5707883e-06 2.4352555e-06 -5.6185165e-11)
(-9.0592595e-06 3.0584631e-06 -5.8046055e-11)
(-9.7311116e-06 2.0029549e-06 -3.5813421e-11)
(-1.0156589e-05 2.4981815e-06 -3.3178282e-11)
(-1.0651096e-05 1.5639895e-06 -2.5073053e-11)
(-1.1010159e-05 1.9332826e-06 -2.0293458e-11)
(-1.1321278e-05 1.1175473e-06 -1.9519902e-11)
(-1.1625771e-05 1.3635092e-06 -1.3881017e-11)
(-1.1745142e-05 6.7676962e-07 -1.6773994e-11)
(-1.2004724e-05 8.1076284e-07 -1.0929639e-11)
(-1.1938163e-05 2.6912941e-07 -1.5516907e-11)
(-1.2153547e-05 2.9607664e-07 -9.8173846e-12)
(-1.1919215e-05 -9.0486399e-08 -1.5146664e-11)
(-1.2095845e-05 -1.7055935e-07 -9.6582428e-12)
(-1.1711113e-05 -4.3216303e-07 -1.5217223e-11)
(-1.1854311e-05 -5.9771141e-07 -9.9362908e-12)
(-1.1339581e-05 -7.1802783e-07 -1.5517289e-11)
(-1.1454534e-05 -9.5147099e-07 -1.045888e-11)
(-1.0832153e-05 -9.4800933e-07 -1.5826582e-11)
(-1.0923747e-05 -1.2402508e-06 -1.1021054e-11)
(-1.0217098e-05 -1.1249405e-06 -1.6097608e-11)
(-1.0289772e-05 -1.4653974e-06 -1.1540102e-11)
(-9.5225985e-06 -1.2526811e-06 -1.6323734e-11)
(-9.5803335e-06 -1.6250988e-06 -1.2012104e-11)
(-8.7758971e-06 -1.3346774e-06 -1.6516743e-11)
(-8.8222157e-06 -1.7236027e-06 -1.2440479e-11)
(-8.0026713e-06 -1.3672084e-06 -1.672245e-11)
(-8.0406247e-06 -1.7597098e-06 -1.2852742e-11)
(-7.2265559e-06 -1.3587172e-06 -1.6949921e-11)
(-7.2587178e-06 -1.7462234e-06 -1.3250999e-11)
(-6.4687928e-06 -1.3092458e-06 -1.7226501e-11)
(-6.4972642e-06 -1.6855382e-06 -1.3644302e-11)
(-5.7480331e-06 -1.2301387e-06 -1.7479745e-11)
(-5.774463e-06 -1.5818435e-06 -1.4015399e-11)
(-5.0804176e-06 -1.1200451e-06 -1.7717482e-11)
(-5.106046e-06 -1.4379619e-06 -1.4350869e-11)
(-4.480312e-06 -9.802678e-07 -1.7922164e-11)
(-4.5060071e-06 -1.2576807e-06 -1.4613011e-11)
(-3.9618876e-06 -8.1569833e-07 -1.7985181e-11)
(-3.9881627e-06 -1.0455233e-06 -1.4692752e-11)
(-3.5401265e-06 -6.2906579e-07 -1.7668276e-11)
(-3.567131e-06 -8.059057e-07 -1.4369282e-11)
(-3.2390066e-06 -4.2827082e-07 -1.6494923e-11)
(-3.2664276e-06 -5.4897126e-07 -1.3251476e-11)
(-3.0690631e-06 -2.2540609e-07 -1.3763849e-11)
(-3.0963909e-06 -2.898584e-07 -1.082863e-11)
(-3.0895216e-06 -3.7246009e-08 -8.6158715e-12)
(-3.1151054e-06 -4.8992807e-08 -6.5752696e-12)
(-0.00050424188 -3.0355032e-06 -1.1134142e-07)
(-0.00049374264 -7.1017409e-05 -2.6389676e-07)
(-0.00048154981 -7.9825861e-05 -3.7311365e-07)
(-0.00047685291 -0.00011869772 -4.4184673e-07)
(-0.00048357145 -0.00014019354 -4.7875317e-07)
(-0.00049430712 -0.00017080829 -4.9365188e-07)
(-0.00049778814 -0.00020654141 -4.9395459e-07)
(-0.00048928899 -0.00026094968 -4.8487538e-07)
(-0.00046784083 -0.00032728253 -4.7004738e-07)
(-0.00043569797 -0.00040039521 -4.5198268e-07)
(-0.00039649366 -0.00047779927 -4.3242238e-07)
(-0.00035400948 -0.00055659203 -4.124129e-07)
(-0.0003109382 -0.00063402218 -3.9245356e-07)
(-0.00026901253 -0.00070696789 -3.7263079e-07)
(-0.00022927788 -0.00077250223 -3.5279891e-07)
(-0.00019251197 -0.00082961605 -3.3267614e-07)
(-0.00015931648 -0.00087958032 -3.1186842e-07)
(-0.00012996612 -0.0009219011 -2.898157e-07)
(-0.00010412518 -0.00095400317 -2.6590278e-07)
(-8.1513934e-05 -0.00097673289 -2.3941624e-07)
(-6.1903684e-05 -0.00098993165 -2.0958891e-07)
(-4.4823648e-05 -0.00099288237 -1.7527843e-07)
(-2.9811341e-05 -0.00098651147 -1.3550775e-07)
(-1.668001e-05 -0.00097584123 -8.9713638e-08)
(-5.3766544e-06 -0.00092810762 -3.7411995e-08)
(0.00027587074 -0.00011893743 -1.2735916e-07)
(0.00028069891 -0.00050985805 -2.9775268e-07)
(0.0002813497 -0.00073467994 -4.1322439e-07)
(0.00027879375 -0.0010574212 -4.7957697e-07)
(0.00029038931 -0.0013181892 -5.1053563e-07)
(0.00031966196 -0.0016035841 -5.1940254e-07)
(0.0003538899 -0.0018865986 -5.1463802e-07)
(0.00038754096 -0.0021885863 -5.0167883e-07)
(0.00040998374 -0.0025128209 -4.8394238e-07)
(0.00042006956 -0.0028345867 -4.6365771e-07)
(0.00041943828 -0.0031486159 -4.4252614e-07)
(0.00041033174 -0.0034487429 -4.2146125e-07)
(0.00039482802 -0.003728245 -4.0084106e-07)
(0.00037431095 -0.0039859928 -3.805994e-07)
(0.0003493544 -0.0042218347 -3.605029e-07)
(0.00032058987 -0.0044366074 -3.4024358e-07)
(0.00028898919 -0.0046409092 -3.194793e-07)
(0.00025547188 -0.0048280642 -2.9751882e-07)
(0.00022041686 -0.0049747518 -2.7379337e-07)
(0.00018435506 -0.0050733097 -2.4752532e-07)
(0.00014805111 -0.0051213059 -2.1824391e-07)
(0.00011217096 -0.0051212229 -1.8413998e-07)
(7.7132369e-05 -0.0050766382 -1.4388914e-07)
(4.3378129e-05 -0.0049729757 -9.5869421e-08)
(1.1969534e-05 -0.0047476428 -4.1493975e-08)
(0.0011533045 -0.0003188692 -1.6574074e-07)
(0.001160384 -0.001528208 -3.735087e-07)
(0.001172599 -0.0020636942 -4.9761779e-07)
(0.0012094549 -0.0029590707 -5.5437451e-07)
(0.0012630606 -0.003692894 -5.7160167e-07)
(0.0013088578 -0.0044704669 -5.6808666e-07)
(0.0013326914 -0.0052490762 -5.5332515e-07)
(0.0013262543 -0.006180818 -5.3311651e-07)
(0.001295491 -0.0072323402 -5.1009835e-07)
(0.0012450512 -0.0082012076 -4.8562582e-07)
(0.0011793285 -0.0090458588 -4.6163803e-07)
(0.0011032912 -0.0097625784 -4.387069e-07)
(0.0010210952 -0.010350383 -4.1703686e-07)
(0.00093438452 -0.010817762 -3.961861e-07)
(0.00084512136 -0.011171317 -3.7575483e-07)
(0.00075498748 -0.011412847 -3.5537439e-07)
(0.00066531709 -0.011534476 -3.3509812e-07)
(0.00057692625 -0.011554043 -3.1357822e-07)
(0.00049019911 -0.011500409 -2.9067311e-07)
(0.00040562162 -0.011389149 -2.6562755e-07)
(0.00032403702 -0.01123025 -2.3753712e-07)
(0.0002455499 -0.011032651 -2.0493312e-07)
(0.00016992205 -0.010803082 -1.6578711e-07)
(9.7530745e-05 -0.010511999 -1.1663453e-07)
(2.9987635e-05 -0.010112692 -5.7306659e-08)
(0.0036989787 -0.0010392235 -2.4828157e-07)
(0.0036522318 -0.0046923771 -5.1406982e-07)
(0.0036043396 -0.0060057475 -6.3659152e-07)
(0.0034583079 -0.0092196983 -6.6779598e-07)
(0.0032756306 -0.012104091 -6.6039334e-07)
(0.0030422215 -0.014677128 -6.3748797e-07)
(0.0027840437 -0.016506146 -6.0791052e-07)
(0.0025143671 -0.017474557 -5.7860489e-07)
(0.0022522071 -0.017760026 -5.4958112e-07)
(0.0020015681 -0.017621201 -5.1924066e-07)
(0.0017686197 -0.017166587 -4.9159408e-07)
(0.0015544827 -0.01651757 -4.6619289e-07)
(0.0013579907 -0.015693755 -4.4347281e-07)
(0.0011663896 -0.014748445 -4.2203503e-07)
(0.00099407084 -0.013733825 -4.0132008e-07)
(0.00084128768 -0.012695308 -3.8105503e-07)
(0.00070657736 -0.011671898 -3.6090493e-07)
(0.00058802641 -0.01069723 -3.4037739e-07)
(0.0004838826 -0.0097942602 -3.1896962e-07)
(0.00039192805 -0.0089829716 -2.9603107e-07)
(0.00030946497 -0.0082761764 -2.7072094e-07)
(0.00023433119 -0.0076784678 -2.4181096e-07)
(0.00016509602 -0.007190128 -2.074541e-07)
(9.992462e-05 -0.0067691994 -1.645527e-07)
(3.6906912e-05 -0.0064647295 -1.0338097e-07)
(0.011486855 -0.0087057937 -4.3638814e-07)
(0.0091693953 -0.025642336 -7.5224358e-07)
(0.0080120715 -0.028131244 -8.3730371e-07)
(0.0062938528 -0.032436111 -8.2505409e-07)
(0.0048777074 -0.029892349 -7.855883e-07)
(0.0036396074 -0.026113222 -7.3749467e-07)
(0.0026055373 -0.021417351 -6.8989104e-07)
(0.001782091 -0.016456339 -6.4555019e-07)
(0.001138579 -0.011497556 -6.0611032e-07)
(0.00064181155 -0.0069128512 -5.6990413e-07)
(0.00026304914 -0.0027669204 -5.3732938e-07)
(-1.6806306e-05 0.00079219361 -5.0709869e-07)
(-0.00021764174 0.0041037804 -4.8292741e-07)
(-0.00034624 0.0072635063 -4.6010323e-07)
(-0.00042719074 0.010167168 -4.3814315e-07)
(-0.00046784986 0.012687608 -4.1719198e-07)
(-0.00047659023 0.014793002 -3.9690999e-07)
(-0.00046022604 0.016501146 -3.7687592e-07)
(-0.00042426254 0.01784031 -3.5663265e-07)
(-0.00037338807 0.018839674 -3.356645e-07)
(-0.00031203992 0.019524756 -3.1332746e-07)
(-0.00024371591 0.019921536 -2.8870976e-07)
(-0.00017067763 0.020028013 -2.6033373e-07)
(-9.6202474e-05 0.019901659 -2.3260674e-07)
(-2.1888926e-05 0.01920259 -2.0497801e-07)
(0.014212579 0.023330168 -7.9792066e-07)
(0.003480176 -0.0014017403 -1.1286096e-06)
(0.00079711991 0.048252624 -1.1312844e-06)
(-0.0010426231 0.05103097 -1.0583897e-06)
(-0.0026534319 0.065298565 -9.8152278e-07)
(-0.0038522607 0.075616157 -8.9522119e-07)
(-0.0045177723 0.082806364 -8.17732e-07)
(-0.0047217027 0.088802798 -7.5036546e-07)
(-0.0046413053 0.093216537 -6.9184923e-07)
(-0.0044203469 0.095959162 -6.4186795e-07)
(-0.0041307895 0.097520619 -5.9970555e-07)
(-0.0037832219 0.097999283 -5.5584695e-07)
(-0.0034322862 0.097729954 -5.3080878e-07)
(-0.003088669 0.096423788 -5.0384389e-07)
(-0.0027423029 0.094266176 -4.7735073e-07)
(-0.0024046592 0.091839216 -4.5370193e-07)
(-0.0020857539 0.089209432 -4.3178908e-07)
(-0.0017864221 0.086461013 -4.109476e-07)
(-0.001505819 0.083671098 -3.9066049e-07)
(-0.0012421302 0.08089786 -3.7045604e-07)
(-0.00099270795 0.078178271 -3.498353e-07)
(-0.00075534919 0.075554703 -3.2818234e-07)
(-0.00052796002 0.072999167 -3.0485089e-07)
(-0.0003087587 0.070699237 -2.8071274e-07)
(-9.2441758e-05 0.067217673 -2.570536e-07)
(-0.0018684986 1.1754233 -2.5273596e-06)
(-0.00090039249 0.96241712 -2.0053624e-06)
(-0.0011244932 0.86649184 -1.6246334e-06)
(-0.00078536304 0.77411543 -1.3353098e-06)
(-0.00065790704 0.6779941 -1.1204619e-06)
(-0.00055656544 0.58652121 -9.6349074e-07)
(-0.00046676578 0.50808296 -8.4711383e-07)
(-0.00039119959 0.44434337 -7.6027667e-07)
(-0.00032552563 0.39176423 -6.8984673e-07)
(-0.00027212739 0.34689487 -6.3608644e-07)
(-0.0002214952 0.30818076 -5.948996e-07)
(-0.00017759867 0.27486661 -5.5896672e-07)
(-0.00014051675 0.24637833 -5.288962e-07)
(-0.00011876093 0.22199025 -5.0247498e-07)
(-9.8707343e-05 0.20104405 -4.7861138e-07)
(-8.1801356e-05 0.18305868 -4.5677457e-07)
(-6.7865434e-05 0.16760453 -4.3634102e-07)
(-5.6252756e-05 0.15431904 -4.1679044e-07)
(-4.6350501e-05 0.14289994 -3.9772109e-07)
(-3.7676282e-05 0.13309812 -3.7878953e-07)
(-2.9810316e-05 0.12469764 -3.5964064e-07)
(-2.239171e-05 0.11755675 -3.3978563e-07)
(-1.535832e-05 0.11143381 -3.1892882e-07)
(-8.7320211e-06 0.10661182 -2.9683676e-07)
(-2.4121385e-06 0.10059857 -2.7293191e-07)
(-0.01321857 0.089970472 -1.2350958e-06)
(-0.0027244726 0.098082896 -1.2753383e-06)
(-0.00023103988 0.10393995 -1.2289324e-06)
(0.0015193844 0.10573918 -1.1378271e-06)
(0.0030447838 0.10787969 -1.0348672e-06)
(0.0041651711 0.10960611 -9.3470282e-07)
(0.0047706628 0.11127831 -8.4514053e-07)
(0.0049257193 0.11280348 -7.6780384e-07)
(0.0048046266 0.11359674 -6.8654654e-07)
(0.0045346743 0.11365678 -6.4212611e-07)
(0.0042210212 0.11294341 -6.0157132e-07)
(0.0038845985 0.11125737 -5.5854504e-07)
(0.0035137377 0.10872296 -5.2242187e-07)
(0.003142348 0.10569509 -4.9153015e-07)
(0.0027823917 0.10241578 -4.6453361e-07)
(0.0024399479 0.099008926 -4.4043068e-07)
(0.0021150238 0.095558433 -4.1843045e-07)
(0.0018093919 0.092132507 -3.978889e-07)
(0.0015229477 0.088781951 -3.7826188e-07)
(0.0012542287 0.08554441 -3.5904449e-07)
(0.001001159 0.082441538 -3.3968067e-07)
(0.00076145026 0.079503094 -3.1943669e-07)
(0.0005324382 0.076691677 -2.986398e-07)
(0.00031191419 0.074199189 -2.7608465e-07)
(9.4033059e-05 0.070503782 -2.5339734e-07)
(-0.0093828192 -0.040957675 -8.5948242e-07)
(-0.0079612833 -0.038999563 -9.2421009e-07)
(-0.0065311591 -0.037333026 -9.1090933e-07)
(-0.0051121634 -0.033864424 -8.6457998e-07)
(-0.0038059719 -0.028883533 -8.0608366e-07)
(-0.0026804983 -0.02323406 -7.4463281e-07)
(-0.0017562538 -0.017423334 -6.8752152e-07)
(-0.0010324214 -0.011776415 -6.3528792e-07)
(-0.0004825836 -0.0067307021 -5.8696865e-07)
(-6.7657125e-05 -0.0022687198 -5.5080747e-07)
(0.00023217714 0.0015634574 -5.1756747e-07)
(0.00044083471 0.0053067756 -4.8656089e-07)
(0.000577315 0.008880449 -4.5873858e-07)
(0.00065800881 0.012072463 -4.337911e-07)
(0.00069423333 0.014818025 -4.1112796e-07)
(0.00069421368 0.017117404 -3.9020844e-07)
(0.00066886048 0.019007475 -3.7059647e-07)
(0.0006231962 0.020528352 -3.5180776e-07)
(0.00056119726 0.021700543 -3.3335257e-07)
(0.00048655268 0.022545976 -3.146736e-07)
(0.00040251667 0.023086338 -2.9499224e-07)
(0.00031201766 0.023342742 -2.7293663e-07)
(0.00021786924 0.02332537 -2.5132477e-07)
(0.00012331607 0.023078198 -2.25163e-07)
(3.0049071e-05 0.022227883 -1.9950493e-07)
(-0.0045597067 -0.016152032 -5.8678002e-07)
(-0.0043982685 -0.018573817 -6.6236085e-07)
(-0.0041792829 -0.021284004 -6.7712523e-07)
(-0.0038845914 -0.023261193 -6.6027001e-07)
(-0.0035436504 -0.024499309 -6.3054638e-07)
(-0.0031744466 -0.024890584 -5.9814844e-07)
(-0.0028209215 -0.02461507 -5.5867032e-07)
(-0.0024857978 -0.023896013 -5.2177772e-07)
(-0.0021737204 -0.022904792 -4.8835135e-07)
(-0.0018951787 -0.02171397 -4.5980647e-07)
(-0.0016435299 -0.020409314 -4.338683e-07)
(-0.0014107949 -0.018973714 -4.099824e-07)
(-0.0012012844 -0.017477644 -3.8811791e-07)
(-0.0010169058 -0.015974105 -3.6807988e-07)
(-0.00085612897 -0.014498213 -3.4933655e-07)
(-0.0007177817 -0.013082703 -3.3146886e-07)
(-0.0005963573 -0.011765081 -3.1436281e-07)
(-0.0004905562 -0.010574575 -2.9745109e-07)
(-0.00039897465 -0.0095156999 -2.802109e-07)
(-0.00031969532 -0.0085901912 -2.6201488e-07)
(-0.00025066617 -0.0077986614 -2.4199856e-07)
(-0.0001897263 -0.0071406808 -2.1897546e-07)
(-0.00013474877 -0.0066127942 -1.9172019e-07)
(-8.3330684e-05 -0.0061744192 -1.548437e-07)
(-3.2639118e-05 -0.0058769836 -9.939088e-08)
(-0.0011816219 -0.0039772669 -4.2591444e-07)
(-0.0013254686 -0.0049068609 -4.9535893e-07)
(-0.0014705645 -0.0058215585 -5.2249304e-07)
(-0.0015974377 -0.0067401398 -5.2318762e-07)
(-0.0016614938 -0.0076803288 -5.0920459e-07)
(-0.0016807756 -0.0087768649 -4.8773581e-07)
(-0.0016548718 -0.0099502888 -4.6144788e-07)
(-0.0015923397 -0.010959044 -4.3485642e-07)
(-0.0015048328 -0.011799812 -4.0981964e-07)
(-0.0014035584 -0.012476926 -3.8702526e-07)
(-0.0012988107 -0.013012291 -3.6603154e-07)
(-0.0011921561 -0.013408168 -3.4654762e-07)
(-0.0010851126 -0.013672771 -3.284093e-07)
(-0.00097953849 -0.013787976 -3.1177485e-07)
(-0.00087657692 -0.013779169 -2.9576257e-07)
(-0.00077577202 -0.013687619 -2.8043211e-07)
(-0.00068002279 -0.013538062 -2.6512868e-07)
(-0.00058819303 -0.013344976 -2.4955298e-07)
(-0.00049955535 -0.013117243 -2.3321404e-07)
(-0.00041385859 -0.012861765 -2.1548551e-07)
(-0.00033097105 -0.012584108 -1.9542275e-07)
(-0.00025084314 -0.012289659 -1.7162845e-07)
(-0.00017359165 -0.011981704 -1.420549e-07)
(-9.9625336e-05 -0.011622405 -1.0243127e-07)
(-3.0804398e-05 -0.011170491 -5.196458e-08)
(2.0193325e-05 -0.00080460872 -3.2364825e-07)
(-3.5731921e-05 -0.001137492 -3.7887492e-07)
(-0.0001087175 -0.001523101 -4.0728446e-07)
(-0.00021868122 -0.0019343883 -4.1605335e-07)
(-0.00032712292 -0.0023513607 -4.1190934e-07)
(-0.00042843973 -0.0028058194 -3.9985612e-07)
(-0.00050226529 -0.0032893984 -3.8313764e-07)
(-0.00054867409 -0.0037501606 -3.6460736e-07)
(-0.00057307869 -0.0041724593 -3.4598439e-07)
(-0.00058089931 -0.0045530927 -3.2810422e-07)
(-0.00056993422 -0.0048946279 -3.11152e-07)
(-0.00054828988 -0.005197724 -2.9512428e-07)
(-0.00051903981 -0.0054768151 -2.7996837e-07)
(-0.00048437066 -0.0057600083 -2.6562638e-07)
(-0.00044592005 -0.006040444 -2.517702e-07)
(-0.00040432414 -0.006281168 -2.3818781e-07)
(-0.00036101668 -0.0064738371 -2.2449613e-07)
(-0.00031664847 -0.0066165506 -2.1032524e-07)
(-0.00027163989 -0.0067090592 -1.9520348e-07)
(-0.00022640267 -0.0067509966 -1.7868479e-07)
(-0.00018133501 -0.0067433895 -1.5996733e-07)
(-0.0001369128 -0.006689344 -1.3765555e-07)
(-9.3714716e-05 -0.0065934223 -1.1045999e-07)
(-5.2368133e-05 -0.0064376371 -7.6077286e-08)
(-1.4434581e-05 -0.0061485764 -3.4989663e-08)
(0.00018030001 3.4352549e-05 -2.5311687e-07)
(0.00018614457 6.1217368e-05 -2.9459356e-07)
(0.00018346437 3.4546654e-05 -3.1963801e-07)
(0.00017456925 -3.9545631e-05 -3.3098312e-07)
(0.00013688198 -0.00015193578 -3.3217469e-07)
(9.5458104e-05 -0.00028885023 -3.2640475e-07)
(4.9015506e-05 -0.000442508 -3.162024e-07)
(2.9587689e-06 -0.0006072284 -3.0361677e-07)
(-3.8616065e-05 -0.00077596607 -2.9006278e-07)
(-7.3397137e-05 -0.00093519251 -2.7637833e-07)
(-9.5653516e-05 -0.0010831624 -2.6296314e-07)
(-0.00010964778 -0.0012198065 -2.4998065e-07)
(-0.00011679839 -0.0013415769 -2.374694e-07)
(-0.00011824441 -0.0014503913 -2.2538075e-07)
(-0.00011495728 -0.0015457082 -2.1354788e-07)
(-0.00010805486 -0.0016249963 -2.0176761e-07)
(-9.903045e-05 -0.0016891268 -1.8976482e-07)
(-8.8548379e-05 -0.0017384229 -1.7722585e-07)
(-7.7140464e-05 -0.0017729589 -1.6377971e-07)
(-6.5138409e-05 -0.001792701 -1.4901669e-07)
(-5.2820205e-05 -0.0017978437 -1.3242799e-07)
(-4.0465678e-05 -0.0017890652 -1.1329196e-07)